<event>
 5    1  0.3245943E-002  0.1250021E+03  0.7818608E-02  0.1235066E+00
          4   -1    0    0  501    0  0.00000000000E+00  0.00000000000E+00  0.61885598192E+02  0.61898628124E+02  0.12700000000E+01 0. -1.
         -4   -1    0    0    0  501 -0.00000000000E+00 -0.00000000000E+00 -0.63096571739E+02  0.63109351646E+02  0.12700000000E+01 0. -1.
         25    2    1    2    0    0  0.00000000000E+00  0.00000000000E+00 -0.12109735466E+01  0.12500797977E+03  0.12500211418E+03 0.  0.
    9000005    1    3    3    0    0 -0.57617125611E+02 -0.15551119390E+02 -0.19148515817E+02  0.62683619359E+02  0.10000000000E+01 0.  0.
    9000005    1    3    3    0    0  0.57617125611E+02  0.15551119390E+02  0.17937542270E+02  0.62324360411E+02  0.10000000000E+01 0.  0.
<mgrwt>
<rscale>  0 0.12500211E+03</rscale>
<asrwt>0</asrwt>
<pdfrwt beam="1">  1        4 0.95228466E-02 0.12500211E+03</pdfrwt>
<pdfrwt beam="2">  1       -4 0.97091503E-02 0.12500211E+03</pdfrwt>
<totfact> 0.10452190E+04</totfact>
</mgrwt>
</event>
<event>
 5    1  0.3245943E-002  0.1249990E+03  0.7818608E-02  0.1235071E+00
         -4   -1    0    0    0  501 -0.00000000000E+00  0.00000000000E+00  0.19958361164E+03  0.19958765226E+03  0.12700000000E+01 0.  1.
          4   -1    0    0  501    0  0.00000000000E+00 -0.00000000000E+00 -0.19546830447E+02  0.19588044326E+02  0.12700000000E+01 0.  1.
         25    2    1    2    0    0  0.00000000000E+00  0.00000000000E+00  0.18003678119E+03  0.21917569658E+03  0.12499897356E+03 0.  0.
    9000005    1    3    3    0    0 -0.10454431048E+02  0.50791378096E+02  0.28871363343E+02  0.59360044127E+02  0.10000000000E+01 0.  0.
    9000005    1    3    3    0    0  0.10454431048E+02 -0.50791378096E+02  0.15116541785E+03  0.15981565246E+03  0.10000000000E+01 0.  0.
<mgrwt>
<rscale>  0 0.12499897E+03</rscale>
<asrwt>0</asrwt>
<pdfrwt beam="2">  1        4 0.30106861E-02 0.12499897E+03</pdfrwt>
<pdfrwt beam="1">  1       -4 0.30708649E-01 0.12499897E+03</pdfrwt>
<totfact> 0.87000950E+03</totfact>
</mgrwt>
</event>
<event>
 5    1  0.3245943E-002  0.1250017E+03  0.7818608E-02  0.1235067E+00
         -4   -1    0    0    0  501 -0.00000000000E+00  0.00000000000E+00  0.39269977616E+01  0.41272522844E+01  0.12700000000E+01 0.  1.
          4   -1    0    0  501    0  0.00000000000E+00 -0.00000000000E+00 -0.96981093434E+03  0.96981176590E+03  0.12700000000E+01 0.  1.
         25    2    1    2    0    0  0.00000000000E+00  0.00000000000E+00 -0.96588393658E+03  0.97393901818E+03  0.12500172874E+03 0.  0.
    9000005    1    3    3    0    0  0.32280277807E+01  0.55152530851E+02 -0.25536676617E+03  0.26127649547E+03  0.10000000000E+01 0.  0.
    9000005    1    3    3    0    0 -0.32280277807E+01 -0.55152530851E+02 -0.71051717041E+03  0.71266252271E+03  0.10000000000E+01 0.  0.
<mgrwt>
<rscale>  0 0.12500173E+03</rscale>
<asrwt>0</asrwt>
<pdfrwt beam="2">  1        4 0.14921696E+00 0.12500173E+03</pdfrwt>
<pdfrwt beam="1">  1       -4 0.61962243E-03 0.12500173E+03</pdfrwt>
<totfact> 0.31479852E+03</totfact>
</mgrwt>
</event>
<event>
 5    1  0.3245943E-002  0.1249997E+03  0.7818608E-02  0.1235070E+00
          4   -1    0    0  501    0  0.00000000000E+00  0.00000000000E+00  0.11656142079E+02  0.11725124654E+02  0.12700000000E+01 0. -1.
         -4   -1    0    0    0  501 -0.00000000000E+00 -0.00000000000E+00 -0.33406325914E+03  0.33406567319E+03  0.12700000000E+01 0. -1.
         25    2    1    2    0    0  0.00000000000E+00  0.00000000000E+00 -0.32240711706E+03  0.34579079785E+03  0.12499970698E+03 0.  0.
    9000005    1    3    3    0    0  0.21885944946E+02 -0.36233160631E+02 -0.28837652213E+03  0.29146844603E+03  0.10000000000E+01 0.  0.
    9000005    1    3    3    0    0 -0.21885944946E+02  0.36233160631E+02 -0.34030594925E+02  0.54322351812E+02  0.10000000000E+01 0.  0.
<mgrwt>
<rscale>  0 0.12499971E+03</rscale>
<asrwt>0</asrwt>
<pdfrwt beam="1">  1        4 0.17987449E-02 0.12499971E+03</pdfrwt>
<pdfrwt beam="2">  1       -4 0.51399832E-01 0.12499971E+03</pdfrwt>
<totfact> 0.70190574E+03</totfact>
</mgrwt>
</event>
<event>
 5    1  0.3245943E-002  0.1249977E+03  0.7818608E-02  0.1235073E+00
          4   -1    0    0  501    0  0.00000000000E+00  0.00000000000E+00  0.16625024649E+03  0.16625509724E+03  0.12700000000E+01 0.  1.
         -4   -1    0    0    0  501 -0.00000000000E+00 -0.00000000000E+00 -0.23472970979E+02  0.23507302410E+02  0.12700000000E+01 0.  1.
         25    2    1    2    0    0  0.00000000000E+00  0.00000000000E+00  0.14277727551E+03  0.18976239965E+03  0.12499767165E+03 0.  0.
    9000005    1    3    3    0    0  0.20932616820E+01  0.61977813253E+02  0.83096284829E+02  0.10369003632E+03  0.10000000000E+01 0.  0.
    9000005    1    3    3    0    0 -0.20932616820E+01 -0.61977813253E+02  0.59680990683E+02  0.86072363329E+02  0.10000000000E+01 0.  0.
<mgrwt>
<rscale>  0 0.12499767E+03</rscale>
<asrwt>0</asrwt>
<pdfrwt beam="1">  1        4 0.25579974E-01 0.12499767E+03</pdfrwt>
<pdfrwt beam="2">  1       -4 0.36142404E-02 0.12499767E+03</pdfrwt>
<totfact> 0.91893465E+03</totfact>
</mgrwt>
</event>
<event>
 5    1  0.3245943E-002  0.1249934E+03  0.7818608E-02  0.1235080E+00
         -4   -1    0    0    0  501 -0.00000000000E+00  0.00000000000E+00  0.18499762463E+03  0.18500198382E+03  0.12700000000E+01 0. -1.
          4   -1    0    0  501    0  0.00000000000E+00 -0.00000000000E+00 -0.21089184551E+02  0.21127389924E+02  0.12700000000E+01 0. -1.
         25    2    1    2    0    0  0.00000000000E+00  0.00000000000E+00  0.16390844008E+03  0.20612937375E+03  0.12499336779E+03 0.  0.
    9000005    1    3    3    0    0 -0.43336186845E+02 -0.35891002122E+01  0.15596158934E+03  0.16191332273E+03  0.10000000000E+01 0.  0.
    9000005    1    3    3    0    0  0.43336186845E+02  0.35891002122E+01  0.79468507443E+01  0.44216051015E+02  0.10000000000E+01 0.  0.
<mgrwt>
<rscale>  0 0.12499337E+03</rscale>
<asrwt>0</asrwt>
<pdfrwt beam="2">  1        4 0.32477642E-02 0.12499337E+03</pdfrwt>
<pdfrwt beam="1">  1       -4 0.28464447E-01 0.12499337E+03</pdfrwt>
<totfact> 0.89125151E+03</totfact>
</mgrwt>
</event>
<event>
 5    1  0.3245943E-002  0.1249988E+03  0.7818608E-02  0.1235071E+00
         -4   -1    0    0    0  501 -0.00000000000E+00  0.00000000000E+00  0.19622108412E+02  0.19663164509E+02  0.12700000000E+01 0.  1.
          4   -1    0    0  501    0  0.00000000000E+00 -0.00000000000E+00 -0.19881895790E+03  0.19882301406E+03  0.12700000000E+01 0.  1.
         25    2    1    2    0    0  0.00000000000E+00  0.00000000000E+00 -0.17919684949E+03  0.21848617857E+03  0.12499879743E+03 0.  0.
    9000005    1    3    3    0    0 -0.17432236769E+02  0.38586034717E+02 -0.16993387452E+03  0.17513219768E+03  0.10000000000E+01 0.  0.
    9000005    1    3    3    0    0  0.17432236769E+02 -0.38586034717E+02 -0.92629749667E+01  0.43353980892E+02  0.10000000000E+01 0.  0.
<mgrwt>
<rscale>  0 0.12499880E+03</rscale>
<asrwt>0</asrwt>
<pdfrwt beam="2">  1        4 0.30591001E-01 0.12499880E+03</pdfrwt>
<pdfrwt beam="1">  1       -4 0.30222562E-02 0.12499880E+03</pdfrwt>
<totfact> 0.87110801E+03</totfact>
</mgrwt>
</event>
<event>
 5    1  0.3245943E-002  0.1250003E+03  0.7818608E-02  0.1235069E+00
          4   -1    0    0  501    0  0.00000000000E+00  0.00000000000E+00  0.10489008512E+04  0.10489016200E+04  0.12700000000E+01 0. -1.
         -4   -1    0    0    0  501 -0.00000000000E+00 -0.00000000000E+00 -0.36150913403E+01  0.38316817977E+01  0.12700000000E+01 0. -1.
         25    2    1    2    0    0  0.00000000000E+00  0.00000000000E+00  0.10452857598E+04  0.10527333018E+04  0.12500034023E+03 0.  0.
    9000005    1    3    3    0    0 -0.45445514511E+02  0.15317943197E+02  0.18520775615E+03  0.19131870559E+03  0.10000000000E+01 0.  0.
    9000005    1    3    3    0    0  0.45445514511E+02 -0.15317943197E+02  0.86007800366E+03  0.86141459621E+03  0.10000000000E+01 0.  0.
<mgrwt>
<rscale>  0 0.12500034E+03</rscale>
<asrwt>0</asrwt>
<pdfrwt beam="1">  1        4 0.16138630E+00 0.12500034E+03</pdfrwt>
<pdfrwt beam="2">  1       -4 0.57288706E-03 0.12500034E+03</pdfrwt>
<totfact> 0.28909316E+03</totfact>
</mgrwt>
</event>
<event>
 5    1  0.3245943E-002  0.1249962E+03  0.7818608E-02  0.1235075E+00
          4   -1    0    0  501    0  0.00000000000E+00  0.00000000000E+00  0.31174044954E+03  0.31174303646E+03  0.12700000000E+01 0. -1.
         -4   -1    0    0    0  501 -0.00000000000E+00 -0.00000000000E+00 -0.12494860619E+02  0.12559237313E+02  0.12700000000E+01 0. -1.
         25    2    1    2    0    0  0.00000000000E+00  0.00000000000E+00  0.29924558892E+03  0.32430227377E+03  0.12499616907E+03 0.  0.
    9000005    1    3    3    0    0  0.52590368732E+02  0.10283530785E+02  0.23303146441E+03  0.23911537235E+03  0.10000000000E+01 0.  0.
    9000005    1    3    3    0    0 -0.52590368732E+02 -0.10283530785E+02  0.66214124510E+02  0.85186901419E+02  0.10000000000E+01 0.  0.
<mgrwt>
<rscale>  0 0.12499617E+03</rscale>
<asrwt>0</asrwt>
<pdfrwt beam="1">  1        4 0.47965216E-01 0.12499617E+03</pdfrwt>
<pdfrwt beam="2">  1       -4 0.19274374E-02 0.12499617E+03</pdfrwt>
<totfact> 0.72653501E+03</totfact>
</mgrwt>
</event>
<event>
 5    1  0.3245943E-002  0.1250029E+03  0.7818608E-02  0.1235065E+00
          4   -1    0    0  501    0  0.00000000000E+00  0.00000000000E+00  0.18268486992E+03  0.18268928430E+03  0.12700000000E+01 0. -1.
         -4   -1    0    0    0  501 -0.00000000000E+00 -0.00000000000E+00 -0.21359892869E+02  0.21397614899E+02  0.12700000000E+01 0. -1.
         25    2    1    2    0    0  0.00000000000E+00  0.00000000000E+00  0.16132497705E+03  0.20408689920E+03  0.12500285678E+03 0.  0.
    9000005    1    3    3    0    0  0.62043975284E+02 -0.34868964961E+01  0.69855423601E+02  0.93500767498E+02  0.10000000000E+01 0.  0.
    9000005    1    3    3    0    0 -0.62043975284E+02  0.34868964961E+01  0.91469553454E+02  0.11058613170E+03  0.10000000000E+01 0.  0.
<mgrwt>
<rscale>  0 0.12500286E+03</rscale>
<asrwt>0</asrwt>
<pdfrwt beam="1">  1        4 0.28108607E-01 0.12500286E+03</pdfrwt>
<pdfrwt beam="2">  1       -4 0.32893785E-02 0.12500286E+03</pdfrwt>
<totfact> 0.89445049E+03</totfact>
</mgrwt>
</event>
<event>
 5    1  0.3245943E-002  0.1250259E+03  0.7818608E-02  0.1235029E+00
         -4   -1    0    0    0  501 -0.00000000000E+00  0.00000000000E+00  0.93459209792E+02  0.93467838291E+02  0.12700000000E+01 0. -1.
          4   -1    0    0  501    0  0.00000000000E+00 -0.00000000000E+00 -0.41793416225E+02  0.41812707874E+02  0.12700000000E+01 0. -1.
         25    2    1    2    0    0  0.00000000000E+00  0.00000000000E+00  0.51665793567E+02  0.13528054617E+03  0.12502588510E+03 0.  0.
    9000005    1    3    3    0    0 -0.30414945552E+02 -0.18223521996E+02 -0.29864378912E+02  0.46368597074E+02  0.10000000000E+01 0.  0.
    9000005    1    3    3    0    0  0.30414945552E+02  0.18223521996E+02  0.81530172478E+02  0.88911949091E+02  0.10000000000E+01 0.  0.
<mgrwt>
<rscale>  0 0.12502589E+03</rscale>
<asrwt>0</asrwt>
<pdfrwt beam="2">  1        4 0.64319041E-02 0.12502589E+03</pdfrwt>
<pdfrwt beam="1">  1       -4 0.14380488E-01 0.12502589E+03</pdfrwt>
<totfact> 0.10226190E+04</totfact>
</mgrwt>
</event>
<event>
 5    1  0.3245943E-002  0.1249991E+03  0.7818608E-02  0.1235071E+00
         -4   -1    0    0    0  501 -0.00000000000E+00  0.00000000000E+00  0.59855275704E+02  0.59868747520E+02  0.12700000000E+01 0.  1.
          4   -1    0    0  501    0  0.00000000000E+00 -0.00000000000E+00 -0.65233596161E+02  0.65245957485E+02  0.12700000000E+01 0.  1.
         25    2    1    2    0    0  0.00000000000E+00  0.00000000000E+00 -0.53783204568E+01  0.12511470500E+03  0.12499905231E+03 0.  0.
    9000005    1    3    3    0    0 -0.89005376436E+01  0.52618682042E+02  0.29856235634E+02  0.61158319764E+02  0.10000000000E+01 0.  0.
    9000005    1    3    3    0    0  0.89005376436E+01 -0.52618682042E+02 -0.35234556091E+02  0.63956385241E+02  0.10000000000E+01 0.  0.
<mgrwt>
<rscale>  0 0.12499905E+03</rscale>
<asrwt>0</asrwt>
<pdfrwt beam="2">  1        4 0.10037925E-01 0.12499905E+03</pdfrwt>
<pdfrwt beam="1">  1       -4 0.92104911E-02 0.12499905E+03</pdfrwt>
<totfact> 0.10450596E+04</totfact>
</mgrwt>
</event>
<event>
 5    1  0.3245943E-002  0.1249986E+03  0.7818608E-02  0.1235071E+00
         -4   -1    0    0    0  501 -0.00000000000E+00  0.00000000000E+00  0.44723770335E+03  0.44723950653E+03  0.12700000000E+01 0.  1.
          4   -1    0    0  501    0  0.00000000000E+00 -0.00000000000E+00 -0.86859788652E+01  0.87783329196E+01  0.12700000000E+01 0.  1.
         25    2    1    2    0    0  0.00000000000E+00  0.00000000000E+00  0.43855172449E+03  0.45601783945E+03  0.12499861937E+03 0.  0.
    9000005    1    3    3    0    0  0.61722806173E+02 -0.83379332504E+01  0.20069597804E+03  0.21014067082E+03  0.10000000000E+01 0.  0.
    9000005    1    3    3    0    0 -0.61722806173E+02  0.83379332504E+01  0.23785574645E+03  0.24587716863E+03  0.10000000000E+01 0.  0.
<mgrwt>
<rscale>  0 0.12499862E+03</rscale>
<asrwt>0</asrwt>
<pdfrwt beam="2">  1        4 0.13435472E-02 0.12499862E+03</pdfrwt>
<pdfrwt beam="1">  1       -4 0.68813047E-01 0.12499862E+03</pdfrwt>
<totfact> 0.59447796E+03</totfact>
</mgrwt>
</event>
<event>
 5    1  0.3245943E-002  0.1249969E+03  0.7818608E-02  0.1235074E+00
          4   -1    0    0  501    0  0.00000000000E+00  0.00000000000E+00  0.17059601999E+03  0.17060074717E+03  0.12700000000E+01 0.  1.
         -4   -1    0    0    0  501 -0.00000000000E+00 -0.00000000000E+00 -0.22873865173E+02  0.22909094437E+02  0.12700000000E+01 0.  1.
         25    2    1    2    0    0  0.00000000000E+00  0.00000000000E+00  0.14772215481E+03  0.19350984161E+03  0.12499689507E+03 0.  0.
    9000005    1    3    3    0    0 -0.37249627313E+02 -0.47196800587E+02  0.47498354263E+02  0.76630061845E+02  0.10000000000E+01 0.  0.
    9000005    1    3    3    0    0  0.37249627313E+02  0.47196800587E+02  0.10022380055E+03  0.11687977976E+03  0.10000000000E+01 0.  0.
<mgrwt>
<rscale>  0 0.12499690E+03</rscale>
<asrwt>0</asrwt>
<pdfrwt beam="1">  1        4 0.26248616E-01 0.12499690E+03</pdfrwt>
<pdfrwt beam="2">  1       -4 0.35221297E-02 0.12499690E+03</pdfrwt>
<totfact> 0.91246518E+03</totfact>
</mgrwt>
</event>
<event>
 5    1  0.3245943E-002  0.1250006E+03  0.7818608E-02  0.1235068E+00
         -4   -1    0    0    0  501 -0.00000000000E+00  0.00000000000E+00  0.16724327977E+02  0.16772478835E+02  0.12700000000E+01 0. -1.
          4   -1    0    0  501    0  0.00000000000E+00 -0.00000000000E+00 -0.23318350806E+03  0.23318696647E+03  0.12700000000E+01 0. -1.
         25    2    1    2    0    0  0.00000000000E+00  0.00000000000E+00 -0.21645918008E+03  0.24995944530E+03  0.12500059062E+03 0.  0.
    9000005    1    3    3    0    0 -0.58335265513E+02  0.22313728397E+02 -0.10404400834E+03  0.12135510434E+03  0.10000000000E+01 0.  0.
    9000005    1    3    3    0    0  0.58335265513E+02 -0.22313728397E+02 -0.11241517174E+03  0.12860434096E+03  0.10000000000E+01 0.  0.
<mgrwt>
<rscale>  0 0.12500059E+03</rscale>
<asrwt>0</asrwt>
<pdfrwt beam="2">  1        4 0.35878353E-01 0.12500059E+03</pdfrwt>
<pdfrwt beam="1">  1       -4 0.25769436E-02 0.12500059E+03</pdfrwt>
<totfact> 0.82335007E+03</totfact>
</mgrwt>
</event>
<event>
 5    1  0.3245943E-002  0.1249990E+03  0.7818608E-02  0.1235071E+00
         -4   -1    0    0    0  501 -0.00000000000E+00  0.00000000000E+00  0.24645312911E+02  0.24678013463E+02  0.12700000000E+01 0. -1.
          4   -1    0    0  501    0  0.00000000000E+00 -0.00000000000E+00 -0.15835585084E+03  0.15836094341E+03  0.12700000000E+01 0. -1.
         25    2    1    2    0    0  0.00000000000E+00  0.00000000000E+00 -0.13371053793E+03  0.18303895687E+03  0.12499900711E+03 0.  0.
    9000005    1    3    3    0    0  0.12702988552E+02  0.58887458300E+02 -0.42524169074E+02  0.73745532873E+02  0.10000000000E+01 0.  0.
    9000005    1    3    3    0    0 -0.12702988552E+02 -0.58887458300E+02 -0.91186368858E+02  0.10929342400E+03  0.10000000000E+01 0.  0.
<mgrwt>
<rscale>  0 0.12499901E+03</rscale>
<asrwt>0</asrwt>
<pdfrwt beam="2">  1        4 0.24365345E-01 0.12499901E+03</pdfrwt>
<pdfrwt beam="1">  1       -4 0.37944939E-02 0.12499901E+03</pdfrwt>
<totfact> 0.93074895E+03</totfact>
</mgrwt>
</event>
<event>
 5    1  0.3245943E-002  0.1249999E+03  0.7818608E-02  0.1235069E+00
          4   -1    0    0  501    0  0.00000000000E+00  0.00000000000E+00  0.12482309311E+02  0.12546750406E+02  0.12700000000E+01 0. -1.
         -4   -1    0    0    0  501 -0.00000000000E+00 -0.00000000000E+00 -0.31207094348E+03  0.31207352766E+03  0.12700000000E+01 0. -1.
         25    2    1    2    0    0  0.00000000000E+00  0.00000000000E+00 -0.29958863417E+03  0.32462027807E+03  0.12499990083E+03 0.  0.
    9000005    1    3    3    0    0  0.26272323872E+02 -0.58549075849E+00 -0.29703706216E+03  0.29819891700E+03  0.10000000000E+01 0.  0.
    9000005    1    3    3    0    0 -0.26272323872E+02  0.58549075849E+00 -0.25515720117E+01  0.26421361070E+02  0.10000000000E+01 0.  0.
<mgrwt>
<rscale>  0 0.12499990E+03</rscale>
<asrwt>0</asrwt>
<pdfrwt beam="1">  1        4 0.19255113E-02 0.12499990E+03</pdfrwt>
<pdfrwt beam="2">  1       -4 0.48016064E-01 0.12499990E+03</pdfrwt>
<totfact> 0.72610116E+03</totfact>
</mgrwt>
</event>
<event>
 5    1  0.3245943E-002  0.1250022E+03  0.7818608E-02  0.1235066E+00
          4   -1    0    0  501    0  0.00000000000E+00  0.00000000000E+00  0.10140189582E+03  0.10140984851E+03  0.12700000000E+01 0. -1.
         -4   -1    0    0    0  501 -0.00000000000E+00 -0.00000000000E+00 -0.38503847896E+02  0.38524786862E+02  0.12700000000E+01 0. -1.
         25    2    1    2    0    0  0.00000000000E+00  0.00000000000E+00  0.62898047923E+02  0.13993463538E+03  0.12500215096E+03 0.  0.
    9000005    1    3    3    0    0  0.13772926437E+01 -0.37066800912E+02 -0.24853581198E+02  0.44660330980E+02  0.10000000000E+01 0.  0.
    9000005    1    3    3    0    0 -0.13772926437E+01  0.37066800912E+02  0.87751629121E+02  0.95274304397E+02  0.10000000000E+01 0.  0.
<mgrwt>
<rscale>  0 0.12500215E+03</rscale>
<asrwt>0</asrwt>
<pdfrwt beam="1">  1        4 0.15602514E-01 0.12500215E+03</pdfrwt>
<pdfrwt beam="2">  1       -4 0.59258915E-02 0.12500215E+03</pdfrwt>
<totfact> 0.10134450E+04</totfact>
</mgrwt>
</event>
<event>
 5    1  0.3245943E-002  0.1249994E+03  0.7818608E-02  0.1235070E+00
         -4   -1    0    0    0  501 -0.00000000000E+00  0.00000000000E+00  0.50691922406E+03  0.50692081495E+03  0.12700000000E+01 0. -1.
          4   -1    0    0  501    0  0.00000000000E+00 -0.00000000000E+00 -0.76518432076E+01  0.77565201266E+01  0.12700000000E+01 0. -1.
         25    2    1    2    0    0  0.00000000000E+00  0.00000000000E+00  0.49926738086E+03  0.51467733507E+03  0.12499936660E+03 0.  0.
    9000005    1    3    3    0    0  0.56343003251E+02  0.14967615452E+02  0.34231238750E+03  0.34724247171E+03  0.10000000000E+01 0.  0.
    9000005    1    3    3    0    0 -0.56343003251E+02 -0.14967615452E+02  0.15695499336E+03  0.16743486336E+03  0.10000000000E+01 0.  0.
<mgrwt>
<rscale>  0 0.12499937E+03</rscale>
<asrwt>0</asrwt>
<pdfrwt beam="2">  1        4 0.11853811E-02 0.12499937E+03</pdfrwt>
<pdfrwt beam="1">  1       -4 0.77995750E-01 0.12499937E+03</pdfrwt>
<totfact> 0.54744061E+03</totfact>
</mgrwt>
</event>
<event>
 5    1  0.3245943E-002  0.1249913E+03  0.7818608E-02  0.1235083E+00
          4   -1    0    0  501    0  0.00000000000E+00  0.00000000000E+00  0.24842436108E+02  0.24874877523E+02  0.12700000000E+01 0.  1.
         -4   -1    0    0    0  501 -0.00000000000E+00 -0.00000000000E+00 -0.15708164118E+03  0.15708677505E+03  0.12700000000E+01 0.  1.
         25    2    1    2    0    0  0.00000000000E+00  0.00000000000E+00 -0.13223920507E+03  0.18196165257E+03  0.12499134230E+03 0.  0.
    9000005    1    3    3    0    0 -0.49094048287E+02 -0.22030429784E+02 -0.19873365192E+02  0.57371735704E+02  0.10000000000E+01 0.  0.
    9000005    1    3    3    0    0  0.49094048287E+02  0.22030429784E+02 -0.11236583988E+03  0.12458991687E+03  0.10000000000E+01 0.  0.
<mgrwt>
<rscale>  0 0.12499134E+03</rscale>
<asrwt>0</asrwt>
<pdfrwt beam="1">  1        4 0.38248038E-02 0.12499134E+03</pdfrwt>
<pdfrwt beam="2">  1       -4 0.24169296E-01 0.12499134E+03</pdfrwt>
<totfact> 0.93283190E+03</totfact>
</mgrwt>
</event>
<event>
 5    1  0.3245943E-002  0.1249984E+03  0.7818608E-02  0.1235072E+00
         -4   -1    0    0    0  501 -0.00000000000E+00  0.00000000000E+00  0.13733808391E+03  0.13734395580E+03  0.12700000000E+01 0. -1.
          4   -1    0    0  501    0  0.00000000000E+00 -0.00000000000E+00 -0.28421198705E+02  0.28449559502E+02  0.12700000000E+01 0. -1.
         25    2    1    2    0    0  0.00000000000E+00  0.00000000000E+00  0.10891688521E+03  0.16579351530E+03  0.12499840731E+03 0.  0.
    9000005    1    3    3    0    0  0.20977047230E+02 -0.40984710025E+02 -0.15852667164E+01  0.46079236505E+02  0.10000000000E+01 0.  0.
    9000005    1    3    3    0    0 -0.20977047230E+02  0.40984710025E+02  0.11050215193E+03  0.11971427879E+03  0.10000000000E+01 0.  0.
<mgrwt>
<rscale>  0 0.12499841E+03</rscale>
<asrwt>0</asrwt>
<pdfrwt beam="2">  1        4 0.43751254E-02 0.12499841E+03</pdfrwt>
<pdfrwt beam="1">  1       -4 0.21131569E-01 0.12499841E+03</pdfrwt>
<totfact> 0.96240767E+03</totfact>
</mgrwt>
</event>
<event>
 5    1  0.3245943E-002  0.1249997E+03  0.7818608E-02  0.1235070E+00
         -4   -1    0    0    0  501 -0.00000000000E+00  0.00000000000E+00  0.21993583283E+03  0.21993949955E+03  0.12700000000E+01 0. -1.
          4   -1    0    0  501    0  0.00000000000E+00 -0.00000000000E+00 -0.17734266602E+02  0.17779682560E+02  0.12700000000E+01 0. -1.
         25    2    1    2    0    0  0.00000000000E+00  0.00000000000E+00  0.20220156623E+03  0.23771918211E+03  0.12499974463E+03 0.  0.
    9000005    1    3    3    0    0 -0.60534091120E+02 -0.14493461634E+02  0.90546899957E+02  0.10988256326E+03  0.10000000000E+01 0.  0.
    9000005    1    3    3    0    0  0.60534091120E+02  0.14493461634E+02  0.11165466627E+03  0.12783661884E+03  0.10000000000E+01 0.  0.
<mgrwt>
<rscale>  0 0.12499974E+03</rscale>
<asrwt>0</asrwt>
<pdfrwt beam="2">  1        4 0.27321242E-02 0.12499974E+03</pdfrwt>
<pdfrwt beam="1">  1       -4 0.33840058E-01 0.12499974E+03</pdfrwt>
<totfact> 0.84138709E+03</totfact>
</mgrwt>
</event>
<event>
 5    1  0.3245943E-002  0.1249972E+03  0.7818608E-02  0.1235074E+00
         -4   -1    0    0    0  501 -0.00000000000E+00  0.00000000000E+00  0.28702483789E+02  0.28730566922E+02  0.12700000000E+01 0. -1.
          4   -1    0    0  501    0  0.00000000000E+00 -0.00000000000E+00 -0.13599072347E+03  0.13599665352E+03  0.12700000000E+01 0. -1.
         25    2    1    2    0    0  0.00000000000E+00  0.00000000000E+00 -0.10728823968E+03  0.16472722045E+03  0.12499716310E+03 0.  0.
    9000005    1    3    3    0    0 -0.43352348862E+02 -0.41024198657E+02 -0.29249279709E+02  0.66475043368E+02  0.10000000000E+01 0.  0.
    9000005    1    3    3    0    0  0.43352348862E+02  0.41024198657E+02 -0.78038959971E+02  0.98252177078E+02  0.10000000000E+01 0.  0.
<mgrwt>
<rscale>  0 0.12499716E+03</rscale>
<asrwt>0</asrwt>
<pdfrwt beam="2">  1        4 0.20924266E-01 0.12499716E+03</pdfrwt>
<pdfrwt beam="1">  1       -4 0.44183832E-02 0.12499716E+03</pdfrwt>
<totfact> 0.96445224E+03</totfact>
</mgrwt>
</event>
<event>
 5    1  0.3245943E-002  0.1249987E+03  0.7818608E-02  0.1235071E+00
          4   -1    0    0  501    0  0.00000000000E+00  0.00000000000E+00  0.37438623532E+01  0.39534042697E+01  0.12700000000E+01 0. -1.
         -4   -1    0    0    0  501 -0.00000000000E+00 -0.00000000000E+00 -0.10147401136E+04  0.10147409083E+04  0.12700000000E+01 0. -1.
         25    2    1    2    0    0  0.00000000000E+00  0.00000000000E+00 -0.10109962512E+04  0.10186943126E+04  0.12499872999E+03 0.  0.
    9000005    1    3    3    0    0 -0.44528344618E+02 -0.43055153988E+02 -0.57302261183E+03  0.57636137399E+03  0.10000000000E+01 0.  0.
    9000005    1    3    3    0    0  0.44528344618E+02  0.43055153988E+02 -0.43797363937E+03  0.44233293857E+03  0.10000000000E+01 0.  0.
<mgrwt>
<rscale>  0 0.12499873E+03</rscale>
<asrwt>0</asrwt>
<pdfrwt beam="1">  1        4 0.59215937E-03 0.12499873E+03</pdfrwt>
<pdfrwt beam="2">  1       -4 0.15612983E+00 0.12499873E+03</pdfrwt>
<totfact> 0.29993593E+03</totfact>
</mgrwt>
</event>
<event>
 5    1  0.3245943E-002  0.1250049E+03  0.7818608E-02  0.1235062E+00
          4   -1    0    0  501    0  0.00000000000E+00  0.00000000000E+00  0.63791410058E+02  0.63804050790E+02  0.12700000000E+01 0. -1.
         -4   -1    0    0    0  501 -0.00000000000E+00 -0.00000000000E+00 -0.61214237245E+02  0.61227410050E+02  0.12700000000E+01 0. -1.
         25    2    1    2    0    0  0.00000000000E+00  0.00000000000E+00  0.25771728134E+01  0.12503146084E+03  0.12500489742E+03 0.  0.
    9000005    1    3    3    0    0 -0.32841360114E+02 -0.33757373054E+02  0.42375788314E+02  0.63362627825E+02  0.10000000000E+01 0.  0.
    9000005    1    3    3    0    0  0.32841360114E+02  0.33757373054E+02 -0.39798615501E+02  0.61668833015E+02  0.10000000000E+01 0.  0.
<mgrwt>
<rscale>  0 0.12500490E+03</rscale>
<asrwt>0</asrwt>
<pdfrwt beam="1">  1        4 0.98160487E-02 0.12500490E+03</pdfrwt>
<pdfrwt beam="2">  1       -4 0.94195606E-02 0.12500490E+03</pdfrwt>
<totfact> 0.10451022E+04</totfact>
</mgrwt>
</event>
<event>
 5    1  0.3245943E-002  0.1249977E+03  0.7818608E-02  0.1235073E+00
          4   -1    0    0  501    0  0.00000000000E+00  0.00000000000E+00  0.65512466308E+02  0.65524775023E+02  0.12700000000E+01 0.  1.
         -4   -1    0    0    0  501 -0.00000000000E+00 -0.00000000000E+00 -0.59599143002E+02  0.59612672701E+02  0.12700000000E+01 0.  1.
         25    2    1    2    0    0  0.00000000000E+00  0.00000000000E+00  0.59133233063E+01  0.12513744772E+03  0.12499765370E+03 0.  0.
    9000005    1    3    3    0    0 -0.61144862686E+02 -0.12761658680E+02  0.10706246876E+01  0.62479599890E+02  0.10000000000E+01 0.  0.
    9000005    1    3    3    0    0  0.61144862686E+02  0.12761658680E+02  0.48426986187E+01  0.62657847834E+02  0.10000000000E+01 0.  0.
<mgrwt>
<rscale>  0 0.12499765E+03</rscale>
<asrwt>0</asrwt>
<pdfrwt beam="1">  1        4 0.10080829E-01 0.12499765E+03</pdfrwt>
<pdfrwt beam="2">  1       -4 0.91710865E-02 0.12499765E+03</pdfrwt>
<totfact> 0.10450432E+04</totfact>
</mgrwt>
</event>
<event>
 5    1  0.3245943E-002  0.1249998E+03  0.7818608E-02  0.1235070E+00
          4   -1    0    0  501    0  0.00000000000E+00  0.00000000000E+00  0.28501142560E+02  0.28529423885E+02  0.12700000000E+01 0. -1.
         -4   -1    0    0    0  501 -0.00000000000E+00 -0.00000000000E+00 -0.13695635960E+03  0.13696224784E+03  0.12700000000E+01 0. -1.
         25    2    1    2    0    0  0.00000000000E+00  0.00000000000E+00 -0.10845521704E+03  0.16549167173E+03  0.12499983724E+03 0.  0.
    9000005    1    3    3    0    0 -0.12390631040E+02 -0.34333750819E+02 -0.12138265057E+03  0.12675599411E+03  0.10000000000E+01 0.  0.
    9000005    1    3    3    0    0  0.12390631040E+02  0.34333750819E+02  0.12927433533E+02  0.38735677619E+02  0.10000000000E+01 0.  0.
<mgrwt>
<rscale>  0 0.12499984E+03</rscale>
<asrwt>0</asrwt>
<pdfrwt beam="1">  1        4 0.43874197E-02 0.12499984E+03</pdfrwt>
<pdfrwt beam="2">  1       -4 0.21072837E-01 0.12499984E+03</pdfrwt>
<totfact> 0.96294711E+03</totfact>
</mgrwt>
</event>
<event>
 5    1  0.3245943E-002  0.1250003E+03  0.7818608E-02  0.1235069E+00
          4   -1    0    0  501    0  0.00000000000E+00  0.00000000000E+00  0.21915564603E+02  0.21952331810E+02  0.12700000000E+01 0.  1.
         -4   -1    0    0    0  501 -0.00000000000E+00 -0.00000000000E+00 -0.17805346264E+03  0.17805799184E+03  0.12700000000E+01 0.  1.
         25    2    1    2    0    0  0.00000000000E+00  0.00000000000E+00 -0.15613789804E+03  0.20001032365E+03  0.12500034545E+03 0.  0.
    9000005    1    3    3    0    0 -0.52699111949E+02 -0.24523942170E+01 -0.24470845379E+02  0.58163845395E+02  0.10000000000E+01 0.  0.
    9000005    1    3    3    0    0  0.52699111949E+02  0.24523942170E+01 -0.13166705266E+03  0.14184647825E+03  0.10000000000E+01 0.  0.
<mgrwt>
<rscale>  0 0.12500035E+03</rscale>
<asrwt>0</asrwt>
<pdfrwt beam="1">  1        4 0.33748021E-02 0.12500035E+03</pdfrwt>
<pdfrwt beam="2">  1       -4 0.27396016E-01 0.12500035E+03</pdfrwt>
<totfact> 0.90133069E+03</totfact>
</mgrwt>
</event>
<event>
 5    1  0.3245943E-002  0.1250000E+03  0.7818608E-02  0.1235069E+00
         -4   -1    0    0    0  501 -0.00000000000E+00  0.00000000000E+00  0.84943599816E+02  0.84953093232E+02  0.12700000000E+01 0. -1.
          4   -1    0    0  501    0  0.00000000000E+00 -0.00000000000E+00 -0.45965594740E+02  0.45983136038E+02  0.12700000000E+01 0. -1.
         25    2    1    2    0    0  0.00000000000E+00  0.00000000000E+00  0.38978005075E+02  0.13093622927E+03  0.12500004502E+03 0.  0.
    9000005    1    3    3    0    0 -0.17794721471E+02 -0.46627440414E+01  0.82048415234E+02  0.84091234601E+02  0.10000000000E+01 0.  0.
    9000005    1    3    3    0    0  0.17794721471E+02  0.46627440414E+01 -0.43070410159E+02  0.46844994669E+02  0.10000000000E+01 0.  0.
<mgrwt>
<rscale>  0 0.12500005E+03</rscale>
<asrwt>0</asrwt>
<pdfrwt beam="2">  1        4 0.70737096E-02 0.12500005E+03</pdfrwt>
<pdfrwt beam="1">  1       -4 0.13070326E-01 0.12500005E+03</pdfrwt>
<totfact> 0.10324446E+04</totfact>
</mgrwt>
</event>
<event>
 5    1  0.3245943E-002  0.1249967E+03  0.7818608E-02  0.1235074E+00
          4   -1    0    0  501    0  0.00000000000E+00  0.00000000000E+00  0.20216689795E+02  0.20256540827E+02  0.12700000000E+01 0.  1.
         -4   -1    0    0    0  501 -0.00000000000E+00 -0.00000000000E+00 -0.19297683214E+03  0.19298101109E+03  0.12700000000E+01 0.  1.
         25    2    1    2    0    0  0.00000000000E+00  0.00000000000E+00 -0.17276014234E+03  0.21323755192E+03  0.12499674702E+03 0.  0.
    9000005    1    3    3    0    0  0.59906600807E+02 -0.17755300596E+02 -0.88081892910E+02  0.10799755265E+03  0.10000000000E+01 0.  0.
    9000005    1    3    3    0    0 -0.59906600807E+02  0.17755300596E+02 -0.84678249434E+02  0.10523999927E+03  0.10000000000E+01 0.  0.
<mgrwt>
<rscale>  0 0.12499675E+03</rscale>
<asrwt>0</asrwt>
<pdfrwt beam="1">  1        4 0.31136470E-02 0.12499675E+03</pdfrwt>
<pdfrwt beam="2">  1       -4 0.29692129E-01 0.12499675E+03</pdfrwt>
<totfact> 0.87956256E+03</totfact>
</mgrwt>
</event>
<event>
 5    1  0.3245943E-002  0.1249869E+03  0.7818608E-02  0.1235090E+00
         -4   -1    0    0    0  501 -0.00000000000E+00  0.00000000000E+00  0.11227230616E+02  0.11298832122E+02  0.12700000000E+01 0.  1.
          4   -1    0    0  501    0  0.00000000000E+00 -0.00000000000E+00 -0.34667522275E+03  0.34667754898E+03  0.12700000000E+01 0.  1.
         25    2    1    2    0    0  0.00000000000E+00  0.00000000000E+00 -0.33544799213E+03  0.35797638110E+03  0.12498693533E+03 0.  0.
    9000005    1    3    3    0    0 -0.60006290175E+02 -0.50315368792E+01 -0.11993862708E+03  0.13421007969E+03  0.10000000000E+01 0.  0.
    9000005    1    3    3    0    0  0.60006290175E+02  0.50315368792E+01 -0.21550936505E+03  0.22376630141E+03  0.10000000000E+01 0.  0.
<mgrwt>
<rscale>  0 0.12498694E+03</rscale>
<asrwt>0</asrwt>
<pdfrwt beam="2">  1        4 0.53340328E-01 0.12498694E+03</pdfrwt>
<pdfrwt beam="1">  1       -4 0.17329533E-02 0.12498694E+03</pdfrwt>
<totfact> 0.68875787E+03</totfact>
</mgrwt>
</event>
<event>
 5    1  0.3245943E-002  0.1249965E+03  0.7818608E-02  0.1235075E+00
         -4   -1    0    0    0  501 -0.00000000000E+00  0.00000000000E+00  0.17365858569E+03  0.17366322951E+03  0.12700000000E+01 0. -1.
          4   -1    0    0  501    0  0.00000000000E+00 -0.00000000000E+00 -0.22469697310E+02  0.22505559251E+02  0.12700000000E+01 0. -1.
         25    2    1    2    0    0  0.00000000000E+00  0.00000000000E+00  0.15118888838E+03  0.19616878876E+03  0.12499645481E+03 0.  0.
    9000005    1    3    3    0    0 -0.18917600165E+02  0.29357130317E+02  0.15692047368E+03  0.16076302982E+03  0.10000000000E+01 0.  0.
    9000005    1    3    3    0    0  0.18917600165E+02 -0.29357130317E+02 -0.57315852982E+01  0.35405758945E+02  0.10000000000E+01 0.  0.
<mgrwt>
<rscale>  0 0.12499645E+03</rscale>
<asrwt>0</asrwt>
<pdfrwt beam="2">  1        4 0.34599923E-02 0.12499645E+03</pdfrwt>
<pdfrwt beam="1">  1       -4 0.26719822E-01 0.12499645E+03</pdfrwt>
<totfact> 0.90792111E+03</totfact>
</mgrwt>
</event>
<event>
 5    1  0.3245943E-002  0.1249960E+03  0.7818608E-02  0.1235076E+00
         -4   -1    0    0    0  501 -0.00000000000E+00  0.00000000000E+00  0.12019456827E+02  0.12086365973E+02  0.12700000000E+01 0. -1.
          4   -1    0    0  501    0  0.00000000000E+00 -0.00000000000E+00 -0.32400297810E+03  0.32400546711E+03  0.12700000000E+01 0. -1.
         25    2    1    2    0    0  0.00000000000E+00  0.00000000000E+00 -0.31198352127E+03  0.33609183309E+03  0.12499601082E+03 0.  0.
    9000005    1    3    3    0    0 -0.44196573711E+02  0.30989308613E+02 -0.71333347942E+02  0.89460163787E+02  0.10000000000E+01 0.  0.
    9000005    1    3    3    0    0  0.44196573711E+02 -0.30989308613E+02 -0.24065017333E+03  0.24663166930E+03  0.10000000000E+01 0.  0.
<mgrwt>
<rscale>  0 0.12499601E+03</rscale>
<asrwt>0</asrwt>
<pdfrwt beam="2">  1        4 0.49851944E-01 0.12499601E+03</pdfrwt>
<pdfrwt beam="1">  1       -4 0.18544858E-02 0.12499601E+03</pdfrwt>
<totfact> 0.71288523E+03</totfact>
</mgrwt>
</event>
<event>
 5    1  0.3245943E-002  0.1249965E+03  0.7818608E-02  0.1235075E+00
          4   -1    0    0  501    0  0.00000000000E+00  0.00000000000E+00  0.68489619716E+02  0.68501393481E+02  0.12700000000E+01 0. -1.
         -4   -1    0    0    0  501 -0.00000000000E+00 -0.00000000000E+00 -0.57007257486E+02  0.57021402176E+02  0.12700000000E+01 0. -1.
         25    2    1    2    0    0  0.00000000000E+00  0.00000000000E+00  0.11482362230E+02  0.12552279566E+03  0.12499651030E+03 0.  0.
    9000005    1    3    3    0    0  0.54580655904E+02  0.29701105593E+02 -0.90698179125E+00  0.62153248414E+02  0.10000000000E+01 0.  0.
    9000005    1    3    3    0    0 -0.54580655904E+02 -0.29701105593E+02  0.12389344021E+02  0.63369547242E+02  0.10000000000E+01 0.  0.
<mgrwt>
<rscale>  0 0.12499651E+03</rscale>
<asrwt>0</asrwt>
<pdfrwt beam="1">  1        4 0.10538858E-01 0.12499651E+03</pdfrwt>
<pdfrwt beam="2">  1       -4 0.87723411E-02 0.12499651E+03</pdfrwt>
<totfact> 0.10442272E+04</totfact>
</mgrwt>
</event>
<event>
 5    1  0.3245943E-002  0.1249984E+03  0.7818608E-02  0.1235072E+00
          4   -1    0    0  501    0  0.00000000000E+00  0.00000000000E+00  0.49610226827E+01  0.51210004939E+01  0.12700000000E+01 0.  1.
         -4   -1    0    0    0  501 -0.00000000000E+00 -0.00000000000E+00 -0.77471395192E+03  0.77471499288E+03  0.12700000000E+01 0.  1.
         25    2    1    2    0    0  0.00000000000E+00  0.00000000000E+00 -0.76975292923E+03  0.77983599337E+03  0.12499841798E+03 0.  0.
    9000005    1    3    3    0    0  0.39296218248E+02  0.34882984632E+02 -0.17384970240E+03  0.18161975226E+03  0.10000000000E+01 0.  0.
    9000005    1    3    3    0    0 -0.39296218248E+02 -0.34882984632E+02 -0.59590322683E+03  0.59821624112E+03  0.10000000000E+01 0.  0.
<mgrwt>
<rscale>  0 0.12499842E+03</rscale>
<asrwt>0</asrwt>
<pdfrwt beam="1">  1        4 0.77562093E-03 0.12499842E+03</pdfrwt>
<pdfrwt beam="2">  1       -4 0.11919905E+00 0.12499842E+03</pdfrwt>
<totfact> 0.39182282E+03</totfact>
</mgrwt>
</event>
<event>
 5    1  0.3245943E-002  0.1250011E+03  0.7818608E-02  0.1235068E+00
          4   -1    0    0  501    0  0.00000000000E+00  0.00000000000E+00  0.15291819451E+04  0.15291824725E+04  0.12700000000E+01 0.  1.
         -4   -1    0    0    0  501 -0.00000000000E+00 -0.00000000000E+00 -0.23961084171E+01  0.27118693822E+01  0.12700000000E+01 0.  1.
         25    2    1    2    0    0  0.00000000000E+00  0.00000000000E+00  0.15267858367E+04  0.15318943419E+04  0.12500113405E+03 0.  0.
    9000005    1    3    3    0    0 -0.21901992164E+02  0.53868026149E+02  0.10438860426E+04  0.10455049170E+04  0.10000000000E+01 0.  0.
    9000005    1    3    3    0    0  0.21901992164E+02 -0.53868026149E+02  0.48289979408E+03  0.48638942486E+03  0.10000000000E+01 0.  0.
<mgrwt>
<rscale>  0 0.12500113E+03</rscale>
<asrwt>0</asrwt>
<pdfrwt beam="1">  1        4 0.23528415E+00 0.12500113E+03</pdfrwt>
<pdfrwt beam="2">  1       -4 0.39296017E-03 0.12500113E+03</pdfrwt>
<totfact> 0.17311334E+03</totfact>
</mgrwt>
</event>
<event>
 5    1  0.3245943E-002  0.1249999E+03  0.7818608E-02  0.1235069E+00
         -4   -1    0    0    0  501 -0.00000000000E+00  0.00000000000E+00  0.46776490352E+02  0.46793727674E+02  0.12700000000E+01 0. -1.
          4   -1    0    0  501    0  0.00000000000E+00 -0.00000000000E+00 -0.83471253556E+02  0.83480914407E+02  0.12700000000E+01 0. -1.
         25    2    1    2    0    0  0.00000000000E+00  0.00000000000E+00 -0.36694763205E+02  0.13027464208E+03  0.12499990689E+03 0.  0.
    9000005    1    3    3    0    0 -0.27687585407E+02 -0.21360224665E+02  0.35629844278E+02  0.49933429550E+02  0.10000000000E+01 0.  0.
    9000005    1    3    3    0    0  0.27687585407E+02  0.21360224665E+02 -0.72324607483E+02  0.80341212531E+02  0.10000000000E+01 0.  0.
<mgrwt>
<rscale>  0 0.12499991E+03</rscale>
<asrwt>0</asrwt>
<pdfrwt beam="2">  1        4 0.12843800E-01 0.12499991E+03</pdfrwt>
<pdfrwt beam="1">  1       -4 0.71984522E-02 0.12499991E+03</pdfrwt>
<totfact> 0.10338658E+04</totfact>
</mgrwt>
</event>
<event>
 5    1  0.3245943E-002  0.1249995E+03  0.7818608E-02  0.1235070E+00
          4   -1    0    0  501    0  0.00000000000E+00  0.00000000000E+00  0.53710719143E+03  0.53710869289E+03  0.12700000000E+01 0. -1.
         -4   -1    0    0    0  501 -0.00000000000E+00 -0.00000000000E+00 -0.72157374802E+01  0.73266477589E+01  0.12700000000E+01 0. -1.
         25    2    1    2    0    0  0.00000000000E+00  0.00000000000E+00  0.52989145395E+03  0.54443534065E+03  0.12499954874E+03 0.  0.
    9000005    1    3    3    0    0 -0.35159269058E+02 -0.51231869283E+02  0.29394928045E+03  0.30044643134E+03  0.10000000000E+01 0.  0.
    9000005    1    3    3    0    0  0.35159269058E+02  0.51231869283E+02  0.23594217350E+03  0.24398890931E+03  0.10000000000E+01 0.  0.
<mgrwt>
<rscale>  0 0.12499955E+03</rscale>
<asrwt>0</asrwt>
<pdfrwt beam="1">  1        4 0.82640550E-01 0.12499955E+03</pdfrwt>
<pdfrwt beam="2">  1       -4 0.11187601E-02 0.12499955E+03</pdfrwt>
<totfact> 0.52574869E+03</totfact>
</mgrwt>
</event>
<event>
 5    1  0.3245943E-002  0.1250135E+03  0.7818608E-02  0.1235048E+00
         -4   -1    0    0    0  501 -0.00000000000E+00  0.00000000000E+00  0.10625557126E+03  0.10626316071E+03  0.12700000000E+01 0. -1.
          4   -1    0    0  501    0  0.00000000000E+00 -0.00000000000E+00 -0.36750859853E+02  0.36772797010E+02  0.12700000000E+01 0. -1.
         25    2    1    2    0    0  0.00000000000E+00  0.00000000000E+00  0.69504711409E+02  0.14303595772E+03  0.12501352044E+03 0.  0.
    9000005    1    3    3    0    0 -0.27427998391E+02  0.49458623771E+02  0.65188933112E+02  0.86307865003E+02  0.10000000000E+01 0.  0.
    9000005    1    3    3    0    0  0.27427998391E+02 -0.49458623771E+02  0.43157782969E+01  0.56728092717E+02  0.10000000000E+01 0.  0.
<mgrwt>
<rscale>  0 0.12501352E+03</rscale>
<asrwt>0</asrwt>
<pdfrwt beam="2">  1        4 0.56562497E-02 0.12501352E+03</pdfrwt>
<pdfrwt beam="1">  1       -4 0.16349282E-01 0.12501352E+03</pdfrwt>
<totfact> 0.10067981E+04</totfact>
</mgrwt>
</event>
<event>
 5    1  0.3245943E-002  0.1249995E+03  0.7818608E-02  0.1235070E+00
          4   -1    0    0  501    0  0.00000000000E+00  0.00000000000E+00  0.13354251970E+03  0.13354855847E+03  0.12700000000E+01 0. -1.
         -4   -1    0    0    0  501 -0.00000000000E+00 -0.00000000000E+00 -0.29230252417E+02  0.29257828976E+02  0.12700000000E+01 0. -1.
         25    2    1    2    0    0  0.00000000000E+00  0.00000000000E+00  0.10431226729E+03  0.16280638744E+03  0.12499948274E+03 0.  0.
    9000005    1    3    3    0    0  0.36985623054E+00 -0.42701383997E+01 -0.29044970611E+02  0.29376541549E+02  0.10000000000E+01 0.  0.
    9000005    1    3    3    0    0 -0.36985623054E+00  0.42701383997E+01  0.13335723790E+03  0.13342984589E+03  0.10000000000E+01 0.  0.
<mgrwt>
<rscale>  0 0.12499948E+03</rscale>
<asrwt>0</asrwt>
<pdfrwt beam="1">  1        4 0.20547589E-01 0.12499948E+03</pdfrwt>
<pdfrwt beam="2">  1       -4 0.44995477E-02 0.12499948E+03</pdfrwt>
<totfact> 0.96805573E+03</totfact>
</mgrwt>
</event>
<event>
 5    1  0.3245943E-002  0.1249989E+03  0.7818608E-02  0.1235071E+00
         -4   -1    0    0    0  501 -0.00000000000E+00  0.00000000000E+00  0.29153643267E+02  0.29181292221E+02  0.12700000000E+01 0. -1.
          4   -1    0    0  501    0  0.00000000000E+00 -0.00000000000E+00 -0.13389186784E+03  0.13389789085E+03  0.12700000000E+01 0. -1.
         25    2    1    2    0    0  0.00000000000E+00  0.00000000000E+00 -0.10473822457E+03  0.16307918307E+03  0.12499889705E+03 0.  0.
    9000005    1    3    3    0    0 -0.54976476380E+02 -0.21124298362E+02 -0.79627518123E+02  0.99046406189E+02  0.10000000000E+01 0.  0.
    9000005    1    3    3    0    0  0.54976476380E+02  0.21124298362E+02 -0.25110706448E+02  0.64032776879E+02  0.10000000000E+01 0.  0.
<mgrwt>
<rscale>  0 0.12499890E+03</rscale>
<asrwt>0</asrwt>
<pdfrwt beam="2">  1        4 0.20601339E-01 0.12499890E+03</pdfrwt>
<pdfrwt beam="1">  1       -4 0.44877661E-02 0.12499890E+03</pdfrwt>
<totfact> 0.96754804E+03</totfact>
</mgrwt>
</event>
<event>
 5    1  0.3245943E-002  0.1249992E+03  0.7818608E-02  0.1235070E+00
          4   -1    0    0  501    0  0.00000000000E+00  0.00000000000E+00  0.95029034436E+01  0.95873914001E+01  0.12700000000E+01 0. -1.
         -4   -1    0    0    0  501 -0.00000000000E+00 -0.00000000000E+00 -0.40914887114E+03  0.40915084217E+03  0.12700000000E+01 0. -1.
         25    2    1    2    0    0  0.00000000000E+00  0.00000000000E+00 -0.39964596769E+03  0.41873823357E+03  0.12499923505E+03 0.  0.
    9000005    1    3    3    0    0 -0.36176827365E+02 -0.35969975742E+02 -0.32072702893E+03  0.32476057193E+03  0.10000000000E+01 0.  0.
    9000005    1    3    3    0    0  0.36176827365E+02  0.35969975742E+02 -0.78918938765E+02  0.93977661648E+02  0.10000000000E+01 0.  0.
<mgrwt>
<rscale>  0 0.12499924E+03</rscale>
<asrwt>0</asrwt>
<pdfrwt beam="1">  1        4 0.14686361E-02 0.12499924E+03</pdfrwt>
<pdfrwt beam="2">  1       -4 0.62952618E-01 0.12499924E+03</pdfrwt>
<totfact> 0.62771304E+03</totfact>
</mgrwt>
</event>
<event>
 5    1  0.3245943E-002  0.1249990E+03  0.7818608E-02  0.1235071E+00
         -4   -1    0    0    0  501 -0.00000000000E+00  0.00000000000E+00  0.13929177908E+03  0.13929756860E+03  0.12700000000E+01 0.  1.
          4   -1    0    0  501    0  0.00000000000E+00 -0.00000000000E+00 -0.28022454802E+02  0.28051218746E+02  0.12700000000E+01 0.  1.
         25    2    1    2    0    0  0.00000000000E+00  0.00000000000E+00  0.11126932428E+03  0.16734878735E+03  0.12499901641E+03 0.  0.
    9000005    1    3    3    0    0 -0.53043531948E+02 -0.21085007655E+02  0.21580803071E+02  0.61032162755E+02  0.10000000000E+01 0.  0.
    9000005    1    3    3    0    0  0.53043531948E+02  0.21085007655E+02  0.89688521206E+02  0.10631662460E+03  0.10000000000E+01 0.  0.
<mgrwt>
<rscale>  0 0.12499902E+03</rscale>
<asrwt>0</asrwt>
<pdfrwt beam="2">  1        4 0.43138049E-02 0.12499902E+03</pdfrwt>
<pdfrwt beam="1">  1       -4 0.21432162E-01 0.12499902E+03</pdfrwt>
<totfact> 0.95946529E+03</totfact>
</mgrwt>
</event>
<event>
 5    1  0.3245943E-002  0.1250075E+03  0.7818608E-02  0.1235058E+00
         -4   -1    0    0    0  501 -0.00000000000E+00  0.00000000000E+00  0.12576331008E+03  0.12576972236E+03  0.12700000000E+01 0.  1.
          4   -1    0    0  501    0  0.00000000000E+00 -0.00000000000E+00 -0.31043850243E+02  0.31069817153E+02  0.12700000000E+01 0.  1.
         25    2    1    2    0    0  0.00000000000E+00  0.00000000000E+00  0.94719459841E+02  0.15683953952E+03  0.12500746011E+03 0.  0.
    9000005    1    3    3    0    0  0.14839390129E+01  0.62464642165E+02  0.48987225244E+02  0.79402656334E+02  0.10000000000E+01 0.  0.
    9000005    1    3    3    0    0 -0.14839390129E+01 -0.62464642165E+02  0.45732234597E+02  0.77436883183E+02  0.10000000000E+01 0.  0.
<mgrwt>
<rscale>  0 0.12500746E+03</rscale>
<asrwt>0</asrwt>
<pdfrwt beam="2">  1        4 0.47784676E-02 0.12500746E+03</pdfrwt>
<pdfrwt beam="1">  1       -4 0.19350692E-01 0.12500746E+03</pdfrwt>
<totfact> 0.97939150E+03</totfact>
</mgrwt>
</event>
<event>
 5    1  0.3245943E-002  0.1250012E+03  0.7818608E-02  0.1235067E+00
          4   -1    0    0  501    0  0.00000000000E+00  0.00000000000E+00  0.16348915389E+02  0.16398168629E+02  0.12700000000E+01 0.  1.
         -4   -1    0    0    0  501 -0.00000000000E+00 -0.00000000000E+00 -0.23852431249E+03  0.23852769346E+03  0.12700000000E+01 0.  1.
         25    2    1    2    0    0  0.00000000000E+00  0.00000000000E+00 -0.22217539710E+03  0.25492586209E+03  0.12500115234E+03 0.  0.
    9000005    1    3    3    0    0  0.33715075574E+02 -0.29931992264E+02 -0.22833981847E+02  0.50547217617E+02  0.10000000000E+01 0.  0.
    9000005    1    3    3    0    0 -0.33715075574E+02  0.29931992264E+02 -0.19934141526E+03  0.20437864448E+03  0.10000000000E+01 0.  0.
<mgrwt>
<rscale>  0 0.12500115E+03</rscale>
<asrwt>0</asrwt>
<pdfrwt beam="1">  1        4 0.25192667E-02 0.12500115E+03</pdfrwt>
<pdfrwt beam="2">  1       -4 0.36700094E-01 0.12500115E+03</pdfrwt>
<totfact> 0.81621366E+03</totfact>
</mgrwt>
</event>
<event>
 5    1  0.3245943E-002  0.1250058E+03  0.7818608E-02  0.1235060E+00
         -4   -1    0    0    0  501 -0.00000000000E+00  0.00000000000E+00  0.68430469444E+01  0.69598988128E+01  0.12700000000E+01 0.  1.
          4   -1    0    0  501    0  0.00000000000E+00 -0.00000000000E+00 -0.56593754701E+03  0.56593897199E+03  0.12700000000E+01 0.  1.
         25    2    1    2    0    0  0.00000000000E+00  0.00000000000E+00 -0.55909450007E+03  0.57289887080E+03  0.12500582451E+03 0.  0.
    9000005    1    3    3    0    0  0.14273378817E+02  0.28718243244E+02 -0.52537378428E+03  0.52635261949E+03  0.10000000000E+01 0.  0.
    9000005    1    3    3    0    0 -0.14273378817E+02 -0.28718243244E+02 -0.33720715787E+02  0.46546251311E+02  0.10000000000E+01 0.  0.
<mgrwt>
<rscale>  0 0.12500582E+03</rscale>
<asrwt>0</asrwt>
<pdfrwt beam="2">  1        4 0.87076377E-01 0.12500582E+03</pdfrwt>
<pdfrwt beam="1">  1       -4 0.10618751E-02 0.12500582E+03</pdfrwt>
<totfact> 0.50617796E+03</totfact>
</mgrwt>
</event>
<event>
 5    1  0.3245943E-002  0.1250040E+03  0.7818608E-02  0.1235063E+00
          4   -1    0    0  501    0  0.00000000000E+00  0.00000000000E+00  0.15923671371E+02  0.15974235817E+02  0.12700000000E+01 0.  1.
         -4   -1    0    0    0  501 -0.00000000000E+00 -0.00000000000E+00 -0.24488555886E+03  0.24488885201E+03  0.12700000000E+01 0.  1.
         25    2    1    2    0    0  0.00000000000E+00  0.00000000000E+00 -0.22896188749E+03  0.26086308783E+03  0.12500401861E+03 0.  0.
    9000005    1    3    3    0    0  0.56388583845E+02 -0.13546332402E+02 -0.65882906282E+02  0.87776607646E+02  0.10000000000E+01 0.  0.
    9000005    1    3    3    0    0 -0.56388583845E+02  0.13546332402E+02 -0.16307898121E+03  0.17308648018E+03  0.10000000000E+01 0.  0.
<mgrwt>
<rscale>  0 0.12500402E+03</rscale>
<asrwt>0</asrwt>
<pdfrwt beam="1">  1        4 0.24539387E-02 0.12500402E+03</pdfrwt>
<pdfrwt beam="2">  1       -4 0.37678841E-01 0.12500402E+03</pdfrwt>
<totfact> 0.80777867E+03</totfact>
</mgrwt>
</event>
<event>
 5    1  0.3245943E-002  0.1250001E+03  0.7818608E-02  0.1235069E+00
         -4   -1    0    0    0  501 -0.00000000000E+00  0.00000000000E+00  0.16358437620E+03  0.16358930600E+03  0.12700000000E+01 0.  1.
          4   -1    0    0  501    0  0.00000000000E+00 -0.00000000000E+00 -0.23856986550E+02  0.23890766151E+02  0.12700000000E+01 0.  1.
         25    2    1    2    0    0  0.00000000000E+00  0.00000000000E+00  0.13972738965E+03  0.18748007215E+03  0.12500013614E+03 0.  0.
    9000005    1    3    3    0    0 -0.59122919803E+02 -0.19925645733E+02  0.64517130883E+02  0.89755284977E+02  0.10000000000E+01 0.  0.
    9000005    1    3    3    0    0  0.59122919803E+02  0.19925645733E+02  0.75210258766E+02  0.97724787171E+02  0.10000000000E+01 0.  0.
<mgrwt>
<rscale>  0 0.12500014E+03</rscale>
<asrwt>0</asrwt>
<pdfrwt beam="2">  1        4 0.36732835E-02 0.12500014E+03</pdfrwt>
<pdfrwt beam="1">  1       -4 0.25169803E-01 0.12500014E+03</pdfrwt>
<totfact> 0.92287351E+03</totfact>
</mgrwt>
</event>
<event>
 5    1  0.3245943E-002  0.1249962E+03  0.7818608E-02  0.1235075E+00
         -4   -1    0    0    0  501 -0.00000000000E+00  0.00000000000E+00  0.24758085067E+03  0.24758410797E+03  0.12700000000E+01 0. -1.
          4   -1    0    0  501    0  0.00000000000E+00 -0.00000000000E+00 -0.15747781737E+02  0.15798909128E+02  0.12700000000E+01 0. -1.
         25    2    1    2    0    0  0.00000000000E+00  0.00000000000E+00  0.23183306893E+03  0.26338301710E+03  0.12499616732E+03 0.  0.
    9000005    1    3    3    0    0  0.23410558776E+02 -0.47730116918E+02  0.46707951392E+02  0.70773236795E+02  0.10000000000E+01 0.  0.
    9000005    1    3    3    0    0 -0.23410558776E+02  0.47730116918E+02  0.18512511754E+03  0.19260978030E+03  0.10000000000E+01 0.  0.
<mgrwt>
<rscale>  0 0.12499617E+03</rscale>
<asrwt>0</asrwt>
<pdfrwt beam="2">  1        4 0.24269191E-02 0.12499617E+03</pdfrwt>
<pdfrwt beam="1">  1       -4 0.38093544E-01 0.12499617E+03</pdfrwt>
<totfact> 0.80440495E+03</totfact>
</mgrwt>
</event>
<event>
 5    1  0.3245943E-002  0.1249994E+03  0.7818608E-02  0.1235070E+00
          4   -1    0    0  501    0  0.00000000000E+00  0.00000000000E+00  0.70963060437E+02  0.70974423890E+02  0.12700000000E+01 0. -1.
         -4   -1    0    0    0  501 -0.00000000000E+00 -0.00000000000E+00 -0.55022617654E+02  0.55037272403E+02  0.12700000000E+01 0. -1.
         25    2    1    2    0    0  0.00000000000E+00  0.00000000000E+00  0.15940442782E+02  0.12601169629E+03  0.12499939954E+03 0.  0.
    9000005    1    3    3    0    0 -0.22381901516E+02 -0.24218414394E+02 -0.45541968466E+02  0.56236571757E+02  0.10000000000E+01 0.  0.
    9000005    1    3    3    0    0  0.22381901516E+02  0.24218414394E+02  0.61482411248E+02  0.69775124536E+02  0.10000000000E+01 0.  0.
<mgrwt>
<rscale>  0 0.12499940E+03</rscale>
<asrwt>0</asrwt>
<pdfrwt beam="1">  1        4 0.10919395E-01 0.12499940E+03</pdfrwt>
<pdfrwt beam="2">  1       -4 0.84670195E-02 0.12499940E+03</pdfrwt>
<totfact> 0.10430842E+04</totfact>
</mgrwt>
</event>
<event>
 5    1  0.3245943E-002  0.1250390E+03  0.7818608E-02  0.1235008E+00
         -4   -1    0    0    0  501 -0.00000000000E+00  0.00000000000E+00  0.26085596851E+01  0.29012899942E+01  0.12700000000E+01 0.  1.
          4   -1    0    0  501    0  0.00000000000E+00 -0.00000000000E+00 -0.14185074223E+04  0.14185079908E+04  0.12700000000E+01 0.  1.
         25    2    1    2    0    0  0.00000000000E+00  0.00000000000E+00 -0.14158988626E+04  0.14214092808E+04  0.12503901164E+03 0.  0.
    9000005    1    3    3    0    0  0.27788638682E+02  0.50118028414E+02 -0.99183854708E+03  0.99349319509E+03  0.10000000000E+01 0.  0.
    9000005    1    3    3    0    0 -0.27788638682E+02 -0.50118028414E+02 -0.42406031553E+03  0.42791608573E+03  0.10000000000E+01 0.  0.
<mgrwt>
<rscale>  0 0.12503901E+03</rscale>
<asrwt>0</asrwt>
<pdfrwt beam="2">  1        4 0.21825389E+00 0.12503901E+03</pdfrwt>
<pdfrwt beam="1">  1       -4 0.42387946E-03 0.12503901E+03</pdfrwt>
<totfact> 0.19509555E+03</totfact>
</mgrwt>
</event>
<event>
 5    1  0.3245943E-002  0.1249952E+03  0.7818608E-02  0.1235077E+00
          4   -1    0    0  501    0  0.00000000000E+00  0.00000000000E+00  0.30398135665E+02  0.30424653686E+02  0.12700000000E+01 0. -1.
         -4   -1    0    0    0  501 -0.00000000000E+00 -0.00000000000E+00 -0.12840747665E+03  0.12841375689E+03  0.12700000000E+01 0. -1.
         25    2    1    2    0    0  0.00000000000E+00  0.00000000000E+00 -0.98009340982E+02  0.15883841058E+03  0.12499523893E+03 0.  0.
    9000005    1    3    3    0    0 -0.22655797638E+01  0.63763355502E+01  0.29937409048E+02  0.30708939533E+02  0.10000000000E+01 0.  0.
    9000005    1    3    3    0    0  0.22655797638E+01 -0.63763355502E+01 -0.12794675003E+03  0.12812947104E+03  0.10000000000E+01 0.  0.
<mgrwt>
<rscale>  0 0.12499524E+03</rscale>
<asrwt>0</asrwt>
<pdfrwt beam="1">  1        4 0.46791593E-02 0.12499524E+03</pdfrwt>
<pdfrwt beam="2">  1       -4 0.19757519E-01 0.12499524E+03</pdfrwt>
<totfact> 0.97577642E+03</totfact>
</mgrwt>
</event>
<event>
 5    1  0.3245943E-002  0.1249951E+03  0.7818608E-02  0.1235077E+00
         -4   -1    0    0    0  501 -0.00000000000E+00  0.00000000000E+00  0.86506488091E+02  0.86515810011E+02  0.12700000000E+01 0.  1.
          4   -1    0    0  501    0  0.00000000000E+00 -0.00000000000E+00 -0.45131332375E+02  0.45149197799E+02  0.12700000000E+01 0.  1.
         25    2    1    2    0    0  0.00000000000E+00  0.00000000000E+00  0.41375155717E+02  0.13166500781E+03  0.12499508299E+03 0.  0.
    9000005    1    3    3    0    0 -0.23390820288E+02 -0.12641603613E+02  0.80256097957E+02  0.84551652112E+02  0.10000000000E+01 0.  0.
    9000005    1    3    3    0    0  0.23390820288E+02  0.12641603613E+02 -0.38880942240E+02  0.47113355698E+02  0.10000000000E+01 0.  0.
<mgrwt>
<rscale>  0 0.12499508E+03</rscale>
<asrwt>0</asrwt>
<pdfrwt beam="2">  1        4 0.69453733E-02 0.12499508E+03</pdfrwt>
<pdfrwt beam="1">  1       -4 0.13310782E-01 0.12499508E+03</pdfrwt>
<totfact> 0.10309997E+04</totfact>
</mgrwt>
</event>
<event>
 5    1  0.3245943E-002  0.1250023E+03  0.7818608E-02  0.1235066E+00
         -4   -1    0    0    0  501 -0.00000000000E+00  0.00000000000E+00  0.41169823540E+03  0.41170019424E+03  0.12700000000E+01 0. -1.
          4   -1    0    0  501    0  0.00000000000E+00 -0.00000000000E+00 -0.94440070607E+01  0.95290172296E+01  0.12700000000E+01 0. -1.
         25    2    1    2    0    0  0.00000000000E+00  0.00000000000E+00  0.40225422834E+03  0.42122921147E+03  0.12500233747E+03 0.  0.
    9000005    1    3    3    0    0 -0.41640493829E+02 -0.46199899074E+01  0.35738135151E+03  0.35983010635E+03  0.10000000000E+01 0.  0.
    9000005    1    3    3    0    0  0.41640493829E+02  0.46199899074E+01  0.44872876834E+02  0.61399105112E+02  0.10000000000E+01 0.  0.
<mgrwt>
<rscale>  0 0.12500234E+03</rscale>
<asrwt>0</asrwt>
<pdfrwt beam="2">  1        4 0.14596144E-02 0.12500234E+03</pdfrwt>
<pdfrwt beam="1">  1       -4 0.63344867E-01 0.12500234E+03</pdfrwt>
<totfact> 0.62535918E+03</totfact>
</mgrwt>
</event>
<event>
 5    1  0.3245943E-002  0.1249951E+03  0.7818608E-02  0.1235077E+00
         -4   -1    0    0    0  501 -0.00000000000E+00  0.00000000000E+00  0.71070258698E+03  0.71070372170E+03  0.12700000000E+01 0. -1.
          4   -1    0    0  501    0  0.00000000000E+00 -0.00000000000E+00 -0.54213720729E+01  0.55681392900E+01  0.12700000000E+01 0. -1.
         25    2    1    2    0    0  0.00000000000E+00  0.00000000000E+00  0.70528121490E+03  0.71627186099E+03  0.12499514689E+03 0.  0.
    9000005    1    3    3    0    0 -0.50758550471E+02  0.11423707085E+02  0.55098315870E+03  0.55343506638E+03  0.10000000000E+01 0.  0.
    9000005    1    3    3    0    0  0.50758550471E+02 -0.11423707085E+02  0.15429805621E+03  0.16283679461E+03  0.10000000000E+01 0.  0.
<mgrwt>
<rscale>  0 0.12499515E+03</rscale>
<asrwt>0</asrwt>
<pdfrwt beam="2">  1        4 0.84543502E-03 0.12499515E+03</pdfrwt>
<pdfrwt beam="1">  1       -4 0.10935015E+00 0.12499515E+03</pdfrwt>
<totfact> 0.42246043E+03</totfact>
</mgrwt>
</event>
<event>
 5    1  0.3245943E-002  0.1249977E+03  0.7818608E-02  0.1235073E+00
          4   -1    0    0  501    0  0.00000000000E+00  0.00000000000E+00  0.84180223533E+01  0.85132837578E+01  0.12700000000E+01 0. -1.
         -4   -1    0    0    0  501 -0.00000000000E+00 -0.00000000000E+00 -0.46131045449E+03  0.46131220265E+03  0.12700000000E+01 0. -1.
         25    2    1    2    0    0  0.00000000000E+00  0.00000000000E+00 -0.45289243213E+03  0.46982548641E+03  0.12499773038E+03 0.  0.
    9000005    1    3    3    0    0  0.59296912410E+01  0.31896294557E+02 -0.25697465279E+02  0.41399209732E+02  0.10000000000E+01 0.  0.
    9000005    1    3    3    0    0 -0.59296912410E+01 -0.31896294557E+02 -0.42719496685E+03  0.42842627668E+03  0.10000000000E+01 0.  0.
<mgrwt>
<rscale>  0 0.12499773E+03</rscale>
<asrwt>0</asrwt>
<pdfrwt beam="1">  1        4 0.13025430E-02 0.12499773E+03</pdfrwt>
<pdfrwt beam="2">  1       -4 0.70978282E-01 0.12499773E+03</pdfrwt>
<totfact> 0.58286900E+03</totfact>
</mgrwt>
</event>
<event>
 5    1  0.3245943E-002  0.1249989E+03  0.7818608E-02  0.1235071E+00
          4   -1    0    0  501    0  0.00000000000E+00  0.00000000000E+00  0.59580220215E+01  0.60918738011E+01  0.12700000000E+01 0.  1.
         -4   -1    0    0    0  501 -0.00000000000E+00 -0.00000000000E+00 -0.64820024601E+03  0.64820149015E+03  0.12700000000E+01 0.  1.
         25    2    1    2    0    0  0.00000000000E+00  0.00000000000E+00 -0.64224222399E+03  0.65429336395E+03  0.12499892732E+03 0.  0.
    9000005    1    3    3    0    0  0.58157151083E+02  0.22179129200E+02 -0.35027200531E+03  0.35576065788E+03  0.10000000000E+01 0.  0.
    9000005    1    3    3    0    0 -0.58157151083E+02 -0.22179129200E+02 -0.29197021869E+03  0.29853270607E+03  0.10000000000E+01 0.  0.
<mgrwt>
<rscale>  0 0.12499893E+03</rscale>
<asrwt>0</asrwt>
<pdfrwt beam="1">  1        4 0.92701128E-03 0.12499893E+03</pdfrwt>
<pdfrwt beam="2">  1       -4 0.99733452E-01 0.12499893E+03</pdfrwt>
<totfact> 0.45611369E+03</totfact>
</mgrwt>
</event>
<event>
 5    1  0.3245943E-002  0.1250050E+03  0.7818608E-02  0.1235062E+00
          4   -1    0    0  501    0  0.00000000000E+00  0.00000000000E+00  0.12854872531E+02  0.12917455159E+02  0.12700000000E+01 0.  1.
         -4   -1    0    0    0  501 -0.00000000000E+00 -0.00000000000E+00 -0.30309537284E+03  0.30309803355E+03  0.12700000000E+01 0.  1.
         25    2    1    2    0    0  0.00000000000E+00  0.00000000000E+00 -0.29024050031E+03  0.31601548871E+03  0.12500496422E+03 0.  0.
    9000005    1    3    3    0    0 -0.17920957838E+02 -0.53127884749E+02 -0.75343714429E+02  0.93922351822E+02  0.10000000000E+01 0.  0.
    9000005    1    3    3    0    0  0.17920957838E+02  0.53127884749E+02 -0.21489678588E+03  0.22209313688E+03  0.10000000000E+01 0.  0.
<mgrwt>
<rscale>  0 0.12500496E+03</rscale>
<asrwt>0</asrwt>
<pdfrwt beam="1">  1        4 0.19826916E-02 0.12500496E+03</pdfrwt>
<pdfrwt beam="2">  1       -4 0.46635071E-01 0.12500496E+03</pdfrwt>
<totfact> 0.73624447E+03</totfact>
</mgrwt>
</event>
<event>
 5    1  0.3245943E-002  0.1249857E+03  0.7818608E-02  0.1235092E+00
         -4   -1    0    0    0  501 -0.00000000000E+00  0.00000000000E+00  0.64434894155E+02  0.64447408674E+02  0.12700000000E+01 0.  1.
          4   -1    0    0  501    0  0.00000000000E+00 -0.00000000000E+00 -0.60584295325E+02  0.60597605069E+02  0.12700000000E+01 0.  1.
         25    2    1    2    0    0  0.00000000000E+00  0.00000000000E+00  0.38505988299E+01  0.12504501374E+03  0.12498571259E+03 0.  0.
    9000005    1    3    3    0    0  0.55630817962E+02  0.10403255979E+00 -0.26540939390E+02  0.61645926010E+02  0.10000000000E+01 0.  0.
    9000005    1    3    3    0    0 -0.55630817962E+02 -0.10403255979E+00  0.30391538220E+02  0.63399087732E+02  0.10000000000E+01 0.  0.
<mgrwt>
<rscale>  0 0.12498571E+03</rscale>
<asrwt>0</asrwt>
<pdfrwt beam="2">  1        4 0.93226473E-02 0.12498571E+03</pdfrwt>
<pdfrwt beam="1">  1       -4 0.99150471E-02 0.12498571E+03</pdfrwt>
<totfact> 0.10455261E+04</totfact>
</mgrwt>
</event>
<event>
 5    1  0.3245943E-002  0.1250031E+03  0.7818608E-02  0.1235065E+00
          4   -1    0    0  501    0  0.00000000000E+00  0.00000000000E+00  0.12940525260E+02  0.13002695644E+02  0.12700000000E+01 0.  1.
         -4   -1    0    0    0  501 -0.00000000000E+00 -0.00000000000E+00 -0.30108961657E+03  0.30109229500E+03  0.12700000000E+01 0.  1.
         25    2    1    2    0    0  0.00000000000E+00  0.00000000000E+00 -0.28814909131E+03  0.31409499064E+03  0.12500305726E+03 0.  0.
    9000005    1    3    3    0    0  0.27693464909E+01  0.33925555855E+02 -0.12383530793E+02  0.36234851386E+02  0.10000000000E+01 0.  0.
    9000005    1    3    3    0    0 -0.27693464909E+01 -0.33925555855E+02 -0.27576556052E+03  0.27786013926E+03  0.10000000000E+01 0.  0.
<mgrwt>
<rscale>  0 0.12500306E+03</rscale>
<asrwt>0</asrwt>
<pdfrwt beam="1">  1        4 0.19958386E-02 0.12500306E+03</pdfrwt>
<pdfrwt beam="2">  1       -4 0.46326462E-01 0.12500306E+03</pdfrwt>
<totfact> 0.73858991E+03</totfact>
</mgrwt>
</event>
<event>
 5    1  0.3245943E-002  0.1249985E+03  0.7818608E-02  0.1235072E+00
          4   -1    0    0  501    0  0.00000000000E+00  0.00000000000E+00  0.95094582483E+01  0.95938884804E+01  0.12700000000E+01 0. -1.
         -4   -1    0    0    0  501 -0.00000000000E+00 -0.00000000000E+00 -0.40886430481E+03  0.40886627722E+03  0.12700000000E+01 0. -1.
         25    2    1    2    0    0  0.00000000000E+00  0.00000000000E+00 -0.39935484656E+03  0.41846016570E+03  0.12499846721E+03 0.  0.
    9000005    1    3    3    0    0  0.20696345548E+02  0.37903934547E+02 -0.48469018238E+02  0.64925285538E+02  0.10000000000E+01 0.  0.
    9000005    1    3    3    0    0 -0.20696345548E+02 -0.37903934547E+02 -0.35088582832E+03  0.35353488016E+03  0.10000000000E+01 0.  0.
<mgrwt>
<rscale>  0 0.12499847E+03</rscale>
<asrwt>0</asrwt>
<pdfrwt beam="1">  1        4 0.14696403E-02 0.12499847E+03</pdfrwt>
<pdfrwt beam="2">  1       -4 0.62908834E-01 0.12499847E+03</pdfrwt>
<totfact> 0.62798250E+03</totfact>
</mgrwt>
</event>
<event>
 5    1  0.3245943E-002  0.1250012E+03  0.7818608E-02  0.1235067E+00
         -4   -1    0    0    0  501 -0.00000000000E+00  0.00000000000E+00  0.11179352971E+02  0.11251259168E+02  0.12700000000E+01 0. -1.
          4   -1    0    0  501    0  0.00000000000E+00 -0.00000000000E+00 -0.34822985239E+03  0.34823216823E+03  0.12700000000E+01 0. -1.
         25    2    1    2    0    0  0.00000000000E+00  0.00000000000E+00 -0.33705049941E+03  0.35948342740E+03  0.12500118168E+03 0.  0.
    9000005    1    3    3    0    0 -0.75514205718E+01 -0.23038534132E+02 -0.33416780165E+03  0.33504763492E+03  0.10000000000E+01 0.  0.
    9000005    1    3    3    0    0  0.75514205718E+01  0.23038534132E+02 -0.28826977631E+01  0.24435792477E+02  0.10000000000E+01 0.  0.
<mgrwt>
<rscale>  0 0.12500118E+03</rscale>
<asrwt>0</asrwt>
<pdfrwt beam="2">  1        4 0.53579525E-01 0.12500118E+03</pdfrwt>
<pdfrwt beam="1">  1       -4 0.17256101E-02 0.12500118E+03</pdfrwt>
<totfact> 0.68691919E+03</totfact>
</mgrwt>
</event>
<event>
 5    1  0.3245943E-002  0.1250081E+03  0.7818608E-02  0.1235057E+00
          4   -1    0    0  501    0  0.00000000000E+00  0.00000000000E+00  0.42945109290E+03  0.42945297076E+03  0.12700000000E+01 0. -1.
         -4   -1    0    0    0  501 -0.00000000000E+00 -0.00000000000E+00 -0.90508592586E+01  0.91395269746E+01  0.12700000000E+01 0. -1.
         25    2    1    2    0    0  0.00000000000E+00  0.00000000000E+00  0.42040023364E+03  0.43859249773E+03  0.12500809023E+03 0.  0.
    9000005    1    3    3    0    0 -0.30661249701E+02 -0.25909147217E+02  0.37825603593E+03  0.38038142024E+03  0.10000000000E+01 0.  0.
    9000005    1    3    3    0    0  0.30661249701E+02  0.25909147217E+02  0.42144197712E+02  0.58211077498E+02  0.10000000000E+01 0.  0.
<mgrwt>
<rscale>  0 0.12500809E+03</rscale>
<asrwt>0</asrwt>
<pdfrwt beam="1">  1        4 0.66076348E-01 0.12500809E+03</pdfrwt>
<pdfrwt beam="2">  1       -4 0.13994053E-02 0.12500809E+03</pdfrwt>
<totfact> 0.60953920E+03</totfact>
</mgrwt>
</event>
<event>
 5    1  0.3245943E-002  0.1250029E+03  0.7818608E-02  0.1235065E+00
          4   -1    0    0  501    0  0.00000000000E+00  0.00000000000E+00  0.92038007952E+03  0.92038095573E+03  0.12700000000E+01 0.  1.
         -4   -1    0    0    0  501 -0.00000000000E+00 -0.00000000000E+00 -0.41484664803E+01  0.43385105899E+01  0.12700000000E+01 0.  1.
         25    2    1    2    0    0  0.00000000000E+00  0.00000000000E+00  0.91623161304E+03  0.92471946632E+03  0.12500289062E+03 0.  0.
    9000005    1    3    3    0    0  0.54192098424E+02  0.14096466216E+02  0.66338202228E+03  0.66574184289E+03  0.10000000000E+01 0.  0.
    9000005    1    3    3    0    0 -0.54192098424E+02 -0.14096466216E+02  0.25284959075E+03  0.25897762342E+03  0.10000000000E+01 0.  0.
<mgrwt>
<rscale>  0 0.12500289E+03</rscale>
<asrwt>0</asrwt>
<pdfrwt beam="1">  1        4 0.14161147E+00 0.12500289E+03</pdfrwt>
<pdfrwt beam="2">  1       -4 0.65291247E-03 0.12500289E+03</pdfrwt>
<totfact> 0.33228804E+03</totfact>
</mgrwt>
</event>
<event>
 5    1  0.3245943E-002  0.1250022E+03  0.7818608E-02  0.1235066E+00
         -4   -1    0    0    0  501 -0.00000000000E+00  0.00000000000E+00  0.22587433197E+04  0.22587436767E+04  0.12700000000E+01 0. -1.
          4   -1    0    0  501    0  0.00000000000E+00 -0.00000000000E+00 -0.14958958049E+01  0.19622956605E+01  0.12700000000E+01 0. -1.
         25    2    1    2    0    0  0.00000000000E+00  0.00000000000E+00  0.22572474239E+04  0.22607059724E+04  0.12500224375E+03 0.  0.
    9000005    1    3    3    0    0 -0.60292588181E+02  0.64624156779E+01  0.85528319472E+03  0.85743063987E+03  0.10000000000E+01 0.  0.
    9000005    1    3    3    0    0  0.60292588181E+02 -0.64624156779E+01  0.14019642292E+04  0.14032753325E+04  0.10000000000E+01 0.  0.
<mgrwt>
<rscale>  0 0.12500224E+03</rscale>
<asrwt>0</asrwt>
<pdfrwt beam="2">  1        4 0.26604412E-03 0.12500224E+03</pdfrwt>
<pdfrwt beam="1">  1       -4 0.34753236E+00 0.12500224E+03</pdfrwt>
<totfact> 0.68304742E+02</totfact>
</mgrwt>
</event>
<event>
 5    1  0.3245943E-002  0.1249999E+03  0.7818608E-02  0.1235069E+00
         -4   -1    0    0    0  501 -0.00000000000E+00  0.00000000000E+00  0.12843245382E+02  0.12905884392E+02  0.12700000000E+01 0.  1.
          4   -1    0    0  501    0  0.00000000000E+00 -0.00000000000E+00 -0.30334379807E+03  0.30334645659E+03  0.12700000000E+01 0.  1.
         25    2    1    2    0    0  0.00000000000E+00  0.00000000000E+00 -0.29050055268E+03  0.31625234098E+03  0.12499988826E+03 0.  0.
    9000005    1    3    3    0    0  0.35577794326E+02  0.51374849571E+02 -0.14449805163E+03  0.15743519791E+03  0.10000000000E+01 0.  0.
    9000005    1    3    3    0    0 -0.35577794326E+02 -0.51374849571E+02 -0.14600250106E+03  0.15881714307E+03  0.10000000000E+01 0.  0.
<mgrwt>
<rscale>  0 0.12499989E+03</rscale>
<asrwt>0</asrwt>
<pdfrwt beam="2">  1        4 0.46673294E-01 0.12499989E+03</pdfrwt>
<pdfrwt beam="1">  1       -4 0.19809070E-02 0.12499989E+03</pdfrwt>
<totfact> 0.73604272E+03</totfact>
</mgrwt>
</event>
<event>
 5    1  0.3245943E-002  0.1249961E+03  0.7818608E-02  0.1235075E+00
         -4   -1    0    0    0  501 -0.00000000000E+00  0.00000000000E+00  0.26983745434E+02  0.27013615412E+02  0.12700000000E+01 0. -1.
          4   -1    0    0  501    0  0.00000000000E+00 -0.00000000000E+00 -0.14464124024E+03  0.14464681565E+03  0.12700000000E+01 0. -1.
         25    2    1    2    0    0  0.00000000000E+00  0.00000000000E+00 -0.11765749481E+03  0.17166043106E+03  0.12499606997E+03 0.  0.
    9000005    1    3    3    0    0 -0.19701055961E+02 -0.38767124114E+01  0.22439749989E+02  0.30128107884E+02  0.10000000000E+01 0.  0.
    9000005    1    3    3    0    0  0.19701055961E+02  0.38767124114E+01 -0.14009724480E+03  0.14153232318E+03  0.10000000000E+01 0.  0.
<mgrwt>
<rscale>  0 0.12499607E+03</rscale>
<asrwt>0</asrwt>
<pdfrwt beam="2">  1        4 0.22255225E-01 0.12499607E+03</pdfrwt>
<pdfrwt beam="1">  1       -4 0.41540721E-02 0.12499607E+03</pdfrwt>
<totfact> 0.95148449E+03</totfact>
</mgrwt>
</event>
<event>
 5    1  0.3245943E-002  0.1250062E+03  0.7818608E-02  0.1235060E+00
          4   -1    0    0  501    0  0.00000000000E+00  0.00000000000E+00  0.66440096307E+03  0.66440217687E+03  0.12700000000E+01 0.  1.
         -4   -1    0    0    0  501 -0.00000000000E+00 -0.00000000000E+00 -0.58101315922E+01  0.59473127645E+01  0.12700000000E+01 0.  1.
         25    2    1    2    0    0  0.00000000000E+00  0.00000000000E+00  0.65859083147E+03  0.67034948963E+03  0.12500621963E+03 0.  0.
    9000005    1    3    3    0    0  0.46957931868E+02 -0.28368557042E+02  0.48979693657E+03  0.49286089464E+03  0.10000000000E+01 0.  0.
    9000005    1    3    3    0    0 -0.46957931868E+02  0.28368557042E+02  0.16879389491E+03  0.17748859499E+03  0.10000000000E+01 0.  0.
<mgrwt>
<rscale>  0 0.12500622E+03</rscale>
<asrwt>0</asrwt>
<pdfrwt beam="1">  1        4 0.10222613E+00 0.12500622E+03</pdfrwt>
<pdfrwt beam="2">  1       -4 0.90451260E-03 0.12500622E+03</pdfrwt>
<totfact> 0.44692716E+03</totfact>
</mgrwt>
</event>
<event>
 5    1  0.3245943E-002  0.1249975E+03  0.7818608E-02  0.1235073E+00
          4   -1    0    0  501    0  0.00000000000E+00  0.00000000000E+00  0.27497003598E+03  0.27497296883E+03  0.12700000000E+01 0. -1.
         -4   -1    0    0    0  501 -0.00000000000E+00 -0.00000000000E+00 -0.14174130428E+02  0.14230912599E+02  0.12700000000E+01 0. -1.
         25    2    1    2    0    0  0.00000000000E+00  0.00000000000E+00  0.26079590555E+03  0.28920388142E+03  0.12499752270E+03 0.  0.
    9000005    1    3    3    0    0 -0.60637157383E+02 -0.14996031346E+02  0.12616363422E+03  0.14078355164E+03  0.10000000000E+01 0.  0.
    9000005    1    3    3    0    0  0.60637157383E+02  0.14996031346E+02  0.13463227133E+03  0.14842032979E+03  0.10000000000E+01 0.  0.
<mgrwt>
<rscale>  0 0.12499752E+03</rscale>
<asrwt>0</asrwt>
<pdfrwt beam="1">  1        4 0.42307673E-01 0.12499752E+03</pdfrwt>
<pdfrwt beam="2">  1       -4 0.21852291E-02 0.12499752E+03</pdfrwt>
<totfact> 0.76977590E+03</totfact>
</mgrwt>
</event>
<event>
 5    1  0.3245943E-002  0.1249993E+03  0.7818608E-02  0.1235070E+00
         -4   -1    0    0    0  501 -0.00000000000E+00  0.00000000000E+00  0.27175272168E+02  0.27204931858E+02  0.12700000000E+01 0.  1.
          4   -1    0    0  501    0  0.00000000000E+00 -0.00000000000E+00 -0.14363025118E+03  0.14363586584E+03  0.12700000000E+01 0.  1.
         25    2    1    2    0    0  0.00000000000E+00  0.00000000000E+00 -0.11645497901E+03  0.17084079769E+03  0.12499926408E+03 0.  0.
    9000005    1    3    3    0    0  0.50786797290E+02 -0.29564014300E+02 -0.87280620880E+02  0.10522469530E+03  0.10000000000E+01 0.  0.
    9000005    1    3    3    0    0 -0.50786797290E+02  0.29564014300E+02 -0.29174358133E+02  0.65616102390E+02  0.10000000000E+01 0.  0.
<mgrwt>
<rscale>  0 0.12499926E+03</rscale>
<asrwt>0</asrwt>
<pdfrwt beam="2">  1        4 0.22099675E-01 0.12499926E+03</pdfrwt>
<pdfrwt beam="1">  1       -4 0.41835246E-02 0.12499926E+03</pdfrwt>
<totfact> 0.95293729E+03</totfact>
</mgrwt>
</event>
<event>
 5    1  0.3245943E-002  0.1249995E+03  0.7818608E-02  0.1235070E+00
          4   -1    0    0  501    0  0.00000000000E+00  0.00000000000E+00  0.23749180085E+02  0.23783112805E+02  0.12700000000E+01 0.  1.
         -4   -1    0    0    0  501 -0.00000000000E+00 -0.00000000000E+00 -0.16432434970E+03  0.16432925730E+03  0.12700000000E+01 0.  1.
         25    2    1    2    0    0  0.00000000000E+00  0.00000000000E+00 -0.14057516961E+03  0.18811237010E+03  0.12499954189E+03 0.  0.
    9000005    1    3    3    0    0  0.86863962129E+01  0.43034601649E+01  0.22618154900E+02  0.24628320683E+02  0.10000000000E+01 0.  0.
    9000005    1    3    3    0    0 -0.86863962129E+01 -0.43034601649E+01 -0.16319332451E+03  0.16348404942E+03  0.10000000000E+01 0.  0.
<mgrwt>
<rscale>  0 0.12499954E+03</rscale>
<asrwt>0</asrwt>
<pdfrwt beam="1">  1        4 0.36567078E-02 0.12499954E+03</pdfrwt>
<pdfrwt beam="2">  1       -4 0.25283656E-01 0.12499954E+03</pdfrwt>
<totfact> 0.92177743E+03</totfact>
</mgrwt>
</event>
<event>
 5    1  0.3245943E-002  0.1249999E+03  0.7818608E-02  0.1235069E+00
          4   -1    0    0  501    0  0.00000000000E+00  0.00000000000E+00  0.38963822123E+01  0.40981330316E+01  0.12700000000E+01 0.  1.
         -4   -1    0    0    0  501 -0.00000000000E+00 -0.00000000000E+00 -0.97702812694E+03  0.97702895235E+03  0.12700000000E+01 0.  1.
         25    2    1    2    0    0  0.00000000000E+00  0.00000000000E+00 -0.97313174473E+03  0.98112708538E+03  0.12499986030E+03 0.  0.
    9000005    1    3    3    0    0 -0.18169135269E+01  0.57264986813E+02 -0.29070769794E+03  0.29630144368E+03  0.10000000000E+01 0.  0.
    9000005    1    3    3    0    0  0.18169135269E+01 -0.57264986813E+02 -0.68242404679E+03  0.68482564170E+03  0.10000000000E+01 0.  0.
<mgrwt>
<rscale>  0 0.12499986E+03</rscale>
<asrwt>0</asrwt>
<pdfrwt beam="1">  1        4 0.61502698E-03 0.12499986E+03</pdfrwt>
<pdfrwt beam="2">  1       -4 0.15032741E+00 0.12499986E+03</pdfrwt>
<totfact> 0.31236104E+03</totfact>
</mgrwt>
</event>
<event>
 5    1  0.3245943E-002  0.1249981E+03  0.7818608E-02  0.1235072E+00
         -4   -1    0    0    0  501 -0.00000000000E+00  0.00000000000E+00  0.18994778780E+03  0.18995203340E+03  0.12700000000E+01 0. -1.
          4   -1    0    0  501    0  0.00000000000E+00 -0.00000000000E+00 -0.20540156371E+02  0.20579381035E+02  0.12700000000E+01 0. -1.
         25    2    1    2    0    0  0.00000000000E+00  0.00000000000E+00  0.16940763143E+03  0.21053141443E+03  0.12499812349E+03 0.  0.
    9000005    1    3    3    0    0 -0.51961418072E+02 -0.19538143160E+02  0.36373449152E+02  0.66375867673E+02  0.10000000000E+01 0.  0.
    9000005    1    3    3    0    0  0.51961418072E+02  0.19538143160E+02  0.13303418228E+03  0.14415554676E+03  0.10000000000E+01 0.  0.
<mgrwt>
<rscale>  0 0.12499812E+03</rscale>
<asrwt>0</asrwt>
<pdfrwt beam="2">  1        4 0.31633681E-02 0.12499812E+03</pdfrwt>
<pdfrwt beam="1">  1       -4 0.29226079E-01 0.12499812E+03</pdfrwt>
<totfact> 0.88392876E+03</totfact>
</mgrwt>
</event>
<event>
 5    1  0.3245943E-002  0.1249756E+03  0.7818608E-02  0.1235107E+00
          4   -1    0    0  501    0  0.00000000000E+00  0.00000000000E+00  0.21256504772E+02  0.21294409950E+02  0.12700000000E+01 0.  1.
         -4   -1    0    0    0  501 -0.00000000000E+00 -0.00000000000E+00 -0.18349170791E+03  0.18349610288E+03  0.12700000000E+01 0.  1.
         25    2    1    2    0    0  0.00000000000E+00  0.00000000000E+00 -0.16223520314E+03  0.20479051283E+03  0.12497556964E+03 0.  0.
    9000005    1    3    3    0    0 -0.34989349561E+02  0.51494592435E+02 -0.89753680109E+02  0.10923676453E+03  0.10000000000E+01 0.  0.
    9000005    1    3    3    0    0  0.34989349561E+02 -0.51494592435E+02 -0.72481523029E+02  0.95553748296E+02  0.10000000000E+01 0.  0.
<mgrwt>
<rscale>  0 0.12497557E+03</rscale>
<asrwt>0</asrwt>
<pdfrwt beam="1">  1        4 0.32734855E-02 0.12497557E+03</pdfrwt>
<pdfrwt beam="2">  1       -4 0.28232746E-01 0.12497557E+03</pdfrwt>
<totfact> 0.89382623E+03</totfact>
</mgrwt>
</event>
<event>
 5    1  0.3245943E-002  0.1250004E+03  0.7818608E-02  0.1235069E+00
          4   -1    0    0  501    0  0.00000000000E+00  0.00000000000E+00  0.23160868517E+02  0.23195661889E+02  0.12700000000E+01 0.  1.
         -4   -1    0    0    0  501 -0.00000000000E+00 -0.00000000000E+00 -0.16849454117E+03  0.16849932731E+03  0.12700000000E+01 0.  1.
         25    2    1    2    0    0  0.00000000000E+00  0.00000000000E+00 -0.14533367265E+03  0.19169498920E+03  0.12500036991E+03 0.  0.
    9000005    1    3    3    0    0  0.34610196410E+02  0.46698385282E+02 -0.10786078738E+03  0.12252980999E+03  0.10000000000E+01 0.  0.
    9000005    1    3    3    0    0 -0.34610196410E+02 -0.46698385282E+02 -0.37472885274E+02  0.69165179203E+02  0.10000000000E+01 0.  0.
<mgrwt>
<rscale>  0 0.12500037E+03</rscale>
<asrwt>0</asrwt>
<pdfrwt beam="1">  1        4 0.35662552E-02 0.12500037E+03</pdfrwt>
<pdfrwt beam="2">  1       -4 0.25925281E-01 0.12500037E+03</pdfrwt>
<totfact> 0.91552468E+03</totfact>
</mgrwt>
</event>
<event>
 5    1  0.3245943E-002  0.1249841E+03  0.7818608E-02  0.1235094E+00
         -4   -1    0    0    0  501 -0.00000000000E+00  0.00000000000E+00  0.11905509975E+02  0.11973055907E+02  0.12700000000E+01 0.  1.
          4   -1    0    0  501    0  0.00000000000E+00 -0.00000000000E+00 -0.32702403387E+03  0.32702649989E+03  0.12700000000E+01 0.  1.
         25    2    1    2    0    0  0.00000000000E+00  0.00000000000E+00 -0.31511852390E+03  0.33899955580E+03  0.12498405789E+03 0.  0.
    9000005    1    3    3    0    0 -0.58686413750E+02  0.12450345178E+02 -0.20493973202E+03  0.21354250165E+03  0.10000000000E+01 0.  0.
    9000005    1    3    3    0    0  0.58686413750E+02 -0.12450345178E+02 -0.11017879188E+03  0.12545705414E+03  0.10000000000E+01 0.  0.
<mgrwt>
<rscale>  0 0.12498406E+03</rscale>
<asrwt>0</asrwt>
<pdfrwt beam="2">  1        4 0.50316769E-01 0.12498406E+03</pdfrwt>
<pdfrwt beam="1">  1       -4 0.18370027E-02 0.12498406E+03</pdfrwt>
<totfact> 0.70976993E+03</totfact>
</mgrwt>
</event>
<event>
 5    1  0.3245943E-002  0.1250025E+03  0.7818608E-02  0.1235065E+00
          4   -1    0    0  501    0  0.00000000000E+00  0.00000000000E+00  0.71654701516E+03  0.71654814063E+03  0.12700000000E+01 0. -1.
         -4   -1    0    0    0  501 -0.00000000000E+00 -0.00000000000E+00 -0.53765977741E+01  0.55245546087E+01  0.12700000000E+01 0. -1.
         25    2    1    2    0    0  0.00000000000E+00  0.00000000000E+00  0.71117041739E+03  0.72207269523E+03  0.12500245853E+03 0.  0.
    9000005    1    3    3    0    0 -0.22943392576E+02 -0.36390668057E+02  0.61742707060E+03  0.61892476723E+03  0.10000000000E+01 0.  0.
    9000005    1    3    3    0    0  0.22943392576E+02  0.36390668057E+02  0.93743346789E+02  0.10314792801E+03  0.10000000000E+01 0.  0.
<mgrwt>
<rscale>  0 0.12500246E+03</rscale>
<asrwt>0</asrwt>
<pdfrwt beam="1">  1        4 0.11024948E+00 0.12500246E+03</pdfrwt>
<pdfrwt beam="2">  1       -4 0.83863670E-03 0.12500246E+03</pdfrwt>
<totfact> 0.41944546E+03</totfact>
</mgrwt>
</event>
<event>
 5    1  0.3245943E-002  0.1250002E+03  0.7818608E-02  0.1235069E+00
          4   -1    0    0  501    0  0.00000000000E+00  0.00000000000E+00  0.17879720801E+03  0.17880171837E+03  0.12700000000E+01 0.  1.
         -4   -1    0    0    0  501 -0.00000000000E+00 -0.00000000000E+00 -0.21824205334E+02  0.21861126194E+02  0.12700000000E+01 0.  1.
         25    2    1    2    0    0  0.00000000000E+00  0.00000000000E+00  0.15697300267E+03  0.20066284456E+03  0.12500021448E+03 0.  0.
    9000005    1    3    3    0    0 -0.51688355746E+01 -0.60455095386E+02  0.54475163273E+02  0.81548015506E+02  0.10000000000E+01 0.  0.
    9000005    1    3    3    0    0  0.51688355746E+01  0.60455095386E+02  0.10249783940E+03  0.11911482906E+03  0.10000000000E+01 0.  0.
<mgrwt>
<rscale>  0 0.12500021E+03</rscale>
<asrwt>0</asrwt>
<pdfrwt beam="1">  1        4 0.27510449E-01 0.12500021E+03</pdfrwt>
<pdfrwt beam="2">  1       -4 0.33607571E-02 0.12500021E+03</pdfrwt>
<totfact> 0.90023400E+03</totfact>
</mgrwt>
</event>
<event>
 5    1  0.3245943E-002  0.1250106E+03  0.7818608E-02  0.1235053E+00
          4   -1    0    0  501    0  0.00000000000E+00  0.00000000000E+00  0.19616728040E+02  0.19657795375E+02  0.12700000000E+01 0.  1.
         -4   -1    0    0    0  501 -0.00000000000E+00 -0.00000000000E+00 -0.19891089182E+03  0.19891494610E+03  0.12700000000E+01 0.  1.
         25    2    1    2    0    0  0.00000000000E+00  0.00000000000E+00 -0.17929416378E+03  0.21857274148E+03  0.12501058416E+03 0.  0.
    9000005    1    3    3    0    0 -0.32014182821E+02 -0.49820268213E+02 -0.54724570925E+02  0.80639603728E+02  0.10000000000E+01 0.  0.
    9000005    1    3    3    0    0  0.32014182821E+02  0.49820268213E+02 -0.12456959285E+03  0.13793313775E+03  0.10000000000E+01 0.  0.
<mgrwt>
<rscale>  0 0.12501058E+03</rscale>
<asrwt>0</asrwt>
<pdfrwt beam="1">  1        4 0.30214292E-02 0.12501058E+03</pdfrwt>
<pdfrwt beam="2">  1       -4 0.30605145E-01 0.12501058E+03</pdfrwt>
<totfact> 0.87074110E+03</totfact>
</mgrwt>
</event>
<event>
 5    1  0.3245943E-002  0.1250026E+03  0.7818608E-02  0.1235065E+00
         -4   -1    0    0    0  501 -0.00000000000E+00  0.00000000000E+00  0.13822820194E+03  0.13823403601E+03  0.12700000000E+01 0.  1.
          4   -1    0    0  501    0  0.00000000000E+00 -0.00000000000E+00 -0.28239891435E+02  0.28268434132E+02  0.12700000000E+01 0.  1.
         25    2    1    2    0    0  0.00000000000E+00  0.00000000000E+00  0.10998831051E+03  0.16650247015E+03  0.12500257644E+03 0.  0.
    9000005    1    3    3    0    0 -0.43417305679E+02  0.36669149518E+02  0.89618835263E+02  0.10612362881E+03  0.10000000000E+01 0.  0.
    9000005    1    3    3    0    0  0.43417305679E+02 -0.36669149518E+02  0.20369475246E+02  0.60378841332E+02  0.10000000000E+01 0.  0.
<mgrwt>
<rscale>  0 0.12500258E+03</rscale>
<asrwt>0</asrwt>
<pdfrwt beam="2">  1        4 0.43472431E-02 0.12500258E+03</pdfrwt>
<pdfrwt beam="1">  1       -4 0.21268522E-01 0.12500258E+03</pdfrwt>
<totfact> 0.96098041E+03</totfact>
</mgrwt>
</event>
<event>
 5    1  0.3245943E-002  0.1250020E+03  0.7818608E-02  0.1235066E+00
          4   -1    0    0  501    0  0.00000000000E+00  0.00000000000E+00  0.94230483425E+03  0.94230569007E+03  0.12700000000E+01 0. -1.
         -4   -1    0    0    0  501 -0.00000000000E+00 -0.00000000000E+00 -0.40474094424E+01  0.42419834034E+01  0.12700000000E+01 0. -1.
         25    2    1    2    0    0  0.00000000000E+00  0.00000000000E+00  0.93825742480E+03  0.94654767348E+03  0.12500201184E+03 0.  0.
    9000005    1    3    3    0    0  0.59397532406E+02 -0.19276490630E+02  0.48724809324E+03  0.49123452068E+03  0.10000000000E+01 0.  0.
    9000005    1    3    3    0    0 -0.59397532406E+02  0.19276490630E+02  0.45100933157E+03  0.45531315279E+03  0.10000000000E+01 0.  0.
<mgrwt>
<rscale>  0 0.12500201E+03</rscale>
<asrwt>0</asrwt>
<pdfrwt beam="1">  1        4 0.14498512E+00 0.12500201E+03</pdfrwt>
<pdfrwt beam="2">  1       -4 0.63771092E-03 0.12500201E+03</pdfrwt>
<totfact> 0.32437408E+03</totfact>
</mgrwt>
</event>
<event>
 5    1  0.3245943E-002  0.1249983E+03  0.7818608E-02  0.1235072E+00
         -4   -1    0    0    0  501 -0.00000000000E+00  0.00000000000E+00  0.84709314380E+02  0.84718834049E+02  0.12700000000E+01 0.  1.
          4   -1    0    0  501    0  0.00000000000E+00 -0.00000000000E+00 -0.46091467831E+02  0.46108961242E+02  0.12700000000E+01 0.  1.
         25    2    1    2    0    0  0.00000000000E+00  0.00000000000E+00  0.38617846549E+02  0.13082779529E+03  0.12499829578E+03 0.  0.
    9000005    1    3    3    0    0 -0.56912581223E+01 -0.48793072975E+02  0.59736597337E+02  0.77347368739E+02  0.10000000000E+01 0.  0.
    9000005    1    3    3    0    0  0.56912581223E+01  0.48793072975E+02 -0.21118750789E+02  0.53480426552E+02  0.10000000000E+01 0.  0.
<mgrwt>
<rscale>  0 0.12499830E+03</rscale>
<asrwt>0</asrwt>
<pdfrwt beam="2">  1        4 0.70930730E-02 0.12499830E+03</pdfrwt>
<pdfrwt beam="1">  1       -4 0.13034280E-01 0.12499830E+03</pdfrwt>
<totfact> 0.10327180E+04</totfact>
</mgrwt>
</event>
<event>
 5    1  0.3245943E-002  0.1249904E+03  0.7818608E-02  0.1235084E+00
         -4   -1    0    0    0  501 -0.00000000000E+00  0.00000000000E+00  0.98438025049E+01  0.99253890480E+01  0.12700000000E+01 0.  1.
          4   -1    0    0  501    0  0.00000000000E+00 -0.00000000000E+00 -0.39504254448E+03  0.39504458590E+03  0.12700000000E+01 0.  1.
         25    2    1    2    0    0  0.00000000000E+00  0.00000000000E+00 -0.38519874198E+03  0.40496997495E+03  0.12499043880E+03 0.  0.
    9000005    1    3    3    0    0  0.20601810300E+02 -0.13447105381E+02 -0.64922155897E+01  0.25463858584E+02  0.10000000000E+01 0.  0.
    9000005    1    3    3    0    0 -0.20601810300E+02  0.13447105381E+02 -0.37870652639E+03  0.37950611636E+03  0.10000000000E+01 0.  0.
<mgrwt>
<rscale>  0 0.12499044E+03</rscale>
<asrwt>0</asrwt>
<pdfrwt beam="2">  1        4 0.60782197E-01 0.12499044E+03</pdfrwt>
<pdfrwt beam="1">  1       -4 0.15208644E-02 0.12499044E+03</pdfrwt>
<totfact> 0.64085798E+03</totfact>
</mgrwt>
</event>
<event>
 5    1  0.3245943E-002  0.1250060E+03  0.7818608E-02  0.1235060E+00
         -4   -1    0    0    0  501 -0.00000000000E+00  0.00000000000E+00  0.91970178339E+02  0.91978946525E+02  0.12700000000E+01 0.  1.
          4   -1    0    0  501    0  0.00000000000E+00 -0.00000000000E+00 -0.42456786924E+02  0.42475777285E+02  0.12700000000E+01 0.  1.
         25    2    1    2    0    0  0.00000000000E+00  0.00000000000E+00  0.49513391415E+02  0.13445472381E+03  0.12500598716E+03 0.  0.
    9000005    1    3    3    0    0 -0.77577958148E+01  0.33239522185E+02 -0.31550784754E+02  0.46491948223E+02  0.10000000000E+01 0.  0.
    9000005    1    3    3    0    0  0.77577958148E+01 -0.33239522185E+02  0.81064176169E+02  0.87962775587E+02  0.10000000000E+01 0.  0.
<mgrwt>
<rscale>  0 0.12500599E+03</rscale>
<asrwt>0</asrwt>
<pdfrwt beam="2">  1        4 0.65339487E-02 0.12500599E+03</pdfrwt>
<pdfrwt beam="1">  1       -4 0.14151393E-01 0.12500599E+03</pdfrwt>
<totfact> 0.10248193E+04</totfact>
</mgrwt>
</event>
<event>
 5    1  0.3245943E-002  0.1250001E+03  0.7818608E-02  0.1235069E+00
          4   -1    0    0  501    0  0.00000000000E+00  0.00000000000E+00  0.27416238081E+01  0.30214898817E+01  0.12700000000E+01 0. -1.
         -4   -1    0    0    0  501 -0.00000000000E+00 -0.00000000000E+00 -0.13553259291E+04  0.13553265241E+04  0.12700000000E+01 0. -1.
         25    2    1    2    0    0  0.00000000000E+00  0.00000000000E+00 -0.13525843052E+04  0.13583480140E+04  0.12500009691E+03 0.  0.
    9000005    1    3    3    0    0 -0.70469811328E+01 -0.39930194426E+02 -0.15955717957E+03  0.16463163099E+03  0.10000000000E+01 0.  0.
    9000005    1    3    3    0    0  0.70469811328E+01  0.39930194426E+02 -0.11930271257E+04  0.11937163830E+04  0.10000000000E+01 0.  0.
<mgrwt>
<rscale>  0 0.12500010E+03</rscale>
<asrwt>0</asrwt>
<pdfrwt beam="1">  1        4 0.44336329E-03 0.12500010E+03</pdfrwt>
<pdfrwt beam="2">  1       -4 0.20853275E+00 0.12500010E+03</pdfrwt>
<totfact> 0.20891812E+03</totfact>
</mgrwt>
</event>
<event>
 5    1  0.3245943E-002  0.1250016E+03  0.7818608E-02  0.1235067E+00
         -4   -1    0    0    0  501 -0.00000000000E+00  0.00000000000E+00  0.16304590901E+03  0.16305085509E+03  0.12700000000E+01 0. -1.
          4   -1    0    0  501    0  0.00000000000E+00 -0.00000000000E+00 -0.23936463239E+02  0.23970130838E+02  0.12700000000E+01 0. -1.
         25    2    1    2    0    0  0.00000000000E+00  0.00000000000E+00  0.13910944577E+03  0.18702098592E+03  0.12500164508E+03 0.  0.
    9000005    1    3    3    0    0  0.39425050948E+02  0.21613002920E+02  0.46160950065E+01  0.45208017769E+02  0.10000000000E+01 0.  0.
    9000005    1    3    3    0    0 -0.39425050948E+02 -0.21613002920E+02  0.13449335076E+03  0.14181296815E+03  0.10000000000E+01 0.  0.
<mgrwt>
<rscale>  0 0.12500165E+03</rscale>
<asrwt>0</asrwt>
<pdfrwt beam="2">  1        4 0.36855032E-02 0.12500165E+03</pdfrwt>
<pdfrwt beam="1">  1       -4 0.25086956E-01 0.12500165E+03</pdfrwt>
<totfact> 0.92364848E+03</totfact>
</mgrwt>
</event>
<event>
 4    1  0.3245943E-002  0.1251548E+03  0.7818608E-02  0.1234828E+00
          4   -1    0    0  501    0  0.00000000000E+00  0.00000000000E+00  0.24862237519E+02  0.24894653130E+02  0.12700000000E+01 0.  1.
         -4   -1    0    0    0  501 -0.00000000000E+00 -0.00000000000E+00 -0.15736766569E+03  0.15737279023E+03  0.12700000000E+01 0.  1.
    9000005    1    1    2    0    0 -0.94585412695E+00 -0.21970895819E+02 -0.15156114835E+03  0.15315154779E+03  0.10000000000E+01 0.  0.
    9000005    1    1    2    0    0  0.94585412695E+00  0.21970895819E+02  0.19055720177E+02  0.29115895565E+02  0.10000000000E+01 0.  0.
<mgrwt>
<rscale>  0 0.12515483E+03</rscale>
<asrwt>0</asrwt>
<pdfrwt beam="1">  1        4 0.38278474E-02 0.12515483E+03</pdfrwt>
<pdfrwt beam="2">  1       -4 0.24213297E-01 0.12515483E+03</pdfrwt>
<totfact> 0.92887656E+03</totfact>
</mgrwt>
</event>
<event>
 5    1  0.3245943E-002  0.1249958E+03  0.7818608E-02  0.1235076E+00
          4   -1    0    0  501    0  0.00000000000E+00  0.00000000000E+00  0.35589200027E+03  0.35589426626E+03  0.12700000000E+01 0. -1.
         -4   -1    0    0    0  501 -0.00000000000E+00 -0.00000000000E+00 -0.10936157170E+02  0.11009651840E+02  0.12700000000E+01 0. -1.
         25    2    1    2    0    0  0.00000000000E+00  0.00000000000E+00  0.34495584310E+03  0.36690391810E+03  0.12499580564E+03 0.  0.
    9000005    1    3    3    0    0  0.55806472182E+02 -0.21510979030E+02  0.22563116904E+03  0.23342559628E+03  0.10000000000E+01 0.  0.
    9000005    1    3    3    0    0 -0.55806472182E+02  0.21510979030E+02  0.11932467406E+03  0.13347832182E+03  0.10000000000E+01 0.  0.
<mgrwt>
<rscale>  0 0.12499581E+03</rscale>
<asrwt>0</asrwt>
<pdfrwt beam="1">  1        4 0.54758439E-01 0.12499581E+03</pdfrwt>
<pdfrwt beam="2">  1       -4 0.16883136E-02 0.12499581E+03</pdfrwt>
<totfact> 0.67910393E+03</totfact>
</mgrwt>
</event>
<event>
 5    1  0.3245943E-002  0.1249743E+03  0.7818608E-02  0.1235110E+00
          4   -1    0    0  501    0  0.00000000000E+00  0.00000000000E+00  0.79910814559E+02  0.79920905797E+02  0.12700000000E+01 0. -1.
         -4   -1    0    0    0  501 -0.00000000000E+00 -0.00000000000E+00 -0.48841056399E+02  0.48857565332E+02  0.12700000000E+01 0. -1.
         25    2    1    2    0    0  0.00000000000E+00  0.00000000000E+00  0.31069758160E+02  0.12877847113E+03  0.12497425637E+03 0.  0.
    9000005    1    3    3    0    0  0.34342259969E+02 -0.49892310715E+02  0.31331483763E+02  0.68200405886E+02  0.10000000000E+01 0.  0.
    9000005    1    3    3    0    0 -0.34342259969E+02  0.49892310715E+02 -0.26172560354E+00  0.60578065242E+02  0.10000000000E+01 0.  0.
<mgrwt>
<rscale>  0 0.12497426E+03</rscale>
<asrwt>0</asrwt>
<pdfrwt beam="1">  1        4 0.12296018E-01 0.12497426E+03</pdfrwt>
<pdfrwt beam="2">  1       -4 0.75160549E-02 0.12497426E+03</pdfrwt>
<totfact> 0.10376739E+04</totfact>
</mgrwt>
</event>
<event>
 5    1  0.3245943E-002  0.1249956E+03  0.7818608E-02  0.1235076E+00
         -4   -1    0    0    0  501 -0.00000000000E+00  0.00000000000E+00  0.18142177398E+03  0.18142621909E+03  0.12700000000E+01 0. -1.
          4   -1    0    0  501    0  0.00000000000E+00 -0.00000000000E+00 -0.21506365180E+02  0.21543830747E+02  0.12700000000E+01 0. -1.
         25    2    1    2    0    0  0.00000000000E+00  0.00000000000E+00  0.15991540880E+03  0.20297004984E+03  0.12499561256E+03 0.  0.
    9000005    1    3    3    0    0  0.26105580238E+02 -0.36016095202E+02  0.86886687110E+01  0.45333799721E+02  0.10000000000E+01 0.  0.
    9000005    1    3    3    0    0 -0.26105580238E+02  0.36016095202E+02  0.15122674009E+03  0.15763625012E+03  0.10000000000E+01 0.  0.
<mgrwt>
<rscale>  0 0.12499561E+03</rscale>
<asrwt>0</asrwt>
<pdfrwt beam="2">  1        4 0.33118955E-02 0.12499561E+03</pdfrwt>
<pdfrwt beam="1">  1       -4 0.27914265E-01 0.12499561E+03</pdfrwt>
<totfact> 0.89645789E+03</totfact>
</mgrwt>
</event>
<event>
 5    1  0.3245943E-002  0.1250006E+03  0.7818608E-02  0.1235068E+00
          4   -1    0    0  501    0  0.00000000000E+00  0.00000000000E+00  0.56539954257E+03  0.56540096891E+03  0.12700000000E+01 0. -1.
         -4   -1    0    0    0  501 -0.00000000000E+00 -0.00000000000E+00 -0.68490867656E+01  0.69658373167E+01  0.12700000000E+01 0. -1.
         25    2    1    2    0    0  0.00000000000E+00  0.00000000000E+00  0.55855045581E+03  0.57236680622E+03  0.12500059674E+03 0.  0.
    9000005    1    3    3    0    0  0.43973597654E+02  0.42644223022E+02  0.33592810004E+03  0.34146873275E+03  0.10000000000E+01 0.  0.
    9000005    1    3    3    0    0 -0.43973597654E+02 -0.42644223022E+02  0.22262235577E+03  0.23089807348E+03  0.10000000000E+01 0.  0.
<mgrwt>
<rscale>  0 0.12500060E+03</rscale>
<asrwt>0</asrwt>
<pdfrwt beam="1">  1        4 0.86993625E-01 0.12500060E+03</pdfrwt>
<pdfrwt beam="2">  1       -4 0.10627963E-02 0.12500060E+03</pdfrwt>
<totfact> 0.50659025E+03</totfact>
</mgrwt>
</event>
<event>
 5    1  0.3245943E-002  0.1249949E+03  0.7818608E-02  0.1235077E+00
          4   -1    0    0  501    0  0.00000000000E+00  0.00000000000E+00  0.10164074896E+02  0.10243110782E+02  0.12700000000E+01 0. -1.
         -4   -1    0    0    0  501 -0.00000000000E+00 -0.00000000000E+00 -0.38271923300E+03  0.38272134016E+03  0.12700000000E+01 0. -1.
         25    2    1    2    0    0  0.00000000000E+00  0.00000000000E+00 -0.37255515811E+03  0.39296445094E+03  0.12499485537E+03 0.  0.
    9000005    1    3    3    0    0 -0.40933534418E+02 -0.41545603869E+02 -0.25681028821E+03  0.26335169560E+03  0.10000000000E+01 0.  0.
    9000005    1    3    3    0    0  0.40933534418E+02  0.41545603869E+02 -0.11574486989E+03  0.12961275534E+03  0.10000000000E+01 0.  0.
<mgrwt>
<rscale>  0 0.12499486E+03</rscale>
<asrwt>0</asrwt>
<pdfrwt beam="1">  1        4 0.15699459E-02 0.12499486E+03</pdfrwt>
<pdfrwt beam="2">  1       -4 0.58886113E-01 0.12499486E+03</pdfrwt>
<totfact> 0.65250276E+03</totfact>
</mgrwt>
</event>
<event>
 5    1  0.3245943E-002  0.1250137E+03  0.7818608E-02  0.1235048E+00
         -4   -1    0    0    0  501 -0.00000000000E+00  0.00000000000E+00  0.20616355565E+02  0.20655435526E+02  0.12700000000E+01 0.  1.
          4   -1    0    0  501    0  0.00000000000E+00 -0.00000000000E+00 -0.18929424248E+03  0.18929850274E+03  0.12700000000E+01 0.  1.
         25    2    1    2    0    0  0.00000000000E+00  0.00000000000E+00 -0.16867788692E+03  0.20995393826E+03  0.12501370587E+03 0.  0.
    9000005    1    3    3    0    0  0.53743867871E+02  0.28536446060E+02 -0.60388435608E+02  0.85735029262E+02  0.10000000000E+01 0.  0.
    9000005    1    3    3    0    0 -0.53743867871E+02 -0.28536446060E+02 -0.10828945131E+03  0.12421890900E+03  0.10000000000E+01 0.  0.
<mgrwt>
<rscale>  0 0.12501371E+03</rscale>
<asrwt>0</asrwt>
<pdfrwt beam="2">  1        4 0.29125524E-01 0.12501371E+03</pdfrwt>
<pdfrwt beam="1">  1       -4 0.31750810E-02 0.12501371E+03</pdfrwt>
<totfact> 0.88456297E+03</totfact>
</mgrwt>
</event>
<event>
 5    1  0.3245943E-002  0.1250006E+03  0.7818608E-02  0.1235068E+00
          4   -1    0    0  501    0  0.00000000000E+00  0.00000000000E+00  0.13477861530E+04  0.13477867513E+04  0.12700000000E+01 0.  1.
         -4   -1    0    0    0  501 -0.00000000000E+00 -0.00000000000E+00 -0.27585444089E+01  0.30368515367E+01  0.12700000000E+01 0.  1.
         25    2    1    2    0    0  0.00000000000E+00  0.00000000000E+00  0.13450276086E+04  0.13508236029E+04  0.12500055299E+03 0.  0.
    9000005    1    3    3    0    0  0.61306794656E+02  0.11561543121E+02  0.71161528571E+03  0.71434550969E+03  0.10000000000E+01 0.  0.
    9000005    1    3    3    0    0 -0.61306794656E+02 -0.11561543121E+02  0.63341232285E+03  0.63647809318E+03  0.10000000000E+01 0.  0.
<mgrwt>
<rscale>  0 0.12500055E+03</rscale>
<asrwt>0</asrwt>
<pdfrwt beam="1">  1        4 0.20737263E+00 0.12500055E+03</pdfrwt>
<pdfrwt beam="2">  1       -4 0.44584688E-03 0.12500055E+03</pdfrwt>
<totfact> 0.21059610E+03</totfact>
</mgrwt>
</event>
<event>
 5    1  0.3245943E-002  0.1250247E+03  0.7818608E-02  0.1235031E+00
          4   -1    0    0  501    0  0.00000000000E+00  0.00000000000E+00  0.59506837648E+02  0.59520388330E+02  0.12700000000E+01 0. -1.
         -4   -1    0    0    0  501 -0.00000000000E+00 -0.00000000000E+00 -0.65642461135E+02  0.65654745478E+02  0.12700000000E+01 0. -1.
         25    2    1    2    0    0  0.00000000000E+00  0.00000000000E+00 -0.61356234863E+01  0.12517513381E+03  0.12502467056E+03 0.  0.
    9000005    1    3    3    0    0  0.59243486815E+02  0.32866501955E+01 -0.22743415399E+02  0.63551992443E+02  0.10000000000E+01 0.  0.
    9000005    1    3    3    0    0 -0.59243486815E+02 -0.32866501955E+01  0.16607791913E+02  0.61623141365E+02  0.10000000000E+01 0.  0.
<mgrwt>
<rscale>  0 0.12502467E+03</rscale>
<asrwt>0</asrwt>
<pdfrwt beam="1">  1        4 0.91568854E-02 0.12502467E+03</pdfrwt>
<pdfrwt beam="2">  1       -4 0.10100827E-01 0.12502467E+03</pdfrwt>
<totfact> 0.10443236E+04</totfact>
</mgrwt>
</event>
<event>
 5    1  0.3245943E-002  0.1250017E+03  0.7818608E-02  0.1235067E+00
          4   -1    0    0  501    0  0.00000000000E+00  0.00000000000E+00  0.19806897713E+01  0.23528773810E+01  0.12700000000E+01 0. -1.
         -4   -1    0    0    0  501 -0.00000000000E+00 -0.00000000000E+00 -0.18024647825E+04  0.18024652299E+04  0.12700000000E+01 0. -1.
         25    2    1    2    0    0  0.00000000000E+00  0.00000000000E+00 -0.18004840927E+04  0.18048181072E+04  0.12500172901E+03 0.  0.
    9000005    1    3    3    0    0  0.15734164491E+02 -0.46717303648E+02 -0.34567280794E+03  0.34917153455E+03  0.10000000000E+01 0.  0.
    9000005    1    3    3    0    0 -0.15734164491E+02  0.46717303648E+02 -0.14548112847E+04  0.14556465727E+04  0.10000000000E+01 0.  0.
<mgrwt>
<rscale>  0 0.12500173E+03</rscale>
<asrwt>0</asrwt>
<pdfrwt beam="1">  1        4 0.33338718E-03 0.12500173E+03</pdfrwt>
<pdfrwt beam="2">  1       -4 0.27732974E+00 0.12500173E+03</pdfrwt>
<totfact> 0.12629046E+03</totfact>
</mgrwt>
</event>
<event>
 5    1  0.3245943E-002  0.1249960E+03  0.7818608E-02  0.1235075E+00
          4   -1    0    0  501    0  0.00000000000E+00  0.00000000000E+00  0.13982458841E+03  0.13983035588E+03  0.12700000000E+01 0.  1.
         -4   -1    0    0    0  501 -0.00000000000E+00 -0.00000000000E+00 -0.27914239171E+02  0.27943114509E+02  0.12700000000E+01 0.  1.
         25    2    1    2    0    0  0.00000000000E+00  0.00000000000E+00  0.11191034924E+03  0.16777347039E+03  0.12499604433E+03 0.  0.
    9000005    1    3    3    0    0  0.29003218030E+02 -0.31941403718E+02  0.11663174397E+03  0.12435997599E+03  0.10000000000E+01 0.  0.
    9000005    1    3    3    0    0 -0.29003218030E+02  0.31941403718E+02 -0.47213947242E+01  0.43413494397E+02  0.10000000000E+01 0.  0.
<mgrwt>
<rscale>  0 0.12499604E+03</rscale>
<asrwt>0</asrwt>
<pdfrwt beam="1">  1        4 0.21514140E-01 0.12499604E+03</pdfrwt>
<pdfrwt beam="2">  1       -4 0.42971632E-02 0.12499604E+03</pdfrwt>
<totfact> 0.95873221E+03</totfact>
</mgrwt>
</event>
<event>
 5    1  0.3245943E-002  0.1249959E+03  0.7818608E-02  0.1235076E+00
          4   -1    0    0  501    0  0.00000000000E+00  0.00000000000E+00  0.61662753435E+03  0.61662884219E+03  0.12700000000E+01 0.  1.
         -4   -1    0    0    0  501 -0.00000000000E+00 -0.00000000000E+00 -0.62694615843E+01  0.63967998685E+01  0.12700000000E+01 0.  1.
         25    2    1    2    0    0  0.00000000000E+00  0.00000000000E+00  0.61035807277E+03  0.62302564206E+03  0.12499589461E+03 0.  0.
    9000005    1    3    3    0    0  0.48338272210E+02 -0.39280870319E+02  0.33030840516E+03  0.33613125093E+03  0.10000000000E+01 0.  0.
    9000005    1    3    3    0    0 -0.48338272210E+02  0.39280870319E+02  0.28004966760E+03  0.28689439112E+03  0.10000000000E+01 0.  0.
<mgrwt>
<rscale>  0 0.12499589E+03</rscale>
<asrwt>0</asrwt>
<pdfrwt beam="1">  1        4 0.94875683E-01 0.12499589E+03</pdfrwt>
<pdfrwt beam="2">  1       -4 0.97442828E-03 0.12499589E+03</pdfrwt>
<totfact> 0.47449955E+03</totfact>
</mgrwt>
</event>
<event>
 5    1  0.3245943E-002  0.1250269E+03  0.7818608E-02  0.1235027E+00
          4   -1    0    0  501    0  0.00000000000E+00  0.00000000000E+00  0.50469726025E+02  0.50485702382E+02  0.12700000000E+01 0. -1.
         -4   -1    0    0    0  501 -0.00000000000E+00 -0.00000000000E+00 -0.77397808090E+02  0.77408226935E+02  0.12700000000E+01 0. -1.
         25    2    1    2    0    0  0.00000000000E+00  0.00000000000E+00 -0.26928082065E+02  0.12789392932E+03  0.12502693931E+03 0.  0.
    9000005    1    3    3    0    0  0.41037699891E+02 -0.37841195510E+02  0.15303517122E+02  0.57889951859E+02  0.10000000000E+01 0.  0.
    9000005    1    3    3    0    0 -0.41037699891E+02  0.37841195510E+02 -0.42231599188E+02  0.70003977458E+02  0.10000000000E+01 0.  0.
<mgrwt>
<rscale>  0 0.12502694E+03</rscale>
<asrwt>0</asrwt>
<pdfrwt beam="1">  1        4 0.77666036E-02 0.12502694E+03</pdfrwt>
<pdfrwt beam="2">  1       -4 0.11909385E-01 0.12502694E+03</pdfrwt>
<totfact> 0.10383463E+04</totfact>
</mgrwt>
</event>
<event>
 5    1  0.3245943E-002  0.1249979E+03  0.7818608E-02  0.1235073E+00
          4   -1    0    0  501    0  0.00000000000E+00  0.00000000000E+00  0.25865281625E+02  0.25896441716E+02  0.12700000000E+01 0. -1.
         -4   -1    0    0    0  501 -0.00000000000E+00 -0.00000000000E+00 -0.15089309459E+03  0.15089843901E+03  0.12700000000E+01 0. -1.
         25    2    1    2    0    0  0.00000000000E+00  0.00000000000E+00 -0.12502781297E+03  0.17679488072E+03  0.12499790332E+03 0.  0.
    9000005    1    3    3    0    0 -0.55934875957E+02 -0.11012285536E+02 -0.26311835859E+02  0.62795648633E+02  0.10000000000E+01 0.  0.
    9000005    1    3    3    0    0  0.55934875957E+02  0.11012285536E+02 -0.98715977107E+02  0.11399923209E+03  0.10000000000E+01 0.  0.
<mgrwt>
<rscale>  0 0.12499790E+03</rscale>
<asrwt>0</asrwt>
<pdfrwt beam="1">  1        4 0.39820822E-02 0.12499790E+03</pdfrwt>
<pdfrwt beam="2">  1       -4 0.23217130E-01 0.12499790E+03</pdfrwt>
<totfact> 0.94201567E+03</totfact>
</mgrwt>
</event>
<event>
 5    1  0.3245943E-002  0.1250004E+03  0.7818608E-02  0.1235069E+00
          4   -1    0    0  501    0  0.00000000000E+00  0.00000000000E+00  0.71741347985E+02  0.71752588181E+02  0.12700000000E+01 0.  1.
         -4   -1    0    0    0  501 -0.00000000000E+00 -0.00000000000E+00 -0.54426469008E+02  0.54441284231E+02  0.12700000000E+01 0.  1.
         25    2    1    2    0    0  0.00000000000E+00  0.00000000000E+00  0.17314878976E+02  0.12619387241E+03  0.12500035360E+03 0.  0.
    9000005    1    3    3    0    0 -0.30730738863E+02  0.35648366398E+02 -0.32845767317E+02  0.57402341142E+02  0.10000000000E+01 0.  0.
    9000005    1    3    3    0    0  0.30730738863E+02 -0.35648366398E+02  0.50160646294E+02  0.68791531270E+02  0.10000000000E+01 0.  0.
<mgrwt>
<rscale>  0 0.12500035E+03</rscale>
<asrwt>0</asrwt>
<pdfrwt beam="1">  1        4 0.11039135E-01 0.12500035E+03</pdfrwt>
<pdfrwt beam="2">  1       -4 0.83753072E-02 0.12500035E+03</pdfrwt>
<totfact> 0.10426630E+04</totfact>
</mgrwt>
</event>
<event>
 5    1  0.3245943E-002  0.1250003E+03  0.7818608E-02  0.1235069E+00
         -4   -1    0    0    0  501 -0.00000000000E+00  0.00000000000E+00  0.35998220199E+03  0.35998444223E+03  0.12700000000E+01 0. -1.
          4   -1    0    0  501    0  0.00000000000E+00 -0.00000000000E+00 -0.10811838836E+02  0.10886172836E+02  0.12700000000E+01 0. -1.
         25    2    1    2    0    0  0.00000000000E+00  0.00000000000E+00  0.34917036316E+03  0.37087061507E+03  0.12500028247E+03 0.  0.
    9000005    1    3    3    0    0  0.13768977984E+02 -0.27028052547E+02  0.12480422098E+02  0.32815565132E+02  0.10000000000E+01 0.  0.
    9000005    1    3    3    0    0 -0.13768977984E+02  0.27028052547E+02  0.33668994106E+03  0.33805504994E+03  0.10000000000E+01 0.  0.
<mgrwt>
<rscale>  0 0.12500028E+03</rscale>
<asrwt>0</asrwt>
<pdfrwt beam="2">  1        4 0.16692501E-02 0.12500028E+03</pdfrwt>
<pdfrwt beam="1">  1       -4 0.55387770E-01 0.12500028E+03</pdfrwt>
<totfact> 0.67487527E+03</totfact>
</mgrwt>
</event>
<event>
 5    1  0.3245943E-002  0.1250034E+03  0.7818608E-02  0.1235064E+00
         -4   -1    0    0    0  501 -0.00000000000E+00  0.00000000000E+00  0.47693943698E+02  0.47710849557E+02  0.12700000000E+01 0. -1.
          4   -1    0    0  501    0  0.00000000000E+00 -0.00000000000E+00 -0.81870576634E+02  0.81880426344E+02  0.12700000000E+01 0. -1.
         25    2    1    2    0    0  0.00000000000E+00  0.00000000000E+00 -0.34176632935E+02  0.12959127590E+03  0.12500342616E+03 0.  0.
    9000005    1    3    3    0    0 -0.59136057465E+02 -0.18329856731E+02 -0.25909862780E+02  0.67122112076E+02  0.10000000000E+01 0.  0.
    9000005    1    3    3    0    0  0.59136057465E+02  0.18329856731E+02 -0.82667701553E+01  0.62469163826E+02  0.10000000000E+01 0.  0.
<mgrwt>
<rscale>  0 0.12500343E+03</rscale>
<asrwt>0</asrwt>
<pdfrwt beam="2">  1        4 0.12597531E-01 0.12500343E+03</pdfrwt>
<pdfrwt beam="1">  1       -4 0.73395879E-02 0.12500343E+03</pdfrwt>
<totfact> 0.10352458E+04</totfact>
</mgrwt>
</event>
<event>
 5    1  0.3245943E-002  0.1249451E+03  0.7818608E-02  0.1235155E+00
         -4   -1    0    0    0  501 -0.00000000000E+00  0.00000000000E+00  0.62436327061E+01  0.63714872180E+01  0.12700000000E+01 0.  1.
          4   -1    0    0  501    0  0.00000000000E+00 -0.00000000000E+00 -0.61862417432E+03  0.61862547794E+03  0.12700000000E+01 0.  1.
         25    2    1    2    0    0  0.00000000000E+00  0.00000000000E+00 -0.61238054162E+03  0.62499696516E+03  0.12494510277E+03 0.  0.
    9000005    1    3    3    0    0  0.37545413074E+02  0.42759013356E+02 -0.43507058542E+03  0.43877717074E+03  0.10000000000E+01 0.  0.
    9000005    1    3    3    0    0 -0.37545413074E+02 -0.42759013356E+02 -0.17730995620E+03  0.18621979442E+03  0.10000000000E+01 0.  0.
<mgrwt>
<rscale>  0 0.12494510E+03</rscale>
<asrwt>0</asrwt>
<pdfrwt beam="2">  1        4 0.95182837E-01 0.12494510E+03</pdfrwt>
<pdfrwt beam="1">  1       -4 0.97049461E-03 0.12494510E+03</pdfrwt>
<totfact> 0.47383813E+03</totfact>
</mgrwt>
</event>
<event>
 5    1  0.3245943E-002  0.1250095E+03  0.7818608E-02  0.1235054E+00
         -4   -1    0    0    0  501 -0.00000000000E+00  0.00000000000E+00  0.84076462699E+03  0.84076558618E+03  0.12700000000E+01 0.  1.
          4   -1    0    0  501    0  0.00000000000E+00 -0.00000000000E+00 -0.45590192516E+01  0.47326056814E+01  0.12700000000E+01 0.  1.
         25    2    1    2    0    0  0.00000000000E+00  0.00000000000E+00  0.83620560774E+03  0.84549819186E+03  0.12500949572E+03 0.  0.
    9000005    1    3    3    0    0  0.27501708000E+02  0.18444966964E+01  0.79746649426E+03  0.79794332855E+03  0.10000000000E+01 0.  0.
    9000005    1    3    3    0    0 -0.27501708000E+02 -0.18444966964E+01  0.38739113477E+02  0.47554863305E+02  0.10000000000E+01 0.  0.
<mgrwt>
<rscale>  0 0.12500950E+03</rscale>
<asrwt>0</asrwt>
<pdfrwt beam="2">  1        4 0.71481421E-03 0.12500950E+03</pdfrwt>
<pdfrwt beam="1">  1       -4 0.12936182E+00 0.12500950E+03</pdfrwt>
<totfact> 0.36304726E+03</totfact>
</mgrwt>
</event>
<event>
 5    1  0.3245943E-002  0.1249982E+03  0.7818608E-02  0.1235072E+00
         -4   -1    0    0    0  501 -0.00000000000E+00  0.00000000000E+00  0.54135651851E+03  0.54135800819E+03  0.12700000000E+01 0. -1.
          4   -1    0    0  501    0  0.00000000000E+00 -0.00000000000E+00 -0.71580712167E+01  0.72698613152E+01  0.12700000000E+01 0. -1.
         25    2    1    2    0    0  0.00000000000E+00  0.00000000000E+00  0.53419844729E+03  0.54862786950E+03  0.12499823242E+03 0.  0.
    9000005    1    3    3    0    0  0.49341917476E+02 -0.15495321179E+02  0.11314242503E+03  0.12440634285E+03  0.10000000000E+01 0.  0.
    9000005    1    3    3    0    0 -0.49341917476E+02  0.15495321179E+02  0.42105602226E+03  0.42422152666E+03  0.10000000000E+01 0.  0.
<mgrwt>
<rscale>  0 0.12499823E+03</rscale>
<asrwt>0</asrwt>
<pdfrwt beam="2">  1        4 0.11099557E-02 0.12499823E+03</pdfrwt>
<pdfrwt beam="1">  1       -4 0.83294324E-01 0.12499823E+03</pdfrwt>
<totfact> 0.52281733E+03</totfact>
</mgrwt>
</event>
<event>
 5    1  0.3245943E-002  0.1250004E+03  0.7818608E-02  0.1235069E+00
          4   -1    0    0  501    0  0.00000000000E+00  0.00000000000E+00  0.52383768956E+01  0.53901291729E+01  0.12700000000E+01 0. -1.
         -4   -1    0    0    0  501 -0.00000000000E+00 -0.00000000000E+00 -0.73490429012E+03  0.73490538747E+03  0.12700000000E+01 0. -1.
         25    2    1    2    0    0  0.00000000000E+00  0.00000000000E+00 -0.72966591322E+03  0.74029551664E+03  0.12500042818E+03 0.  0.
    9000005    1    3    3    0    0 -0.42879626708E+02  0.40975816082E+02 -0.48142898296E+03  0.48506962957E+03  0.10000000000E+01 0.  0.
    9000005    1    3    3    0    0  0.42879626708E+02 -0.40975816082E+02 -0.24823693026E+03  0.25522588708E+03  0.10000000000E+01 0.  0.
<mgrwt>
<rscale>  0 0.12500043E+03</rscale>
<asrwt>0</asrwt>
<pdfrwt beam="1">  1        4 0.81766238E-03 0.12500043E+03</pdfrwt>
<pdfrwt beam="2">  1       -4 0.11307388E+00 0.12500043E+03</pdfrwt>
<totfact> 0.41042299E+03</totfact>
</mgrwt>
</event>
<event>
 5    1  0.3245943E-002  0.1249993E+03  0.7818608E-02  0.1235070E+00
         -4   -1    0    0    0  501 -0.00000000000E+00  0.00000000000E+00  0.66277546227E+01  0.67483354495E+01  0.12700000000E+01 0.  1.
          4   -1    0    0  501    0  0.00000000000E+00 -0.00000000000E+00 -0.58393645464E+03  0.58393783569E+03  0.12700000000E+01 0.  1.
         25    2    1    2    0    0  0.00000000000E+00  0.00000000000E+00 -0.57730870001E+03  0.59068617114E+03  0.12499927067E+03 0.  0.
    9000005    1    3    3    0    0  0.45493719372E+02 -0.11976430298E+01 -0.49103073377E+03  0.49313618237E+03  0.10000000000E+01 0.  0.
    9000005    1    3    3    0    0 -0.45493719372E+02  0.11976430298E+01 -0.86277966239E+02  0.97549988773E+02  0.10000000000E+01 0.  0.
<mgrwt>
<rscale>  0 0.12499927E+03</rscale>
<asrwt>0</asrwt>
<pdfrwt beam="2">  1        4 0.89845719E-01 0.12499927E+03</pdfrwt>
<pdfrwt beam="1">  1       -4 0.10290367E-02 0.12499927E+03</pdfrwt>
<totfact> 0.49461661E+03</totfact>
</mgrwt>
</event>
<event>
 5    1  0.3245943E-002  0.1249986E+03  0.7818608E-02  0.1235071E+00
         -4   -1    0    0    0  501 -0.00000000000E+00  0.00000000000E+00  0.58015968928E+01  0.59389752068E+01  0.12700000000E+01 0.  1.
          4   -1    0    0  501    0  0.00000000000E+00 -0.00000000000E+00 -0.66527493245E+03  0.66527614466E+03  0.12700000000E+01 0.  1.
         25    2    1    2    0    0  0.00000000000E+00  0.00000000000E+00 -0.65947333556E+03  0.67121511986E+03  0.12499862727E+03 0.  0.
    9000005    1    3    3    0    0  0.11218966308E+02 -0.99616469340E+01 -0.39868301814E+01  0.15556170144E+02  0.10000000000E+01 0.  0.
    9000005    1    3    3    0    0 -0.11218966308E+02  0.99616469340E+01 -0.65548650538E+03  0.65565894972E+03  0.10000000000E+01 0.  0.
<mgrwt>
<rscale>  0 0.12499863E+03</rscale>
<asrwt>0</asrwt>
<pdfrwt beam="2">  1        4 0.10236059E+00 0.12499863E+03</pdfrwt>
<pdfrwt beam="1">  1       -4 0.90321470E-03 0.12499863E+03</pdfrwt>
<totfact> 0.44651739E+03</totfact>
</mgrwt>
</event>
<event>
 5    1  0.3245943E-002  0.1250000E+03  0.7818608E-02  0.1235069E+00
          4   -1    0    0  501    0  0.00000000000E+00  0.00000000000E+00  0.74865086850E+02  0.74875858119E+02  0.12700000000E+01 0. -1.
         -4   -1    0    0    0  501 -0.00000000000E+00 -0.00000000000E+00 -0.52154925642E+02  0.52170385936E+02  0.12700000000E+01 0. -1.
         25    2    1    2    0    0  0.00000000000E+00  0.00000000000E+00  0.22710161208E+02  0.12704624405E+03  0.12499998683E+03 0.  0.
    9000005    1    3    3    0    0 -0.27813281600E+02  0.30393436779E+02 -0.36402520242E+02  0.54986208385E+02  0.10000000000E+01 0.  0.
    9000005    1    3    3    0    0  0.27813281600E+02 -0.30393436779E+02  0.59112681450E+02  0.72060035670E+02  0.10000000000E+01 0.  0.
<mgrwt>
<rscale>  0 0.12499999E+03</rscale>
<asrwt>0</asrwt>
<pdfrwt beam="1">  1        4 0.11519723E-01 0.12499999E+03</pdfrwt>
<pdfrwt beam="2">  1       -4 0.80258526E-02 0.12499999E+03</pdfrwt>
<totfact> 0.10408144E+04</totfact>
</mgrwt>
</event>
<event>
 5    1  0.3245943E-002  0.1249977E+03  0.7818608E-02  0.1235073E+00
          4   -1    0    0  501    0  0.00000000000E+00  0.00000000000E+00  0.45293978127E+03  0.45294156175E+03  0.12700000000E+01 0.  1.
         -4   -1    0    0    0  501 -0.00000000000E+00 -0.00000000000E+00 -0.85753282754E+01  0.86688612303E+01  0.12700000000E+01 0.  1.
         25    2    1    2    0    0  0.00000000000E+00  0.00000000000E+00  0.44436445300E+03  0.46161042298E+03  0.12499766204E+03 0.  0.
    9000005    1    3    3    0    0 -0.56474975381E+02  0.26750297065E+02  0.22336536420E+03  0.23194414665E+03  0.10000000000E+01 0.  0.
    9000005    1    3    3    0    0  0.56474975381E+02 -0.26750297065E+02  0.22099908879E+03  0.22966627633E+03  0.10000000000E+01 0.  0.
<mgrwt>
<rscale>  0 0.12499766E+03</rscale>
<asrwt>0</asrwt>
<pdfrwt beam="1">  1        4 0.69690404E-01 0.12499766E+03</pdfrwt>
<pdfrwt beam="2">  1       -4 0.13266125E-02 0.12499766E+03</pdfrwt>
<totfact> 0.58974036E+03</totfact>
</mgrwt>
</event>
<event>
 5    1  0.3245943E-002  0.1249991E+03  0.7818608E-02  0.1235071E+00
          4   -1    0    0  501    0  0.00000000000E+00  0.00000000000E+00  0.14669717209E+02  0.14724588381E+02  0.12700000000E+01 0.  1.
         -4   -1    0    0    0  501 -0.00000000000E+00 -0.00000000000E+00 -0.26572247337E+03  0.26572550829E+03  0.12700000000E+01 0.  1.
         25    2    1    2    0    0  0.00000000000E+00  0.00000000000E+00 -0.25105275616E+03  0.28045009667E+03  0.12499908137E+03 0.  0.
    9000005    1    3    3    0    0 -0.13268445729E+02  0.89812006383E+01 -0.26104678477E+03  0.26153993472E+03  0.10000000000E+01 0.  0.
    9000005    1    3    3    0    0  0.13268445729E+02 -0.89812006383E+01  0.99940286069E+01  0.18910161944E+02  0.10000000000E+01 0.  0.
<mgrwt>
<rscale>  0 0.12499908E+03</rscale>
<asrwt>0</asrwt>
<pdfrwt beam="1">  1        4 0.22613341E-02 0.12499908E+03</pdfrwt>
<pdfrwt beam="2">  1       -4 0.40884831E-01 0.12499908E+03</pdfrwt>
<totfact> 0.78120060E+03</totfact>
</mgrwt>
</event>
<event>
 5    1  0.3245943E-002  0.1249995E+03  0.7818608E-02  0.1235070E+00
          4   -1    0    0  501    0  0.00000000000E+00  0.00000000000E+00  0.20786187895E+02  0.20824949153E+02  0.12700000000E+01 0.  1.
         -4   -1    0    0    0  501 -0.00000000000E+00 -0.00000000000E+00 -0.18770789700E+03  0.18771219325E+03  0.12700000000E+01 0.  1.
         25    2    1    2    0    0  0.00000000000E+00  0.00000000000E+00 -0.16692170911E+03  0.20853714241E+03  0.12499953117E+03 0.  0.
    9000005    1    3    3    0    0 -0.53082988671E+02 -0.29788604148E+02 -0.59864174405E+02  0.85380817521E+02  0.10000000000E+01 0.  0.
    9000005    1    3    3    0    0  0.53082988671E+02  0.29788604148E+02 -0.10705753470E+03  0.12315632489E+03  0.10000000000E+01 0.  0.
<mgrwt>
<rscale>  0 0.12499953E+03</rscale>
<asrwt>0</asrwt>
<pdfrwt beam="1">  1        4 0.32011873E-02 0.12499953E+03</pdfrwt>
<pdfrwt beam="2">  1       -4 0.28881449E-01 0.12499953E+03</pdfrwt>
<totfact> 0.88716274E+03</totfact>
</mgrwt>
</event>
<event>
 5    1  0.3245943E-002  0.1250009E+03  0.7818608E-02  0.1235068E+00
          4   -1    0    0  501    0  0.00000000000E+00  0.00000000000E+00  0.47935785997E+02  0.47952606594E+02  0.12700000000E+01 0. -1.
         -4   -1    0    0    0  501 -0.00000000000E+00 -0.00000000000E+00 -0.81454340789E+02  0.81464240826E+02  0.12700000000E+01 0. -1.
         25    2    1    2    0    0  0.00000000000E+00  0.00000000000E+00 -0.33518554792E+02  0.12941684742E+03  0.12500090752E+03 0.  0.
    9000005    1    3    3    0    0  0.33112175226E+02  0.19286087293E+02 -0.67868566187E+02  0.77945568107E+02  0.10000000000E+01 0.  0.
    9000005    1    3    3    0    0 -0.33112175226E+02 -0.19286087293E+02  0.34350011395E+02  0.51471279313E+02  0.10000000000E+01 0.  0.
<mgrwt>
<rscale>  0 0.12500091E+03</rscale>
<asrwt>0</asrwt>
<pdfrwt beam="1">  1        4 0.73767918E-02 0.12500091E+03</pdfrwt>
<pdfrwt beam="2">  1       -4 0.12533492E-01 0.12500091E+03</pdfrwt>
<totfact> 0.10356786E+04</totfact>
</mgrwt>
</event>
<event>
 5    1  0.3245943E-002  0.1249985E+03  0.7818608E-02  0.1235072E+00
          4   -1    0    0  501    0  0.00000000000E+00  0.00000000000E+00  0.20994163635E+03  0.20994547762E+03  0.12700000000E+01 0. -1.
         -4   -1    0    0    0  501 -0.00000000000E+00 -0.00000000000E+00 -0.18580212129E+02  0.18623565254E+02  0.12700000000E+01 0. -1.
         25    2    1    2    0    0  0.00000000000E+00  0.00000000000E+00  0.19136142422E+03  0.22856904288E+03  0.12499845071E+03 0.  0.
    9000005    1    3    3    0    0 -0.52274055011E+02  0.29580344961E+02  0.12722453386E+03  0.14069348119E+03  0.10000000000E+01 0.  0.
    9000005    1    3    3    0    0  0.52274055011E+02 -0.29580344961E+02  0.64136890367E+02  0.87875561684E+02  0.10000000000E+01 0.  0.
<mgrwt>
<rscale>  0 0.12499845E+03</rscale>
<asrwt>0</asrwt>
<pdfrwt beam="1">  1        4 0.32302345E-01 0.12499845E+03</pdfrwt>
<pdfrwt beam="2">  1       -4 0.28621244E-02 0.12499845E+03</pdfrwt>
<totfact> 0.85532762E+03</totfact>
</mgrwt>
</event>
<event>
 5    1  0.3245943E-002  0.1250024E+03  0.7818608E-02  0.1235066E+00
         -4   -1    0    0    0  501 -0.00000000000E+00  0.00000000000E+00  0.33388374105E+03  0.33388615640E+03  0.12700000000E+01 0. -1.
          4   -1    0    0  501    0  0.00000000000E+00 -0.00000000000E+00 -0.11662944265E+02  0.11731886844E+02  0.12700000000E+01 0. -1.
         25    2    1    2    0    0  0.00000000000E+00  0.00000000000E+00  0.32222079679E+03  0.34561804325E+03  0.12500235973E+03 0.  0.
    9000005    1    3    3    0    0  0.50130301202E+02  0.22347188315E+01  0.26409498246E+03  0.26882187565E+03  0.10000000000E+01 0.  0.
    9000005    1    3    3    0    0 -0.50130301202E+02 -0.22347188315E+01  0.58125814326E+02  0.76796167600E+02  0.10000000000E+01 0.  0.
<mgrwt>
<rscale>  0 0.12500236E+03</rscale>
<asrwt>0</asrwt>
<pdfrwt beam="2">  1        4 0.17997880E-02 0.12500236E+03</pdfrwt>
<pdfrwt beam="1">  1       -4 0.51372224E-01 0.12500236E+03</pdfrwt>
<totfact> 0.70205657E+03</totfact>
</mgrwt>
</event>
<event>
 5    1  0.3245943E-002  0.1249937E+03  0.7818608E-02  0.1235079E+00
          4   -1    0    0  501    0  0.00000000000E+00  0.00000000000E+00  0.36689184441E+03  0.36689404246E+03  0.12700000000E+01 0.  1.
         -4   -1    0    0    0  501 -0.00000000000E+00 -0.00000000000E+00 -0.10605687715E+02  0.10681456450E+02  0.12700000000E+01 0.  1.
         25    2    1    2    0    0  0.00000000000E+00  0.00000000000E+00  0.35628615669E+03  0.37757549891E+03  0.12499372755E+03 0.  0.
    9000005    1    3    3    0    0 -0.22494455511E+02  0.53344219868E+02  0.24919518317E+03  0.25583362883E+03  0.10000000000E+01 0.  0.
    9000005    1    3    3    0    0  0.22494455511E+02 -0.53344219868E+02  0.10709097352E+03  0.12174187008E+03  0.10000000000E+01 0.  0.
<mgrwt>
<rscale>  0 0.12499373E+03</rscale>
<asrwt>0</asrwt>
<pdfrwt beam="1">  1        4 0.56450892E-01 0.12499373E+03</pdfrwt>
<pdfrwt beam="2">  1       -4 0.16376419E-02 0.12499373E+03</pdfrwt>
<totfact> 0.66803036E+03</totfact>
</mgrwt>
</event>
<event>
 5    1  0.3245943E-002  0.1249966E+03  0.7818608E-02  0.1235075E+00
          4   -1    0    0  501    0  0.00000000000E+00  0.00000000000E+00  0.35891545484E+01  0.38072208200E+01  0.12700000000E+01 0. -1.
         -4   -1    0    0    0  501 -0.00000000000E+00 -0.00000000000E+00 -0.10559846094E+04  0.10559853731E+04  0.12700000000E+01 0. -1.
         25    2    1    2    0    0  0.00000000000E+00  0.00000000000E+00 -0.10523954548E+04  0.10597925939E+04  0.12499659485E+03 0.  0.
    9000005    1    3    3    0    0  0.55135311816E+01  0.58721244261E+02 -0.70128662347E+03  0.70376310773E+03  0.10000000000E+01 0.  0.
    9000005    1    3    3    0    0 -0.55135311816E+01 -0.58721244261E+02 -0.35110883138E+03  0.35602948617E+03  0.10000000000E+01 0.  0.
<mgrwt>
<rscale>  0 0.12499659E+03</rscale>
<asrwt>0</asrwt>
<pdfrwt beam="1">  1        4 0.56901154E-03 0.12499659E+03</pdfrwt>
<pdfrwt beam="2">  1       -4 0.16247576E+00 0.12499659E+03</pdfrwt>
<totfact> 0.28693144E+03</totfact>
</mgrwt>
</event>
<event>
 5    1  0.3245943E-002  0.1249987E+03  0.7818608E-02  0.1235071E+00
          4   -1    0    0  501    0  0.00000000000E+00  0.00000000000E+00  0.50027272613E+02  0.50043390224E+02  0.12700000000E+01 0.  1.
         -4   -1    0    0    0  501 -0.00000000000E+00 -0.00000000000E+00 -0.78046910712E+02  0.78057242916E+02  0.12700000000E+01 0.  1.
         25    2    1    2    0    0  0.00000000000E+00  0.00000000000E+00 -0.28019638098E+02  0.12810063314E+03  0.12499868836E+03 0.  0.
    9000005    1    3    3    0    0  0.28220267561E+02  0.45716963958E+02  0.18700011509E+02  0.56895647682E+02  0.10000000000E+01 0.  0.
    9000005    1    3    3    0    0 -0.28220267561E+02 -0.45716963958E+02 -0.46719649607E+02  0.71204985459E+02  0.10000000000E+01 0.  0.
<mgrwt>
<rscale>  0 0.12499869E+03</rscale>
<asrwt>0</asrwt>
<pdfrwt beam="1">  1        4 0.76985381E-02 0.12499869E+03</pdfrwt>
<pdfrwt beam="2">  1       -4 0.12009252E-01 0.12499869E+03</pdfrwt>
<totfact> 0.10385622E+04</totfact>
</mgrwt>
</event>
<event>
 5    1  0.3245943E-002  0.1249995E+03  0.7818608E-02  0.1235070E+00
         -4   -1    0    0    0  501 -0.00000000000E+00  0.00000000000E+00  0.18102165080E+01  0.22112855550E+01  0.12700000000E+01 0.  1.
          4   -1    0    0  501    0  0.00000000000E+00 -0.00000000000E+00 -0.19422662472E+04  0.19422666624E+04  0.12700000000E+01 0.  1.
         25    2    1    2    0    0  0.00000000000E+00  0.00000000000E+00 -0.19404560307E+04  0.19444779479E+04  0.12499953230E+03 0.  0.
    9000005    1    3    3    0    0 -0.45642471165E+02 -0.21883325308E+02 -0.40012974264E+03  0.40331988055E+03  0.10000000000E+01 0.  0.
    9000005    1    3    3    0    0  0.45642471165E+02  0.21883325308E+02 -0.15403262880E+04  0.15411580674E+04  0.10000000000E+01 0.  0.
<mgrwt>
<rscale>  0 0.12499953E+03</rscale>
<asrwt>0</asrwt>
<pdfrwt beam="2">  1        4 0.29883957E+00 0.12499953E+03</pdfrwt>
<pdfrwt beam="1">  1       -4 0.30937981E-03 0.12499953E+03</pdfrwt>
<totfact> 0.10603644E+03</totfact>
</mgrwt>
</event>
<event>
 5    1  0.3245943E-002  0.1250015E+03  0.7818608E-02  0.1235067E+00
          4   -1    0    0  501    0  0.00000000000E+00  0.00000000000E+00  0.50787580916E+02  0.50803457316E+02  0.12700000000E+01 0. -1.
         -4   -1    0    0    0  501 -0.00000000000E+00 -0.00000000000E+00 -0.76882222923E+02  0.76892711629E+02  0.12700000000E+01 0. -1.
         25    2    1    2    0    0  0.00000000000E+00  0.00000000000E+00 -0.26094642007E+02  0.12769616894E+03  0.12500152488E+03 0.  0.
    9000005    1    3    3    0    0  0.10468722834E+02 -0.56117991376E+02  0.12927602384E+02  0.58540123140E+02  0.10000000000E+01 0.  0.
    9000005    1    3    3    0    0 -0.10468722834E+02  0.56117991376E+02 -0.39022244392E+02  0.69156045804E+02  0.10000000000E+01 0.  0.
<mgrwt>
<rscale>  0 0.12500152E+03</rscale>
<asrwt>0</asrwt>
<pdfrwt beam="1">  1        4 0.78155021E-02 0.12500152E+03</pdfrwt>
<pdfrwt beam="2">  1       -4 0.11830062E-01 0.12500152E+03</pdfrwt>
<totfact> 0.10393697E+04</totfact>
</mgrwt>
</event>
<event>
 5    1  0.3245943E-002  0.1249986E+03  0.7818608E-02  0.1235072E+00
         -4   -1    0    0    0  501 -0.00000000000E+00  0.00000000000E+00  0.16339537688E+04  0.16339542624E+04  0.12700000000E+01 0.  1.
          4   -1    0    0  501    0  0.00000000000E+00 -0.00000000000E+00 -0.22214202736E+01  0.25588294261E+01  0.12700000000E+01 0.  1.
         25    2    1    2    0    0  0.00000000000E+00  0.00000000000E+00  0.16317323486E+04  0.16365130918E+04  0.12499856940E+03 0.  0.
    9000005    1    3    3    0    0  0.50079381405E+02 -0.35992534601E+02  0.68380068923E+03  0.68657686356E+03  0.10000000000E+01 0.  0.
    9000005    1    3    3    0    0 -0.50079381405E+02  0.35992534601E+02  0.94793165935E+03  0.94993622827E+03  0.10000000000E+01 0.  0.
<mgrwt>
<rscale>  0 0.12499857E+03</rscale>
<asrwt>0</asrwt>
<pdfrwt beam="2">  1        4 0.36774922E-03 0.12499857E+03</pdfrwt>
<pdfrwt beam="1">  1       -4 0.25140367E+00 0.12499857E+03</pdfrwt>
<totfact> 0.15395585E+03</totfact>
</mgrwt>
</event>
<event>
 5    1  0.3245943E-002  0.1250000E+03  0.7818608E-02  0.1235069E+00
         -4   -1    0    0    0  501 -0.00000000000E+00  0.00000000000E+00  0.56907150353E+02  0.56921319919E+02  0.12700000000E+01 0.  1.
          4   -1    0    0  501    0  0.00000000000E+00 -0.00000000000E+00 -0.68613917746E+02  0.68625670186E+02  0.12700000000E+01 0.  1.
         25    2    1    2    0    0  0.00000000000E+00  0.00000000000E+00 -0.11706767393E+02  0.12554699010E+03  0.12499999329E+03 0.  0.
    9000005    1    3    3    0    0 -0.59385966138E+01 -0.46877468943E+02 -0.46928377209E+02  0.66603578070E+02  0.10000000000E+01 0.  0.
    9000005    1    3    3    0    0  0.59385966138E+01  0.46877468943E+02  0.35221609816E+02  0.58943412035E+02  0.10000000000E+01 0.  0.
<mgrwt>
<rscale>  0 0.12499999E+03</rscale>
<asrwt>0</asrwt>
<pdfrwt beam="2">  1        4 0.10557981E-01 0.12499999E+03</pdfrwt>
<pdfrwt beam="1">  1       -4 0.87569402E-02 0.12499999E+03</pdfrwt>
<totfact> 0.10440918E+04</totfact>
</mgrwt>
</event>
<event>
 5    1  0.3245943E-002  0.1250019E+03  0.7818608E-02  0.1235066E+00
         -4   -1    0    0    0  501 -0.00000000000E+00  0.00000000000E+00  0.14920590596E+02  0.14974542521E+02  0.12700000000E+01 0. -1.
          4   -1    0    0  501    0  0.00000000000E+00 -0.00000000000E+00 -0.26128264004E+03  0.26128572652E+03  0.12700000000E+01 0. -1.
         25    2    1    2    0    0  0.00000000000E+00  0.00000000000E+00 -0.24636204944E+03  0.27626026904E+03  0.12500190737E+03 0.  0.
    9000005    1    3    3    0    0  0.63605847370E+01  0.52959931944E+02 -0.51221705930E+02  0.73958600501E+02  0.10000000000E+01 0.  0.
    9000005    1    3    3    0    0 -0.63605847370E+01 -0.52959931944E+02 -0.19514034351E+03  0.20230166854E+03  0.10000000000E+01 0.  0.
<mgrwt>
<rscale>  0 0.12500191E+03</rscale>
<asrwt>0</asrwt>
<pdfrwt beam="2">  1        4 0.40201713E-01 0.12500191E+03</pdfrwt>
<pdfrwt beam="1">  1       -4 0.22998632E-02 0.12500191E+03</pdfrwt>
<totfact> 0.78673259E+03</totfact>
</mgrwt>
</event>
<event>
 5    1  0.3245943E-002  0.1249955E+03  0.7818608E-02  0.1235076E+00
          4   -1    0    0  501    0  0.00000000000E+00  0.00000000000E+00  0.76085569459E+01  0.77138212839E+01  0.12700000000E+01 0.  1.
         -4   -1    0    0    0  501 -0.00000000000E+00 -0.00000000000E+00 -0.50973276225E+03  0.50973434435E+03  0.12700000000E+01 0.  1.
         25    2    1    2    0    0  0.00000000000E+00  0.00000000000E+00 -0.50212420531E+03  0.51744816564E+03  0.12499554619E+03 0.  0.
    9000005    1    3    3    0    0  0.19583063957E+02 -0.40695722357E+02 -0.72269086883E+02  0.85225929921E+02  0.10000000000E+01 0.  0.
    9000005    1    3    3    0    0 -0.19583063957E+02  0.40695722357E+02 -0.42985511842E+03  0.43222223572E+03  0.10000000000E+01 0.  0.
<mgrwt>
<rscale>  0 0.12499555E+03</rscale>
<asrwt>0</asrwt>
<pdfrwt beam="1">  1        4 0.11787666E-02 0.12499555E+03</pdfrwt>
<pdfrwt beam="2">  1       -4 0.78428617E-01 0.12499555E+03</pdfrwt>
<totfact> 0.54540919E+03</totfact>
</mgrwt>
</event>
<event>
 5    1  0.3245943E-002  0.1250015E+03  0.7818608E-02  0.1235067E+00
         -4   -1    0    0    0  501 -0.00000000000E+00  0.00000000000E+00  0.21204110659E+03  0.21204490983E+03  0.12700000000E+01 0. -1.
          4   -1    0    0  501    0  0.00000000000E+00 -0.00000000000E+00 -0.18396713633E+02  0.18440498163E+02  0.12700000000E+01 0. -1.
         25    2    1    2    0    0  0.00000000000E+00  0.00000000000E+00  0.19364439295E+03  0.23048540799E+03  0.12500148948E+03 0.  0.
    9000005    1    3    3    0    0 -0.51660589845E+02 -0.34529249472E+02  0.10908872275E+03  0.12554853660E+03  0.10000000000E+01 0.  0.
    9000005    1    3    3    0    0  0.51660589845E+02  0.34529249472E+02  0.84555670204E+02  0.10493687138E+03  0.10000000000E+01 0.  0.
<mgrwt>
<rscale>  0 0.12500149E+03</rscale>
<asrwt>0</asrwt>
<pdfrwt beam="2">  1        4 0.28339243E-02 0.12500149E+03</pdfrwt>
<pdfrwt beam="1">  1       -4 0.32625369E-01 0.12500149E+03</pdfrwt>
<totfact> 0.85232285E+03</totfact>
</mgrwt>
</event>
<event>
 5    1  0.3245943E-002  0.1249998E+03  0.7818608E-02  0.1235070E+00
          4   -1    0    0  501    0  0.00000000000E+00  0.00000000000E+00  0.78323303857E+03  0.78323406821E+03  0.12700000000E+01 0.  1.
         -4   -1    0    0    0  501 -0.00000000000E+00 -0.00000000000E+00 -0.49054229072E+01  0.50671563917E+01  0.12700000000E+01 0.  1.
         25    2    1    2    0    0  0.00000000000E+00  0.00000000000E+00  0.77832761566E+03  0.78830122460E+03  0.12499977363E+03 0.  0.
    9000005    1    3    3    0    0 -0.20708696716E+02 -0.11364350495E+02  0.75402378279E+03  0.75439436875E+03  0.10000000000E+01 0.  0.
    9000005    1    3    3    0    0  0.20708696716E+02  0.11364350495E+02  0.24303832872E+02  0.33906855858E+02  0.10000000000E+01 0.  0.
<mgrwt>
<rscale>  0 0.12499977E+03</rscale>
<asrwt>0</asrwt>
<pdfrwt beam="1">  1        4 0.12050978E+00 0.12499977E+03</pdfrwt>
<pdfrwt beam="2">  1       -4 0.76720149E-03 0.12499977E+03</pdfrwt>
<totfact> 0.38792586E+03</totfact>
</mgrwt>
</event>
<event>
 5    1  0.3245943E-002  0.1249997E+03  0.7818608E-02  0.1235070E+00
         -4   -1    0    0    0  501 -0.00000000000E+00  0.00000000000E+00  0.23232356322E+02  0.23267042792E+02  0.12700000000E+01 0. -1.
          4   -1    0    0  501    0  0.00000000000E+00 -0.00000000000E+00 -0.16797492290E+03  0.16797972384E+03  0.12700000000E+01 0. -1.
         25    2    1    2    0    0  0.00000000000E+00  0.00000000000E+00 -0.14474256657E+03  0.19124676663E+03  0.12499966068E+03 0.  0.
    9000005    1    3    3    0    0  0.16717542051E+02  0.56390949684E+02 -0.40066873285E+02  0.71174221129E+02  0.10000000000E+01 0.  0.
    9000005    1    3    3    0    0 -0.16717542051E+02 -0.56390949684E+02 -0.10467569329E+03  0.12007254550E+03  0.10000000000E+01 0.  0.
<mgrwt>
<rscale>  0 0.12499966E+03</rscale>
<asrwt>0</asrwt>
<pdfrwt beam="2">  1        4 0.25845333E-01 0.12499966E+03</pdfrwt>
<pdfrwt beam="1">  1       -4 0.35772463E-02 0.12499966E+03</pdfrwt>
<totfact> 0.91631530E+03</totfact>
</mgrwt>
</event>
<event>
 5    1  0.3245943E-002  0.1250049E+03  0.7818608E-02  0.1235062E+00
         -4   -1    0    0    0  501 -0.00000000000E+00  0.00000000000E+00  0.21294021032E+03  0.21294399750E+03  0.12700000000E+01 0.  1.
          4   -1    0    0  501    0  0.00000000000E+00 -0.00000000000E+00 -0.18319854744E+02  0.18363822528E+02  0.12700000000E+01 0.  1.
         25    2    1    2    0    0  0.00000000000E+00  0.00000000000E+00  0.19462035558E+03  0.23130782003E+03  0.12500489911E+03 0.  0.
    9000005    1    3    3    0    0 -0.33961930461E+02 -0.39879908831E+02  0.16037934132E+03  0.16871974683E+03  0.10000000000E+01 0.  0.
    9000005    1    3    3    0    0  0.33961930461E+02  0.39879908831E+02  0.34241014259E+02  0.62588073197E+02  0.10000000000E+01 0.  0.
<mgrwt>
<rscale>  0 0.12500490E+03</rscale>
<asrwt>0</asrwt>
<pdfrwt beam="2">  1        4 0.28221128E-02 0.12500490E+03</pdfrwt>
<pdfrwt beam="1">  1       -4 0.32763704E-01 0.12500490E+03</pdfrwt>
<totfact> 0.85099883E+03</totfact>
</mgrwt>
</event>
<event>
 5    1  0.3245943E-002  0.1249968E+03  0.7818608E-02  0.1235074E+00
          4   -1    0    0  501    0  0.00000000000E+00  0.00000000000E+00  0.10340124040E+02  0.10417824397E+02  0.12700000000E+01 0. -1.
         -4   -1    0    0    0  501 -0.00000000000E+00 -0.00000000000E+00 -0.37626364076E+03  0.37626578407E+03  0.12700000000E+01 0. -1.
         25    2    1    2    0    0  0.00000000000E+00  0.00000000000E+00 -0.36592351672E+03  0.38668360847E+03  0.12499677181E+03 0.  0.
    9000005    1    3    3    0    0 -0.25954963693E+02  0.46450566694E+02 -0.28433074546E+03  0.28926853977E+03  0.10000000000E+01 0.  0.
    9000005    1    3    3    0    0  0.25954963693E+02 -0.46450566694E+02 -0.81592771264E+02  0.97415068696E+02  0.10000000000E+01 0.  0.
<mgrwt>
<rscale>  0 0.12499677E+03</rscale>
<asrwt>0</asrwt>
<pdfrwt beam="1">  1        4 0.15969304E-02 0.12499677E+03</pdfrwt>
<pdfrwt beam="2">  1       -4 0.57892845E-01 0.12499677E+03</pdfrwt>
<totfact> 0.65873566E+03</totfact>
</mgrwt>
</event>
<event>
 5    1  0.3245943E-002  0.1249935E+03  0.7818608E-02  0.1235079E+00
          4   -1    0    0  501    0  0.00000000000E+00  0.00000000000E+00  0.11268804791E+03  0.11269520417E+03  0.12700000000E+01 0.  1.
         -4   -1    0    0    0  501 -0.00000000000E+00 -0.00000000000E+00 -0.34640799215E+02  0.34664071749E+02  0.12700000000E+01 0.  1.
         25    2    1    2    0    0  0.00000000000E+00  0.00000000000E+00  0.78047248696E+02  0.14735927592E+03  0.12499353251E+03 0.  0.
    9000005    1    3    3    0    0  0.19389006174E+02 -0.53375721105E+02  0.82820071473E+01  0.57397672482E+02  0.10000000000E+01 0.  0.
    9000005    1    3    3    0    0 -0.19389006174E+02  0.53375721105E+02  0.69765241549E+02  0.89961603433E+02  0.10000000000E+01 0.  0.
<mgrwt>
<rscale>  0 0.12499353E+03</rscale>
<asrwt>0</asrwt>
<pdfrwt beam="1">  1        4 0.17338964E-01 0.12499353E+03</pdfrwt>
<pdfrwt beam="2">  1       -4 0.53316943E-02 0.12499353E+03</pdfrwt>
<totfact> 0.99847252E+03</totfact>
</mgrwt>
</event>
<event>
 5    1  0.3245943E-002  0.1249996E+03  0.7818608E-02  0.1235070E+00
          4   -1    0    0  501    0  0.00000000000E+00  0.00000000000E+00  0.18763841150E+01  0.22657708064E+01  0.12700000000E+01 0.  1.
         -4   -1    0    0    0  501 -0.00000000000E+00 -0.00000000000E+00 -0.18856926506E+04  0.18856930782E+04  0.12700000000E+01 0.  1.
         25    2    1    2    0    0  0.00000000000E+00  0.00000000000E+00 -0.18838162665E+04  0.18879588491E+04  0.12499955969E+03 0.  0.
    9000005    1    3    3    0    0  0.11387648644E+02  0.60607203073E+02 -0.10946805469E+04  0.10964166230E+04  0.10000000000E+01 0.  0.
    9000005    1    3    3    0    0 -0.11387648644E+02 -0.60607203073E+02 -0.78913571961E+03  0.79154222602E+03  0.10000000000E+01 0.  0.
<mgrwt>
<rscale>  0 0.12499956E+03</rscale>
<asrwt>0</asrwt>
<pdfrwt beam="1">  1        4 0.31866171E-03 0.12499956E+03</pdfrwt>
<pdfrwt beam="2">  1       -4 0.29013517E+00 0.12499956E+03</pdfrwt>
<totfact> 0.11395615E+03</totfact>
</mgrwt>
</event>
<event>
 5    1  0.3245943E-002  0.1249980E+03  0.7818608E-02  0.1235072E+00
          4   -1    0    0  501    0  0.00000000000E+00  0.00000000000E+00  0.11213170788E+03  0.11213889964E+03  0.12700000000E+01 0. -1.
         -4   -1    0    0    0  501 -0.00000000000E+00 -0.00000000000E+00 -0.34815251321E+02  0.34838407320E+02  0.12700000000E+01 0. -1.
         25    2    1    2    0    0  0.00000000000E+00  0.00000000000E+00  0.77316456559E+02  0.14697730696E+03  0.12499797721E+03 0.  0.
    9000005    1    3    3    0    0  0.28793569197E+02  0.21464636678E+02  0.98790829893E+02  0.10512101753E+03  0.10000000000E+01 0.  0.
    9000005    1    3    3    0    0 -0.28793569197E+02 -0.21464636678E+02 -0.21474373335E+02  0.41856289431E+02  0.10000000000E+01 0.  0.
<mgrwt>
<rscale>  0 0.12499798E+03</rscale>
<asrwt>0</asrwt>
<pdfrwt beam="1">  1        4 0.17253366E-01 0.12499798E+03</pdfrwt>
<pdfrwt beam="2">  1       -4 0.53585269E-02 0.12499798E+03</pdfrwt>
<totfact> 0.99914225E+03</totfact>
</mgrwt>
</event>
<event>
 5    1  0.3245943E-002  0.1249993E+03  0.7818608E-02  0.1235070E+00
         -4   -1    0    0    0  501 -0.00000000000E+00  0.00000000000E+00  0.97698790591E+02  0.97707044695E+02  0.12700000000E+01 0.  1.
          4   -1    0    0  501    0  0.00000000000E+00 -0.00000000000E+00 -0.39962108502E+02  0.39982283776E+02  0.12700000000E+01 0.  1.
         25    2    1    2    0    0  0.00000000000E+00  0.00000000000E+00  0.57736682089E+02  0.13768932847E+03  0.12499930686E+03 0.  0.
    9000005    1    3    3    0    0 -0.47745552523E+02 -0.33864167698E+02  0.52970939738E+02  0.78951504713E+02  0.10000000000E+01 0.  0.
    9000005    1    3    3    0    0  0.47745552523E+02  0.33864167698E+02  0.47657423510E+01  0.58737823758E+02  0.10000000000E+01 0.  0.
<mgrwt>
<rscale>  0 0.12499931E+03</rscale>
<asrwt>0</asrwt>
<pdfrwt beam="2">  1        4 0.61502036E-02 0.12499931E+03</pdfrwt>
<pdfrwt beam="1">  1       -4 0.15032770E-01 0.12499931E+03</pdfrwt>
<totfact> 0.10181851E+04</totfact>
</mgrwt>
</event>
<event>
 5    1  0.3245943E-002  0.1249991E+03  0.7818608E-02  0.1235071E+00
          4   -1    0    0  501    0  0.00000000000E+00  0.00000000000E+00  0.91536945381E+01  0.92413756388E+01  0.12700000000E+01 0.  1.
         -4   -1    0    0    0  501 -0.00000000000E+00 -0.00000000000E+00 -0.42461124700E+03  0.42461314626E+03  0.12700000000E+01 0.  1.
         25    2    1    2    0    0  0.00000000000E+00  0.00000000000E+00 -0.41545755246E+03  0.43385452190E+03  0.12499907310E+03 0.  0.
    9000005    1    3    3    0    0  0.48799698126E+02  0.37313792533E+02 -0.16793289329E+03  0.17881886449E+03  0.10000000000E+01 0.  0.
    9000005    1    3    3    0    0 -0.48799698126E+02 -0.37313792533E+02 -0.24752465917E+03  0.25503565741E+03  0.10000000000E+01 0.  0.
<mgrwt>
<rscale>  0 0.12499907E+03</rscale>
<asrwt>0</asrwt>
<pdfrwt beam="1">  1        4 0.14151518E-02 0.12499907E+03</pdfrwt>
<pdfrwt beam="2">  1       -4 0.65331683E-01 0.12499907E+03</pdfrwt>
<totfact> 0.61389411E+03</totfact>
</mgrwt>
</event>
<event>
 5    1  0.3245943E-002  0.1249970E+03  0.7818608E-02  0.1235074E+00
          4   -1    0    0  501    0  0.00000000000E+00  0.00000000000E+00  0.11495528423E+02  0.11565469023E+02  0.12700000000E+01 0.  1.
         -4   -1    0    0    0  501 -0.00000000000E+00 -0.00000000000E+00 -0.33868781817E+03  0.33869019926E+03  0.12700000000E+01 0.  1.
         25    2    1    2    0    0  0.00000000000E+00  0.00000000000E+00 -0.32719228974E+03  0.35025566828E+03  0.12499695475E+03 0.  0.
    9000005    1    3    3    0    0 -0.46690272190E+02  0.34275865308E+02 -0.97866227323E+02  0.11372605203E+03  0.10000000000E+01 0.  0.
    9000005    1    3    3    0    0  0.46690272190E+02 -0.34275865308E+02 -0.22932606242E+03  0.23652961625E+03  0.10000000000E+01 0.  0.
<mgrwt>
<rscale>  0 0.12499695E+03</rscale>
<asrwt>0</asrwt>
<pdfrwt beam="1">  1        4 0.17741063E-02 0.12499695E+03</pdfrwt>
<pdfrwt beam="2">  1       -4 0.52111374E-01 0.12499695E+03</pdfrwt>
<totfact> 0.69701139E+03</totfact>
</mgrwt>
</event>
<event>
 5    1  0.3245943E-002  0.1249992E+03  0.7818608E-02  0.1235071E+00
          4   -1    0    0  501    0  0.00000000000E+00  0.00000000000E+00  0.82516245661E+03  0.82516343394E+03  0.12700000000E+01 0.  1.
         -4   -1    0    0    0  501 -0.00000000000E+00 -0.00000000000E+00 -0.46476775975E+01  0.48180708847E+01  0.12700000000E+01 0.  1.
         25    2    1    2    0    0  0.00000000000E+00  0.00000000000E+00  0.82051477902E+03  0.82998150482E+03  0.12499918304E+03 0.  0.
    9000005    1    3    3    0    0 -0.58903238101E+02  0.20340071119E+02  0.44132258439E+03  0.44570161929E+03  0.10000000000E+01 0.  0.
    9000005    1    3    3    0    0  0.58903238101E+02 -0.20340071119E+02  0.37919219463E+03  0.38427988553E+03  0.10000000000E+01 0.  0.
<mgrwt>
<rscale>  0 0.12499918E+03</rscale>
<asrwt>0</asrwt>
<pdfrwt beam="1">  1        4 0.12696134E+00 0.12499918E+03</pdfrwt>
<pdfrwt beam="2">  1       -4 0.72820918E-03 0.12499918E+03</pdfrwt>
<totfact> 0.36961421E+03</totfact>
</mgrwt>
</event>
<event>
 5    1  0.3245943E-002  0.1250049E+03  0.7818608E-02  0.1235062E+00
          4   -1    0    0  501    0  0.00000000000E+00  0.00000000000E+00  0.57351584607E+02  0.57365644396E+02  0.12700000000E+01 0. -1.
         -4   -1    0    0    0  501 -0.00000000000E+00 -0.00000000000E+00 -0.68087631637E+02  0.68099474902E+02  0.12700000000E+01 0. -1.
         25    2    1    2    0    0  0.00000000000E+00  0.00000000000E+00 -0.10736047030E+02  0.12546511930E+03  0.12500493372E+03 0.  0.
    9000005    1    3    3    0    0  0.25840589186E+02 -0.46604104323E+02  0.27399978404E+02  0.59928602568E+02  0.10000000000E+01 0.  0.
    9000005    1    3    3    0    0 -0.25840589186E+02  0.46604104323E+02 -0.38136025434E+02  0.65536516730E+02  0.10000000000E+01 0.  0.
<mgrwt>
<rscale>  0 0.12500493E+03</rscale>
<asrwt>0</asrwt>
<pdfrwt beam="1">  1        4 0.88253133E-02 0.12500493E+03</pdfrwt>
<pdfrwt beam="2">  1       -4 0.10477013E-01 0.12500493E+03</pdfrwt>
<totfact> 0.10441563E+04</totfact>
</mgrwt>
</event>
<event>
 5    1  0.3245943E-002  0.1249997E+03  0.7818608E-02  0.1235070E+00
         -4   -1    0    0    0  501 -0.00000000000E+00  0.00000000000E+00  0.40753606632E+02  0.40773390262E+02  0.12700000000E+01 0. -1.
          4   -1    0    0  501    0  0.00000000000E+00 -0.00000000000E+00 -0.95802650818E+02  0.95811068274E+02  0.12700000000E+01 0. -1.
         25    2    1    2    0    0  0.00000000000E+00  0.00000000000E+00 -0.55049044186E+02  0.13658445854E+03  0.12499966819E+03 0.  0.
    9000005    1    3    3    0    0 -0.36444215953E+02 -0.44998217704E+02 -0.18475338380E+01  0.57943367646E+02  0.10000000000E+01 0.  0.
    9000005    1    3    3    0    0  0.36444215953E+02  0.44998217704E+02 -0.53201510348E+02  0.78641090889E+02  0.10000000000E+01 0.  0.
<mgrwt>
<rscale>  0 0.12499967E+03</rscale>
<asrwt>0</asrwt>
<pdfrwt beam="2">  1        4 0.14741039E-01 0.12499967E+03</pdfrwt>
<pdfrwt beam="1">  1       -4 0.62719549E-02 0.12499967E+03</pdfrwt>
<totfact> 0.10204858E+04</totfact>
</mgrwt>
</event>
<event>
 5    1  0.3245943E-002  0.1250038E+03  0.7818608E-02  0.1235063E+00
          4   -1    0    0  501    0  0.00000000000E+00  0.00000000000E+00  0.95945592060E+01  0.96782470705E+01  0.12700000000E+01 0.  1.
         -4   -1    0    0    0  501 -0.00000000000E+00 -0.00000000000E+00 -0.40530383924E+03  0.40530582898E+03  0.12700000000E+01 0.  1.
         25    2    1    2    0    0  0.00000000000E+00  0.00000000000E+00 -0.39570928004E+03  0.41498407605E+03  0.12500379621E+03 0.  0.
    9000005    1    3    3    0    0  0.54031289987E+02 -0.31227932974E+02 -0.20882655936E+03  0.21795434382E+03  0.10000000000E+01 0.  0.
    9000005    1    3    3    0    0 -0.54031289987E+02  0.31227932974E+02 -0.18688272068E+03  0.19702973223E+03  0.10000000000E+01 0.  0.
<mgrwt>
<rscale>  0 0.12500380E+03</rscale>
<asrwt>0</asrwt>
<pdfrwt beam="1">  1        4 0.14826769E-02 0.12500380E+03</pdfrwt>
<pdfrwt beam="2">  1       -4 0.62361014E-01 0.12500380E+03</pdfrwt>
<totfact> 0.63115807E+03</totfact>
</mgrwt>
</event>
<event>
 5    1  0.3245943E-002  0.1249998E+03  0.7818608E-02  0.1235070E+00
          4   -1    0    0  501    0  0.00000000000E+00  0.00000000000E+00  0.11065965045E+02  0.11138603251E+02  0.12700000000E+01 0. -1.
         -4   -1    0    0    0  501 -0.00000000000E+00 -0.00000000000E+00 -0.35176718237E+03  0.35176947493E+03  0.12700000000E+01 0. -1.
         25    2    1    2    0    0  0.00000000000E+00  0.00000000000E+00 -0.34070121732E+03  0.36290807818E+03  0.12499981489E+03 0.  0.
    9000005    1    3    3    0    0 -0.52199547612E+02 -0.28176887654E+02 -0.11327285390E+03  0.12786895323E+03  0.10000000000E+01 0.  0.
    9000005    1    3    3    0    0  0.52199547612E+02  0.28176887654E+02 -0.22742836342E+03  0.23503912495E+03  0.10000000000E+01 0.  0.
<mgrwt>
<rscale>  0 0.12499981E+03</rscale>
<asrwt>0</asrwt>
<pdfrwt beam="1">  1        4 0.17082203E-02 0.12499981E+03</pdfrwt>
<pdfrwt beam="2">  1       -4 0.54123783E-01 0.12499981E+03</pdfrwt>
<totfact> 0.68327753E+03</totfact>
</mgrwt>
</event>
<event>
 5    1  0.3245943E-002  0.1249836E+03  0.7818608E-02  0.1235095E+00
          4   -1    0    0  501    0  0.00000000000E+00  0.00000000000E+00  0.39777361518E+03  0.39777564259E+03  0.12700000000E+01 0. -1.
         -4   -1    0    0    0  501 -0.00000000000E+00 -0.00000000000E+00 -0.97745747823E+01  0.98567343565E+01  0.12700000000E+01 0. -1.
         25    2    1    2    0    0  0.00000000000E+00  0.00000000000E+00  0.38799904040E+03  0.40763237694E+03  0.12498359645E+03 0.  0.
    9000005    1    3    3    0    0 -0.56009699928E+02  0.14189678613E+02  0.11642058452E+03  0.12997378953E+03  0.10000000000E+01 0.  0.
    9000005    1    3    3    0    0  0.56009699928E+02 -0.14189678613E+02  0.27157845588E+03  0.27765858741E+03  0.10000000000E+01 0.  0.
<mgrwt>
<rscale>  0 0.12498360E+03</rscale>
<asrwt>0</asrwt>
<pdfrwt beam="1">  1        4 0.61202415E-01 0.12498360E+03</pdfrwt>
<pdfrwt beam="2">  1       -4 0.15102567E-02 0.12498360E+03</pdfrwt>
<totfact> 0.63840289E+03</totfact>
</mgrwt>
</event>
<event>
 5    1  0.3245943E-002  0.1249961E+03  0.7818608E-02  0.1235075E+00
          4   -1    0    0  501    0  0.00000000000E+00  0.00000000000E+00  0.10976606668E+03  0.10977341342E+03  0.12700000000E+01 0.  1.
         -4   -1    0    0    0  501 -0.00000000000E+00 -0.00000000000E+00 -0.35564979913E+02  0.35587648085E+02  0.12700000000E+01 0.  1.
         25    2    1    2    0    0  0.00000000000E+00  0.00000000000E+00  0.74201086767E+02  0.14536106151E+03  0.12499614764E+03 0.  0.
    9000005    1    3    3    0    0 -0.12326351521E+02 -0.55759248521E+02  0.66611715908E+02  0.87744819982E+02  0.10000000000E+01 0.  0.
    9000005    1    3    3    0    0  0.12326351521E+02  0.55759248521E+02  0.75893708589E+01  0.57616241525E+02  0.10000000000E+01 0.  0.
<mgrwt>
<rscale>  0 0.12499615E+03</rscale>
<asrwt>0</asrwt>
<pdfrwt beam="1">  1        4 0.16889396E-01 0.12499615E+03</pdfrwt>
<pdfrwt beam="2">  1       -4 0.54738443E-02 0.12499615E+03</pdfrwt>
<totfact> 0.10024527E+04</totfact>
</mgrwt>
</event>
<event>
 5    1  0.3245943E-002  0.1250025E+03  0.7818608E-02  0.1235065E+00
          4   -1    0    0  501    0  0.00000000000E+00  0.00000000000E+00  0.18418099141E+03  0.18418536993E+03  0.12700000000E+01 0.  1.
         -4   -1    0    0    0  501 -0.00000000000E+00 -0.00000000000E+00 -0.21185957186E+02  0.21223988360E+02  0.12700000000E+01 0.  1.
         25    2    1    2    0    0  0.00000000000E+00  0.00000000000E+00  0.16299503422E+03  0.20540935829E+03  0.12500249314E+03 0.  0.
    9000005    1    3    3    0    0  0.42614815543E+02 -0.45116210228E+02  0.69432170093E+02  0.93130667199E+02  0.10000000000E+01 0.  0.
    9000005    1    3    3    0    0 -0.42614815543E+02  0.45116210228E+02  0.93562864132E+02  0.11227869109E+03  0.10000000000E+01 0.  0.
<mgrwt>
<rscale>  0 0.12500249E+03</rscale>
<asrwt>0</asrwt>
<pdfrwt beam="1">  1        4 0.28338799E-01 0.12500249E+03</pdfrwt>
<pdfrwt beam="2">  1       -4 0.32626403E-02 0.12500249E+03</pdfrwt>
<totfact> 0.89226148E+03</totfact>
</mgrwt>
</event>
<event>
 5    1  0.3245943E-002  0.1250038E+03  0.7818608E-02  0.1235063E+00
         -4   -1    0    0    0  501 -0.00000000000E+00  0.00000000000E+00  0.10814398193E+03  0.10815143886E+03  0.12700000000E+01 0.  1.
          4   -1    0    0  501    0  0.00000000000E+00 -0.00000000000E+00 -0.36103158760E+02  0.36125489235E+02  0.12700000000E+01 0.  1.
         25    2    1    2    0    0  0.00000000000E+00  0.00000000000E+00  0.72040823168E+02  0.14427692809E+03  0.12500380705E+03 0.  0.
    9000005    1    3    3    0    0 -0.32497883189E+02  0.37209500462E+02  0.80194444817E+02  0.94195585437E+02  0.10000000000E+01 0.  0.
    9000005    1    3    3    0    0  0.32497883189E+02 -0.37209500462E+02 -0.81536216482E+01  0.50081342657E+02  0.10000000000E+01 0.  0.
<mgrwt>
<rscale>  0 0.12500381E+03</rscale>
<asrwt>0</asrwt>
<pdfrwt beam="2">  1        4 0.55566235E-02 0.12500381E+03</pdfrwt>
<pdfrwt beam="1">  1       -4 0.16639827E-01 0.12500381E+03</pdfrwt>
<totfact> 0.10044839E+04</totfact>
</mgrwt>
</event>
<event>
 5    1  0.3245943E-002  0.1250037E+03  0.7818608E-02  0.1235064E+00
          4   -1    0    0  501    0  0.00000000000E+00  0.00000000000E+00  0.82692173421E+03  0.82692270945E+03  0.12700000000E+01 0. -1.
         -4   -1    0    0    0  501 -0.00000000000E+00 -0.00000000000E+00 -0.46377738854E+01  0.48085181305E+01  0.12700000000E+01 0. -1.
         25    2    1    2    0    0  0.00000000000E+00  0.00000000000E+00  0.82228396032E+03  0.83173122758E+03  0.12500369407E+03 0.  0.
    9000005    1    3    3    0    0  0.15352966357E+02 -0.33999517275E+01  0.87082852870E+01  0.18002985318E+02  0.10000000000E+01 0.  0.
    9000005    1    3    3    0    0 -0.15352966357E+02  0.33999517275E+01  0.81357567504E+03  0.81372824227E+03  0.10000000000E+01 0.  0.
<mgrwt>
<rscale>  0 0.12500369E+03</rscale>
<asrwt>0</asrwt>
<pdfrwt beam="1">  1        4 0.12723181E+00 0.12500369E+03</pdfrwt>
<pdfrwt beam="2">  1       -4 0.72671357E-03 0.12500369E+03</pdfrwt>
<totfact> 0.36883835E+03</totfact>
</mgrwt>
</event>
<event>
 5    1  0.3245943E-002  0.1249997E+03  0.7818608E-02  0.1235070E+00
         -4   -1    0    0    0  501 -0.00000000000E+00  0.00000000000E+00  0.10485084599E+03  0.10485853711E+03  0.12700000000E+01 0. -1.
          4   -1    0    0  501    0  0.00000000000E+00 -0.00000000000E+00 -0.37235224161E+02  0.37256876121E+02  0.12700000000E+01 0. -1.
         25    2    1    2    0    0  0.00000000000E+00  0.00000000000E+00  0.67615621832E+02  0.14211541323E+03  0.12499967345E+03 0.  0.
    9000005    1    3    3    0    0  0.15280279152E+02  0.60028767586E+02  0.24412525548E+02  0.66587621016E+02  0.10000000000E+01 0.  0.
    9000005    1    3    3    0    0 -0.15280279152E+02 -0.60028767586E+02  0.43203096284E+02  0.75527792218E+02  0.10000000000E+01 0.  0.
<mgrwt>
<rscale>  0 0.12499967E+03</rscale>
<asrwt>0</asrwt>
<pdfrwt beam="2">  1        4 0.57307534E-02 0.12499967E+03</pdfrwt>
<pdfrwt beam="1">  1       -4 0.16133156E-01 0.12499967E+03</pdfrwt>
<totfact> 0.10090004E+04</totfact>
</mgrwt>
</event>
<event>
 5    1  0.3245943E-002  0.1249999E+03  0.7818608E-02  0.1235069E+00
          4   -1    0    0  501    0  0.00000000000E+00  0.00000000000E+00  0.88729215350E+01  0.89633496287E+01  0.12700000000E+01 0. -1.
         -4   -1    0    0    0  501 -0.00000000000E+00 -0.00000000000E+00 -0.43791972695E+03  0.43792156850E+03  0.12700000000E+01 0. -1.
         25    2    1    2    0    0  0.00000000000E+00  0.00000000000E+00 -0.42904680542E+03  0.44688491813E+03  0.12499987523E+03 0.  0.
    9000005    1    3    3    0    0  0.32338186346E+02 -0.22573083851E+02 -0.41217048585E+02  0.57053899996E+02  0.10000000000E+01 0.  0.
    9000005    1    3    3    0    0 -0.32338186346E+02  0.22573083851E+02 -0.38782975683E+03  0.38983101813E+03  0.10000000000E+01 0.  0.
<mgrwt>
<rscale>  0 0.12499988E+03</rscale>
<asrwt>0</asrwt>
<pdfrwt beam="1">  1        4 0.13721629E-02 0.12499988E+03</pdfrwt>
<pdfrwt beam="2">  1       -4 0.67379347E-01 0.12499988E+03</pdfrwt>
<totfact> 0.60234780E+03</totfact>
</mgrwt>
</event>
<event>
 5    1  0.3245943E-002  0.1250018E+03  0.7818608E-02  0.1235066E+00
         -4   -1    0    0    0  501 -0.00000000000E+00  0.00000000000E+00  0.16844885719E+02  0.16892692944E+02  0.12700000000E+01 0. -1.
          4   -1    0    0  501    0  0.00000000000E+00 -0.00000000000E+00 -0.23152398049E+03  0.23152746369E+03  0.12700000000E+01 0. -1.
         25    2    1    2    0    0  0.00000000000E+00  0.00000000000E+00 -0.21467909478E+03  0.24842015664E+03  0.12500184195E+03 0.  0.
    9000005    1    3    3    0    0  0.43523880579E+02 -0.42184864662E+02 -0.13757536062E+03  0.15033918596E+03  0.10000000000E+01 0.  0.
    9000005    1    3    3    0    0 -0.43523880579E+02  0.42184864662E+02 -0.77103734158E+02  0.98080970674E+02  0.10000000000E+01 0.  0.
<mgrwt>
<rscale>  0 0.12500184E+03</rscale>
<asrwt>0</asrwt>
<pdfrwt beam="2">  1        4 0.35623017E-01 0.12500184E+03</pdfrwt>
<pdfrwt beam="1">  1       -4 0.25954665E-02 0.12500184E+03</pdfrwt>
<totfact> 0.82555715E+03</totfact>
</mgrwt>
</event>
<event>
 5    1  0.3245943E-002  0.1249993E+03  0.7818608E-02  0.1235070E+00
          4   -1    0    0  501    0  0.00000000000E+00  0.00000000000E+00  0.92949948517E+01  0.93813554081E+01  0.12700000000E+01 0.  1.
         -4   -1    0    0    0  501 -0.00000000000E+00 -0.00000000000E+00 -0.41821749815E+03  0.41821942645E+03  0.12700000000E+01 0.  1.
         25    2    1    2    0    0  0.00000000000E+00  0.00000000000E+00 -0.40892250330E+03  0.42760078186E+03  0.12499925976E+03 0.  0.
    9000005    1    3    3    0    0  0.27437677457E+01  0.22162009951E+02 -0.40411918494E+03  0.40473694986E+03  0.10000000000E+01 0.  0.
    9000005    1    3    3    0    0 -0.27437677457E+01 -0.22162009951E+02 -0.48033183654E+01  0.22863832002E+02  0.10000000000E+01 0.  0.
<mgrwt>
<rscale>  0 0.12499926E+03</rscale>
<asrwt>0</asrwt>
<pdfrwt beam="1">  1        4 0.14367910E-02 0.12499926E+03</pdfrwt>
<pdfrwt beam="2">  1       -4 0.64347930E-01 0.12499926E+03</pdfrwt>
<totfact> 0.61955087E+03</totfact>
</mgrwt>
</event>
<event>
 5    1  0.3245943E-002  0.1250001E+03  0.7818608E-02  0.1235069E+00
          4   -1    0    0  501    0  0.00000000000E+00  0.00000000000E+00  0.98622418293E+01  0.99436770814E+01  0.12700000000E+01 0. -1.
         -4   -1    0    0    0  501 -0.00000000000E+00 -0.00000000000E+00 -0.39437079048E+03  0.39437283537E+03  0.12700000000E+01 0. -1.
         25    2    1    2    0    0  0.00000000000E+00  0.00000000000E+00 -0.38450854865E+03  0.40431651246E+03  0.12500007305E+03 0.  0.
    9000005    1    3    3    0    0 -0.50703302742E+02  0.94798750493E+01 -0.30636314694E+03  0.31067679467E+03  0.10000000000E+01 0.  0.
    9000005    1    3    3    0    0  0.50703302742E+02 -0.94798750493E+01 -0.78145401703E+02  0.93639717788E+02  0.10000000000E+01 0.  0.
<mgrwt>
<rscale>  0 0.12500007E+03</rscale>
<asrwt>0</asrwt>
<pdfrwt beam="1">  1        4 0.15236898E-02 0.12500007E+03</pdfrwt>
<pdfrwt beam="2">  1       -4 0.60678839E-01 0.12500007E+03</pdfrwt>
<totfact> 0.64135027E+03</totfact>
</mgrwt>
</event>
<event>
 5    1  0.3245943E-002  0.1250081E+03  0.7818608E-02  0.1235057E+00
         -4   -1    0    0    0  501 -0.00000000000E+00  0.00000000000E+00  0.13211977482E+04  0.13211983586E+04  0.12700000000E+01 0. -1.
          4   -1    0    0  501    0  0.00000000000E+00 -0.00000000000E+00 -0.28199780674E+01  0.30927619211E+01  0.12700000000E+01 0. -1.
         25    2    1    2    0    0  0.00000000000E+00  0.00000000000E+00  0.13183777702E+04  0.13242911206E+04  0.12500810811E+03 0.  0.
    9000005    1    3    3    0    0  0.47952529716E+02 -0.33988767765E+02  0.88418230845E+03  0.88613432165E+03  0.10000000000E+01 0.  0.
    9000005    1    3    3    0    0 -0.47952529716E+02  0.33988767765E+02  0.43419546173E+03  0.43815679890E+03  0.10000000000E+01 0.  0.
<mgrwt>
<rscale>  0 0.12500811E+03</rscale>
<asrwt>0</asrwt>
<pdfrwt beam="2">  1        4 0.45487192E-03 0.12500811E+03</pdfrwt>
<pdfrwt beam="1">  1       -4 0.20328275E+00 0.12500811E+03</pdfrwt>
<totfact> 0.21658457E+03</totfact>
</mgrwt>
</event>
<event>
 5    1  0.3245943E-002  0.1250055E+03  0.7818608E-02  0.1235061E+00
          4   -1    0    0  501    0  0.00000000000E+00  0.00000000000E+00  0.16885745871E+02  0.16933437738E+02  0.12700000000E+01 0.  1.
         -4   -1    0    0    0  501 -0.00000000000E+00 -0.00000000000E+00 -0.23097867698E+03  0.23098216841E+03  0.12700000000E+01 0.  1.
         25    2    1    2    0    0  0.00000000000E+00  0.00000000000E+00 -0.21409293111E+03  0.24791560614E+03  0.12500545835E+03 0.  0.
    9000005    1    3    3    0    0  0.59297746425E+02 -0.16074483374E+02 -0.12974388065E+03  0.14355865112E+03  0.10000000000E+01 0.  0.
    9000005    1    3    3    0    0 -0.59297746425E+02  0.16074483374E+02 -0.84349050467E+02  0.10435695502E+03  0.10000000000E+01 0.  0.
<mgrwt>
<rscale>  0 0.12500546E+03</rscale>
<asrwt>0</asrwt>
<pdfrwt beam="1">  1        4 0.26017444E-02 0.12500546E+03</pdfrwt>
<pdfrwt beam="2">  1       -4 0.35539116E-01 0.12500546E+03</pdfrwt>
<totfact> 0.82622377E+03</totfact>
</mgrwt>
</event>
<event>
 5    1  0.3245943E-002  0.1250015E+03  0.7818608E-02  0.1235067E+00
          4   -1    0    0  501    0  0.00000000000E+00  0.00000000000E+00  0.17127376490E+02  0.17174397382E+02  0.12700000000E+01 0.  1.
         -4   -1    0    0    0  501 -0.00000000000E+00 -0.00000000000E+00 -0.22771445691E+03  0.22771799837E+03  0.12700000000E+01 0.  1.
         25    2    1    2    0    0  0.00000000000E+00  0.00000000000E+00 -0.21058708042E+03  0.24489239576E+03  0.12500146824E+03 0.  0.
    9000005    1    3    3    0    0  0.42548644457E+02 -0.32658266675E+02 -0.42467515497E+02  0.68421045007E+02  0.10000000000E+01 0.  0.
    9000005    1    3    3    0    0 -0.42548644457E+02  0.32658266675E+02 -0.16811956492E+03  0.17647135075E+03  0.10000000000E+01 0.  0.
<mgrwt>
<rscale>  0 0.12500147E+03</rscale>
<asrwt>0</asrwt>
<pdfrwt beam="1">  1        4 0.26388706E-02 0.12500147E+03</pdfrwt>
<pdfrwt beam="2">  1       -4 0.35036881E-01 0.12500147E+03</pdfrwt>
<totfact> 0.83071368E+03</totfact>
</mgrwt>
</event>
<event>
 5    1  0.3245943E-002  0.1250020E+03  0.7818608E-02  0.1235066E+00
         -4   -1    0    0    0  501 -0.00000000000E+00  0.00000000000E+00  0.23466366550E+02  0.23500707628E+02  0.12700000000E+01 0.  1.
          4   -1    0    0  501    0  0.00000000000E+00 -0.00000000000E+00 -0.16630861080E+03  0.16631345985E+03  0.12700000000E+01 0.  1.
         25    2    1    2    0    0  0.00000000000E+00  0.00000000000E+00 -0.14284224426E+03  0.18981416748E+03  0.12500204571E+03 0.  0.
    9000005    1    3    3    0    0  0.20963148152E+02  0.16034047867E+02 -0.15743828249E+03  0.15963820679E+03  0.10000000000E+01 0.  0.
    9000005    1    3    3    0    0 -0.20963148152E+02 -0.16034047867E+02  0.14596038239E+02  0.30175960693E+02  0.10000000000E+01 0.  0.
<mgrwt>
<rscale>  0 0.12500205E+03</rscale>
<asrwt>0</asrwt>
<pdfrwt beam="2">  1        4 0.25588954E-01 0.12500205E+03</pdfrwt>
<pdfrwt beam="1">  1       -4 0.36132250E-02 0.12500205E+03</pdfrwt>
<totfact> 0.91875449E+03</totfact>
</mgrwt>
</event>
<event>
 5    1  0.3245943E-002  0.1249932E+03  0.7818608E-02  0.1235080E+00
          4   -1    0    0  501    0  0.00000000000E+00  0.00000000000E+00  0.14656739939E+02  0.14711659513E+02  0.12700000000E+01 0. -1.
         -4   -1    0    0    0  501 -0.00000000000E+00 -0.00000000000E+00 -0.26593183108E+03  0.26593486360E+03  0.12700000000E+01 0. -1.
         25    2    1    2    0    0  0.00000000000E+00  0.00000000000E+00 -0.25127509114E+03  0.28064652312E+03  0.12499319786E+03 0.  0.
    9000005    1    3    3    0    0 -0.38687491681E+02 -0.47189045460E+02 -0.95405438253E+02  0.11325513530E+03  0.10000000000E+01 0.  0.
    9000005    1    3    3    0    0  0.38687491681E+02  0.47189045460E+02 -0.15586965288E+03  0.16739138781E+03  0.10000000000E+01 0.  0.
<mgrwt>
<rscale>  0 0.12499320E+03</rscale>
<asrwt>0</asrwt>
<pdfrwt beam="1">  1        4 0.22593411E-02 0.12499320E+03</pdfrwt>
<pdfrwt beam="2">  1       -4 0.40917044E-01 0.12499320E+03</pdfrwt>
<totfact> 0.78104269E+03</totfact>
</mgrwt>
</event>
<event>
 5    1  0.3245943E-002  0.1249967E+03  0.7818608E-02  0.1235074E+00
         -4   -1    0    0    0  501 -0.00000000000E+00  0.00000000000E+00  0.71841714228E+02  0.71852938724E+02  0.12700000000E+01 0. -1.
          4   -1    0    0  501    0  0.00000000000E+00 -0.00000000000E+00 -0.54347271454E+02  0.54362108260E+02  0.12700000000E+01 0. -1.
         25    2    1    2    0    0  0.00000000000E+00  0.00000000000E+00  0.17494442775E+02  0.12621504698E+03  0.12499673019E+03 0.  0.
    9000005    1    3    3    0    0  0.58167983207E+02 -0.15614549768E+02 -0.80800567555E+01  0.60775124451E+02  0.10000000000E+01 0.  0.
    9000005    1    3    3    0    0 -0.58167983207E+02  0.15614549768E+02  0.25574499530E+02  0.65439922533E+02  0.10000000000E+01 0.  0.
<mgrwt>
<rscale>  0 0.12499673E+03</rscale>
<asrwt>0</asrwt>
<pdfrwt beam="2">  1        4 0.83631235E-02 0.12499673E+03</pdfrwt>
<pdfrwt beam="1">  1       -4 0.11054576E-01 0.12499673E+03</pdfrwt>
<totfact> 0.10427019E+04</totfact>
</mgrwt>
</event>
<event>
 5    1  0.3245943E-002  0.1250014E+03  0.7818608E-02  0.1235067E+00
          4   -1    0    0  501    0  0.00000000000E+00  0.00000000000E+00  0.23698837275E+03  0.23699177564E+03  0.12700000000E+01 0. -1.
         -4   -1    0    0    0  501 -0.00000000000E+00 -0.00000000000E+00 -0.16455248571E+02  0.16504184485E+02  0.12700000000E+01 0. -1.
         25    2    1    2    0    0  0.00000000000E+00  0.00000000000E+00  0.22053312418E+03  0.25349596012E+03  0.12500137174E+03 0.  0.
    9000005    1    3    3    0    0  0.61411695773E+01 -0.49011067184E+02  0.32632078801E+02  0.59208540238E+02  0.10000000000E+01 0.  0.
    9000005    1    3    3    0    0 -0.61411695773E+01  0.49011067184E+02  0.18790104538E+03  0.19428741989E+03  0.10000000000E+01 0.  0.
<mgrwt>
<rscale>  0 0.12500137E+03</rscale>
<asrwt>0</asrwt>
<pdfrwt beam="1">  1        4 0.36463776E-01 0.12500137E+03</pdfrwt>
<pdfrwt beam="2">  1       -4 0.25356027E-02 0.12500137E+03</pdfrwt>
<totfact> 0.81825063E+03</totfact>
</mgrwt>
</event>
<event>
 5    1  0.3245943E-002  0.1249962E+03  0.7818608E-02  0.1235075E+00
         -4   -1    0    0    0  501 -0.00000000000E+00  0.00000000000E+00  0.35367002780E+02  0.35389797762E+02  0.12700000000E+01 0. -1.
          4   -1    0    0  501    0  0.00000000000E+00 -0.00000000000E+00 -0.11038025603E+03  0.11038756190E+03  0.12700000000E+01 0. -1.
         25    2    1    2    0    0  0.00000000000E+00  0.00000000000E+00 -0.75013253250E+02  0.14577735966E+03  0.12499620164E+03 0.  0.
    9000005    1    3    3    0    0  0.12667105789E+02  0.53522137720E+02 -0.29111551269E+01  0.55086746313E+02  0.10000000000E+01 0.  0.
    9000005    1    3    3    0    0 -0.12667105789E+02 -0.53522137720E+02 -0.72102098123E+02  0.90690613345E+02  0.10000000000E+01 0.  0.
<mgrwt>
<rscale>  0 0.12499620E+03</rscale>
<asrwt>0</asrwt>
<pdfrwt beam="2">  1        4 0.16983893E-01 0.12499620E+03</pdfrwt>
<pdfrwt beam="1">  1       -4 0.54433929E-02 0.12499620E+03</pdfrwt>
<totfact> 0.10016075E+04</totfact>
</mgrwt>
</event>
<event>
 5    1  0.3245943E-002  0.1250009E+03  0.7818608E-02  0.1235068E+00
          4   -1    0    0  501    0  0.00000000000E+00  0.00000000000E+00  0.36118620632E+02  0.36140941553E+02  0.12700000000E+01 0. -1.
         -4   -1    0    0    0  501 -0.00000000000E+00 -0.00000000000E+00 -0.10809262275E+03  0.10810008323E+03  0.12700000000E+01 0. -1.
         25    2    1    2    0    0  0.00000000000E+00  0.00000000000E+00 -0.71974002123E+02  0.14424102478E+03  0.12500086499E+03 0.  0.
    9000005    1    3    3    0    0 -0.44272963287E+02  0.33838021967E+02 -0.33451893855E+01  0.55832761896E+02  0.10000000000E+01 0.  0.
    9000005    1    3    3    0    0  0.44272963287E+02 -0.33838021967E+02 -0.68628812737E+02  0.88408262886E+02  0.10000000000E+01 0.  0.
<mgrwt>
<rscale>  0 0.12500086E+03</rscale>
<asrwt>0</asrwt>
<pdfrwt beam="1">  1        4 0.55590018E-02 0.12500086E+03</pdfrwt>
<pdfrwt beam="2">  1       -4 0.16631925E-01 0.12500086E+03</pdfrwt>
<totfact> 0.10046236E+04</totfact>
</mgrwt>
</event>
<event>
 5    1  0.3245943E-002  0.1250014E+03  0.7818608E-02  0.1235067E+00
          4   -1    0    0  501    0  0.00000000000E+00  0.00000000000E+00  0.14585018287E+03  0.14585571207E+03  0.12700000000E+01 0.  1.
         -4   -1    0    0    0  501 -0.00000000000E+00 -0.00000000000E+00 -0.26762104847E+02  0.26792221928E+02  0.12700000000E+01 0.  1.
         25    2    1    2    0    0  0.00000000000E+00  0.00000000000E+00  0.11908807803E+03  0.17264793400E+03  0.12500135514E+03 0.  0.
    9000005    1    3    3    0    0 -0.13431930262E+02 -0.16604167522E+02 -0.21572065305E+02  0.30372176925E+02  0.10000000000E+01 0.  0.
    9000005    1    3    3    0    0  0.13431930262E+02  0.16604167522E+02  0.14066014333E+03  0.14227575708E+03  0.10000000000E+01 0.  0.
<mgrwt>
<rscale>  0 0.12500136E+03</rscale>
<asrwt>0</asrwt>
<pdfrwt beam="1">  1        4 0.22441232E-01 0.12500136E+03</pdfrwt>
<pdfrwt beam="2">  1       -4 0.41199889E-02 0.12500136E+03</pdfrwt>
<totfact> 0.94954502E+03</totfact>
</mgrwt>
</event>
<event>
 5    1  0.3245943E-002  0.1250000E+03  0.7818608E-02  0.1235069E+00
         -4   -1    0    0    0  501 -0.00000000000E+00  0.00000000000E+00  0.30970258277E+03  0.30970518671E+03  0.12700000000E+01 0. -1.
          4   -1    0    0  501    0  0.00000000000E+00 -0.00000000000E+00 -0.12578268993E+02  0.12642220963E+02  0.12700000000E+01 0. -1.
         25    2    1    2    0    0  0.00000000000E+00  0.00000000000E+00  0.29712431378E+03  0.32234740767E+03  0.12499997358E+03 0.  0.
    9000005    1    3    3    0    0  0.59560765756E+02  0.56695455667E+01  0.10202823538E+03  0.11828097641E+03  0.10000000000E+01 0.  0.
    9000005    1    3    3    0    0 -0.59560765756E+02 -0.56695455667E+01  0.19509607840E+03  0.20406643127E+03  0.10000000000E+01 0.  0.
<mgrwt>
<rscale>  0 0.12499997E+03</rscale>
<asrwt>0</asrwt>
<pdfrwt beam="2">  1        4 0.19402380E-02 0.12499997E+03</pdfrwt>
<pdfrwt beam="1">  1       -4 0.47651670E-01 0.12499997E+03</pdfrwt>
<totfact> 0.72877840E+03</totfact>
</mgrwt>
</event>
<event>
 5    1  0.3245943E-002  0.1249993E+03  0.7818608E-02  0.1235070E+00
          4   -1    0    0  501    0  0.00000000000E+00  0.00000000000E+00  0.12510347383E+02  0.12574644792E+02  0.12700000000E+01 0.  1.
         -4   -1    0    0    0  501 -0.00000000000E+00 -0.00000000000E+00 -0.31137228420E+03  0.31137487418E+03  0.12700000000E+01 0.  1.
         25    2    1    2    0    0  0.00000000000E+00  0.00000000000E+00 -0.29886193682E+03  0.32394951897E+03  0.12499933425E+03 0.  0.
    9000005    1    3    3    0    0  0.14540650507E+02  0.11503718141E+02 -0.30409260389E+03  0.30465895324E+03  0.10000000000E+01 0.  0.
    9000005    1    3    3    0    0 -0.14540650507E+02 -0.11503718141E+02  0.52306670701E+01  0.19290565732E+02  0.10000000000E+01 0.  0.
<mgrwt>
<rscale>  0 0.12499933E+03</rscale>
<asrwt>0</asrwt>
<pdfrwt beam="1">  1        4 0.19298142E-02 0.12499933E+03</pdfrwt>
<pdfrwt beam="2">  1       -4 0.47908568E-01 0.12499933E+03</pdfrwt>
<totfact> 0.72689907E+03</totfact>
</mgrwt>
</event>
<event>
 5    1  0.3245943E-002  0.1250039E+03  0.7818608E-02  0.1235063E+00
          4   -1    0    0  501    0  0.00000000000E+00  0.00000000000E+00  0.55547426575E+01  0.56980756393E+01  0.12700000000E+01 0. -1.
         -4   -1    0    0    0  501 -0.00000000000E+00 -0.00000000000E+00 -0.69417024152E+03  0.69417140327E+03  0.12700000000E+01 0. -1.
         25    2    1    2    0    0  0.00000000000E+00  0.00000000000E+00 -0.68861549887E+03  0.69986947891E+03  0.12500392886E+03 0.  0.
    9000005    1    3    3    0    0  0.22100095225E+02 -0.57508336422E+02 -0.28562126784E+03  0.29219194310E+03  0.10000000000E+01 0.  0.
    9000005    1    3    3    0    0 -0.22100095225E+02  0.57508336422E+02 -0.40299423102E+03  0.40767753581E+03  0.10000000000E+01 0.  0.
<mgrwt>
<rscale>  0 0.12500393E+03</rscale>
<asrwt>0</asrwt>
<pdfrwt beam="1">  1        4 0.86569132E-03 0.12500393E+03</pdfrwt>
<pdfrwt beam="2">  1       -4 0.10680647E+00 0.12500393E+03</pdfrwt>
<totfact> 0.43089899E+03</totfact>
</mgrwt>
</event>
<event>
 5    1  0.3245943E-002  0.1249948E+03  0.7818608E-02  0.1235077E+00
         -4   -1    0    0    0  501 -0.00000000000E+00  0.00000000000E+00  0.51707173239E+02  0.51722767370E+02  0.12700000000E+01 0. -1.
          4   -1    0    0  501    0  0.00000000000E+00 -0.00000000000E+00 -0.75507039984E+02  0.75517719690E+02  0.12700000000E+01 0. -1.
         25    2    1    2    0    0  0.00000000000E+00  0.00000000000E+00 -0.23799866745E+02  0.12724048706E+03  0.12499483145E+03 0.  0.
    9000005    1    3    3    0    0  0.28843468319E+02 -0.54653155661E+02 -0.24589431553E+01  0.61854340913E+02  0.10000000000E+01 0.  0.
    9000005    1    3    3    0    0 -0.28843468319E+02  0.54653155661E+02 -0.21340923590E+02  0.65386146147E+02  0.10000000000E+01 0.  0.
<mgrwt>
<rscale>  0 0.12499483E+03</rscale>
<asrwt>0</asrwt>
<pdfrwt beam="2">  1        4 0.11618489E-01 0.12499483E+03</pdfrwt>
<pdfrwt beam="1">  1       -4 0.79569708E-02 0.12499483E+03</pdfrwt>
<totfact> 0.10405139E+04</totfact>
</mgrwt>
</event>
<event>
 5    1  0.3245943E-002  0.1249994E+03  0.7818608E-02  0.1235070E+00
         -4   -1    0    0    0  501 -0.00000000000E+00  0.00000000000E+00  0.24487067420E+02  0.24519979013E+02  0.12700000000E+01 0.  1.
          4   -1    0    0  501    0  0.00000000000E+00 -0.00000000000E+00 -0.15937896908E+03  0.15938402895E+03  0.12700000000E+01 0.  1.
         25    2    1    2    0    0  0.00000000000E+00  0.00000000000E+00 -0.13489190166E+03  0.18390400797E+03  0.12499943605E+03 0.  0.
    9000005    1    3    3    0    0 -0.62435069450E+02  0.21965056985E+01 -0.69653896640E+02  0.93571511966E+02  0.10000000000E+01 0.  0.
    9000005    1    3    3    0    0  0.62435069450E+02 -0.21965056985E+01 -0.65238005022E+02  0.90332496000E+02  0.10000000000E+01 0.  0.
<mgrwt>
<rscale>  0 0.12499944E+03</rscale>
<asrwt>0</asrwt>
<pdfrwt beam="2">  1        4 0.24522762E-01 0.12499944E+03</pdfrwt>
<pdfrwt beam="1">  1       -4 0.37701621E-02 0.12499944E+03</pdfrwt>
<totfact> 0.92920127E+03</totfact>
</mgrwt>
</event>
<event>
 5    1  0.3245943E-002  0.1250002E+03  0.7818608E-02  0.1235069E+00
         -4   -1    0    0    0  501 -0.00000000000E+00  0.00000000000E+00  0.21489573633E+03  0.21489948905E+03  0.12700000000E+01 0.  1.
          4   -1    0    0  501    0  0.00000000000E+00 -0.00000000000E+00 -0.18151368830E+02  0.18195743744E+02  0.12700000000E+01 0.  1.
         25    2    1    2    0    0  0.00000000000E+00  0.00000000000E+00  0.19674436750E+03  0.23309523279E+03  0.12500016563E+03 0.  0.
    9000005    1    3    3    0    0 -0.51448239273E+02 -0.17506161163E+02  0.15590456990E+03  0.16510790992E+03  0.10000000000E+01 0.  0.
    9000005    1    3    3    0    0  0.51448239273E+02  0.17506161163E+02  0.40839797599E+02  0.67987322869E+02  0.10000000000E+01 0.  0.
<mgrwt>
<rscale>  0 0.12500017E+03</rscale>
<asrwt>0</asrwt>
<pdfrwt beam="2">  1        4 0.27962205E-02 0.12500017E+03</pdfrwt>
<pdfrwt beam="1">  1       -4 0.33064584E-01 0.12500017E+03</pdfrwt>
<totfact> 0.84836263E+03</totfact>
</mgrwt>
</event>
<event>
 5    1  0.3245943E-002  0.1250047E+03  0.7818608E-02  0.1235062E+00
         -4   -1    0    0    0  501 -0.00000000000E+00  0.00000000000E+00  0.14165501301E+03  0.14166070595E+03  0.12700000000E+01 0. -1.
          4   -1    0    0  501    0  0.00000000000E+00 -0.00000000000E+00 -0.27556986766E+02  0.27586236054E+02  0.12700000000E+01 0. -1.
         25    2    1    2    0    0  0.00000000000E+00  0.00000000000E+00  0.11409802624E+03  0.16924694200E+03  0.12500467105E+03 0.  0.
    9000005    1    3    3    0    0 -0.44239972007E+02  0.18981557476E+02  0.30943431546E+01  0.48249866393E+02  0.10000000000E+01 0.  0.
    9000005    1    3    3    0    0  0.44239972007E+02 -0.18981557476E+02  0.11100368309E+03  0.12099707561E+03  0.10000000000E+01 0.  0.
<mgrwt>
<rscale>  0 0.12500467E+03</rscale>
<asrwt>0</asrwt>
<pdfrwt beam="2">  1        4 0.42422243E-02 0.12500467E+03</pdfrwt>
<pdfrwt beam="1">  1       -4 0.21795767E-01 0.12500467E+03</pdfrwt>
<totfact> 0.95579054E+03</totfact>
</mgrwt>
</event>
<event>
 5    1  0.3245943E-002  0.1249977E+03  0.7818608E-02  0.1235073E+00
         -4   -1    0    0    0  501 -0.00000000000E+00  0.00000000000E+00  0.32323734351E+02  0.32348673889E+02  0.12700000000E+01 0.  1.
          4   -1    0    0  501    0  0.00000000000E+00 -0.00000000000E+00 -0.12076841835E+03  0.12077509582E+03  0.12700000000E+01 0.  1.
         25    2    1    2    0    0  0.00000000000E+00  0.00000000000E+00 -0.88444684001E+02  0.15312376971E+03  0.12499770687E+03 0.  0.
    9000005    1    3    3    0    0  0.77476119516E+01  0.38762221862E+02 -0.10351309691E+03  0.11080837769E+03  0.10000000000E+01 0.  0.
    9000005    1    3    3    0    0 -0.77476119516E+01 -0.38762221862E+02  0.15068412906E+02  0.42315392024E+02  0.10000000000E+01 0.  0.
<mgrwt>
<rscale>  0 0.12499771E+03</rscale>
<asrwt>0</asrwt>
<pdfrwt beam="2">  1        4 0.18582189E-01 0.12499771E+03</pdfrwt>
<pdfrwt beam="1">  1       -4 0.49753143E-02 0.12499771E+03</pdfrwt>
<totfact> 0.98689718E+03</totfact>
</mgrwt>
</event>
<event>
 5    1  0.3245943E-002  0.1250010E+03  0.7818608E-02  0.1235068E+00
          4   -1    0    0  501    0  0.00000000000E+00  0.00000000000E+00  0.25915738780E+02  0.25946838276E+02  0.12700000000E+01 0.  1.
         -4   -1    0    0    0  501 -0.00000000000E+00 -0.00000000000E+00 -0.15060712283E+03  0.15061247739E+03  0.12700000000E+01 0.  1.
         25    2    1    2    0    0  0.00000000000E+00  0.00000000000E+00 -0.12469138405E+03  0.17655931567E+03  0.12500100277E+03 0.  0.
    9000005    1    3    3    0    0  0.24797847740E+02  0.40665202055E+02 -0.11948887606E+03  0.12863585586E+03  0.10000000000E+01 0.  0.
    9000005    1    3    3    0    0 -0.24797847740E+02 -0.40665202055E+02 -0.52025079887E+01  0.47923459809E+02  0.10000000000E+01 0.  0.
<mgrwt>
<rscale>  0 0.12500100E+03</rscale>
<asrwt>0</asrwt>
<pdfrwt beam="1">  1        4 0.39898410E-02 0.12500100E+03</pdfrwt>
<pdfrwt beam="2">  1       -4 0.23173130E-01 0.12500100E+03</pdfrwt>
<totfact> 0.94237910E+03</totfact>
</mgrwt>
</event>
<event>
 5    1  0.3245943E-002  0.1249981E+03  0.7818608E-02  0.1235072E+00
         -4   -1    0    0    0  501 -0.00000000000E+00  0.00000000000E+00  0.81847519952E+01  0.82826967361E+01  0.12700000000E+01 0.  1.
          4   -1    0    0  501    0  0.00000000000E+00 -0.00000000000E+00 -0.47430747239E+03  0.47430917266E+03  0.12700000000E+01 0.  1.
         25    2    1    2    0    0  0.00000000000E+00  0.00000000000E+00 -0.46612272040E+03  0.48259186939E+03  0.12499808772E+03 0.  0.
    9000005    1    3    3    0    0 -0.59884159480E+02 -0.81380501747E+01 -0.17167715547E+03  0.18200655518E+03  0.10000000000E+01 0.  0.
    9000005    1    3    3    0    0  0.59884159480E+02  0.81380501747E+01 -0.29444556492E+03  0.30058531421E+03  0.10000000000E+01 0.  0.
<mgrwt>
<rscale>  0 0.12499809E+03</rscale>
<asrwt>0</asrwt>
<pdfrwt beam="2">  1        4 0.72978024E-01 0.12499809E+03</pdfrwt>
<pdfrwt beam="1">  1       -4 0.12668580E-02 0.12499809E+03</pdfrwt>
<totfact> 0.57243198E+03</totfact>
</mgrwt>
</event>
<event>
 5    1  0.3245943E-002  0.1249976E+03  0.7818608E-02  0.1235073E+00
         -4   -1    0    0    0  501 -0.00000000000E+00  0.00000000000E+00  0.37883492917E+03  0.37883705792E+03  0.12700000000E+01 0.  1.
          4   -1    0    0  501    0  0.00000000000E+00 -0.00000000000E+00 -0.10269556207E+02  0.10347786463E+02  0.12700000000E+01 0.  1.
         25    2    1    2    0    0  0.00000000000E+00  0.00000000000E+00  0.36856537296E+03  0.38918484439E+03  0.12499763580E+03 0.  0.
    9000005    1    3    3    0    0  0.36432137759E+02  0.42683871135E+02  0.26988451737E+03  0.27565896727E+03  0.10000000000E+01 0.  0.
    9000005    1    3    3    0    0 -0.36432137759E+02 -0.42683871135E+02  0.98680855588E+02  0.11352587712E+03  0.10000000000E+01 0.  0.
<mgrwt>
<rscale>  0 0.12499764E+03</rscale>
<asrwt>0</asrwt>
<pdfrwt beam="2">  1        4 0.15861129E-02 0.12499764E+03</pdfrwt>
<pdfrwt beam="1">  1       -4 0.58288487E-01 0.12499764E+03</pdfrwt>
<totfact> 0.65621847E+03</totfact>
</mgrwt>
</event>
<event>
 5    1  0.3245943E-002  0.1249890E+03  0.7818608E-02  0.1235087E+00
          4   -1    0    0  501    0  0.00000000000E+00  0.00000000000E+00  0.25671135592E+01  0.28640831038E+01  0.12700000000E+01 0.  1.
         -4   -1    0    0    0  501 -0.00000000000E+00 -0.00000000000E+00 -0.14378982754E+04  0.14378988363E+04  0.12700000000E+01 0.  1.
         25    2    1    2    0    0  0.00000000000E+00  0.00000000000E+00 -0.14353311618E+04  0.14407629194E+04  0.12498898209E+03 0.  0.
    9000005    1    3    3    0    0 -0.19967913366E+02 -0.59143995861E+02 -0.74992422008E+03  0.75251848195E+03  0.10000000000E+01 0.  0.
    9000005    1    3    3    0    0  0.19967913366E+02  0.59143995861E+02 -0.68540694177E+03  0.68824443741E+03  0.10000000000E+01 0.  0.
<mgrwt>
<rscale>  0 0.12498898E+03</rscale>
<asrwt>0</asrwt>
<pdfrwt beam="1">  1        4 0.41782865E-03 0.12498898E+03</pdfrwt>
<pdfrwt beam="2">  1       -4 0.22123740E+00 0.12498898E+03</pdfrwt>
<totfact> 0.19127411E+03</totfact>
</mgrwt>
</event>
<event>
 5    1  0.3245943E-002  0.1249981E+03  0.7818608E-02  0.1235072E+00
         -4   -1    0    0    0  501 -0.00000000000E+00  0.00000000000E+00  0.13553561434E+03  0.13554156430E+03  0.12700000000E+01 0.  1.
          4   -1    0    0  501    0  0.00000000000E+00 -0.00000000000E+00 -0.28799386287E+02  0.28827375019E+02  0.12700000000E+01 0.  1.
         25    2    1    2    0    0  0.00000000000E+00  0.00000000000E+00  0.10673622805E+03  0.16436893932E+03  0.12499810333E+03 0.  0.
    9000005    1    3    3    0    0 -0.85762143953E+01  0.95301453351E+01  0.13379403439E+03  0.13441063485E+03  0.10000000000E+01 0.  0.
    9000005    1    3    3    0    0  0.85762143953E+01 -0.95301453351E+01 -0.27057806333E+02  0.29958304475E+02  0.10000000000E+01 0.  0.
<mgrwt>
<rscale>  0 0.12499810E+03</rscale>
<asrwt>0</asrwt>
<pdfrwt beam="2">  1        4 0.44332856E-02 0.12499810E+03</pdfrwt>
<pdfrwt beam="1">  1       -4 0.20854243E-01 0.12499810E+03</pdfrwt>
<totfact> 0.96511151E+03</totfact>
</mgrwt>
</event>
<event>
 5    1  0.3245943E-002  0.1249911E+03  0.7818608E-02  0.1235083E+00
         -4   -1    0    0    0  501 -0.00000000000E+00  0.00000000000E+00  0.23346944958E+02  0.23381461436E+02  0.12700000000E+01 0.  1.
          4   -1    0    0  501    0  0.00000000000E+00 -0.00000000000E+00 -0.16712880148E+03  0.16713362673E+03  0.12700000000E+01 0.  1.
         25    2    1    2    0    0  0.00000000000E+00  0.00000000000E+00 -0.14378185652E+03  0.19051508817E+03  0.12499110590E+03 0.  0.
    9000005    1    3    3    0    0 -0.29952082744E+02 -0.29845018687E+02 -0.14201941383E+03  0.14818355612E+03  0.10000000000E+01 0.  0.
    9000005    1    3    3    0    0  0.29952082744E+02  0.29845018687E+02 -0.17624426965E+01  0.42331532046E+02  0.10000000000E+01 0.  0.
<mgrwt>
<rscale>  0 0.12499111E+03</rscale>
<asrwt>0</asrwt>
<pdfrwt beam="2">  1        4 0.25715149E-01 0.12499111E+03</pdfrwt>
<pdfrwt beam="1">  1       -4 0.35948641E-02 0.12499111E+03</pdfrwt>
<totfact> 0.91776051E+03</totfact>
</mgrwt>
</event>
<event>
 5    1  0.3245943E-002  0.1249960E+03  0.7818608E-02  0.1235076E+00
          4   -1    0    0  501    0  0.00000000000E+00  0.00000000000E+00  0.33510938944E+02  0.33534995585E+02  0.12700000000E+01 0.  1.
         -4   -1    0    0    0  501 -0.00000000000E+00 -0.00000000000E+00 -0.11648952488E+03  0.11649644761E+03  0.12700000000E+01 0.  1.
         25    2    1    2    0    0  0.00000000000E+00  0.00000000000E+00 -0.82978585932E+02  0.15003144320E+03  0.12499595283E+03 0.  0.
    9000005    1    3    3    0    0  0.61565277603E+02  0.24155594062E+01 -0.54013719326E+02  0.81942664156E+02  0.10000000000E+01 0.  0.
    9000005    1    3    3    0    0 -0.61565277603E+02 -0.24155594062E+01 -0.28964866606E+02  0.68088779039E+02  0.10000000000E+01 0.  0.
<mgrwt>
<rscale>  0 0.12499595E+03</rscale>
<asrwt>0</asrwt>
<pdfrwt beam="1">  1        4 0.51579122E-02 0.12499595E+03</pdfrwt>
<pdfrwt beam="2">  1       -4 0.17923848E-01 0.12499595E+03</pdfrwt>
<totfact> 0.99306476E+03</totfact>
</mgrwt>
</event>
<event>
 5    1  0.3245943E-002  0.1249981E+03  0.7818608E-02  0.1235072E+00
         -4   -1    0    0    0  501 -0.00000000000E+00  0.00000000000E+00  0.89217547425E+02  0.89226586108E+02  0.12700000000E+01 0. -1.
          4   -1    0    0  501    0  0.00000000000E+00 -0.00000000000E+00 -0.43761654257E+02  0.43780078612E+02  0.12700000000E+01 0. -1.
         25    2    1    2    0    0  0.00000000000E+00  0.00000000000E+00  0.45455893168E+02  0.13300666472E+03  0.12499813853E+03 0.  0.
    9000005    1    3    3    0    0 -0.68024184916E+01  0.42576347006E+02 -0.25404165976E+02  0.50053869687E+02  0.10000000000E+01 0.  0.
    9000005    1    3    3    0    0  0.68024184916E+01 -0.42576347006E+02  0.70860059145E+02  0.82952795033E+02  0.10000000000E+01 0.  0.
<mgrwt>
<rscale>  0 0.12499814E+03</rscale>
<asrwt>0</asrwt>
<pdfrwt beam="2">  1        4 0.67346748E-02 0.12499814E+03</pdfrwt>
<pdfrwt beam="1">  1       -4 0.13727889E-01 0.12499814E+03</pdfrwt>
<totfact> 0.10280690E+04</totfact>
</mgrwt>
</event>
<event>
 5    1  0.3245943E-002  0.1249997E+03  0.7818608E-02  0.1235070E+00
         -4   -1    0    0    0  501 -0.00000000000E+00  0.00000000000E+00  0.36989511835E+01  0.39109001340E+01  0.12700000000E+01 0. -1.
          4   -1    0    0  501    0  0.00000000000E+00 -0.00000000000E+00 -0.10264131880E+04  0.10264139737E+04  0.12700000000E+01 0. -1.
         25    2    1    2    0    0  0.00000000000E+00  0.00000000000E+00 -0.10227142368E+04  0.10303248739E+04  0.12499974179E+03 0.  0.
    9000005    1    3    3    0    0  0.19688309752E+02 -0.50063771563E+02 -0.77347011726E+03  0.77533930189E+03  0.10000000000E+01 0.  0.
    9000005    1    3    3    0    0 -0.19688309752E+02  0.50063771563E+02 -0.24924411959E+03  0.25498557197E+03  0.10000000000E+01 0.  0.
<mgrwt>
<rscale>  0 0.12499974E+03</rscale>
<asrwt>0</asrwt>
<pdfrwt beam="2">  1        4 0.15792586E+00 0.12499974E+03</pdfrwt>
<pdfrwt beam="1">  1       -4 0.58543444E-03 0.12499974E+03</pdfrwt>
<totfact> 0.29617351E+03</totfact>
</mgrwt>
</event>
<event>
 5    1  0.3245943E-002  0.1250012E+03  0.7818608E-02  0.1235067E+00
          4   -1    0    0  501    0  0.00000000000E+00  0.00000000000E+00  0.57502497466E+02  0.57516520364E+02  0.12700000000E+01 0. -1.
         -4   -1    0    0    0  501 -0.00000000000E+00 -0.00000000000E+00 -0.67904873639E+02  0.67916748773E+02  0.12700000000E+01 0. -1.
         25    2    1    2    0    0  0.00000000000E+00  0.00000000000E+00 -0.10402376173E+02  0.12543326914E+03  0.12500118230E+03 0.  0.
    9000005    1    3    3    0    0  0.61018341883E+01 -0.14196726941E+02  0.55560117671E+02  0.57677604943E+02  0.10000000000E+01 0.  0.
    9000005    1    3    3    0    0 -0.61018341883E+01  0.14196726941E+02 -0.65962493844E+02  0.67755664195E+02  0.10000000000E+01 0.  0.
<mgrwt>
<rscale>  0 0.12500118E+03</rscale>
<asrwt>0</asrwt>
<pdfrwt beam="1">  1        4 0.88485302E-02 0.12500118E+03</pdfrwt>
<pdfrwt beam="2">  1       -4 0.10448896E-01 0.12500118E+03</pdfrwt>
<totfact> 0.10443152E+04</totfact>
</mgrwt>
</event>
<event>
 5    1  0.3245943E-002  0.1250011E+03  0.7818608E-02  0.1235068E+00
          4   -1    0    0  501    0  0.00000000000E+00  0.00000000000E+00  0.61021099806E+03  0.61021231965E+03  0.12700000000E+01 0. -1.
         -4   -1    0    0    0  501 -0.00000000000E+00 -0.00000000000E+00 -0.63372598971E+01  0.64632625665E+01  0.12700000000E+01 0. -1.
         25    2    1    2    0    0  0.00000000000E+00  0.00000000000E+00  0.60387373816E+03  0.61667558221E+03  0.12500112823E+03 0.  0.
    9000005    1    3    3    0    0  0.53330415325E+02  0.32849132017E+01  0.14204753784E+03  0.15176767397E+03  0.10000000000E+01 0.  0.
    9000005    1    3    3    0    0 -0.53330415325E+02 -0.32849132017E+01  0.46182620032E+03  0.46490790825E+03  0.10000000000E+01 0.  0.
<mgrwt>
<rscale>  0 0.12500113E+03</rscale>
<asrwt>0</asrwt>
<pdfrwt beam="1">  1        4 0.93888433E-01 0.12500113E+03</pdfrwt>
<pdfrwt beam="2">  1       -4 0.98475699E-03 0.12500113E+03</pdfrwt>
<totfact> 0.47830446E+03</totfact>
</mgrwt>
</event>
<event>
 5    1  0.3245943E-002  0.1249976E+03  0.7818608E-02  0.1235073E+00
          4   -1    0    0  501    0  0.00000000000E+00  0.00000000000E+00  0.79776871474E+01  0.80781428696E+01  0.12700000000E+01 0.  1.
         -4   -1    0    0    0  501 -0.00000000000E+00 -0.00000000000E+00 -0.48646308819E+03  0.48646474597E+03  0.12700000000E+01 0.  1.
         25    2    1    2    0    0  0.00000000000E+00  0.00000000000E+00 -0.47848540104E+03  0.49454288884E+03  0.12499755954E+03 0.  0.
    9000005    1    3    3    0    0  0.27596623287E+02  0.44588640503E+02 -0.37372473955E+03  0.37738693860E+03  0.10000000000E+01 0.  0.
    9000005    1    3    3    0    0 -0.27596623287E+02 -0.44588640503E+02 -0.10476066150E+03  0.11715595024E+03  0.10000000000E+01 0.  0.
<mgrwt>
<rscale>  0 0.12499756E+03</rscale>
<asrwt>0</asrwt>
<pdfrwt beam="1">  1        4 0.12351917E-02 0.12499756E+03</pdfrwt>
<pdfrwt beam="2">  1       -4 0.74848307E-01 0.12499756E+03</pdfrwt>
<totfact> 0.56293302E+03</totfact>
</mgrwt>
</event>
<event>
 5    1  0.3245943E-002  0.1249975E+03  0.7818608E-02  0.1235073E+00
         -4   -1    0    0    0  501 -0.00000000000E+00  0.00000000000E+00  0.41196395348E+02  0.41215966441E+02  0.12700000000E+01 0.  1.
          4   -1    0    0  501    0  0.00000000000E+00 -0.00000000000E+00 -0.94770090493E+02  0.94778599652E+02  0.12700000000E+01 0.  1.
         25    2    1    2    0    0  0.00000000000E+00  0.00000000000E+00 -0.53573695145E+02  0.13599456609E+03  0.12499752476E+03 0.  0.
    9000005    1    3    3    0    0 -0.25654466893E+02 -0.53260819650E+02 -0.48822868304E+02  0.76678152369E+02  0.10000000000E+01 0.  0.
    9000005    1    3    3    0    0  0.25654466893E+02  0.53260819650E+02 -0.47508268410E+01  0.59316413723E+02  0.10000000000E+01 0.  0.
<mgrwt>
<rscale>  0 0.12499752E+03</rscale>
<asrwt>0</asrwt>
<pdfrwt beam="2">  1        4 0.14582174E-01 0.12499752E+03</pdfrwt>
<pdfrwt beam="1">  1       -4 0.63400670E-02 0.12499752E+03</pdfrwt>
<totfact> 0.10217721E+04</totfact>
</mgrwt>
</event>
<event>
 5    1  0.3245943E-002  0.1249976E+03  0.7818608E-02  0.1235073E+00
         -4   -1    0    0    0  501 -0.00000000000E+00  0.00000000000E+00  0.33707880194E+02  0.33731796383E+02  0.12700000000E+01 0.  1.
          4   -1    0    0  501    0  0.00000000000E+00 -0.00000000000E+00 -0.11581248723E+03  0.11581945043E+03  0.12700000000E+01 0.  1.
         25    2    1    2    0    0  0.00000000000E+00  0.00000000000E+00 -0.82104607034E+02  0.14955124681E+03  0.12499763569E+03 0.  0.
    9000005    1    3    3    0    0 -0.16245524217E+02  0.20564395349E+02  0.26821296185E+02  0.37512575787E+02  0.10000000000E+01 0.  0.
    9000005    1    3    3    0    0  0.16245524217E+02 -0.20564395349E+02 -0.10892590322E+03  0.11203867103E+03  0.10000000000E+01 0.  0.
<mgrwt>
<rscale>  0 0.12499764E+03</rscale>
<asrwt>0</asrwt>
<pdfrwt beam="2">  1        4 0.17819681E-01 0.12499764E+03</pdfrwt>
<pdfrwt beam="1">  1       -4 0.51882031E-02 0.12499764E+03</pdfrwt>
<totfact> 0.99398514E+03</totfact>
</mgrwt>
</event>
<event>
 5    1  0.3245943E-002  0.1249985E+03  0.7818608E-02  0.1235072E+00
         -4   -1    0    0    0  501 -0.00000000000E+00  0.00000000000E+00  0.18965663119E+03  0.18966088330E+03  0.12700000000E+01 0.  1.
          4   -1    0    0  501    0  0.00000000000E+00 -0.00000000000E+00 -0.20571862604E+02  0.20611026927E+02  0.12700000000E+01 0.  1.
         25    2    1    2    0    0  0.00000000000E+00  0.00000000000E+00  0.16908476859E+03  0.21027191023E+03  0.12499846904E+03 0.  0.
    9000005    1    3    3    0    0 -0.27186735383E+02 -0.36562199638E+02  0.15648928071E+03  0.16299020829E+03  0.10000000000E+01 0.  0.
    9000005    1    3    3    0    0  0.27186735383E+02  0.36562199638E+02  0.12595487881E+02  0.47281701937E+02  0.10000000000E+01 0.  0.
<mgrwt>
<rscale>  0 0.12499847E+03</rscale>
<asrwt>0</asrwt>
<pdfrwt beam="2">  1        4 0.31682416E-02 0.12499847E+03</pdfrwt>
<pdfrwt beam="1">  1       -4 0.29181283E-01 0.12499847E+03</pdfrwt>
<totfact> 0.88434519E+03</totfact>
</mgrwt>
</event>
<event>
 5    1  0.3245943E-002  0.1249942E+03  0.7818608E-02  0.1235078E+00
         -4   -1    0    0    0  501 -0.00000000000E+00  0.00000000000E+00  0.25603683219E+02  0.25635161291E+02  0.12700000000E+01 0.  1.
          4   -1    0    0  501    0  0.00000000000E+00 -0.00000000000E+00 -0.15242405941E+03  0.15242935015E+03  0.12700000000E+01 0.  1.
         25    2    1    2    0    0  0.00000000000E+00  0.00000000000E+00 -0.12682037619E+03  0.17806451144E+03  0.12499424954E+03 0.  0.
    9000005    1    3    3    0    0 -0.30166453423E+02  0.53764988586E+02 -0.77952207830E+02  0.99389313386E+02  0.10000000000E+01 0.  0.
    9000005    1    3    3    0    0  0.30166453423E+02 -0.53764988586E+02 -0.48868168357E+02  0.78675198050E+02  0.10000000000E+01 0.  0.
<mgrwt>
<rscale>  0 0.12499425E+03</rscale>
<asrwt>0</asrwt>
<pdfrwt beam="2">  1        4 0.23452683E-01 0.12499425E+03</pdfrwt>
<pdfrwt beam="1">  1       -4 0.39418566E-02 0.12499425E+03</pdfrwt>
<totfact> 0.93978681E+03</totfact>
</mgrwt>
</event>
<event>
 5    1  0.3245943E-002  0.1249960E+03  0.7818608E-02  0.1235076E+00
          4   -1    0    0  501    0  0.00000000000E+00  0.00000000000E+00  0.32822437435E+02  0.32846998328E+02  0.12700000000E+01 0.  1.
         -4   -1    0    0    0  501 -0.00000000000E+00 -0.00000000000E+00 -0.11893146591E+03  0.11893824651E+03  0.12700000000E+01 0.  1.
         25    2    1    2    0    0  0.00000000000E+00  0.00000000000E+00 -0.86109028472E+02  0.15178524484E+03  0.12499598300E+03 0.  0.
    9000005    1    3    3    0    0  0.15761408711E+02  0.54770496002E+02 -0.11934480798E+02  0.58237969305E+02  0.10000000000E+01 0.  0.
    9000005    1    3    3    0    0 -0.15761408711E+02 -0.54770496002E+02 -0.74174547673E+02  0.93547275532E+02  0.10000000000E+01 0.  0.
<mgrwt>
<rscale>  0 0.12499598E+03</rscale>
<asrwt>0</asrwt>
<pdfrwt beam="1">  1        4 0.50520167E-02 0.12499598E+03</pdfrwt>
<pdfrwt beam="2">  1       -4 0.18299559E-01 0.12499598E+03</pdfrwt>
<totfact> 0.98957964E+03</totfact>
</mgrwt>
</event>
<event>
 5    1  0.3245943E-002  0.1250006E+03  0.7818608E-02  0.1235068E+00
          4   -1    0    0  501    0  0.00000000000E+00  0.00000000000E+00  0.11458325507E+02  0.11528491811E+02  0.12700000000E+01 0.  1.
         -4   -1    0    0    0  501 -0.00000000000E+00 -0.00000000000E+00 -0.33980088315E+03  0.33980325644E+03  0.12700000000E+01 0.  1.
         25    2    1    2    0    0  0.00000000000E+00  0.00000000000E+00 -0.32834255764E+03  0.35133174825E+03  0.12500064868E+03 0.  0.
    9000005    1    3    3    0    0 -0.31309889511E+02  0.48298197138E+02 -0.23257242091E+03  0.23959122687E+03  0.10000000000E+01 0.  0.
    9000005    1    3    3    0    0  0.31309889511E+02 -0.48298197138E+02 -0.95770136734E+02  0.11174052138E+03  0.10000000000E+01 0.  0.
<mgrwt>
<rscale>  0 0.12500065E+03</rscale>
<asrwt>0</asrwt>
<pdfrwt beam="1">  1        4 0.17683995E-02 0.12500065E+03</pdfrwt>
<pdfrwt beam="2">  1       -4 0.52282631E-01 0.12500065E+03</pdfrwt>
<totfact> 0.69577300E+03</totfact>
</mgrwt>
</event>
<event>
 5    1  0.3245943E-002  0.1250003E+03  0.7818608E-02  0.1235069E+00
          4   -1    0    0  501    0  0.00000000000E+00  0.00000000000E+00  0.61663314578E+03  0.61663445361E+03  0.12700000000E+01 0.  1.
         -4   -1    0    0    0  501 -0.00000000000E+00 -0.00000000000E+00 -0.62698515693E+01  0.63971820907E+01  0.12700000000E+01 0.  1.
         25    2    1    2    0    0  0.00000000000E+00  0.00000000000E+00  0.61036329422E+03  0.62303163570E+03  0.12500027264E+03 0.  0.
    9000005    1    3    3    0    0  0.84155117499E+01 -0.57627933553E+02  0.19223961196E+03  0.20087027647E+03  0.10000000000E+01 0.  0.
    9000005    1    3    3    0    0 -0.84155117499E+01  0.57627933553E+02  0.41812368226E+03  0.42216135923E+03  0.10000000000E+01 0.  0.
<mgrwt>
<rscale>  0 0.12500027E+03</rscale>
<asrwt>0</asrwt>
<pdfrwt beam="1">  1        4 0.94876559E-01 0.12500027E+03</pdfrwt>
<pdfrwt beam="2">  1       -4 0.97448754E-03 0.12500027E+03</pdfrwt>
<totfact> 0.47445035E+03</totfact>
</mgrwt>
</event>
<event>
 5    1  0.3245943E-002  0.1250074E+03  0.7818608E-02  0.1235058E+00
          4   -1    0    0  501    0  0.00000000000E+00  0.00000000000E+00  0.21488304079E+03  0.21488679373E+03  0.12700000000E+01 0. -1.
         -4   -1    0    0    0  501 -0.00000000000E+00 -0.00000000000E+00 -0.18154552869E+02  0.18198920019E+02  0.12700000000E+01 0. -1.
         25    2    1    2    0    0  0.00000000000E+00  0.00000000000E+00  0.19672848792E+03  0.23308571375E+03  0.12500740776E+03 0.  0.
    9000005    1    3    3    0    0 -0.28083476238E+02  0.60177013421E+01 -0.51292316890E+01  0.29192522755E+02  0.10000000000E+01 0.  0.
    9000005    1    3    3    0    0  0.28083476238E+02 -0.60177013421E+01  0.20185771961E+03  0.20389319099E+03  0.10000000000E+01 0.  0.
<mgrwt>
<rscale>  0 0.12500741E+03</rscale>
<asrwt>0</asrwt>
<pdfrwt beam="1">  1        4 0.33062631E-01 0.12500741E+03</pdfrwt>
<pdfrwt beam="2">  1       -4 0.27967097E-02 0.12500741E+03</pdfrwt>
<totfact> 0.84824006E+03</totfact>
</mgrwt>
</event>
<event>
 5    1  0.3245943E-002  0.1250014E+03  0.7818608E-02  0.1235067E+00
         -4   -1    0    0    0  501 -0.00000000000E+00  0.00000000000E+00  0.37757440133E+02  0.37778792800E+02  0.12700000000E+01 0.  1.
          4   -1    0    0  501    0  0.00000000000E+00 -0.00000000000E+00 -0.10340427787E+03  0.10341207657E+03  0.12700000000E+01 0.  1.
         25    2    1    2    0    0  0.00000000000E+00  0.00000000000E+00 -0.65646837733E+02  0.14119086937E+03  0.12500141715E+03 0.  0.
    9000005    1    3    3    0    0 -0.27480850901E+02 -0.40531728888E+02 -0.76675929075E+02  0.90984703728E+02  0.10000000000E+01 0.  0.
    9000005    1    3    3    0    0  0.27480850901E+02  0.40531728888E+02  0.11029091342E+02  0.50206165645E+02  0.10000000000E+01 0.  0.
<mgrwt>
<rscale>  0 0.12500142E+03</rscale>
<asrwt>0</asrwt>
<pdfrwt beam="2">  1        4 0.15910593E-01 0.12500142E+03</pdfrwt>
<pdfrwt beam="1">  1       -4 0.58110794E-02 0.12500142E+03</pdfrwt>
<totfact> 0.10108641E+04</totfact>
</mgrwt>
</event>
<event>
 5    1  0.3245943E-002  0.1250006E+03  0.7818608E-02  0.1235068E+00
         -4   -1    0    0    0  501 -0.00000000000E+00  0.00000000000E+00  0.50518047636E+03  0.50518207272E+03  0.12700000000E+01 0.  1.
          4   -1    0    0  501    0  0.00000000000E+00 -0.00000000000E+00 -0.76786902081E+01  0.77830060589E+01  0.12700000000E+01 0.  1.
         25    2    1    2    0    0  0.00000000000E+00  0.00000000000E+00  0.49750178615E+03  0.51296507877E+03  0.12500057928E+03 0.  0.
    9000005    1    3    3    0    0  0.48783889613E+01 -0.42230431970E+02  0.60781731384E+02  0.74179693537E+02  0.10000000000E+01 0.  0.
    9000005    1    3    3    0    0 -0.48783889613E+01  0.42230431970E+02  0.43672005477E+03  0.43878538524E+03  0.10000000000E+01 0.  0.
<mgrwt>
<rscale>  0 0.12500058E+03</rscale>
<asrwt>0</asrwt>
<pdfrwt beam="2">  1        4 0.11894841E-02 0.12500058E+03</pdfrwt>
<pdfrwt beam="1">  1       -4 0.77728219E-01 0.12500058E+03</pdfrwt>
<totfact> 0.54871584E+03</totfact>
</mgrwt>
</event>
<event>
 5    1  0.3245943E-002  0.1249959E+03  0.7818608E-02  0.1235076E+00
          4   -1    0    0  501    0  0.00000000000E+00  0.00000000000E+00  0.27086173688E+03  0.27086471421E+03  0.12700000000E+01 0. -1.
         -4   -1    0    0    0  501 -0.00000000000E+00 -0.00000000000E+00 -0.14389589621E+02  0.14445524893E+02  0.12700000000E+01 0. -1.
         25    2    1    2    0    0  0.00000000000E+00  0.00000000000E+00  0.25647214726E+03  0.28531023910E+03  0.12499588081E+03 0.  0.
    9000005    1    3    3    0    0 -0.33003216706E+02 -0.61428358558E+01  0.79289460150E+01  0.34508186423E+02  0.10000000000E+01 0.  0.
    9000005    1    3    3    0    0  0.33003216706E+02  0.61428358558E+01  0.24854320124E+03  0.25080205268E+03  0.10000000000E+01 0.  0.
<mgrwt>
<rscale>  0 0.12499588E+03</rscale>
<asrwt>0</asrwt>
<pdfrwt beam="1">  1        4 0.41675567E-01 0.12499588E+03</pdfrwt>
<pdfrwt beam="2">  1       -4 0.22183148E-02 0.12499588E+03</pdfrwt>
<totfact> 0.77486326E+03</totfact>
</mgrwt>
</event>
<event>
 5    1  0.3245943E-002  0.1249995E+03  0.7818608E-02  0.1235070E+00
          4   -1    0    0  501    0  0.00000000000E+00  0.00000000000E+00  0.24431303792E+03  0.24431633878E+03  0.12700000000E+01 0. -1.
         -4   -1    0    0    0  501 -0.00000000000E+00 -0.00000000000E+00 -0.15959951035E+02  0.16010400902E+02  0.12700000000E+01 0. -1.
         25    2    1    2    0    0  0.00000000000E+00  0.00000000000E+00  0.22835308688E+03  0.26032673969E+03  0.12499951642E+03 0.  0.
    9000005    1    3    3    0    0  0.30917342992E+02  0.13464066011E+02  0.22374812490E+03  0.22627723387E+03  0.10000000000E+01 0.  0.
    9000005    1    3    3    0    0 -0.30917342992E+02 -0.13464066011E+02  0.46049619788E+01  0.34049505812E+02  0.10000000000E+01 0.  0.
<mgrwt>
<rscale>  0 0.12499952E+03</rscale>
<asrwt>0</asrwt>
<pdfrwt beam="1">  1        4 0.37590756E-01 0.12499952E+03</pdfrwt>
<pdfrwt beam="2">  1       -4 0.24595117E-02 0.12499952E+03</pdfrwt>
<totfact> 0.80861099E+03</totfact>
</mgrwt>
</event>
<event>
 5    1  0.3245943E-002  0.1249999E+03  0.7818608E-02  0.1235069E+00
          4   -1    0    0  501    0  0.00000000000E+00  0.00000000000E+00  0.24462413418E+03  0.24462743085E+03  0.12700000000E+01 0.  1.
         -4   -1    0    0    0  501 -0.00000000000E+00 -0.00000000000E+00 -0.15939692304E+02  0.15990206088E+02  0.12700000000E+01 0.  1.
         25    2    1    2    0    0  0.00000000000E+00  0.00000000000E+00  0.22868444188E+03  0.26061763694E+03  0.12499991490E+03 0.  0.
    9000005    1    3    3    0    0  0.58016213558E+02 -0.19320135515E+02  0.87471848581E+02  0.10673084356E+03  0.10000000000E+01 0.  0.
    9000005    1    3    3    0    0 -0.58016213558E+02  0.19320135515E+02  0.14121259330E+03  0.15388679338E+03  0.10000000000E+01 0.  0.
<mgrwt>
<rscale>  0 0.12499991E+03</rscale>
<asrwt>0</asrwt>
<pdfrwt beam="1">  1        4 0.37638619E-01 0.12499991E+03</pdfrwt>
<pdfrwt beam="2">  1       -4 0.24563998E-02 0.12499991E+03</pdfrwt>
<totfact> 0.80819616E+03</totfact>
</mgrwt>
</event>
<event>
 4    1  0.3245943E-002  0.1246537E+03  0.7818608E-02  0.1235611E+00
         -4   -1    0    0    0  501 -0.00000000000E+00  0.00000000000E+00  0.22168550283E+02  0.22204898596E+02  0.12700000000E+01 0.  1.
          4   -1    0    0  501    0  0.00000000000E+00 -0.00000000000E+00 -0.17504965990E+03  0.17505426682E+03  0.12700000000E+01 0.  1.
    9000005    1    1    2    0    0 -0.32657588973E+02 -0.15195037636E+02 -0.15691639130E+03  0.16100050045E+03  0.10000000000E+01 0.  0.
    9000005    1    1    2    0    0  0.32657588973E+02  0.15195037636E+02  0.40352816895E+01  0.36258664959E+02  0.10000000000E+01 0.  0.
<mgrwt>
<rscale>  0 0.12465370E+03</rscale>
<asrwt>0</asrwt>
<pdfrwt beam="2">  1        4 0.26933866E-01 0.12465370E+03</pdfrwt>
<pdfrwt beam="1">  1       -4 0.34136967E-02 0.12465370E+03</pdfrwt>
<totfact> 0.91305253E+03</totfact>
</mgrwt>
</event>
<event>
 5    1  0.3245943E-002  0.1249973E+03  0.7818608E-02  0.1235073E+00
          4   -1    0    0  501    0  0.00000000000E+00  0.00000000000E+00  0.70509016510E+03  0.70509130885E+03  0.12700000000E+01 0. -1.
         -4   -1    0    0    0  501 -0.00000000000E+00 -0.00000000000E+00 -0.54658835045E+01  0.56114866555E+01  0.12700000000E+01 0. -1.
         25    2    1    2    0    0  0.00000000000E+00  0.00000000000E+00  0.69962428159E+03  0.71070279550E+03  0.12499731256E+03 0.  0.
    9000005    1    3    3    0    0  0.13104146748E+02 -0.61080372765E+02  0.35889410549E+03  0.36429179178E+03  0.10000000000E+01 0.  0.
    9000005    1    3    3    0    0 -0.13104146748E+02  0.61080372765E+02  0.34073017610E+03  0.34641100373E+03  0.10000000000E+01 0.  0.
<mgrwt>
<rscale>  0 0.12499731E+03</rscale>
<asrwt>0</asrwt>
<pdfrwt beam="1">  1        4 0.10848660E+00 0.12499731E+03</pdfrwt>
<pdfrwt beam="2">  1       -4 0.85219415E-03 0.12499731E+03</pdfrwt>
<totfact> 0.42530235E+03</totfact>
</mgrwt>
</event>
<event>
 5    1  0.3245943E-002  0.1250049E+03  0.7818608E-02  0.1235062E+00
          4   -1    0    0  501    0  0.00000000000E+00  0.00000000000E+00  0.50457687547E+01  0.52031415824E+01  0.12700000000E+01 0. -1.
         -4   -1    0    0    0  501 -0.00000000000E+00 -0.00000000000E+00 -0.76217743233E+03  0.76217849041E+03  0.12700000000E+01 0. -1.
         25    2    1    2    0    0  0.00000000000E+00  0.00000000000E+00 -0.75713166357E+03  0.76738163199E+03  0.12500485247E+03 0.  0.
    9000005    1    3    3    0    0 -0.37403722240E+02 -0.31499466600E+02 -0.13968006914E+03  0.14799586666E+03  0.10000000000E+01 0.  0.
    9000005    1    3    3    0    0  0.37403722240E+02  0.31499466600E+02 -0.61745159443E+03  0.61938576533E+03  0.10000000000E+01 0.  0.
<mgrwt>
<rscale>  0 0.12500485E+03</rscale>
<asrwt>0</asrwt>
<pdfrwt beam="1">  1        4 0.78845972E-03 0.12500485E+03</pdfrwt>
<pdfrwt beam="2">  1       -4 0.11727016E+00 0.12500485E+03</pdfrwt>
<totfact> 0.39752059E+03</totfact>
</mgrwt>
</event>
<event>
 5    1  0.3245943E-002  0.1250015E+03  0.7818608E-02  0.1235067E+00
         -4   -1    0    0    0  501 -0.00000000000E+00  0.00000000000E+00  0.91999428590E+01  0.92871873358E+01  0.12700000000E+01 0. -1.
          4   -1    0    0  501    0  0.00000000000E+00 -0.00000000000E+00 -0.42251325481E+03  0.42251516351E+03  0.12700000000E+01 0. -1.
         25    2    1    2    0    0  0.00000000000E+00  0.00000000000E+00 -0.41331331195E+03  0.43180235084E+03  0.12500150541E+03 0.  0.
    9000005    1    3    3    0    0  0.24155465323E+02  0.57215663989E+02 -0.18266790817E+03  0.19293958481E+03  0.10000000000E+01 0.  0.
    9000005    1    3    3    0    0 -0.24155465323E+02 -0.57215663989E+02 -0.23064540378E+03  0.23886276603E+03  0.10000000000E+01 0.  0.
<mgrwt>
<rscale>  0 0.12500151E+03</rscale>
<asrwt>0</asrwt>
<pdfrwt beam="2">  1        4 0.65008882E-01 0.12500151E+03</pdfrwt>
<pdfrwt beam="1">  1       -4 0.14222341E-02 0.12500151E+03</pdfrwt>
<totfact> 0.61570922E+03</totfact>
</mgrwt>
</event>
<event>
 5    1  0.3245943E-002  0.1250153E+03  0.7818608E-02  0.1235045E+00
         -4   -1    0    0    0  501 -0.00000000000E+00  0.00000000000E+00  0.19083531733E+03  0.19083954318E+03  0.12700000000E+01 0. -1.
          4   -1    0    0  501    0  0.00000000000E+00 -0.00000000000E+00 -0.20450086705E+02  0.20489483797E+02  0.12700000000E+01 0. -1.
         25    2    1    2    0    0  0.00000000000E+00  0.00000000000E+00  0.17038523063E+03  0.21132902698E+03  0.12501532237E+03 0.  0.
    9000005    1    3    3    0    0  0.62279706928E+02  0.21961631453E+01  0.77152395401E+02  0.99182040429E+02  0.10000000000E+01 0.  0.
    9000005    1    3    3    0    0 -0.62279706928E+02 -0.21961631453E+01  0.93232835227E+02  0.11214698655E+03  0.10000000000E+01 0.  0.
<mgrwt>
<rscale>  0 0.12501532E+03</rscale>
<asrwt>0</asrwt>
<pdfrwt beam="2">  1        4 0.31495226E-02 0.12501532E+03</pdfrwt>
<pdfrwt beam="1">  1       -4 0.29362637E-01 0.12501532E+03</pdfrwt>
<totfact> 0.88229067E+03</totfact>
</mgrwt>
</event>
<event>
 5    1  0.3245943E-002  0.1249985E+03  0.7818608E-02  0.1235072E+00
          4   -1    0    0  501    0  0.00000000000E+00  0.00000000000E+00  0.59492312017E+03  0.59492447573E+03  0.12700000000E+01 0.  1.
         -4   -1    0    0    0  501 -0.00000000000E+00 -0.00000000000E+00 -0.65030334178E+01  0.66258843661E+01  0.12700000000E+01 0.  1.
         25    2    1    2    0    0  0.00000000000E+00  0.00000000000E+00  0.58842008676E+03  0.60155036009E+03  0.12499854891E+03 0.  0.
    9000005    1    3    3    0    0  0.37876836267E+02  0.35633050192E+02  0.46097339232E+03  0.46389852061E+03  0.10000000000E+01 0.  0.
    9000005    1    3    3    0    0 -0.37876836267E+02 -0.35633050192E+02  0.12744669443E+03  0.13765183948E+03  0.10000000000E+01 0.  0.
<mgrwt>
<rscale>  0 0.12499855E+03</rscale>
<asrwt>0</asrwt>
<pdfrwt beam="1">  1        4 0.91536206E-01 0.12499855E+03</pdfrwt>
<pdfrwt beam="2">  1       -4 0.10100208E-02 0.12499855E+03</pdfrwt>
<totfact> 0.48771437E+03</totfact>
</mgrwt>
</event>
<event>
 5    1  0.3245943E-002  0.1249970E+03  0.7818608E-02  0.1235074E+00
         -4   -1    0    0    0  501 -0.00000000000E+00  0.00000000000E+00  0.20246214624E+04  0.20246218607E+04  0.12700000000E+01 0.  1.
          4   -1    0    0  501    0  0.00000000000E+00 -0.00000000000E+00 -0.17198366585E+01  0.21379284674E+01  0.12700000000E+01 0.  1.
         25    2    1    2    0    0  0.00000000000E+00  0.00000000000E+00  0.20229016257E+04  0.20267597892E+04  0.12499702254E+03 0.  0.
    9000005    1    3    3    0    0 -0.46491069076E+02 -0.21445665757E+02  0.15924012582E+04  0.15932244359E+04  0.10000000000E+01 0.  0.
    9000005    1    3    3    0    0  0.46491069076E+02  0.21445665757E+02  0.43050036753E+03  0.43353535326E+03  0.10000000000E+01 0.  0.
<mgrwt>
<rscale>  0 0.12499702E+03</rscale>
<asrwt>0</asrwt>
<pdfrwt beam="2">  1        4 0.29678176E-03 0.12499702E+03</pdfrwt>
<pdfrwt beam="1">  1       -4 0.31151246E+00 0.12499702E+03</pdfrwt>
<totfact> 0.95165624E+02</totfact>
</mgrwt>
</event>
<event>
 5    1  0.3245943E-002  0.1249992E+03  0.7818608E-02  0.1235071E+00
          4   -1    0    0  501    0  0.00000000000E+00  0.00000000000E+00  0.46129311421E+02  0.46146790486E+02  0.12700000000E+01 0. -1.
         -4   -1    0    0    0  501 -0.00000000000E+00 -0.00000000000E+00 -0.84641024823E+02  0.84650552172E+02  0.12700000000E+01 0. -1.
         25    2    1    2    0    0  0.00000000000E+00  0.00000000000E+00 -0.38511713401E+02  0.13079734266E+03  0.12499917111E+03 0.  0.
    9000005    1    3    3    0    0  0.11420879534E+02  0.50997735637E+02 -0.55108772348E+02  0.75955133593E+02  0.10000000000E+01 0.  0.
    9000005    1    3    3    0    0 -0.11420879534E+02 -0.50997735637E+02  0.16597058947E+02  0.54842209065E+02  0.10000000000E+01 0.  0.
<mgrwt>
<rscale>  0 0.12499917E+03</rscale>
<asrwt>0</asrwt>
<pdfrwt beam="1">  1        4 0.70988946E-02 0.12499917E+03</pdfrwt>
<pdfrwt beam="2">  1       -4 0.13023774E-01 0.12499917E+03</pdfrwt>
<totfact> 0.10327629E+04</totfact>
</mgrwt>
</event>
<event>
 5    1  0.3245943E-002  0.1249976E+03  0.7818608E-02  0.1235073E+00
         -4   -1    0    0    0  501 -0.00000000000E+00  0.00000000000E+00  0.63273030456E+03  0.63273157911E+03  0.12700000000E+01 0.  1.
          4   -1    0    0  501    0  0.00000000000E+00 -0.00000000000E+00 -0.61067884790E+01  0.62374486393E+01  0.12700000000E+01 0.  1.
         25    2    1    2    0    0  0.00000000000E+00  0.00000000000E+00  0.62662351608E+03  0.63896902775E+03  0.12499755007E+03 0.  0.
    9000005    1    3    3    0    0 -0.34036938113E+02 -0.47571223424E+02  0.20090185309E+03  0.20924647913E+03  0.10000000000E+01 0.  0.
    9000005    1    3    3    0    0  0.34036938113E+02  0.47571223424E+02  0.42572166299E+03  0.42972254862E+03  0.10000000000E+01 0.  0.
<mgrwt>
<rscale>  0 0.12499755E+03</rscale>
<asrwt>0</asrwt>
<pdfrwt beam="2">  1        4 0.94965490E-03 0.12499755E+03</pdfrwt>
<pdfrwt beam="1">  1       -4 0.97353257E-01 0.12499755E+03</pdfrwt>
<totfact> 0.46499137E+03</totfact>
</mgrwt>
</event>
<event>
 5    1  0.3245943E-002  0.1250021E+03  0.7818608E-02  0.1235066E+00
         -4   -1    0    0    0  501 -0.00000000000E+00  0.00000000000E+00  0.37507116461E+02  0.37528611555E+02  0.12700000000E+01 0.  1.
          4   -1    0    0  501    0  0.00000000000E+00 -0.00000000000E+00 -0.10409523704E+03  0.10410298399E+03  0.12700000000E+01 0.  1.
         25    2    1    2    0    0  0.00000000000E+00  0.00000000000E+00 -0.66588120581E+02  0.14163159554E+03  0.12500212419E+03 0.  0.
    9000005    1    3    3    0    0 -0.27301995634E+02  0.34447279592E+02  0.17038251147E+02  0.47152052331E+02  0.10000000000E+01 0.  0.
    9000005    1    3    3    0    0  0.27301995634E+02 -0.34447279592E+02 -0.83626371728E+02  0.94479543210E+02  0.10000000000E+01 0.  0.
<mgrwt>
<rscale>  0 0.12500212E+03</rscale>
<asrwt>0</asrwt>
<pdfrwt beam="2">  1        4 0.16016901E-01 0.12500212E+03</pdfrwt>
<pdfrwt beam="1">  1       -4 0.57725750E-02 0.12500212E+03</pdfrwt>
<totfact> 0.10099398E+04</totfact>
</mgrwt>
</event>
<event>
 5    1  0.3245943E-002  0.1250055E+03  0.7818608E-02  0.1235061E+00
          4   -1    0    0  501    0  0.00000000000E+00  0.00000000000E+00  0.43259935518E+01  0.45085607693E+01  0.12700000000E+01 0.  1.
         -4   -1    0    0    0  501 -0.00000000000E+00 -0.00000000000E+00 -0.88420662603E+03  0.88420753809E+03  0.12700000000E+01 0.  1.
         25    2    1    2    0    0  0.00000000000E+00  0.00000000000E+00 -0.87988063248E+03  0.88871609886E+03  0.12500550773E+03 0.  0.
    9000005    1    3    3    0    0 -0.12508433541E+01  0.24773325868E+02 -0.32135419002E+02  0.40607480076E+02  0.10000000000E+01 0.  0.
    9000005    1    3    3    0    0  0.12508433541E+01 -0.24773325868E+02 -0.84774521348E+03  0.84810861878E+03  0.10000000000E+01 0.  0.
<mgrwt>
<rscale>  0 0.12500551E+03</rscale>
<asrwt>0</asrwt>
<pdfrwt beam="1">  1        4 0.67965196E-03 0.12500551E+03</pdfrwt>
<pdfrwt beam="2">  1       -4 0.13604576E+00 0.12500551E+03</pdfrwt>
<totfact> 0.34589072E+03</totfact>
</mgrwt>
</event>
<event>
 5    1  0.3245943E-002  0.1249999E+03  0.7818608E-02  0.1235069E+00
          4   -1    0    0  501    0  0.00000000000E+00  0.00000000000E+00  0.12651670935E+03  0.12652308345E+03  0.12700000000E+01 0.  1.
         -4   -1    0    0    0  501 -0.00000000000E+00 -0.00000000000E+00 -0.30855084905E+02  0.30881210542E+02  0.12700000000E+01 0.  1.
         25    2    1    2    0    0  0.00000000000E+00  0.00000000000E+00  0.95661624445E+02  0.15740429399E+03  0.12499986150E+03 0.  0.
    9000005    1    3    3    0    0 -0.38373523839E+01 -0.45696886823E+02  0.10128993930E+03  0.11119164781E+03  0.10000000000E+01 0.  0.
    9000005    1    3    3    0    0  0.38373523839E+01  0.45696886823E+02 -0.56283148589E+01  0.46212646178E+02  0.10000000000E+01 0.  0.
<mgrwt>
<rscale>  0 0.12499986E+03</rscale>
<asrwt>0</asrwt>
<pdfrwt beam="1">  1        4 0.19466609E-01 0.12499986E+03</pdfrwt>
<pdfrwt beam="2">  1       -4 0.47494362E-02 0.12499986E+03</pdfrwt>
<totfact> 0.97845868E+03</totfact>
</mgrwt>
</event>
<event>
 5    1  0.3245943E-002  0.1250402E+03  0.7818608E-02  0.1235006E+00
         -4   -1    0    0    0  501 -0.00000000000E+00  0.00000000000E+00  0.17717711211E+02  0.17763169497E+02  0.12700000000E+01 0. -1.
          4   -1    0    0  501    0  0.00000000000E+00 -0.00000000000E+00 -0.22028346463E+03  0.22028712557E+03  0.12700000000E+01 0. -1.
         25    2    1    2    0    0  0.00000000000E+00  0.00000000000E+00 -0.20256575342E+03  0.23805029506E+03  0.12504022761E+03 0.  0.
    9000005    1    3    3    0    0  0.34709448291E+02 -0.85696520864E+01 -0.36576279161E+01  0.35952231912E+02  0.10000000000E+01 0.  0.
    9000005    1    3    3    0    0 -0.34709448291E+02  0.85696520864E+01 -0.19890812550E+03  0.20209806315E+03  0.10000000000E+01 0.  0.
<mgrwt>
<rscale>  0 0.12504023E+03</rscale>
<asrwt>0</asrwt>
<pdfrwt beam="2">  1        4 0.33893540E-01 0.12504023E+03</pdfrwt>
<pdfrwt beam="1">  1       -4 0.27295803E-02 0.12504023E+03</pdfrwt>
<totfact> 0.84013222E+03</totfact>
</mgrwt>
</event>
<event>
 5    1  0.3245943E-002  0.1249992E+03  0.7818608E-02  0.1235071E+00
         -4   -1    0    0    0  501 -0.00000000000E+00  0.00000000000E+00  0.48534377534E+02  0.48550990748E+02  0.12700000000E+01 0. -1.
          4   -1    0    0  501    0  0.00000000000E+00 -0.00000000000E+00 -0.80447767468E+02  0.80457791361E+02  0.12700000000E+01 0. -1.
         25    2    1    2    0    0  0.00000000000E+00  0.00000000000E+00 -0.31913389934E+02  0.12900878211E+03  0.12499920561E+03 0.  0.
    9000005    1    3    3    0    0 -0.47815117712E+02 -0.36893787450E+02 -0.32526697624E+02  0.68603375227E+02  0.10000000000E+01 0.  0.
    9000005    1    3    3    0    0  0.47815117712E+02  0.36893787450E+02  0.61330768976E+00  0.60405406882E+02  0.10000000000E+01 0.  0.
<mgrwt>
<rscale>  0 0.12499921E+03</rscale>
<asrwt>0</asrwt>
<pdfrwt beam="2">  1        4 0.12378629E-01 0.12499921E+03</pdfrwt>
<pdfrwt beam="1">  1       -4 0.74688763E-02 0.12499921E+03</pdfrwt>
<totfact> 0.10365944E+04</totfact>
</mgrwt>
</event>
<event>
 5    1  0.3245943E-002  0.1250041E+03  0.7818608E-02  0.1235063E+00
         -4   -1    0    0    0  501 -0.00000000000E+00  0.00000000000E+00  0.14406923907E+02  0.14462792139E+02  0.12700000000E+01 0.  1.
          4   -1    0    0  501    0  0.00000000000E+00 -0.00000000000E+00 -0.27057280850E+03  0.27057578902E+03  0.12700000000E+01 0.  1.
         25    2    1    2    0    0  0.00000000000E+00  0.00000000000E+00 -0.25616588460E+03  0.28503858116E+03  0.12500412920E+03 0.  0.
    9000005    1    3    3    0    0  0.30458337649E+02  0.20674823582E+01 -0.37417696722E+01  0.30773132046E+02  0.10000000000E+01 0.  0.
    9000005    1    3    3    0    0 -0.30458337649E+02 -0.20674823582E+01 -0.25242411492E+03  0.25426544911E+03  0.10000000000E+01 0.  0.
<mgrwt>
<rscale>  0 0.12500413E+03</rscale>
<asrwt>0</asrwt>
<pdfrwt beam="2">  1        4 0.41631109E-01 0.12500413E+03</pdfrwt>
<pdfrwt beam="1">  1       -4 0.22209769E-02 0.12500413E+03</pdfrwt>
<totfact> 0.77507624E+03</totfact>
</mgrwt>
</event>
<event>
 5    1  0.3245943E-002  0.1249931E+03  0.7818608E-02  0.1235080E+00
         -4   -1    0    0    0  501 -0.00000000000E+00  0.00000000000E+00  0.67077546535E+03  0.67077666761E+03  0.12700000000E+01 0.  1.
          4   -1    0    0  501    0  0.00000000000E+00 -0.00000000000E+00 -0.57523656868E+01  0.58908922071E+01  0.12700000000E+01 0.  1.
         25    2    1    2    0    0  0.00000000000E+00  0.00000000000E+00  0.66502309966E+03  0.67666755982E+03  0.12499305352E+03 0.  0.
    9000005    1    3    3    0    0 -0.17969590412E+02 -0.37854163287E+02  0.58347175285E+03  0.58497532447E+03  0.10000000000E+01 0.  0.
    9000005    1    3    3    0    0  0.17969590412E+02  0.37854163287E+02  0.81551346808E+02  0.91692235352E+02  0.10000000000E+01 0.  0.
<mgrwt>
<rscale>  0 0.12499305E+03</rscale>
<asrwt>0</asrwt>
<pdfrwt beam="2">  1        4 0.89572799E-03 0.12499305E+03</pdfrwt>
<pdfrwt beam="1">  1       -4 0.10320694E+00 0.12499305E+03</pdfrwt>
<totfact> 0.44354091E+03</totfact>
</mgrwt>
</event>
<event>
 5    1  0.3245943E-002  0.1250004E+03  0.7818608E-02  0.1235069E+00
         -4   -1    0    0    0  501 -0.00000000000E+00  0.00000000000E+00  0.22800477770E+03  0.22800831466E+03  0.12700000000E+01 0.  1.
          4   -1    0    0  501    0  0.00000000000E+00 -0.00000000000E+00 -0.17105221420E+02  0.17152303048E+02  0.12700000000E+01 0.  1.
         25    2    1    2    0    0  0.00000000000E+00  0.00000000000E+00  0.21089955628E+03  0.24516061771E+03  0.12500042254E+03 0.  0.
    9000005    1    3    3    0    0 -0.13513222600E+02 -0.58911151511E+02  0.74306466250E+02  0.95789257664E+02  0.10000000000E+01 0.  0.
    9000005    1    3    3    0    0  0.13513222600E+02  0.58911151511E+02  0.13659309003E+03  0.14937136005E+03  0.10000000000E+01 0.  0.
<mgrwt>
<rscale>  0 0.12500042E+03</rscale>
<asrwt>0</asrwt>
<pdfrwt beam="2">  1        4 0.26354665E-02 0.12500042E+03</pdfrwt>
<pdfrwt beam="1">  1       -4 0.35081549E-01 0.12500042E+03</pdfrwt>
<totfact> 0.83033958E+03</totfact>
</mgrwt>
</event>
<event>
 5    1  0.3245943E-002  0.1250030E+03  0.7818608E-02  0.1235065E+00
         -4   -1    0    0    0  501 -0.00000000000E+00  0.00000000000E+00  0.51754265136E+02  0.51769845081E+02  0.12700000000E+01 0.  1.
          4   -1    0    0  501    0  0.00000000000E+00 -0.00000000000E+00 -0.75448243928E+02  0.75458931955E+02  0.12700000000E+01 0.  1.
         25    2    1    2    0    0  0.00000000000E+00  0.00000000000E+00 -0.23693978792E+02  0.12722877704E+03  0.12500302826E+03 0.  0.
    9000005    1    3    3    0    0 -0.19154122672E+02  0.58802844909E+02 -0.26989451068E+01  0.61910736464E+02  0.10000000000E+01 0.  0.
    9000005    1    3    3    0    0  0.19154122672E+02 -0.58802844909E+02 -0.20995033685E+02  0.65318040572E+02  0.10000000000E+01 0.  0.
<mgrwt>
<rscale>  0 0.12500303E+03</rscale>
<asrwt>0</asrwt>
<pdfrwt beam="2">  1        4 0.11609443E-01 0.12500303E+03</pdfrwt>
<pdfrwt beam="1">  1       -4 0.79642153E-02 0.12500303E+03</pdfrwt>
<totfact> 0.10403468E+04</totfact>
</mgrwt>
</event>
<event>
 5    1  0.3245943E-002  0.1249698E+03  0.7818608E-02  0.1235116E+00
         -4   -1    0    0    0  501 -0.00000000000E+00  0.00000000000E+00  0.12764282480E+03  0.12764914266E+03  0.12700000000E+01 0.  1.
          4   -1    0    0  501    0  0.00000000000E+00 -0.00000000000E+00 -0.30567923435E+02  0.30594294291E+02  0.12700000000E+01 0.  1.
         25    2    1    2    0    0  0.00000000000E+00  0.00000000000E+00  0.97074901364E+02  0.15824343695E+03  0.12496979181E+03 0.  0.
    9000005    1    3    3    0    0 -0.50389194515E+02 -0.33412700324E+02  0.28601184994E+02  0.66891757713E+02  0.10000000000E+01 0.  0.
    9000005    1    3    3    0    0  0.50389194515E+02  0.33412700324E+02  0.68473716369E+02  0.91351679241E+02  0.10000000000E+01 0.  0.
<mgrwt>
<rscale>  0 0.12496979E+03</rscale>
<asrwt>0</asrwt>
<pdfrwt beam="2">  1        4 0.47052720E-02 0.12496979E+03</pdfrwt>
<pdfrwt beam="1">  1       -4 0.19639872E-01 0.12496979E+03</pdfrwt>
<totfact> 0.97748878E+03</totfact>
</mgrwt>
</event>
<event>
 5    1  0.3245943E-002  0.1250017E+03  0.7818608E-02  0.1235067E+00
         -4   -1    0    0    0  501 -0.00000000000E+00  0.00000000000E+00  0.50049241600E+03  0.50049402731E+03  0.12700000000E+01 0.  1.
          4   -1    0    0  501    0  0.00000000000E+00 -0.00000000000E+00 -0.77517312360E+01  0.78550771578E+01  0.12700000000E+01 0.  1.
         25    2    1    2    0    0  0.00000000000E+00  0.00000000000E+00  0.49274068476E+03  0.50834910447E+03  0.12500171836E+03 0.  0.
    9000005    1    3    3    0    0 -0.39196073569E+02  0.69840984520E+01  0.50479901268E+02  0.64298757736E+02  0.10000000000E+01 0.  0.
    9000005    1    3    3    0    0  0.39196073569E+02 -0.69840984520E+01  0.44226078350E+03  0.44405034673E+03  0.10000000000E+01 0.  0.
<mgrwt>
<rscale>  0 0.12500172E+03</rscale>
<asrwt>0</asrwt>
<pdfrwt beam="2">  1        4 0.12006479E-02 0.12500172E+03</pdfrwt>
<pdfrwt beam="1">  1       -4 0.77006894E-01 0.12500172E+03</pdfrwt>
<totfact> 0.55220267E+03</totfact>
</mgrwt>
</event>
<event>
 5    1  0.3245943E-002  0.1249999E+03  0.7818608E-02  0.1235069E+00
          4   -1    0    0  501    0  0.00000000000E+00  0.00000000000E+00  0.18859562636E+02  0.18902275070E+02  0.12700000000E+01 0.  1.
         -4   -1    0    0    0  501 -0.00000000000E+00 -0.00000000000E+00 -0.20684380955E+03  0.20684770835E+03  0.12700000000E+01 0.  1.
         25    2    1    2    0    0  0.00000000000E+00  0.00000000000E+00 -0.18798424691E+03  0.22574998342E+03  0.12499991170E+03 0.  0.
    9000005    1    3    3    0    0  0.28496546988E+02  0.45596080968E+02 -0.15150663062E+03  0.16076789142E+03  0.10000000000E+01 0.  0.
    9000005    1    3    3    0    0 -0.28496546988E+02 -0.45596080968E+02 -0.36477616290E+02  0.64982091995E+02  0.10000000000E+01 0.  0.
<mgrwt>
<rscale>  0 0.12499991E+03</rscale>
<asrwt>0</asrwt>
<pdfrwt beam="1">  1        4 0.29050568E-02 0.12499991E+03</pdfrwt>
<pdfrwt beam="2">  1       -4 0.31825708E-01 0.12499991E+03</pdfrwt>
<totfact> 0.85966662E+03</totfact>
</mgrwt>
</event>
<event>
 5    1  0.3245943E-002  0.1249984E+03  0.7818608E-02  0.1235072E+00
         -4   -1    0    0    0  501 -0.00000000000E+00  0.00000000000E+00  0.49137364841E+03  0.49137528963E+03  0.12700000000E+01 0. -1.
          4   -1    0    0  501    0  0.00000000000E+00 -0.00000000000E+00 -0.78970569751E+01  0.79985254184E+01  0.12700000000E+01 0. -1.
         25    2    1    2    0    0  0.00000000000E+00  0.00000000000E+00  0.48347659144E+03  0.49937381505E+03  0.12499837072E+03 0.  0.
    9000005    1    3    3    0    0 -0.31019297698E+02  0.35234402995E+02  0.40653020402E+03  0.40923277822E+03  0.10000000000E+01 0.  0.
    9000005    1    3    3    0    0  0.31019297698E+02 -0.35234402995E+02  0.76946387415E+02  0.90141036827E+02  0.10000000000E+01 0.  0.
<mgrwt>
<rscale>  0 0.12499837E+03</rscale>
<asrwt>0</asrwt>
<pdfrwt beam="2">  1        4 0.12228635E-02 0.12499837E+03</pdfrwt>
<pdfrwt beam="1">  1       -4 0.75603871E-01 0.12499837E+03</pdfrwt>
<totfact> 0.55914988E+03</totfact>
</mgrwt>
</event>
<event>
 5    1  0.3245943E-002  0.1249978E+03  0.7818608E-02  0.1235073E+00
         -4   -1    0    0    0  501 -0.00000000000E+00  0.00000000000E+00  0.53651262266E+02  0.53666291494E+02  0.12700000000E+01 0.  1.
          4   -1    0    0  501    0  0.00000000000E+00 -0.00000000000E+00 -0.72774884638E+02  0.72785965228E+02  0.12700000000E+01 0.  1.
         25    2    1    2    0    0  0.00000000000E+00  0.00000000000E+00 -0.19123622372E+02  0.12645225672E+03  0.12499784117E+03 0.  0.
    9000005    1    3    3    0    0  0.53976598539E+02  0.67913920003E+01  0.21545263676E+02  0.58521744523E+02  0.10000000000E+01 0.  0.
    9000005    1    3    3    0    0 -0.53976598539E+02 -0.67913920003E+01 -0.40668886048E+02  0.67930512199E+02  0.10000000000E+01 0.  0.
<mgrwt>
<rscale>  0 0.12499784E+03</rscale>
<asrwt>0</asrwt>
<pdfrwt beam="2">  1        4 0.11198145E-01 0.12499784E+03</pdfrwt>
<pdfrwt beam="1">  1       -4 0.82560488E-02 0.12499784E+03</pdfrwt>
<totfact> 0.10421577E+04</totfact>
</mgrwt>
</event>
<event>
 5    1  0.3245943E-002  0.1249983E+03  0.7818608E-02  0.1235072E+00
         -4   -1    0    0    0  501 -0.00000000000E+00  0.00000000000E+00  0.30135167482E+02  0.30161916703E+02  0.12700000000E+01 0. -1.
          4   -1    0    0  501    0  0.00000000000E+00 -0.00000000000E+00 -0.12953336877E+03  0.12953959443E+03  0.12700000000E+01 0. -1.
         25    2    1    2    0    0  0.00000000000E+00  0.00000000000E+00 -0.99398201284E+02  0.15970151113E+03  0.12499828094E+03 0.  0.
    9000005    1    3    3    0    0 -0.39455715611E+02  0.23868266302E+02  0.41843895687E+01  0.46313677750E+02  0.10000000000E+01 0.  0.
    9000005    1    3    3    0    0  0.39455715611E+02 -0.23868266302E+02 -0.10358259085E+03  0.11338783338E+03  0.10000000000E+01 0.  0.
<mgrwt>
<rscale>  0 0.12499828E+03</rscale>
<asrwt>0</asrwt>
<pdfrwt beam="2">  1        4 0.19930747E-01 0.12499828E+03</pdfrwt>
<pdfrwt beam="1">  1       -4 0.46387162E-02 0.12499828E+03</pdfrwt>
<totfact> 0.97404126E+03</totfact>
</mgrwt>
</event>
<event>
 5    1  0.3245943E-002  0.1249998E+03  0.7818608E-02  0.1235070E+00
          4   -1    0    0  501    0  0.00000000000E+00  0.00000000000E+00  0.18461807716E+02  0.18505438232E+02  0.12700000000E+01 0.  1.
         -4   -1    0    0    0  501 -0.00000000000E+00 -0.00000000000E+00 -0.21128941643E+03  0.21129323320E+03  0.12700000000E+01 0.  1.
         25    2    1    2    0    0  0.00000000000E+00  0.00000000000E+00 -0.19282760871E+03  0.22979867143E+03  0.12499977084E+03 0.  0.
    9000005    1    3    3    0    0  0.48501803895E+01  0.46175365383E+02 -0.17330933725E+03  0.17942356310E+03  0.10000000000E+01 0.  0.
    9000005    1    3    3    0    0 -0.48501803895E+01 -0.46175365383E+02 -0.19518271461E+02  0.50375108326E+02  0.10000000000E+01 0.  0.
<mgrwt>
<rscale>  0 0.12499977E+03</rscale>
<asrwt>0</asrwt>
<pdfrwt beam="1">  1        4 0.28439280E-02 0.12499977E+03</pdfrwt>
<pdfrwt beam="2">  1       -4 0.32509712E-01 0.12499977E+03</pdfrwt>
<totfact> 0.85340958E+03</totfact>
</mgrwt>
</event>
<event>
 5    1  0.3245943E-002  0.1250012E+03  0.7818608E-02  0.1235067E+00
          4   -1    0    0  501    0  0.00000000000E+00  0.00000000000E+00  0.21782925765E+03  0.21783295983E+03  0.12700000000E+01 0.  1.
         -4   -1    0    0    0  501 -0.00000000000E+00 -0.00000000000E+00 -0.17906623311E+02  0.17951603227E+02  0.12700000000E+01 0.  1.
         25    2    1    2    0    0  0.00000000000E+00  0.00000000000E+00  0.19992263434E+03  0.23578456306E+03  0.12500120182E+03 0.  0.
    9000005    1    3    3    0    0  0.55684164146E+02  0.25138988490E+02  0.12474464435E+03  0.13890615960E+03  0.10000000000E+01 0.  0.
    9000005    1    3    3    0    0 -0.55684164146E+02 -0.25138988490E+02  0.75177989986E+02  0.96878403462E+02  0.10000000000E+01 0.  0.
<mgrwt>
<rscale>  0 0.12500120E+03</rscale>
<asrwt>0</asrwt>
<pdfrwt beam="1">  1        4 0.33515940E-01 0.12500120E+03</pdfrwt>
<pdfrwt beam="2">  1       -4 0.27586098E-02 0.12500120E+03</pdfrwt>
<totfact> 0.84426949E+03</totfact>
</mgrwt>
</event>
<event>
 5    1  0.3245943E-002  0.1249943E+03  0.7818608E-02  0.1235078E+00
          4   -1    0    0  501    0  0.00000000000E+00  0.00000000000E+00  0.13285329670E+02  0.13345893916E+02  0.12700000000E+01 0.  1.
         -4   -1    0    0    0  501 -0.00000000000E+00 -0.00000000000E+00 -0.29326974848E+03  0.29327249833E+03  0.12700000000E+01 0.  1.
         25    2    1    2    0    0  0.00000000000E+00  0.00000000000E+00 -0.27998441881E+03  0.30661839224E+03  0.12499425460E+03 0.  0.
    9000005    1    3    3    0    0 -0.28705773535E+02  0.26544520455E+02 -0.20413203188E+02  0.44117251329E+02  0.10000000000E+01 0.  0.
    9000005    1    3    3    0    0  0.28705773535E+02 -0.26544520455E+02 -0.25957121562E+03  0.26250114091E+03  0.10000000000E+01 0.  0.
<mgrwt>
<rscale>  0 0.12499425E+03</rscale>
<asrwt>0</asrwt>
<pdfrwt beam="1">  1        4 0.20487674E-02 0.12499425E+03</pdfrwt>
<pdfrwt beam="2">  1       -4 0.45123288E-01 0.12499425E+03</pdfrwt>
<totfact> 0.74785605E+03</totfact>
</mgrwt>
</event>
<event>
 5    1  0.3245943E-002  0.1250048E+03  0.7818608E-02  0.1235062E+00
          4   -1    0    0  501    0  0.00000000000E+00  0.00000000000E+00  0.27789741964E+02  0.27818746529E+02  0.12700000000E+01 0.  1.
         -4   -1    0    0    0  501 -0.00000000000E+00 -0.00000000000E+00 -0.14046998302E+03  0.14047572399E+03  0.12700000000E+01 0.  1.
         25    2    1    2    0    0  0.00000000000E+00  0.00000000000E+00 -0.11268024106E+03  0.16829447052E+03  0.12500476824E+03 0.  0.
    9000005    1    3    3    0    0  0.44912736472E+02 -0.12248486470E+01  0.21411776296E+01  0.44991541352E+02  0.10000000000E+01 0.  0.
    9000005    1    3    3    0    0 -0.44912736472E+02  0.12248486470E+01 -0.11482141869E+03  0.12330292917E+03  0.10000000000E+01 0.  0.
<mgrwt>
<rscale>  0 0.12500477E+03</rscale>
<asrwt>0</asrwt>
<pdfrwt beam="1">  1        4 0.42780178E-02 0.12500477E+03</pdfrwt>
<pdfrwt beam="2">  1       -4 0.21613439E-01 0.12500477E+03</pdfrwt>
<totfact> 0.95756831E+03</totfact>
</mgrwt>
</event>
<event>
 5    1  0.3245943E-002  0.1249952E+03  0.7818608E-02  0.1235077E+00
         -4   -1    0    0    0  501 -0.00000000000E+00  0.00000000000E+00  0.50308348923E+03  0.50308509225E+03  0.12700000000E+01 0. -1.
          4   -1    0    0  501    0  0.00000000000E+00 -0.00000000000E+00 -0.77104572545E+01  0.78143490499E+01  0.12700000000E+01 0. -1.
         25    2    1    2    0    0  0.00000000000E+00  0.00000000000E+00  0.49537303198E+03  0.51089944130E+03  0.12499519312E+03 0.  0.
    9000005    1    3    3    0    0 -0.84253698890E+01  0.46151067218E+02  0.78960432131E+02  0.91851280369E+02  0.10000000000E+01 0.  0.
    9000005    1    3    3    0    0  0.84253698890E+01 -0.46151067218E+02  0.41641259985E+03  0.41904816093E+03  0.10000000000E+01 0.  0.
<mgrwt>
<rscale>  0 0.12499519E+03</rscale>
<asrwt>0</asrwt>
<pdfrwt beam="2">  1        4 0.11943388E-02 0.12499519E+03</pdfrwt>
<pdfrwt beam="1">  1       -4 0.77405596E-01 0.12499519E+03</pdfrwt>
<totfact> 0.55034314E+03</totfact>
</mgrwt>
</event>
<event>
 5    1  0.3245943E-002  0.1249981E+03  0.7818608E-02  0.1235072E+00
          4   -1    0    0  501    0  0.00000000000E+00  0.00000000000E+00  0.81720063763E+02  0.81729931613E+02  0.12700000000E+01 0.  1.
         -4   -1    0    0    0  501 -0.00000000000E+00 -0.00000000000E+00 -0.47777711366E+02  0.47794587595E+02  0.12700000000E+01 0.  1.
         25    2    1    2    0    0  0.00000000000E+00  0.00000000000E+00  0.33942352397E+02  0.12952451921E+03  0.12499807114E+03 0.  0.
    9000005    1    3    3    0    0  0.43554546740E+01 -0.31085870317E+02 -0.39020996691E+02  0.50089315244E+02  0.10000000000E+01 0.  0.
    9000005    1    3    3    0    0 -0.43554546740E+01  0.31085870317E+02  0.72963349088E+02  0.79435203965E+02  0.10000000000E+01 0.  0.
<mgrwt>
<rscale>  0 0.12499807E+03</rscale>
<asrwt>0</asrwt>
<pdfrwt beam="1">  1        4 0.12574375E-01 0.12499807E+03</pdfrwt>
<pdfrwt beam="2">  1       -4 0.73524744E-02 0.12499807E+03</pdfrwt>
<totfact> 0.10355140E+04</totfact>
</mgrwt>
</event>
<event>
 5    1  0.3245943E-002  0.1249972E+03  0.7818608E-02  0.1235074E+00
          4   -1    0    0  501    0  0.00000000000E+00  0.00000000000E+00  0.49480032631E+01  0.51083888157E+01  0.12700000000E+01 0.  1.
         -4   -1    0    0    0  501 -0.00000000000E+00 -0.00000000000E+00 -0.77667367093E+03  0.77667470927E+03  0.12700000000E+01 0.  1.
         25    2    1    2    0    0  0.00000000000E+00  0.00000000000E+00 -0.77172566767E+03  0.78178309808E+03  0.12499722522E+03 0.  0.
    9000005    1    3    3    0    0 -0.36730871088E+00  0.25914925836E+01  0.46356948590E+01  0.54166794557E+01  0.10000000000E+01 0.  0.
    9000005    1    3    3    0    0  0.36730871088E+00 -0.25914925836E+01 -0.77636136253E+03  0.77636641863E+03  0.10000000000E+01 0.  0.
<mgrwt>
<rscale>  0 0.12499723E+03</rscale>
<asrwt>0</asrwt>
<pdfrwt beam="1">  1        4 0.77364911E-03 0.12499723E+03</pdfrwt>
<pdfrwt beam="2">  1       -4 0.11950058E+00 0.12499723E+03</pdfrwt>
<totfact> 0.39093424E+03</totfact>
</mgrwt>
</event>
<event>
 5    1  0.3245943E-002  0.1249785E+03  0.7818608E-02  0.1235103E+00
          4   -1    0    0  501    0  0.00000000000E+00  0.00000000000E+00  0.90819275398E+01  0.91702948610E+01  0.12700000000E+01 0.  1.
         -4   -1    0    0    0  501 -0.00000000000E+00 -0.00000000000E+00 -0.42779350964E+03  0.42779539478E+03  0.12700000000E+01 0.  1.
         25    2    1    2    0    0  0.00000000000E+00  0.00000000000E+00 -0.41871158210E+03  0.43696568964E+03  0.12497849789E+03 0.  0.
    9000005    1    3    3    0    0  0.30302863699E+02 -0.43227267273E+01 -0.39979994364E+03  0.40097125140E+03  0.10000000000E+01 0.  0.
    9000005    1    3    3    0    0 -0.30302863699E+02  0.43227267273E+01 -0.18911638462E+02  0.35994438237E+02  0.10000000000E+01 0.  0.
<mgrwt>
<rscale>  0 0.12497850E+03</rscale>
<asrwt>0</asrwt>
<pdfrwt beam="1">  1        4 0.14041624E-02 0.12497850E+03</pdfrwt>
<pdfrwt beam="2">  1       -4 0.65821313E-01 0.12497850E+03</pdfrwt>
<totfact> 0.61138609E+03</totfact>
</mgrwt>
</event>
<event>
 5    1  0.3245943E-002  0.1249960E+03  0.7818608E-02  0.1235075E+00
          4   -1    0    0  501    0  0.00000000000E+00  0.00000000000E+00  0.11338444990E+03  0.11339156220E+03  0.12700000000E+01 0.  1.
         -4   -1    0    0    0  501 -0.00000000000E+00 -0.00000000000E+00 -0.34429289142E+02  0.34452704550E+02  0.12700000000E+01 0.  1.
         25    2    1    2    0    0  0.00000000000E+00  0.00000000000E+00  0.78955160757E+02  0.14784426675E+03  0.12499603914E+03 0.  0.
    9000005    1    3    3    0    0  0.48310668198E+02 -0.65807331920E+01  0.85709086388E+02  0.98611734599E+02  0.10000000000E+01 0.  0.
    9000005    1    3    3    0    0 -0.48310668198E+02  0.65807331920E+01 -0.67539256308E+01  0.49232532156E+02  0.10000000000E+01 0.  0.
<mgrwt>
<rscale>  0 0.12499604E+03</rscale>
<asrwt>0</asrwt>
<pdfrwt beam="1">  1        4 0.17446110E-01 0.12499604E+03</pdfrwt>
<pdfrwt beam="2">  1       -4 0.52991620E-02 0.12499604E+03</pdfrwt>
<totfact> 0.99744052E+03</totfact>
</mgrwt>
</event>
<event>
 5    1  0.3245943E-002  0.1249946E+03  0.7818608E-02  0.1235078E+00
          4   -1    0    0  501    0  0.00000000000E+00  0.00000000000E+00  0.50422730522E+01  0.51997516799E+01  0.12700000000E+01 0.  1.
         -4   -1    0    0    0  501 -0.00000000000E+00 -0.00000000000E+00 -0.76256490239E+03  0.76256595993E+03  0.12700000000E+01 0.  1.
         25    2    1    2    0    0  0.00000000000E+00  0.00000000000E+00 -0.75752262933E+03  0.76776571161E+03  0.12499461580E+03 0.  0.
    9000005    1    3    3    0    0  0.11891906138E+02 -0.55323012680E+02 -0.21591725413E+03  0.22321136574E+03  0.10000000000E+01 0.  0.
    9000005    1    3    3    0    0 -0.11891906138E+02  0.55323012680E+02 -0.54160537520E+03  0.54455434587E+03  0.10000000000E+01 0.  0.
<mgrwt>
<rscale>  0 0.12499462E+03</rscale>
<asrwt>0</asrwt>
<pdfrwt beam="1">  1        4 0.78793001E-03 0.12499462E+03</pdfrwt>
<pdfrwt beam="2">  1       -4 0.11732978E+00 0.12499462E+03</pdfrwt>
<totfact> 0.39743175E+03</totfact>
</mgrwt>
</event>
<event>
 5    1  0.3245943E-002  0.1250078E+03  0.7818608E-02  0.1235057E+00
          4   -1    0    0  501    0  0.00000000000E+00  0.00000000000E+00  0.12251337965E+02  0.12316987535E+02  0.12700000000E+01 0.  1.
         -4   -1    0    0    0  501 -0.00000000000E+00 -0.00000000000E+00 -0.31796360899E+03  0.31796614527E+03  0.12700000000E+01 0.  1.
         25    2    1    2    0    0  0.00000000000E+00  0.00000000000E+00 -0.30571227102E+03  0.33028313281E+03  0.12500782041E+03 0.  0.
    9000005    1    3    3    0    0  0.36442543361E+02 -0.14443317663E+02 -0.28145531436E+03  0.28417382422E+03  0.10000000000E+01 0.  0.
    9000005    1    3    3    0    0 -0.36442543361E+02  0.14443317663E+02 -0.24256956663E+02  0.46109308586E+02  0.10000000000E+01 0.  0.
<mgrwt>
<rscale>  0 0.12500782E+03</rscale>
<asrwt>0</asrwt>
<pdfrwt beam="1">  1        4 0.18900665E-02 0.12500782E+03</pdfrwt>
<pdfrwt beam="2">  1       -4 0.48922717E-01 0.12500782E+03</pdfrwt>
<totfact> 0.71937086E+03</totfact>
</mgrwt>
</event>
<event>
 5    1  0.3245943E-002  0.1250000E+03  0.7818608E-02  0.1235069E+00
         -4   -1    0    0    0  501 -0.00000000000E+00  0.00000000000E+00  0.45128432018E+02  0.45146298590E+02  0.12700000000E+01 0.  1.
          4   -1    0    0  501    0  0.00000000000E+00 -0.00000000000E+00 -0.86518859319E+02  0.86528179906E+02  0.12700000000E+01 0.  1.
         25    2    1    2    0    0  0.00000000000E+00  0.00000000000E+00 -0.41390427300E+02  0.13167447850E+03  0.12500000326E+03 0.  0.
    9000005    1    3    3    0    0 -0.19049732190E+02  0.27364391531E+02 -0.76371421870E+02  0.83338444303E+02  0.10000000000E+01 0.  0.
    9000005    1    3    3    0    0  0.19049732190E+02 -0.27364391531E+02  0.34980994570E+02  0.48336034193E+02  0.10000000000E+01 0.  0.
<mgrwt>
<rscale>  0 0.12500000E+03</rscale>
<asrwt>0</asrwt>
<pdfrwt beam="2">  1        4 0.13312685E-01 0.12500000E+03</pdfrwt>
<pdfrwt beam="1">  1       -4 0.69449270E-02 0.12500000E+03</pdfrwt>
<totfact> 0.10308651E+04</totfact>
</mgrwt>
</event>
<event>
 5    1  0.3245943E-002  0.1250024E+03  0.7818608E-02  0.1235066E+00
         -4   -1    0    0    0  501 -0.00000000000E+00  0.00000000000E+00  0.62632173814E+03  0.62632302573E+03  0.12700000000E+01 0. -1.
          4   -1    0    0  501    0  0.00000000000E+00 -0.00000000000E+00 -0.61710883779E+01  0.63004152060E+01  0.12700000000E+01 0. -1.
         25    2    1    2    0    0  0.00000000000E+00  0.00000000000E+00  0.62015064976E+03  0.63262344094E+03  0.12500235849E+03 0.  0.
    9000005    1    3    3    0    0 -0.50281017804E+02 -0.72160161517E+01  0.49430470872E+03  0.49690884144E+03  0.10000000000E+01 0.  0.
    9000005    1    3    3    0    0  0.50281017804E+02  0.72160161517E+01  0.12584594104E+03  0.13571459950E+03  0.10000000000E+01 0.  0.
<mgrwt>
<rscale>  0 0.12500236E+03</rscale>
<asrwt>0</asrwt>
<pdfrwt beam="2">  1        4 0.95944508E-03 0.12500236E+03</pdfrwt>
<pdfrwt beam="1">  1       -4 0.96367277E-01 0.12500236E+03</pdfrwt>
<totfact> 0.46868581E+03</totfact>
</mgrwt>
</event>
<event>
 5    1  0.3245943E-002  0.1250005E+03  0.7818608E-02  0.1235068E+00
         -4   -1    0    0    0  501 -0.00000000000E+00  0.00000000000E+00  0.50893978282E+02  0.50909821503E+02  0.12700000000E+01 0.  1.
          4   -1    0    0  501    0  0.00000000000E+00 -0.00000000000E+00 -0.76720294423E+02  0.76730805263E+02  0.12700000000E+01 0.  1.
         25    2    1    2    0    0  0.00000000000E+00  0.00000000000E+00 -0.25826316140E+02  0.12764062677E+03  0.12500052398E+03 0.  0.
    9000005    1    3    3    0    0  0.50113469555E+02 -0.28241840965E+02 -0.37848611457E+02  0.68865657632E+02  0.10000000000E+01 0.  0.
    9000005    1    3    3    0    0 -0.50113469555E+02  0.28241840965E+02  0.12022295317E+02  0.58774969133E+02  0.10000000000E+01 0.  0.
<mgrwt>
<rscale>  0 0.12500052E+03</rscale>
<asrwt>0</asrwt>
<pdfrwt beam="2">  1        4 0.11805149E-01 0.12500052E+03</pdfrwt>
<pdfrwt beam="1">  1       -4 0.78318700E-02 0.12500052E+03</pdfrwt>
<totfact> 0.10395133E+04</totfact>
</mgrwt>
</event>
<event>
 5    1  0.3245943E-002  0.1249991E+03  0.7818608E-02  0.1235071E+00
          4   -1    0    0  501    0  0.00000000000E+00  0.00000000000E+00  0.15146594988E+02  0.15199744726E+02  0.12700000000E+01 0.  1.
         -4   -1    0    0    0  501 -0.00000000000E+00 -0.00000000000E+00 -0.25738621058E+03  0.25738934379E+03  0.12700000000E+01 0.  1.
         25    2    1    2    0    0  0.00000000000E+00  0.00000000000E+00 -0.24223961559E+03  0.27258908851E+03  0.12499911926E+03 0.  0.
    9000005    1    3    3    0    0 -0.52803064264E+02 -0.16650957366E+02 -0.18431492105E+03  0.19245365182E+03  0.10000000000E+01 0.  0.
    9000005    1    3    3    0    0  0.52803064264E+02  0.16650957366E+02 -0.57924694543E+02  0.80135436698E+02  0.10000000000E+01 0.  0.
<mgrwt>
<rscale>  0 0.12499912E+03</rscale>
<asrwt>0</asrwt>
<pdfrwt beam="1">  1        4 0.23345750E-02 0.12499912E+03</pdfrwt>
<pdfrwt beam="2">  1       -4 0.39602205E-01 0.12499912E+03</pdfrwt>
<totfact> 0.79172664E+03</totfact>
</mgrwt>
</event>
<event>
 5    1  0.3245943E-002  0.1250018E+03  0.7818608E-02  0.1235066E+00
         -4   -1    0    0    0  501 -0.00000000000E+00  0.00000000000E+00  0.10926279754E+03  0.10927017812E+03  0.12700000000E+01 0.  1.
          4   -1    0    0  501    0  0.00000000000E+00 -0.00000000000E+00 -0.35732120849E+02  0.35754683055E+02  0.12700000000E+01 0.  1.
         25    2    1    2    0    0  0.00000000000E+00  0.00000000000E+00  0.73530676691E+02  0.14502486117E+03  0.12500179976E+03 0.  0.
    9000005    1    3    3    0    0 -0.76181983562E+01  0.62012258848E+02  0.38324172694E+02  0.73302792623E+02  0.10000000000E+01 0.  0.
    9000005    1    3    3    0    0  0.76181983562E+01 -0.62012258848E+02  0.35206503997E+02  0.71722068551E+02  0.10000000000E+01 0.  0.
<mgrwt>
<rscale>  0 0.12500180E+03</rscale>
<asrwt>0</asrwt>
<pdfrwt beam="2">  1        4 0.54995528E-02 0.12500180E+03</pdfrwt>
<pdfrwt beam="1">  1       -4 0.16811964E-01 0.12500180E+03</pdfrwt>
<totfact> 0.10030077E+04</totfact>
</mgrwt>
</event>
<event>
 5    1  0.3245943E-002  0.1250051E+03  0.7818608E-02  0.1235061E+00
         -4   -1    0    0    0  501 -0.00000000000E+00  0.00000000000E+00  0.23264468839E+02  0.23299107502E+02  0.12700000000E+01 0.  1.
          4   -1    0    0  501    0  0.00000000000E+00 -0.00000000000E+00 -0.16775797033E+03  0.16776277748E+03  0.12700000000E+01 0.  1.
         25    2    1    2    0    0  0.00000000000E+00  0.00000000000E+00 -0.14449350149E+03  0.19106188498E+03  0.12500508758E+03 0.  0.
    9000005    1    3    3    0    0  0.43752093560E+02 -0.30403721227E+02 -0.12217146169E+03  0.13328727623E+03  0.10000000000E+01 0.  0.
    9000005    1    3    3    0    0 -0.43752093560E+02  0.30403721227E+02 -0.22322039803E+02  0.57774608750E+02  0.10000000000E+01 0.  0.
<mgrwt>
<rscale>  0 0.12500509E+03</rscale>
<asrwt>0</asrwt>
<pdfrwt beam="2">  1        4 0.25811952E-01 0.12500509E+03</pdfrwt>
<pdfrwt beam="1">  1       -4 0.35821835E-02 0.12500509E+03</pdfrwt>
<totfact> 0.91652434E+03</totfact>
</mgrwt>
</event>
<event>
 5    1  0.3245943E-002  0.1250012E+03  0.7818608E-02  0.1235067E+00
          4   -1    0    0  501    0  0.00000000000E+00  0.00000000000E+00  0.54572388455E+03  0.54572536231E+03  0.12700000000E+01 0.  1.
         -4   -1    0    0    0  501 -0.00000000000E+00 -0.00000000000E+00 -0.71002316673E+01  0.72129182534E+01  0.12700000000E+01 0.  1.
         25    2    1    2    0    0  0.00000000000E+00  0.00000000000E+00  0.53862365289E+03  0.55293828057E+03  0.12500121067E+03 0.  0.
    9000005    1    3    3    0    0 -0.46546539383E+02  0.17379058761E+02  0.10164484405E+03  0.11314276969E+03  0.10000000000E+01 0.  0.
    9000005    1    3    3    0    0  0.46546539383E+02 -0.17379058761E+02  0.43697880884E+03  0.43979551088E+03  0.10000000000E+01 0.  0.
<mgrwt>
<rscale>  0 0.12500121E+03</rscale>
<asrwt>0</asrwt>
<pdfrwt beam="1">  1        4 0.83966327E-01 0.12500121E+03</pdfrwt>
<pdfrwt beam="2">  1       -4 0.11011249E-02 0.12500121E+03</pdfrwt>
<totfact> 0.51978349E+03</totfact>
</mgrwt>
</event>
<event>
 5    1  0.3245943E-002  0.1249970E+03  0.7818608E-02  0.1235074E+00
          4   -1    0    0  501    0  0.00000000000E+00  0.00000000000E+00  0.61836842838E+03  0.61836973253E+03  0.12700000000E+01 0.  1.
         -4   -1    0    0    0  501 -0.00000000000E+00 -0.00000000000E+00 -0.62515640444E+01  0.63792595966E+01  0.12700000000E+01 0.  1.
         25    2    1    2    0    0  0.00000000000E+00  0.00000000000E+00  0.61211686433E+03  0.62474899213E+03  0.12499699023E+03 0.  0.
    9000005    1    3    3    0    0  0.45778399014E+02  0.33258460984E+01  0.51801250604E+03  0.52004295926E+03  0.10000000000E+01 0.  0.
    9000005    1    3    3    0    0 -0.45778399014E+02 -0.33258460984E+01  0.94104358298E+02  0.10470603287E+03  0.10000000000E+01 0.  0.
<mgrwt>
<rscale>  0 0.12499699E+03</rscale>
<asrwt>0</asrwt>
<pdfrwt beam="1">  1        4 0.95143510E-01 0.12499699E+03</pdfrwt>
<pdfrwt beam="2">  1       -4 0.97170232E-03 0.12499699E+03</pdfrwt>
<totfact> 0.47344871E+03</totfact>
</mgrwt>
</event>
<event>
 5    1  0.3245943E-002  0.1250001E+03  0.7818608E-02  0.1235069E+00
         -4   -1    0    0    0  501 -0.00000000000E+00  0.00000000000E+00  0.41770776852E+03  0.41770969917E+03  0.12700000000E+01 0. -1.
          4   -1    0    0  501    0  0.00000000000E+00 -0.00000000000E+00 -0.93065688698E+01  0.93928230117E+01  0.12700000000E+01 0. -1.
         25    2    1    2    0    0  0.00000000000E+00  0.00000000000E+00  0.40840119965E+03  0.42710252218E+03  0.12500009832E+03 0.  0.
    9000005    1    3    3    0    0 -0.50131388193E+02 -0.37307895580E+02  0.20580683142E+03  0.21508716144E+03  0.10000000000E+01 0.  0.
    9000005    1    3    3    0    0  0.50131388193E+02  0.37307895580E+02  0.20259436822E+03  0.21201536074E+03  0.10000000000E+01 0.  0.
<mgrwt>
<rscale>  0 0.12500010E+03</rscale>
<asrwt>0</asrwt>
<pdfrwt beam="2">  1        4 0.14385632E-02 0.12500010E+03</pdfrwt>
<pdfrwt beam="1">  1       -4 0.64269522E-01 0.12500010E+03</pdfrwt>
<totfact> 0.61999372E+03</totfact>
</mgrwt>
</event>
<event>
 5    1  0.3245943E-002  0.1250014E+03  0.7818608E-02  0.1235067E+00
         -4   -1    0    0    0  501 -0.00000000000E+00  0.00000000000E+00  0.30778106753E+03  0.30778368773E+03  0.12700000000E+01 0. -1.
          4   -1    0    0  501    0  0.00000000000E+00 -0.00000000000E+00 -0.12657488559E+02  0.12721042277E+02  0.12700000000E+01 0. -1.
         25    2    1    2    0    0  0.00000000000E+00  0.00000000000E+00  0.29512357898E+03  0.32050473001E+03  0.12500142035E+03 0.  0.
    9000005    1    3    3    0    0 -0.17758250625E+02  0.51852660568E+02  0.22453693929E+03  0.23113176107E+03  0.10000000000E+01 0.  0.
    9000005    1    3    3    0    0  0.17758250625E+02 -0.51852660568E+02  0.70586639689E+02  0.89372968932E+02  0.10000000000E+01 0.  0.
<mgrwt>
<rscale>  0 0.12500142E+03</rscale>
<asrwt>0</asrwt>
<pdfrwt beam="2">  1        4 0.19523965E-02 0.12500142E+03</pdfrwt>
<pdfrwt beam="1">  1       -4 0.47356017E-01 0.12500142E+03</pdfrwt>
<totfact> 0.73093836E+03</totfact>
</mgrwt>
</event>
<event>
 5    1  0.3245943E-002  0.1249970E+03  0.7818608E-02  0.1235074E+00
         -4   -1    0    0    0  501 -0.00000000000E+00  0.00000000000E+00  0.27347292680E+01  0.30152353422E+01  0.12700000000E+01 0.  1.
          4   -1    0    0  501    0  0.00000000000E+00 -0.00000000000E+00 -0.13583577247E+04  0.13583583184E+04  0.12700000000E+01 0.  1.
         25    2    1    2    0    0  0.00000000000E+00  0.00000000000E+00 -0.13556229954E+04  0.13613735537E+04  0.12499698824E+03 0.  0.
    9000005    1    3    3    0    0  0.27247853336E+02 -0.54034059411E+01 -0.12874705531E+04  0.12877705803E+04  0.10000000000E+01 0.  0.
    9000005    1    3    3    0    0 -0.27247853336E+02  0.54034059411E+01 -0.68152442306E+02  0.73602973441E+02  0.10000000000E+01 0.  0.
<mgrwt>
<rscale>  0 0.12499699E+03</rscale>
<asrwt>0</asrwt>
<pdfrwt beam="2">  1        4 0.20899922E+00 0.12499699E+03</pdfrwt>
<pdfrwt beam="1">  1       -4 0.44235172E-03 0.12499699E+03</pdfrwt>
<totfact> 0.20826021E+03</totfact>
</mgrwt>
</event>
<event>
 5    1  0.3245943E-002  0.1250003E+03  0.7818608E-02  0.1235069E+00
         -4   -1    0    0    0  501 -0.00000000000E+00  0.00000000000E+00  0.19897812926E+02  0.19938301313E+02  0.12700000000E+01 0.  1.
          4   -1    0    0  501    0  0.00000000000E+00 -0.00000000000E+00 -0.19607453786E+03  0.19607865079E+03  0.12700000000E+01 0.  1.
         25    2    1    2    0    0  0.00000000000E+00  0.00000000000E+00 -0.17617672493E+03  0.21601695210E+03  0.12500034075E+03 0.  0.
    9000005    1    3    3    0    0 -0.18017161295E+02  0.33608879899E+02 -0.25311094641E+01  0.38230634632E+02  0.10000000000E+01 0.  0.
    9000005    1    3    3    0    0  0.18017161295E+02 -0.33608879899E+02 -0.17364561546E+03  0.17778631747E+03  0.10000000000E+01 0.  0.
<mgrwt>
<rscale>  0 0.12500034E+03</rscale>
<asrwt>0</asrwt>
<pdfrwt beam="2">  1        4 0.30168743E-01 0.12500034E+03</pdfrwt>
<pdfrwt beam="1">  1       -4 0.30646330E-02 0.12500034E+03</pdfrwt>
<totfact> 0.87501900E+03</totfact>
</mgrwt>
</event>
<event>
 5    1  0.3245943E-002  0.1250018E+03  0.7818608E-02  0.1235066E+00
         -4   -1    0    0    0  501 -0.00000000000E+00  0.00000000000E+00  0.14680260762E+03  0.14680810094E+03  0.12700000000E+01 0. -1.
          4   -1    0    0  501    0  0.00000000000E+00 -0.00000000000E+00 -0.26588494441E+02  0.26618807950E+02  0.12700000000E+01 0. -1.
         25    2    1    2    0    0  0.00000000000E+00  0.00000000000E+00  0.12021411317E+03  0.17342690889E+03  0.12500183887E+03 0.  0.
    9000005    1    3    3    0    0 -0.42789597154E+02  0.26296762129E+02  0.85135815811E+01  0.50950470011E+02  0.10000000000E+01 0.  0.
    9000005    1    3    3    0    0  0.42789597154E+02 -0.26296762129E+02  0.11170053159E+03  0.12247643888E+03  0.10000000000E+01 0.  0.
<mgrwt>
<rscale>  0 0.12500184E+03</rscale>
<asrwt>0</asrwt>
<pdfrwt beam="2">  1        4 0.40932919E-02 0.12500184E+03</pdfrwt>
<pdfrwt beam="1">  1       -4 0.22587771E-01 0.12500184E+03</pdfrwt>
<totfact> 0.94809828E+03</totfact>
</mgrwt>
</event>
<event>
 5    1  0.3245943E-002  0.1250012E+03  0.7818608E-02  0.1235067E+00
          4   -1    0    0  501    0  0.00000000000E+00  0.00000000000E+00  0.10102690316E+03  0.10103488537E+03  0.12700000000E+01 0.  1.
         -4   -1    0    0    0  501 -0.00000000000E+00 -0.00000000000E+00 -0.38646266456E+02  0.38667128300E+02  0.12700000000E+01 0.  1.
         25    2    1    2    0    0  0.00000000000E+00  0.00000000000E+00  0.62380636704E+02  0.13970201367E+03  0.12500123515E+03 0.  0.
    9000005    1    3    3    0    0  0.60417484789E+02  0.15949723905E+02  0.30281659230E+02  0.69445266553E+02  0.10000000000E+01 0.  0.
    9000005    1    3    3    0    0 -0.60417484789E+02 -0.15949723905E+02  0.32098977474E+02  0.70256747119E+02  0.10000000000E+01 0.  0.
<mgrwt>
<rscale>  0 0.12500124E+03</rscale>
<asrwt>0</asrwt>
<pdfrwt beam="1">  1        4 0.15544819E-01 0.12500124E+03</pdfrwt>
<pdfrwt beam="2">  1       -4 0.59477982E-02 0.12500124E+03</pdfrwt>
<totfact> 0.10139483E+04</totfact>
</mgrwt>
</event>
<event>
 5    1  0.3245943E-002  0.1250040E+03  0.7818608E-02  0.1235063E+00
          4   -1    0    0  501    0  0.00000000000E+00  0.00000000000E+00  0.36157594884E+01  0.38323121843E+01  0.12700000000E+01 0. -1.
         -4   -1    0    0    0  501 -0.00000000000E+00 -0.00000000000E+00 -0.10487785833E+04  0.10487793523E+04  0.12700000000E+01 0. -1.
         25    2    1    2    0    0  0.00000000000E+00  0.00000000000E+00 -0.10451628238E+04  0.10526116644E+04  0.12500395117E+03 0.  0.
    9000005    1    3    3    0    0  0.98708698883E+01 -0.47716632285E+02 -0.19307915322E+03  0.19913530696E+03  0.10000000000E+01 0.  0.
    9000005    1    3    3    0    0 -0.98708698883E+01  0.47716632285E+02 -0.85208367061E+03  0.85347635748E+03  0.10000000000E+01 0.  0.
<mgrwt>
<rscale>  0 0.12500395E+03</rscale>
<asrwt>0</asrwt>
<pdfrwt beam="1">  1        4 0.57298858E-03 0.12500395E+03</pdfrwt>
<pdfrwt beam="2">  1       -4 0.16136703E+00 0.12500395E+03</pdfrwt>
<totfact> 0.28910916E+03</totfact>
</mgrwt>
</event>
<event>
 5    1  0.3245943E-002  0.1249873E+03  0.7818608E-02  0.1235089E+00
          4   -1    0    0  501    0  0.00000000000E+00  0.00000000000E+00  0.11324721338E+04  0.11324728460E+04  0.12700000000E+01 0.  1.
         -4   -1    0    0    0  501 -0.00000000000E+00 -0.00000000000E+00 -0.33309472438E+01  0.35648435507E+01  0.12700000000E+01 0.  1.
         25    2    1    2    0    0  0.00000000000E+00  0.00000000000E+00  0.11291411866E+04  0.11360376895E+04  0.12498725018E+03 0.  0.
    9000005    1    3    3    0    0  0.40222544701E+02 -0.47503930580E+02  0.51480621235E+03  0.51855656663E+03  0.10000000000E+01 0.  0.
    9000005    1    3    3    0    0 -0.40222544701E+02  0.47503930580E+02  0.61433497424E+03  0.61748112287E+03  0.10000000000E+01 0.  0.
<mgrwt>
<rscale>  0 0.12498725E+03</rscale>
<asrwt>0</asrwt>
<pdfrwt beam="1">  1        4 0.17424460E+00 0.12498725E+03</pdfrwt>
<pdfrwt beam="2">  1       -4 0.53050002E-03 0.12498725E+03</pdfrwt>
<totfact> 0.26458177E+03</totfact>
</mgrwt>
</event>
<event>
 5    1  0.3245943E-002  0.1250029E+03  0.7818608E-02  0.1235065E+00
          4   -1    0    0  501    0  0.00000000000E+00  0.00000000000E+00  0.64389619669E+02  0.64402142986E+02  0.12700000000E+01 0. -1.
         -4   -1    0    0    0  501 -0.00000000000E+00 -0.00000000000E+00 -0.60643601879E+02  0.60656898609E+02  0.12700000000E+01 0. -1.
         25    2    1    2    0    0  0.00000000000E+00  0.00000000000E+00  0.37460177901E+01  0.12505904160E+03  0.12500292491E+03 0.  0.
    9000005    1    3    3    0    0  0.50872669335E+02  0.26259113488E+01 -0.34344194372E+02  0.61444670906E+02  0.10000000000E+01 0.  0.
    9000005    1    3    3    0    0 -0.50872669335E+02 -0.26259113488E+01  0.38090212162E+02  0.63614370689E+02  0.10000000000E+01 0.  0.
<mgrwt>
<rscale>  0 0.12500292E+03</rscale>
<asrwt>0</asrwt>
<pdfrwt beam="1">  1        4 0.99080815E-02 0.12500292E+03</pdfrwt>
<pdfrwt beam="2">  1       -4 0.93317710E-02 0.12500292E+03</pdfrwt>
<totfact> 0.10450889E+04</totfact>
</mgrwt>
</event>
<event>
 5    1  0.3245943E-002  0.1250009E+03  0.7818608E-02  0.1235068E+00
         -4   -1    0    0    0  501 -0.00000000000E+00  0.00000000000E+00  0.10277680529E+03  0.10278465161E+03  0.12700000000E+01 0.  1.
          4   -1    0    0  501    0  0.00000000000E+00 -0.00000000000E+00 -0.37987758700E+02  0.38008981978E+02  0.12700000000E+01 0.  1.
         25    2    1    2    0    0  0.00000000000E+00  0.00000000000E+00  0.64789046593E+02  0.14079363359E+03  0.12500090680E+03 0.  0.
    9000005    1    3    3    0    0 -0.58592040625E+02  0.11655691173E+02  0.53053725259E+02  0.79903567663E+02  0.10000000000E+01 0.  0.
    9000005    1    3    3    0    0  0.58592040625E+02 -0.11655691173E+02  0.11735321333E+02  0.60890065923E+02  0.10000000000E+01 0.  0.
<mgrwt>
<rscale>  0 0.12500091E+03</rscale>
<asrwt>0</asrwt>
<pdfrwt beam="2">  1        4 0.58465067E-02 0.12500091E+03</pdfrwt>
<pdfrwt beam="1">  1       -4 0.15814052E-01 0.12500091E+03</pdfrwt>
<totfact> 0.10116957E+04</totfact>
</mgrwt>
</event>
<event>
 5    1  0.3245943E-002  0.1250001E+03  0.7818608E-02  0.1235069E+00
          4   -1    0    0  501    0  0.00000000000E+00  0.00000000000E+00  0.23610894502E+03  0.23611236058E+03  0.12700000000E+01 0.  1.
         -4   -1    0    0    0  501 -0.00000000000E+00 -0.00000000000E+00 -0.16516376062E+02  0.16565131398E+02  0.12700000000E+01 0.  1.
         25    2    1    2    0    0  0.00000000000E+00  0.00000000000E+00  0.21959256896E+03  0.25267749198E+03  0.12500007444E+03 0.  0.
    9000005    1    3    3    0    0  0.34711981362E+01 -0.40912949725E+02  0.20502497512E+03  0.20909844355E+03  0.10000000000E+01 0.  0.
    9000005    1    3    3    0    0 -0.34711981362E+01  0.40912949725E+02  0.14567593838E+02  0.43579048429E+02  0.10000000000E+01 0.  0.
<mgrwt>
<rscale>  0 0.12500007E+03</rscale>
<asrwt>0</asrwt>
<pdfrwt beam="1">  1        4 0.36328465E-01 0.12500007E+03</pdfrwt>
<pdfrwt beam="2">  1       -4 0.25449942E-02 0.12500007E+03</pdfrwt>
<totfact> 0.81944645E+03</totfact>
</mgrwt>
</event>
<event>
 5    1  0.3245943E-002  0.1249992E+03  0.7818608E-02  0.1235071E+00
         -4   -1    0    0    0  501 -0.00000000000E+00  0.00000000000E+00  0.33799872712E+03  0.33800111307E+03  0.12700000000E+01 0. -1.
          4   -1    0    0  501    0  0.00000000000E+00 -0.00000000000E+00 -0.11519516710E+02  0.11589312543E+02  0.12700000000E+01 0. -1.
         25    2    1    2    0    0  0.00000000000E+00  0.00000000000E+00  0.32647921041E+03  0.34959042561E+03  0.12499916339E+03 0.  0.
    9000005    1    3    3    0    0  0.27412749970E+02  0.28804666148E+02  0.28413715739E+02  0.48882582735E+02  0.10000000000E+01 0.  0.
    9000005    1    3    3    0    0 -0.27412749970E+02 -0.28804666148E+02  0.29806549467E+03  0.30070784288E+03  0.10000000000E+01 0.  0.
<mgrwt>
<rscale>  0 0.12499916E+03</rscale>
<asrwt>0</asrwt>
<pdfrwt beam="2">  1        4 0.17777861E-02 0.12499916E+03</pdfrwt>
<pdfrwt beam="1">  1       -4 0.52005347E-01 0.12499916E+03</pdfrwt>
<totfact> 0.69770934E+03</totfact>
</mgrwt>
</event>
<event>
 4    1  0.3245943E-002  0.1249336E+03  0.7818608E-02  0.1235173E+00
          4   -1    0    0  501    0  0.00000000000E+00  0.00000000000E+00  0.85037356852E+01  0.85980474879E+01  0.12700000000E+01 0. -1.
         -4   -1    0    0    0  501 -0.00000000000E+00 -0.00000000000E+00 -0.45624306460E+03  0.45624483218E+03  0.12700000000E+01 0. -1.
    9000005    1    1    2    0    0  0.51613769308E+02  0.32890398173E+02 -0.17749635665E+03  0.18775440367E+03  0.10000000000E+01 0.  0.
    9000005    1    1    2    0    0 -0.51613769308E+02 -0.32890398173E+02 -0.27024297226E+03  0.27708847600E+03  0.10000000000E+01 0.  0.
<mgrwt>
<rscale>  0 0.12493357E+03</rscale>
<asrwt>0</asrwt>
<pdfrwt beam="1">  1        4 0.13156581E-02 0.12493357E+03</pdfrwt>
<pdfrwt beam="2">  1       -4 0.70198612E-01 0.12493357E+03</pdfrwt>
<totfact> 0.58785123E+03</totfact>
</mgrwt>
</event>
<event>
 5    1  0.3245943E-002  0.1249995E+03  0.7818608E-02  0.1235070E+00
         -4   -1    0    0    0  501 -0.00000000000E+00  0.00000000000E+00  0.42527624620E+01  0.44383429969E+01  0.12700000000E+01 0.  1.
          4   -1    0    0  501    0  0.00000000000E+00 -0.00000000000E+00 -0.89871455899E+03  0.89871545633E+03  0.12700000000E+01 0.  1.
         25    2    1    2    0    0  0.00000000000E+00  0.00000000000E+00 -0.89446179653E+03  0.90315379932E+03  0.12499951914E+03 0.  0.
    9000005    1    3    3    0    0 -0.29144047461E+02 -0.16931804864E+02 -0.67017626376E+02  0.75022821617E+02  0.10000000000E+01 0.  0.
    9000005    1    3    3    0    0  0.29144047461E+02  0.16931804864E+02 -0.82744417015E+03  0.82813097771E+03  0.10000000000E+01 0.  0.
<mgrwt>
<rscale>  0 0.12499952E+03</rscale>
<asrwt>0</asrwt>
<pdfrwt beam="2">  1        4 0.13827797E+00 0.12499952E+03</pdfrwt>
<pdfrwt beam="1">  1       -4 0.66861632E-03 0.12499952E+03</pdfrwt>
<totfact> 0.34039835E+03</totfact>
</mgrwt>
</event>
<event>
 5    1  0.3245943E-002  0.1250012E+03  0.7818608E-02  0.1235067E+00
         -4   -1    0    0    0  501 -0.00000000000E+00  0.00000000000E+00  0.48138842725E+01  0.49785923502E+01  0.12700000000E+01 0.  1.
          4   -1    0    0  501    0  0.00000000000E+00 -0.00000000000E+00 -0.79765619666E+03  0.79765720769E+03  0.12700000000E+01 0.  1.
         25    2    1    2    0    0  0.00000000000E+00  0.00000000000E+00 -0.79284231239E+03  0.80263580004E+03  0.12500118073E+03 0.  0.
    9000005    1    3    3    0    0 -0.42495132881E+02 -0.87651549677E+01 -0.10764202558E+03  0.11606235363E+03  0.10000000000E+01 0.  0.
    9000005    1    3    3    0    0  0.42495132881E+02  0.87651549677E+01 -0.68520028681E+03  0.68657344640E+03  0.10000000000E+01 0.  0.
<mgrwt>
<rscale>  0 0.12500118E+03</rscale>
<asrwt>0</asrwt>
<pdfrwt beam="2">  1        4 0.12272898E+00 0.12500118E+03</pdfrwt>
<pdfrwt beam="1">  1       -4 0.75334584E-03 0.12500118E+03</pdfrwt>
<totfact> 0.38146370E+03</totfact>
</mgrwt>
</event>
<event>
 5    1  0.3245943E-002  0.1249894E+03  0.7818608E-02  0.1235086E+00
          4   -1    0    0  501    0  0.00000000000E+00  0.00000000000E+00  0.56457691281E+02  0.56471973622E+02  0.12700000000E+01 0. -1.
         -4   -1    0    0    0  501 -0.00000000000E+00 -0.00000000000E+00 -0.69148418854E+02  0.69160080466E+02  0.12700000000E+01 0. -1.
         25    2    1    2    0    0  0.00000000000E+00  0.00000000000E+00 -0.12690727573E+02  0.12563205409E+03  0.12498943335E+03 0.  0.
    9000005    1    3    3    0    0  0.39437490846E+02 -0.35081705547E+02  0.27271287393E+02  0.59420239518E+02  0.10000000000E+01 0.  0.
    9000005    1    3    3    0    0 -0.39437490846E+02  0.35081705547E+02 -0.39962014967E+02  0.66211814569E+02  0.10000000000E+01 0.  0.
<mgrwt>
<rscale>  0 0.12498943E+03</rscale>
<asrwt>0</asrwt>
<pdfrwt beam="1">  1        4 0.86877943E-02 0.12498943E+03</pdfrwt>
<pdfrwt beam="2">  1       -4 0.10640214E-01 0.12498943E+03</pdfrwt>
<totfact> 0.10441529E+04</totfact>
</mgrwt>
</event>
<event>
 5    1  0.3245943E-002  0.1249991E+03  0.7818608E-02  0.1235071E+00
         -4   -1    0    0    0  501 -0.00000000000E+00  0.00000000000E+00  0.31467659048E+02  0.31493276520E+02  0.12700000000E+01 0.  1.
          4   -1    0    0  501    0  0.00000000000E+00 -0.00000000000E+00 -0.12405419866E+03  0.12406069928E+03  0.12700000000E+01 0.  1.
         25    2    1    2    0    0  0.00000000000E+00  0.00000000000E+00 -0.92586539613E+02  0.15555397580E+03  0.12499908827E+03 0.  0.
    9000005    1    3    3    0    0  0.29170986747E+02 -0.48242365273E+02 -0.79845222524E+02  0.97747285563E+02  0.10000000000E+01 0.  0.
    9000005    1    3    3    0    0 -0.29170986747E+02  0.48242365273E+02 -0.12741317089E+02  0.57806690236E+02  0.10000000000E+01 0.  0.
<mgrwt>
<rscale>  0 0.12499909E+03</rscale>
<asrwt>0</asrwt>
<pdfrwt beam="2">  1        4 0.19087732E-01 0.12499909E+03</pdfrwt>
<pdfrwt beam="1">  1       -4 0.48436490E-02 0.12499909E+03</pdfrwt>
<totfact> 0.98208870E+03</totfact>
</mgrwt>
</event>
<event>
 5    1  0.3245943E-002  0.1249985E+03  0.7818608E-02  0.1235072E+00
         -4   -1    0    0    0  501 -0.00000000000E+00  0.00000000000E+00  0.99050679793E+01  0.99861539981E+01  0.12700000000E+01 0. -1.
          4   -1    0    0  501    0  0.00000000000E+00 -0.00000000000E+00 -0.39266980075E+03  0.39267185450E+03  0.12700000000E+01 0. -1.
         25    2    1    2    0    0  0.00000000000E+00  0.00000000000E+00 -0.38276473277E+03  0.40265800850E+03  0.12499852463E+03 0.  0.
    9000005    1    3    3    0    0  0.49239503353E+02 -0.31267080685E+02 -0.11913618227E+03  0.13265213512E+03  0.10000000000E+01 0.  0.
    9000005    1    3    3    0    0 -0.49239503353E+02  0.31267080685E+02 -0.26362855049E+03  0.27000587338E+03  0.10000000000E+01 0.  0.
<mgrwt>
<rscale>  0 0.12499852E+03</rscale>
<asrwt>0</asrwt>
<pdfrwt beam="2">  1        4 0.60417122E-01 0.12499852E+03</pdfrwt>
<pdfrwt beam="1">  1       -4 0.15302523E-02 0.12499852E+03</pdfrwt>
<totfact> 0.64297193E+03</totfact>
</mgrwt>
</event>
<event>
 5    1  0.3245943E-002  0.1250003E+03  0.7818608E-02  0.1235069E+00
          4   -1    0    0  501    0  0.00000000000E+00  0.00000000000E+00  0.50221491212E+03  0.50221651790E+03  0.12700000000E+01 0. -1.
         -4   -1    0    0    0  501 -0.00000000000E+00 -0.00000000000E+00 -0.77246109231E+01  0.78283148833E+01  0.12700000000E+01 0. -1.
         25    2    1    2    0    0  0.00000000000E+00  0.00000000000E+00  0.49449030120E+03  0.51004483279E+03  0.12500029390E+03 0.  0.
    9000005    1    3    3    0    0 -0.23805156524E+02 -0.45200169252E+02  0.10037935869E+03  0.11263550252E+03  0.10000000000E+01 0.  0.
    9000005    1    3    3    0    0  0.23805156524E+02  0.45200169252E+02  0.39411094251E+03  0.39740933027E+03  0.10000000000E+01 0.  0.
<mgrwt>
<rscale>  0 0.12500029E+03</rscale>
<asrwt>0</asrwt>
<pdfrwt beam="1">  1        4 0.77271949E-01 0.12500029E+03</pdfrwt>
<pdfrwt beam="2">  1       -4 0.11965022E-02 0.12500029E+03</pdfrwt>
<totfact> 0.55092983E+03</totfact>
</mgrwt>
</event>
<event>
 5    1  0.3245943E-002  0.1249996E+03  0.7818608E-02  0.1235070E+00
         -4   -1    0    0    0  501 -0.00000000000E+00  0.00000000000E+00  0.45054775198E+01  0.46810498482E+01  0.12700000000E+01 0.  1.
          4   -1    0    0  501    0  0.00000000000E+00 -0.00000000000E+00 -0.85024865823E+03  0.85024960672E+03  0.12700000000E+01 0.  1.
         25    2    1    2    0    0  0.00000000000E+00  0.00000000000E+00 -0.84574318071E+03  0.85493065656E+03  0.12499959927E+03 0.  0.
    9000005    1    3    3    0    0 -0.43971448043E+02  0.44198203554E+02 -0.39364896035E+03  0.39855673802E+03  0.10000000000E+01 0.  0.
    9000005    1    3    3    0    0  0.43971448043E+02 -0.44198203554E+02 -0.45209422036E+03  0.45637391854E+03  0.10000000000E+01 0.  0.
<mgrwt>
<rscale>  0 0.12499960E+03</rscale>
<asrwt>0</asrwt>
<pdfrwt beam="2">  1        4 0.13082094E+00 0.12499960E+03</pdfrwt>
<pdfrwt beam="1">  1       -4 0.70672959E-03 0.12499960E+03</pdfrwt>
<totfact> 0.35926747E+03</totfact>
</mgrwt>
</event>
<event>
 5    1  0.3245943E-002  0.1250027E+03  0.7818608E-02  0.1235065E+00
          4   -1    0    0  501    0  0.00000000000E+00  0.00000000000E+00  0.29189102848E+02  0.29216718246E+02  0.12700000000E+01 0. -1.
         -4   -1    0    0    0  501 -0.00000000000E+00 -0.00000000000E+00 -0.13373748094E+03  0.13374351090E+03  0.12700000000E+01 0. -1.
         25    2    1    2    0    0  0.00000000000E+00  0.00000000000E+00 -0.10454837809E+03  0.16296022915E+03  0.12500269166E+03 0.  0.
    9000005    1    3    3    0    0  0.21048225822E+02 -0.20349991364E+02  0.19702001108E+02  0.35303240736E+02  0.10000000000E+01 0.  0.
    9000005    1    3    3    0    0 -0.21048225822E+02  0.20349991364E+02 -0.12425037920E+03  0.12765698841E+03  0.10000000000E+01 0.  0.
<mgrwt>
<rscale>  0 0.12500269E+03</rscale>
<asrwt>0</asrwt>
<pdfrwt beam="1">  1        4 0.44932194E-02 0.12500269E+03</pdfrwt>
<pdfrwt beam="2">  1       -4 0.20577585E-01 0.12500269E+03</pdfrwt>
<totfact> 0.96769240E+03</totfact>
</mgrwt>
</event>
<event>
 5    1  0.3245943E-002  0.1249860E+03  0.7818608E-02  0.1235091E+00
          4   -1    0    0  501    0  0.00000000000E+00  0.00000000000E+00  0.13404986214E+02  0.13465012269E+02  0.12700000000E+01 0.  1.
         -4   -1    0    0    0  501 -0.00000000000E+00 -0.00000000000E+00 -0.29062537955E+03  0.29062815441E+03  0.12700000000E+01 0.  1.
         25    2    1    2    0    0  0.00000000000E+00  0.00000000000E+00 -0.27722039333E+03  0.30409316668E+03  0.12498602939E+03 0.  0.
    9000005    1    3    3    0    0  0.20144126032E+02  0.58916234623E+02 -0.15136170714E+03  0.16367124031E+03  0.10000000000E+01 0.  0.
    9000005    1    3    3    0    0 -0.20144126032E+02 -0.58916234623E+02 -0.12585868619E+03  0.14042192637E+03  0.10000000000E+01 0.  0.
<mgrwt>
<rscale>  0 0.12498603E+03</rscale>
<asrwt>0</asrwt>
<pdfrwt beam="1">  1        4 0.20671366E-02 0.12498603E+03</pdfrwt>
<pdfrwt beam="2">  1       -4 0.44716423E-01 0.12498603E+03</pdfrwt>
<totfact> 0.75111540E+03</totfact>
</mgrwt>
</event>
<event>
 5    1  0.3245943E-002  0.1250011E+03  0.7818608E-02  0.1235068E+00
          4   -1    0    0  501    0  0.00000000000E+00  0.00000000000E+00  0.53741668578E+02  0.53756672530E+02  0.12700000000E+01 0. -1.
         -4   -1    0    0    0  501 -0.00000000000E+00 -0.00000000000E+00 -0.72656300842E+02  0.72667399513E+02  0.12700000000E+01 0. -1.
         25    2    1    2    0    0  0.00000000000E+00  0.00000000000E+00 -0.18914632264E+02  0.12642407204E+03  0.12500113071E+03 0.  0.
    9000005    1    3    3    0    0  0.61491333242E+02 -0.82679401705E+01 -0.17010784428E+02  0.64342129942E+02  0.10000000000E+01 0.  0.
    9000005    1    3    3    0    0 -0.61491333242E+02  0.82679401705E+01 -0.19038478362E+01  0.62081942102E+02  0.10000000000E+01 0.  0.
<mgrwt>
<rscale>  0 0.12500113E+03</rscale>
<asrwt>0</asrwt>
<pdfrwt beam="1">  1        4 0.82699569E-02 0.12500113E+03</pdfrwt>
<pdfrwt beam="2">  1       -4 0.11179900E-01 0.12500113E+03</pdfrwt>
<totfact> 0.10421418E+04</totfact>
</mgrwt>
</event>
<event>
 5    1  0.3245943E-002  0.1249981E+03  0.7818608E-02  0.1235072E+00
         -4   -1    0    0    0  501 -0.00000000000E+00  0.00000000000E+00  0.22371798015E+01  0.25725227820E+01  0.12700000000E+01 0.  1.
          4   -1    0    0  501    0  0.00000000000E+00 -0.00000000000E+00 -0.16239355048E+04  0.16239360014E+04  0.12700000000E+01 0.  1.
         25    2    1    2    0    0  0.00000000000E+00  0.00000000000E+00 -0.16216983250E+04  0.16265085242E+04  0.12499808775E+03 0.  0.
    9000005    1    3    3    0    0 -0.24464153789E+02 -0.57221512900E+02 -0.73685737194E+03  0.73948129317E+03  0.10000000000E+01 0.  0.
    9000005    1    3    3    0    0  0.24464153789E+02  0.57221512900E+02 -0.88484095303E+03  0.88702723099E+03  0.10000000000E+01 0.  0.
<mgrwt>
<rscale>  0 0.12499809E+03</rscale>
<asrwt>0</asrwt>
<pdfrwt beam="2">  1        4 0.24986119E+00 0.12499809E+03</pdfrwt>
<pdfrwt beam="1">  1       -4 0.37001662E-03 0.12499809E+03</pdfrwt>
<totfact> 0.15572418E+03</totfact>
</mgrwt>
</event>
<event>
 5    1  0.3245943E-002  0.1249964E+03  0.7818608E-02  0.1235075E+00
         -4   -1    0    0    0  501 -0.00000000000E+00  0.00000000000E+00  0.12131595113E+03  0.12132259847E+03  0.12700000000E+01 0. -1.
          4   -1    0    0  501    0  0.00000000000E+00 -0.00000000000E+00 -0.32177079270E+02  0.32202132388E+02  0.12700000000E+01 0. -1.
         25    2    1    2    0    0  0.00000000000E+00  0.00000000000E+00  0.89138871860E+02  0.15352473085E+03  0.12499641798E+03 0.  0.
    9000005    1    3    3    0    0 -0.39339044208E+01  0.43667951553E+02  0.99259062448E+02  0.10851602220E+03  0.10000000000E+01 0.  0.
    9000005    1    3    3    0    0  0.39339044208E+01 -0.43667951553E+02 -0.10120190588E+02  0.45008708651E+02  0.10000000000E+01 0.  0.
<mgrwt>
<rscale>  0 0.12499642E+03</rscale>
<asrwt>0</asrwt>
<pdfrwt beam="2">  1        4 0.49527584E-02 0.12499642E+03</pdfrwt>
<pdfrwt beam="1">  1       -4 0.18666431E-01 0.12499642E+03</pdfrwt>
<totfact> 0.98613625E+03</totfact>
</mgrwt>
</event>
<event>
 5    1  0.3245943E-002  0.1249994E+03  0.7818608E-02  0.1235070E+00
         -4   -1    0    0    0  501 -0.00000000000E+00  0.00000000000E+00  0.61523509129E+02  0.61536615730E+02  0.12700000000E+01 0. -1.
          4   -1    0    0  501    0  0.00000000000E+00 -0.00000000000E+00 -0.63465154102E+02  0.63477859803E+02  0.12700000000E+01 0. -1.
         25    2    1    2    0    0  0.00000000000E+00  0.00000000000E+00 -0.19416449735E+01  0.12501447553E+03  0.12499939643E+03 0.  0.
    9000005    1    3    3    0    0  0.20918536226E+01 -0.52636826308E+02 -0.34593339317E+02  0.63029441220E+02  0.10000000000E+01 0.  0.
    9000005    1    3    3    0    0 -0.20918536226E+01  0.52636826308E+02  0.32651694343E+02  0.61985034314E+02  0.10000000000E+01 0.  0.
<mgrwt>
<rscale>  0 0.12499940E+03</rscale>
<asrwt>0</asrwt>
<pdfrwt beam="2">  1        4 0.97658555E-02 0.12499940E+03</pdfrwt>
<pdfrwt beam="1">  1       -4 0.94671408E-02 0.12499940E+03</pdfrwt>
<totfact> 0.10452691E+04</totfact>
</mgrwt>
</event>
<event>
 5    1  0.3245943E-002  0.1250043E+03  0.7818608E-02  0.1235063E+00
         -4   -1    0    0    0  501 -0.00000000000E+00  0.00000000000E+00  0.66908365421E+01  0.68103005538E+01  0.12700000000E+01 0.  1.
          4   -1    0    0  501    0  0.00000000000E+00 -0.00000000000E+00 -0.57857453721E+03  0.57857593107E+03  0.12700000000E+01 0.  1.
         25    2    1    2    0    0  0.00000000000E+00  0.00000000000E+00 -0.57188370067E+03  0.58538623162E+03  0.12500429224E+03 0.  0.
    9000005    1    3    3    0    0 -0.11037410213E+02 -0.61017317713E+02 -0.32239080062E+03  0.32830133386E+03  0.10000000000E+01 0.  0.
    9000005    1    3    3    0    0  0.11037410213E+02  0.61017317713E+02 -0.24949290004E+03  0.25708489776E+03  0.10000000000E+01 0.  0.
<mgrwt>
<rscale>  0 0.12500429E+03</rscale>
<asrwt>0</asrwt>
<pdfrwt beam="2">  1        4 0.89020725E-01 0.12500429E+03</pdfrwt>
<pdfrwt beam="1">  1       -4 0.10386567E-02 0.12500429E+03</pdfrwt>
<totfact> 0.49798588E+03</totfact>
</mgrwt>
</event>
<event>
 5    1  0.3245943E-002  0.1249954E+03  0.7818608E-02  0.1235076E+00
          4   -1    0    0  501    0  0.00000000000E+00  0.00000000000E+00  0.40970263618E+02  0.40989942680E+02  0.12700000000E+01 0. -1.
         -4   -1    0    0    0  501 -0.00000000000E+00 -0.00000000000E+00 -0.95289748459E+02  0.95298211218E+02  0.12700000000E+01 0. -1.
         25    2    1    2    0    0  0.00000000000E+00  0.00000000000E+00 -0.54319484841E+02  0.13628815390E+03  0.12499541775E+03 0.  0.
    9000005    1    3    3    0    0  0.60542622876E+02  0.14476453170E+02 -0.33130488449E+02  0.70523798437E+02  0.10000000000E+01 0.  0.
    9000005    1    3    3    0    0 -0.60542622876E+02 -0.14476453170E+02 -0.21188996392E+02  0.65764355461E+02  0.10000000000E+01 0.  0.
<mgrwt>
<rscale>  0 0.12499542E+03</rscale>
<asrwt>0</asrwt>
<pdfrwt beam="1">  1        4 0.63052823E-02 0.12499542E+03</pdfrwt>
<pdfrwt beam="2">  1       -4 0.14662126E-01 0.12499542E+03</pdfrwt>
<totfact> 0.10212046E+04</totfact>
</mgrwt>
</event>
<event>
 5    1  0.3245943E-002  0.1249981E+03  0.7818608E-02  0.1235072E+00
         -4   -1    0    0    0  501 -0.00000000000E+00  0.00000000000E+00  0.44557869914E+03  0.44558050903E+03  0.12700000000E+01 0.  1.
          4   -1    0    0  501    0  0.00000000000E+00 -0.00000000000E+00 -0.87185877941E+01  0.88106000433E+01  0.12700000000E+01 0.  1.
         25    2    1    2    0    0  0.00000000000E+00  0.00000000000E+00  0.43686011135E+03  0.45439110907E+03  0.12499809246E+03 0.  0.
    9000005    1    3    3    0    0 -0.27714148390E+01  0.11042895411E+02  0.44179444521E+03  0.44194225652E+03  0.10000000000E+01 0.  0.
    9000005    1    3    3    0    0  0.27714148390E+01 -0.11042895411E+02 -0.49343338628E+01  0.12448852555E+02  0.10000000000E+01 0.  0.
<mgrwt>
<rscale>  0 0.12499809E+03</rscale>
<asrwt>0</asrwt>
<pdfrwt beam="2">  1        4 0.13485381E-02 0.12499809E+03</pdfrwt>
<pdfrwt beam="1">  1       -4 0.68557794E-01 0.12499809E+03</pdfrwt>
<totfact> 0.59587769E+03</totfact>
</mgrwt>
</event>
<event>
 5    1  0.3245943E-002  0.1250004E+03  0.7818608E-02  0.1235069E+00
         -4   -1    0    0    0  501 -0.00000000000E+00  0.00000000000E+00  0.15237851262E+02  0.15290683800E+02  0.12700000000E+01 0. -1.
          4   -1    0    0  501    0  0.00000000000E+00 -0.00000000000E+00 -0.25585535419E+03  0.25585850615E+03  0.12700000000E+01 0. -1.
         25    2    1    2    0    0  0.00000000000E+00  0.00000000000E+00 -0.24061750293E+03  0.27114918995E+03  0.12500040197E+03 0.  0.
    9000005    1    3    3    0    0 -0.10022588607E+02 -0.41437430574E+02 -0.21194200987E+02  0.47620448239E+02  0.10000000000E+01 0.  0.
    9000005    1    3    3    0    0  0.10022588607E+02  0.41437430574E+02 -0.21942330194E+03  0.22352874171E+03  0.10000000000E+01 0.  0.
<mgrwt>
<rscale>  0 0.12500040E+03</rscale>
<asrwt>0</asrwt>
<pdfrwt beam="2">  1        4 0.39366665E-01 0.12500040E+03</pdfrwt>
<pdfrwt beam="1">  1       -4 0.23485915E-02 0.12500040E+03</pdfrwt>
<totfact> 0.79365742E+03</totfact>
</mgrwt>
</event>
<event>
 5    1  0.3245943E-002  0.1249994E+03  0.7818608E-02  0.1235070E+00
         -4   -1    0    0    0  501 -0.00000000000E+00  0.00000000000E+00  0.10289738743E+03  0.10290522455E+03  0.12700000000E+01 0.  1.
          4   -1    0    0  501    0  0.00000000000E+00 -0.00000000000E+00 -0.37942288957E+02  0.37963537656E+02  0.12700000000E+01 0.  1.
         25    2    1    2    0    0  0.00000000000E+00  0.00000000000E+00  0.64955098476E+02  0.14086876221E+03  0.12499937339E+03 0.  0.
    9000005    1    3    3    0    0  0.25876757903E+02 -0.56859037121E+02  0.34313531082E+02  0.71280959009E+02  0.10000000000E+01 0.  0.
    9000005    1    3    3    0    0 -0.25876757903E+02  0.56859037121E+02  0.30641567394E+02  0.69587803201E+02  0.10000000000E+01 0.  0.
<mgrwt>
<rscale>  0 0.12499937E+03</rscale>
<asrwt>0</asrwt>
<pdfrwt beam="2">  1        4 0.58395125E-02 0.12499937E+03</pdfrwt>
<pdfrwt beam="1">  1       -4 0.15832605E-01 0.12499937E+03</pdfrwt>
<totfact> 0.10115755E+04</totfact>
</mgrwt>
</event>
<event>
 5    1  0.3245943E-002  0.1249992E+03  0.7818608E-02  0.1235071E+00
         -4   -1    0    0    0  501 -0.00000000000E+00  0.00000000000E+00  0.70530613203E+02  0.70542046318E+02  0.12700000000E+01 0. -1.
          4   -1    0    0  501    0  0.00000000000E+00 -0.00000000000E+00 -0.55359840818E+02  0.55374406321E+02  0.12700000000E+01 0. -1.
         25    2    1    2    0    0  0.00000000000E+00  0.00000000000E+00  0.15170772385E+02  0.12591645264E+03  0.12499920284E+03 0.  0.
    9000005    1    3    3    0    0 -0.12372119080E+02 -0.48709716391E+00 -0.54116791570E+02  0.55524172430E+02  0.10000000000E+01 0.  0.
    9000005    1    3    3    0    0  0.12372119080E+02  0.48709716391E+00  0.69287563955E+02  0.70392280209E+02  0.10000000000E+01 0.  0.
<mgrwt>
<rscale>  0 0.12499920E+03</rscale>
<asrwt>0</asrwt>
<pdfrwt beam="2">  1        4 0.85188984E-02 0.12499920E+03</pdfrwt>
<pdfrwt beam="1">  1       -4 0.10852864E-01 0.12499920E+03</pdfrwt>
<totfact> 0.10432976E+04</totfact>
</mgrwt>
</event>
<event>
 5    1  0.3245943E-002  0.1249996E+03  0.7818608E-02  0.1235070E+00
         -4   -1    0    0    0  501 -0.00000000000E+00  0.00000000000E+00  0.29064672491E+03  0.29064949957E+03  0.12700000000E+01 0. -1.
          4   -1    0    0  501    0  0.00000000000E+00 -0.00000000000E+00 -0.13406912897E+02  0.13466930364E+02  0.12700000000E+01 0. -1.
         25    2    1    2    0    0  0.00000000000E+00  0.00000000000E+00  0.27723981201E+03  0.30411642993E+03  0.12499955836E+03 0.  0.
    9000005    1    3    3    0    0 -0.36789932170E+02 -0.50419773756E+02  0.14614619060E+03  0.15891935603E+03  0.10000000000E+01 0.  0.
    9000005    1    3    3    0    0  0.36789932170E+02  0.50419773756E+02  0.13109362141E+03  0.14519707390E+03  0.10000000000E+01 0.  0.
<mgrwt>
<rscale>  0 0.12499956E+03</rscale>
<asrwt>0</asrwt>
<pdfrwt beam="2">  1        4 0.20674321E-02 0.12499956E+03</pdfrwt>
<pdfrwt beam="1">  1       -4 0.44719713E-01 0.12499956E+03</pdfrwt>
<totfact> 0.75086099E+03</totfact>
</mgrwt>
</event>
<event>
 5    1  0.3245943E-002  0.1250023E+03  0.7818608E-02  0.1235066E+00
         -4   -1    0    0    0  501 -0.00000000000E+00  0.00000000000E+00  0.33104405038E+02  0.33128756888E+02  0.12700000000E+01 0. -1.
          4   -1    0    0  501    0  0.00000000000E+00 -0.00000000000E+00 -0.11793110209E+03  0.11793794020E+03  0.12700000000E+01 0. -1.
         25    2    1    2    0    0  0.00000000000E+00  0.00000000000E+00 -0.84826697049E+02  0.15106669709E+03  0.12500231373E+03 0.  0.
    9000005    1    3    3    0    0  0.43070652749E+02  0.15609344727E+02 -0.93780929933E+02  0.10437717945E+03  0.10000000000E+01 0.  0.
    9000005    1    3    3    0    0 -0.43070652749E+02 -0.15609344727E+02  0.89542328837E+01  0.46689517641E+02  0.10000000000E+01 0.  0.
<mgrwt>
<rscale>  0 0.12500231E+03</rscale>
<asrwt>0</asrwt>
<pdfrwt beam="2">  1        4 0.18145646E-01 0.12500231E+03</pdfrwt>
<pdfrwt beam="1">  1       -4 0.50953847E-02 0.12500231E+03</pdfrwt>
<totfact> 0.99086333E+03</totfact>
</mgrwt>
</event>
<event>
 5    1  0.3245943E-002  0.1250042E+03  0.7818608E-02  0.1235063E+00
         -4   -1    0    0    0  501 -0.00000000000E+00  0.00000000000E+00  0.91143952113E+02  0.91152799775E+02  0.12700000000E+01 0. -1.
          4   -1    0    0  501    0  0.00000000000E+00 -0.00000000000E+00 -0.42840559971E+02  0.42859380288E+02  0.12700000000E+01 0. -1.
         25    2    1    2    0    0  0.00000000000E+00  0.00000000000E+00  0.48303392142E+02  0.13401218006E+03  0.12500418678E+03 0.  0.
    9000005    1    3    3    0    0  0.37956756903E+01 -0.52418278932E+02 -0.12099657783E+02  0.53939640698E+02  0.10000000000E+01 0.  0.
    9000005    1    3    3    0    0 -0.37956756903E+01  0.52418278932E+02  0.60403049925E+02  0.80072539365E+02  0.10000000000E+01 0.  0.
<mgrwt>
<rscale>  0 0.12500419E+03</rscale>
<asrwt>0</asrwt>
<pdfrwt beam="2">  1        4 0.65929838E-02 0.12500419E+03</pdfrwt>
<pdfrwt beam="1">  1       -4 0.14024275E-01 0.12500419E+03</pdfrwt>
<totfact> 0.10257965E+04</totfact>
</mgrwt>
</event>
<event>
 5    1  0.3245943E-002  0.1250093E+03  0.7818608E-02  0.1235055E+00
          4   -1    0    0  501    0  0.00000000000E+00  0.00000000000E+00  0.19328129235E+03  0.19328546472E+03  0.12700000000E+01 0. -1.
         -4   -1    0    0    0  501 -0.00000000000E+00 -0.00000000000E+00 -0.20188855064E+02  0.20228760930E+02  0.12700000000E+01 0. -1.
         25    2    1    2    0    0  0.00000000000E+00  0.00000000000E+00  0.17309243729E+03  0.21351422565E+03  0.12500933049E+03 0.  0.
    9000005    1    3    3    0    0 -0.53042090124E+02  0.20979884442E+02  0.42926832916E+02  0.71395601127E+02  0.10000000000E+01 0.  0.
    9000005    1    3    3    0    0  0.53042090124E+02 -0.20979884442E+02  0.13016560437E+03  0.14211862453E+03  0.10000000000E+01 0.  0.
<mgrwt>
<rscale>  0 0.12500933E+03</rscale>
<asrwt>0</asrwt>
<pdfrwt beam="1">  1        4 0.29738974E-01 0.12500933E+03</pdfrwt>
<pdfrwt beam="2">  1       -4 0.31093684E-02 0.12500933E+03</pdfrwt>
<totfact> 0.87886830E+03</totfact>
</mgrwt>
</event>
<event>
 5    1  0.3245943E-002  0.1250018E+03  0.7818608E-02  0.1235066E+00
          4   -1    0    0  501    0  0.00000000000E+00  0.00000000000E+00  0.26332457416E+04  0.26332460478E+04  0.12700000000E+01 0. -1.
         -4   -1    0    0    0  501 -0.00000000000E+00 -0.00000000000E+00 -0.12113058344E+01  0.17550389809E+01  0.12700000000E+01 0. -1.
         25    2    1    2    0    0  0.00000000000E+00  0.00000000000E+00  0.26320344357E+04  0.26350010868E+04  0.12500182631E+03 0.  0.
    9000005    1    3    3    0    0 -0.29068701627E+02  0.37641265454E+02  0.21705930336E+04  0.21711142235E+04  0.10000000000E+01 0.  0.
    9000005    1    3    3    0    0  0.29068701627E+02 -0.37641265454E+02  0.46144140219E+03  0.46388686329E+03  0.10000000000E+01 0.  0.
<mgrwt>
<rscale>  0 0.12500183E+03</rscale>
<asrwt>0</asrwt>
<pdfrwt beam="1">  1        4 0.40515117E+00 0.12500183E+03</pdfrwt>
<pdfrwt beam="2">  1       -4 0.22820697E-03 0.12500183E+03</pdfrwt>
<totfact> 0.36935322E+02</totfact>
</mgrwt>
</event>
<event>
 5    1  0.3245943E-002  0.1250000E+03  0.7818608E-02  0.1235069E+00
         -4   -1    0    0    0  501 -0.00000000000E+00  0.00000000000E+00  0.33541010799E+02  0.33565045887E+02  0.12700000000E+01 0.  1.
          4   -1    0    0  501    0  0.00000000000E+00 -0.00000000000E+00 -0.11639267916E+03  0.11639960766E+03  0.12700000000E+01 0.  1.
         25    2    1    2    0    0  0.00000000000E+00  0.00000000000E+00 -0.82851668364E+02  0.14996465354E+03  0.12499999345E+03 0.  0.
    9000005    1    3    3    0    0  0.52012026215E+01  0.17236234431E+02  0.30368092429E+02  0.35318002829E+02  0.10000000000E+01 0.  0.
    9000005    1    3    3    0    0 -0.52012026215E+01 -0.17236234431E+02 -0.11321976079E+03  0.11464665071E+03  0.10000000000E+01 0.  0.
<mgrwt>
<rscale>  0 0.12499999E+03</rscale>
<asrwt>0</asrwt>
<pdfrwt beam="2">  1        4 0.17908948E-01 0.12499999E+03</pdfrwt>
<pdfrwt beam="1">  1       -4 0.51625374E-02 0.12499999E+03</pdfrwt>
<totfact> 0.99310759E+03</totfact>
</mgrwt>
</event>
<event>
 5    1  0.3245943E-002  0.1250007E+03  0.7818608E-02  0.1235068E+00
          4   -1    0    0  501    0  0.00000000000E+00  0.00000000000E+00  0.53107968029E+03  0.53108119880E+03  0.12700000000E+01 0.  1.
         -4   -1    0    0    0  501 -0.00000000000E+00 -0.00000000000E+00 -0.72990231094E+01  0.74086866820E+01  0.12700000000E+01 0.  1.
         25    2    1    2    0    0  0.00000000000E+00  0.00000000000E+00  0.52378065718E+03  0.53848988548E+03  0.12500071971E+03 0.  0.
    9000005    1    3    3    0    0  0.14785071495E+02 -0.25305785310E+02  0.49965775712E+03  0.50051758746E+03  0.10000000000E+01 0.  0.
    9000005    1    3    3    0    0 -0.14785071495E+02  0.25305785310E+02  0.24122900056E+02  0.37972298013E+02  0.10000000000E+01 0.  0.
<mgrwt>
<rscale>  0 0.12500072E+03</rscale>
<asrwt>0</asrwt>
<pdfrwt beam="1">  1        4 0.81713140E-01 0.12500072E+03</pdfrwt>
<pdfrwt beam="2">  1       -4 0.11314788E-02 0.12500072E+03</pdfrwt>
<totfact> 0.52996140E+03</totfact>
</mgrwt>
</event>
<event>
 5    1  0.3245943E-002  0.1249992E+03  0.7818608E-02  0.1235070E+00
          4   -1    0    0  501    0  0.00000000000E+00  0.00000000000E+00  0.16524255518E+03  0.16524743551E+03  0.12700000000E+01 0. -1.
         -4   -1    0    0    0  501 -0.00000000000E+00 -0.00000000000E+00 -0.23616908160E+02  0.23651030655E+02  0.12700000000E+01 0. -1.
         25    2    1    2    0    0  0.00000000000E+00  0.00000000000E+00  0.14162564702E+03  0.18889846617E+03  0.12499922650E+03 0.  0.
    9000005    1    3    3    0    0 -0.15775438175E+02  0.61772275638E+01 -0.20087647640E+02  0.26297075459E+02  0.10000000000E+01 0.  0.
    9000005    1    3    3    0    0  0.15775438175E+02 -0.61772275638E+01  0.16171329466E+03  0.16260139071E+03  0.10000000000E+01 0.  0.
<mgrwt>
<rscale>  0 0.12499923E+03</rscale>
<asrwt>0</asrwt>
<pdfrwt beam="1">  1        4 0.25424931E-01 0.12499923E+03</pdfrwt>
<pdfrwt beam="2">  1       -4 0.36363708E-02 0.12499923E+03</pdfrwt>
<totfact> 0.92040927E+03</totfact>
</mgrwt>
</event>
<event>
 5    1  0.3245943E-002  0.1250029E+03  0.7818608E-02  0.1235065E+00
         -4   -1    0    0    0  501 -0.00000000000E+00  0.00000000000E+00  0.75435374325E+02  0.75446064175E+02  0.12700000000E+01 0. -1.
          4   -1    0    0  501    0  0.00000000000E+00 -0.00000000000E+00 -0.51762993044E+02  0.51778570364E+02  0.12700000000E+01 0. -1.
         25    2    1    2    0    0  0.00000000000E+00  0.00000000000E+00  0.23672381280E+02  0.12722463454E+03  0.12500290396E+03 0.  0.
    9000005    1    3    3    0    0  0.47322515574E+01 -0.60659589679E+02 -0.26809649282E+01  0.60911145103E+02  0.10000000000E+01 0.  0.
    9000005    1    3    3    0    0 -0.47322515574E+01  0.60659589679E+02  0.26353346208E+02  0.66313489436E+02  0.10000000000E+01 0.  0.
<mgrwt>
<rscale>  0 0.12500290E+03</rscale>
<asrwt>0</asrwt>
<pdfrwt beam="2">  1        4 0.79655580E-02 0.12500290E+03</pdfrwt>
<pdfrwt beam="1">  1       -4 0.11607463E-01 0.12500290E+03</pdfrwt>
<totfact> 0.10403587E+04</totfact>
</mgrwt>
</event>
<event>
 5    1  0.3245943E-002  0.1249902E+03  0.7818608E-02  0.1235085E+00
          4   -1    0    0  501    0  0.00000000000E+00  0.00000000000E+00  0.81481975546E+02  0.81491872226E+02  0.12700000000E+01 0. -1.
         -4   -1    0    0    0  501 -0.00000000000E+00 -0.00000000000E+00 -0.47911329799E+02  0.47928158979E+02  0.12700000000E+01 0. -1.
         25    2    1    2    0    0  0.00000000000E+00  0.00000000000E+00  0.33570645747E+02  0.12942003120E+03  0.12499022450E+03 0.  0.
    9000005    1    3    3    0    0  0.46760884353E+01  0.30598626177E+02  0.72990779166E+02  0.79289315612E+02  0.10000000000E+01 0.  0.
    9000005    1    3    3    0    0 -0.46760884353E+01 -0.30598626177E+02 -0.39420133419E+02  0.50130715592E+02  0.10000000000E+01 0.  0.
<mgrwt>
<rscale>  0 0.12499022E+03</rscale>
<asrwt>0</asrwt>
<pdfrwt beam="1">  1        4 0.12537744E-01 0.12499022E+03</pdfrwt>
<pdfrwt beam="2">  1       -4 0.73730297E-02 0.12499022E+03</pdfrwt>
<totfact> 0.10359216E+04</totfact>
</mgrwt>
</event>
<event>
 5    1  0.3245943E-002  0.1249983E+03  0.7818608E-02  0.1235072E+00
         -4   -1    0    0    0  501 -0.00000000000E+00  0.00000000000E+00  0.37865693023E+02  0.37886984679E+02  0.12700000000E+01 0.  1.
          4   -1    0    0  501    0  0.00000000000E+00 -0.00000000000E+00 -0.10310365806E+03  0.10311147951E+03  0.12700000000E+01 0.  1.
         25    2    1    2    0    0  0.00000000000E+00  0.00000000000E+00 -0.65237965040E+02  0.14099846419E+03  0.12499829927E+03 0.  0.
    9000005    1    3    3    0    0 -0.21594220122E+02  0.55194494365E+02 -0.10274236835E+02  0.60160639071E+02  0.10000000000E+01 0.  0.
    9000005    1    3    3    0    0  0.21594220122E+02 -0.55194494365E+02 -0.54963728205E+02  0.80837825114E+02  0.10000000000E+01 0.  0.
<mgrwt>
<rscale>  0 0.12499830E+03</rscale>
<asrwt>0</asrwt>
<pdfrwt beam="2">  1        4 0.15864341E-01 0.12499830E+03</pdfrwt>
<pdfrwt beam="1">  1       -4 0.58277307E-02 0.12499830E+03</pdfrwt>
<totfact> 0.10113321E+04</totfact>
</mgrwt>
</event>
<event>
 5    1  0.3245943E-002  0.1250010E+03  0.7818608E-02  0.1235068E+00
          4   -1    0    0  501    0  0.00000000000E+00  0.00000000000E+00  0.37372956720E+02  0.37394528931E+02  0.12700000000E+01 0. -1.
         -4   -1    0    0    0  501 -0.00000000000E+00 -0.00000000000E+00 -0.10446692800E+03  0.10447464738E+03  0.12700000000E+01 0. -1.
         25    2    1    2    0    0  0.00000000000E+00  0.00000000000E+00 -0.67093971278E+02  0.14186917631E+03  0.12500104882E+03 0.  0.
    9000005    1    3    3    0    0 -0.17295172194E+01  0.58235709736E+02 -0.59200896195E+02  0.83067052605E+02  0.10000000000E+01 0.  0.
    9000005    1    3    3    0    0  0.17295172194E+01 -0.58235709736E+02 -0.78930750833E+01  0.58802123707E+02  0.10000000000E+01 0.  0.
<mgrwt>
<rscale>  0 0.12500105E+03</rscale>
<asrwt>0</asrwt>
<pdfrwt beam="1">  1        4 0.57519389E-02 0.12500105E+03</pdfrwt>
<pdfrwt beam="2">  1       -4 0.16074088E-01 0.12500105E+03</pdfrwt>
<totfact> 0.10094754E+04</totfact>
</mgrwt>
</event>
<event>
 5    1  0.3245943E-002  0.1250006E+03  0.7818608E-02  0.1235068E+00
         -4   -1    0    0    0  501 -0.00000000000E+00  0.00000000000E+00  0.30037918422E+03  0.30038186898E+03  0.12700000000E+01 0. -1.
          4   -1    0    0  501    0  0.00000000000E+00 -0.00000000000E+00 -0.12970764264E+02  0.13032790400E+02  0.12700000000E+01 0. -1.
         25    2    1    2    0    0  0.00000000000E+00  0.00000000000E+00  0.28740841996E+03  0.31341465938E+03  0.12500059541E+03 0.  0.
    9000005    1    3    3    0    0  0.32122987697E+02  0.37508567446E+02  0.47686912416E+02  0.68657268997E+02  0.10000000000E+01 0.  0.
    9000005    1    3    3    0    0 -0.32122987697E+02 -0.37508567446E+02  0.23972150754E+03  0.24475739039E+03  0.10000000000E+01 0.  0.
<mgrwt>
<rscale>  0 0.12500060E+03</rscale>
<asrwt>0</asrwt>
<pdfrwt beam="2">  1        4 0.20004799E-02 0.12500060E+03</pdfrwt>
<pdfrwt beam="1">  1       -4 0.46217161E-01 0.12500060E+03</pdfrwt>
<totfact> 0.73945292E+03</totfact>
</mgrwt>
</event>
<event>
 5    1  0.3245943E-002  0.1250276E+03  0.7818608E-02  0.1235026E+00
         -4   -1    0    0    0  501 -0.00000000000E+00  0.00000000000E+00  0.13701696588E+03  0.13702285152E+03  0.12700000000E+01 0. -1.
          4   -1    0    0  501    0  0.00000000000E+00 -0.00000000000E+00 -0.28501204624E+02  0.28529485887E+02  0.12700000000E+01 0. -1.
         25    2    1    2    0    0  0.00000000000E+00  0.00000000000E+00  0.10851576126E+03  0.16555233741E+03  0.12502762087E+03 0.  0.
    9000005    1    3    3    0    0  0.30568485426E+02  0.50016800636E+02  0.82990619339E+02  0.10160982012E+03  0.10000000000E+01 0.  0.
    9000005    1    3    3    0    0 -0.30568485426E+02 -0.50016800636E+02  0.25525141919E+02  0.63942517288E+02  0.10000000000E+01 0.  0.
<mgrwt>
<rscale>  0 0.12502762E+03</rscale>
<asrwt>0</asrwt>
<pdfrwt beam="2">  1        4 0.43874290E-02 0.12502762E+03</pdfrwt>
<pdfrwt beam="1">  1       -4 0.21082161E-01 0.12502762E+03</pdfrwt>
<totfact> 0.96223176E+03</totfact>
</mgrwt>
</event>
<event>
 5    1  0.3245943E-002  0.1249993E+03  0.7818608E-02  0.1235070E+00
          4   -1    0    0  501    0  0.00000000000E+00  0.00000000000E+00  0.26908966565E+02  0.26938919459E+02  0.12700000000E+01 0. -1.
         -4   -1    0    0    0  501 -0.00000000000E+00 -0.00000000000E+00 -0.14505026079E+03  0.14505582048E+03  0.12700000000E+01 0. -1.
         25    2    1    2    0    0  0.00000000000E+00  0.00000000000E+00 -0.11814129422E+03  0.17199473994E+03  0.12499930066E+03 0.  0.
    9000005    1    3    3    0    0  0.25477199317E+02 -0.31547035968E+02  0.63550802151E+01  0.41057157816E+02  0.10000000000E+01 0.  0.
    9000005    1    3    3    0    0 -0.25477199317E+02  0.31547035968E+02 -0.12449637444E+03  0.13093758212E+03  0.10000000000E+01 0.  0.
<mgrwt>
<rscale>  0 0.12499930E+03</rscale>
<asrwt>0</asrwt>
<pdfrwt beam="1">  1        4 0.41425728E-02 0.12499930E+03</pdfrwt>
<pdfrwt beam="2">  1       -4 0.22318156E-01 0.12499930E+03</pdfrwt>
<totfact> 0.95079639E+03</totfact>
</mgrwt>
</event>
<event>
 5    1  0.3245943E-002  0.1250053E+03  0.7818608E-02  0.1235061E+00
         -4   -1    0    0    0  501 -0.00000000000E+00  0.00000000000E+00  0.14584538661E+03  0.14585091599E+03  0.12700000000E+01 0. -1.
          4   -1    0    0  501    0  0.00000000000E+00 -0.00000000000E+00 -0.26764661979E+02  0.26794776186E+02  0.12700000000E+01 0. -1.
         25    2    1    2    0    0  0.00000000000E+00  0.00000000000E+00  0.11908072463E+03  0.17264569217E+03  0.12500526408E+03 0.  0.
    9000005    1    3    3    0    0  0.35537286984E+02  0.49419727430E+02  0.79090267074E+02  0.99807207011E+02  0.10000000000E+01 0.  0.
    9000005    1    3    3    0    0 -0.35537286984E+02 -0.49419727430E+02  0.39990457553E+02  0.72838485162E+02  0.10000000000E+01 0.  0.
<mgrwt>
<rscale>  0 0.12500526E+03</rscale>
<asrwt>0</asrwt>
<pdfrwt beam="2">  1        4 0.41203821E-02 0.12500526E+03</pdfrwt>
<pdfrwt beam="1">  1       -4 0.22440494E-01 0.12500526E+03</pdfrwt>
<totfact> 0.94946588E+03</totfact>
</mgrwt>
</event>
<event>
 5    1  0.3245943E-002  0.1249988E+03  0.7818608E-02  0.1235071E+00
          4   -1    0    0  501    0  0.00000000000E+00  0.00000000000E+00  0.10189998956E+03  0.10190790339E+03  0.12700000000E+01 0. -1.
         -4   -1    0    0    0  501 -0.00000000000E+00 -0.00000000000E+00 -0.38313487275E+02  0.38334530219E+02  0.12700000000E+01 0. -1.
         25    2    1    2    0    0  0.00000000000E+00  0.00000000000E+00  0.63586502286E+02  0.14024243361E+03  0.12499878764E+03 0.  0.
    9000005    1    3    3    0    0 -0.61808378362E+02  0.88026262912E+01  0.28738667952E+02  0.68736256088E+02  0.10000000000E+01 0.  0.
    9000005    1    3    3    0    0  0.61808378362E+02 -0.88026262912E+01  0.34847834334E+02  0.71506177517E+02  0.10000000000E+01 0.  0.
<mgrwt>
<rscale>  0 0.12499879E+03</rscale>
<asrwt>0</asrwt>
<pdfrwt beam="1">  1        4 0.15679149E-01 0.12499879E+03</pdfrwt>
<pdfrwt beam="2">  1       -4 0.58966101E-02 0.12499879E+03</pdfrwt>
<totfact> 0.10128840E+04</totfact>
</mgrwt>
</event>
<event>
 5    1  0.3245943E-002  0.1249992E+03  0.7818608E-02  0.1235071E+00
          4   -1    0    0  501    0  0.00000000000E+00  0.00000000000E+00  0.44865096533E+02  0.44883067931E+02  0.12700000000E+01 0.  1.
         -4   -1    0    0    0  501 -0.00000000000E+00 -0.00000000000E+00 -0.87025365544E+02  0.87034631889E+02  0.12700000000E+01 0.  1.
         25    2    1    2    0    0  0.00000000000E+00  0.00000000000E+00 -0.42160269011E+02  0.13191769982E+03  0.12499916497E+03 0.  0.
    9000005    1    3    3    0    0 -0.12789915022E+02  0.56264884651E+02  0.42455646397E+01  0.57864876999E+02  0.10000000000E+01 0.  0.
    9000005    1    3    3    0    0  0.12789915022E+02 -0.56264884651E+02 -0.46405833651E+02  0.74052822821E+02  0.10000000000E+01 0.  0.
<mgrwt>
<rscale>  0 0.12499916E+03</rscale>
<asrwt>0</asrwt>
<pdfrwt beam="1">  1        4 0.69044178E-02 0.12499916E+03</pdfrwt>
<pdfrwt beam="2">  1       -4 0.13390613E-01 0.12499916E+03</pdfrwt>
<totfact> 0.10303649E+04</totfact>
</mgrwt>
</event>
<event>
 5    1  0.3245943E-002  0.1250151E+03  0.7818608E-02  0.1235046E+00
          4   -1    0    0  501    0  0.00000000000E+00  0.00000000000E+00  0.54089939314E+03  0.54090088409E+03  0.12700000000E+01 0. -1.
         -4   -1    0    0    0  501 -0.00000000000E+00 -0.00000000000E+00 -0.71661824875E+01  0.72778479954E+01  0.12700000000E+01 0. -1.
         25    2    1    2    0    0  0.00000000000E+00  0.00000000000E+00  0.53373321066E+03  0.54817873208E+03  0.12501512767E+03 0.  0.
    9000005    1    3    3    0    0 -0.13462276774E+02 -0.42841334648E+02  0.45747523704E+03  0.45967510848E+03  0.10000000000E+01 0.  0.
    9000005    1    3    3    0    0  0.13462276774E+02  0.42841334648E+02  0.76257973615E+02  0.88503623599E+02  0.10000000000E+01 0.  0.
<mgrwt>
<rscale>  0 0.12501513E+03</rscale>
<asrwt>0</asrwt>
<pdfrwt beam="1">  1        4 0.83223957E-01 0.12501513E+03</pdfrwt>
<pdfrwt beam="2">  1       -4 0.11111945E-02 0.12501513E+03</pdfrwt>
<totfact> 0.52293754E+03</totfact>
</mgrwt>
</event>
<event>
 5    1  0.3245943E-002  0.1249963E+03  0.7818608E-02  0.1235075E+00
         -4   -1    0    0    0  501 -0.00000000000E+00  0.00000000000E+00  0.61230131728E+01  0.62533343357E+01  0.12700000000E+01 0.  1.
          4   -1    0    0  501    0  0.00000000000E+00 -0.00000000000E+00 -0.63107628094E+03  0.63107755883E+03  0.12700000000E+01 0.  1.
         25    2    1    2    0    0  0.00000000000E+00  0.00000000000E+00 -0.62495326776E+03  0.63733089317E+03  0.12499632193E+03 0.  0.
    9000005    1    3    3    0    0 -0.61453102269E+02  0.10328605885E+01 -0.25490998431E+03  0.26221680092E+03  0.10000000000E+01 0.  0.
    9000005    1    3    3    0    0  0.61453102269E+02 -0.10328605885E+01 -0.37004328345E+03  0.37511409225E+03  0.10000000000E+01 0.  0.
<mgrwt>
<rscale>  0 0.12499632E+03</rscale>
<asrwt>0</asrwt>
<pdfrwt beam="2">  1        4 0.97098731E-01 0.12499632E+03</pdfrwt>
<pdfrwt beam="1">  1       -4 0.95212553E-03 0.12499632E+03</pdfrwt>
<totfact> 0.46596647E+03</totfact>
</mgrwt>
</event>
<event>
 5    1  0.3245943E-002  0.1250008E+03  0.7818608E-02  0.1235068E+00
         -4   -1    0    0    0  501 -0.00000000000E+00  0.00000000000E+00  0.36806563621E+03  0.36806782725E+03  0.12700000000E+01 0. -1.
          4   -1    0    0  501    0  0.00000000000E+00 -0.00000000000E+00 -0.10572834414E+02  0.10648836910E+02  0.12700000000E+01 0. -1.
         25    2    1    2    0    0  0.00000000000E+00  0.00000000000E+00  0.35749280179E+03  0.37871666416E+03  0.12500083351E+03 0.  0.
    9000005    1    3    3    0    0 -0.36823363764E+02  0.36381697181E+02  0.28481726207E+03  0.28948481961E+03  0.10000000000E+01 0.  0.
    9000005    1    3    3    0    0  0.36823363764E+02 -0.36381697181E+02  0.72675539722E+02  0.89231844555E+02  0.10000000000E+01 0.  0.
<mgrwt>
<rscale>  0 0.12500083E+03</rscale>
<asrwt>0</asrwt>
<pdfrwt beam="2">  1        4 0.16326050E-02 0.12500083E+03</pdfrwt>
<pdfrwt beam="1">  1       -4 0.56631491E-01 0.12500083E+03</pdfrwt>
<totfact> 0.66675538E+03</totfact>
</mgrwt>
</event>
<event>
 5    1  0.3245943E-002  0.1249971E+03  0.7818608E-02  0.1235074E+00
         -4   -1    0    0    0  501 -0.00000000000E+00  0.00000000000E+00  0.31414247514E+02  0.31439908506E+02  0.12700000000E+01 0. -1.
          4   -1    0    0  501    0  0.00000000000E+00 -0.00000000000E+00 -0.12426090667E+03  0.12426739648E+03  0.12700000000E+01 0. -1.
         25    2    1    2    0    0  0.00000000000E+00  0.00000000000E+00 -0.92846659159E+02  0.15570730498E+03  0.12499705080E+03 0.  0.
    9000005    1    3    3    0    0  0.53579621750E+02 -0.29551168120E+02 -0.62230233141E+02  0.87279145968E+02  0.10000000000E+01 0.  0.
    9000005    1    3    3    0    0 -0.53579621750E+02  0.29551168120E+02 -0.30616426019E+02  0.68428159016E+02  0.10000000000E+01 0.  0.
<mgrwt>
<rscale>  0 0.12499705E+03</rscale>
<asrwt>0</asrwt>
<pdfrwt beam="2">  1        4 0.19119535E-01 0.12499705E+03</pdfrwt>
<pdfrwt beam="1">  1       -4 0.48354344E-02 0.12499705E+03</pdfrwt>
<totfact> 0.98183336E+03</totfact>
</mgrwt>
</event>
<event>
 5    1  0.3245943E-002  0.1250013E+03  0.7818608E-02  0.1235067E+00
          4   -1    0    0  501    0  0.00000000000E+00  0.00000000000E+00  0.17249875360E+03  0.17250342864E+03  0.12700000000E+01 0. -1.
         -4   -1    0    0    0  501 -0.00000000000E+00 -0.00000000000E+00 -0.22622761066E+02  0.22658380751E+02  0.12700000000E+01 0. -1.
         25    2    1    2    0    0  0.00000000000E+00  0.00000000000E+00  0.14987599253E+03  0.19516180939E+03  0.12500127482E+03 0.  0.
    9000005    1    3    3    0    0  0.34816803239E+02  0.20702560134E+02  0.64141207853E+00  0.40524279060E+02  0.10000000000E+01 0.  0.
    9000005    1    3    3    0    0 -0.34816803239E+02 -0.20702560134E+02  0.14923458045E+03  0.15463753033E+03  0.10000000000E+01 0.  0.
<mgrwt>
<rscale>  0 0.12500127E+03</rscale>
<asrwt>0</asrwt>
<pdfrwt beam="1">  1        4 0.26541369E-01 0.12500127E+03</pdfrwt>
<pdfrwt beam="2">  1       -4 0.34835245E-02 0.12500127E+03</pdfrwt>
<totfact> 0.90954257E+03</totfact>
</mgrwt>
</event>
<event>
 5    1  0.3245943E-002  0.1249992E+03  0.7818608E-02  0.1235071E+00
          4   -1    0    0  501    0  0.00000000000E+00  0.00000000000E+00  0.63224662120E+02  0.63237416141E+02  0.12700000000E+01 0. -1.
         -4   -1    0    0    0  501 -0.00000000000E+00 -0.00000000000E+00 -0.61757352759E+02  0.61770409743E+02  0.12700000000E+01 0. -1.
         25    2    1    2    0    0  0.00000000000E+00  0.00000000000E+00  0.14673093614E+01  0.12500782588E+03  0.12499921414E+03 0.  0.
    9000005    1    3    3    0    0  0.51133863320E+01 -0.62274110994E+02  0.17283407047E+01  0.62515588308E+02  0.10000000000E+01 0.  0.
    9000005    1    3    3    0    0 -0.51133863320E+01  0.62274110994E+02 -0.26103134334E+00  0.62492237576E+02  0.10000000000E+01 0.  0.
<mgrwt>
<rscale>  0 0.12499921E+03</rscale>
<asrwt>0</asrwt>
<pdfrwt beam="1">  1        4 0.97288566E-02 0.12499921E+03</pdfrwt>
<pdfrwt beam="2">  1       -4 0.95031166E-02 0.12499921E+03</pdfrwt>
<totfact> 0.10452878E+04</totfact>
</mgrwt>
</event>
<event>
 5    1  0.3245943E-002  0.1249992E+03  0.7818608E-02  0.1235070E+00
          4   -1    0    0  501    0  0.00000000000E+00  0.00000000000E+00  0.21141557861E+03  0.21141939310E+03  0.12700000000E+01 0.  1.
         -4   -1    0    0    0  501 -0.00000000000E+00 -0.00000000000E+00 -0.18450605129E+02  0.18494262073E+02  0.12700000000E+01 0.  1.
         25    2    1    2    0    0  0.00000000000E+00  0.00000000000E+00  0.19296497348E+03  0.22991365517E+03  0.12499923138E+03 0.  0.
    9000005    1    3    3    0    0 -0.61630584116E+02  0.10274003310E+02  0.98594038539E+02  0.11672903871E+03  0.10000000000E+01 0.  0.
    9000005    1    3    3    0    0  0.61630584116E+02 -0.10274003310E+02  0.94370934938E+02  0.11318461646E+03  0.10000000000E+01 0.  0.
<mgrwt>
<rscale>  0 0.12499923E+03</rscale>
<asrwt>0</asrwt>
<pdfrwt beam="1">  1        4 0.32529124E-01 0.12499923E+03</pdfrwt>
<pdfrwt beam="2">  1       -4 0.28422064E-02 0.12499923E+03</pdfrwt>
<totfact> 0.85324320E+03</totfact>
</mgrwt>
</event>
<event>
 5    1  0.3245943E-002  0.1250055E+03  0.7818608E-02  0.1235061E+00
         -4   -1    0    0    0  501 -0.00000000000E+00  0.00000000000E+00  0.69996544130E+01  0.71139343476E+01  0.12700000000E+01 0. -1.
          4   -1    0    0  501    0  0.00000000000E+00 -0.00000000000E+00 -0.55347863922E+03  0.55348009628E+03  0.12700000000E+01 0. -1.
         25    2    1    2    0    0  0.00000000000E+00  0.00000000000E+00 -0.54647898481E+03  0.56059403062E+03  0.12500554521E+03 0.  0.
    9000005    1    3    3    0    0  0.33268235433E+02  0.30236607439E+02 -0.46792121182E+03  0.47007689625E+03  0.10000000000E+01 0.  0.
    9000005    1    3    3    0    0 -0.33268235433E+02 -0.30236607439E+02 -0.78557772990E+02  0.90517134374E+02  0.10000000000E+01 0.  0.
<mgrwt>
<rscale>  0 0.12500555E+03</rscale>
<asrwt>0</asrwt>
<pdfrwt beam="2">  1        4 0.85159428E-01 0.12500555E+03</pdfrwt>
<pdfrwt beam="1">  1       -4 0.10857732E-02 0.12500555E+03</pdfrwt>
<totfact> 0.51447162E+03</totfact>
</mgrwt>
</event>
<event>
 5    1  0.3245943E-002  0.1249926E+03  0.7818608E-02  0.1235081E+00
          4   -1    0    0  501    0  0.00000000000E+00  0.00000000000E+00  0.92715341826E+02  0.92724039547E+02  0.12700000000E+01 0. -1.
         -4   -1    0    0    0  501 -0.00000000000E+00 -0.00000000000E+00 -0.42106429056E+02  0.42125577359E+02  0.12700000000E+01 0. -1.
         25    2    1    2    0    0  0.00000000000E+00  0.00000000000E+00  0.50608912770E+02  0.13484961691E+03  0.12499262829E+03 0.  0.
    9000005    1    3    3    0    0 -0.52703100057E+02  0.18478285669E+02  0.55545775888E+02  0.78774342370E+02  0.10000000000E+01 0.  0.
    9000005    1    3    3    0    0  0.52703100057E+02 -0.18478285669E+02 -0.49368631181E+01  0.56075274536E+02  0.10000000000E+01 0.  0.
<mgrwt>
<rscale>  0 0.12499263E+03</rscale>
<asrwt>0</asrwt>
<pdfrwt beam="1">  1        4 0.14266041E-01 0.12499263E+03</pdfrwt>
<pdfrwt beam="2">  1       -4 0.64800542E-02 0.12499263E+03</pdfrwt>
<totfact> 0.10242944E+04</totfact>
</mgrwt>
</event>
<event>
 5    1  0.3245943E-002  0.1250031E+03  0.7818608E-02  0.1235064E+00
         -4   -1    0    0    0  501 -0.00000000000E+00  0.00000000000E+00  0.39808023578E+02  0.39828276905E+02  0.12700000000E+01 0.  1.
          4   -1    0    0  501    0  0.00000000000E+00 -0.00000000000E+00 -0.98082825846E+02  0.98091047634E+02  0.12700000000E+01 0.  1.
         25    2    1    2    0    0  0.00000000000E+00  0.00000000000E+00 -0.58274802267E+02  0.13791932454E+03  0.12500314997E+03 0.  0.
    9000005    1    3    3    0    0  0.44907234462E+02 -0.43223226431E+02 -0.24137021701E+02  0.66846861009E+02  0.10000000000E+01 0.  0.
    9000005    1    3    3    0    0 -0.44907234462E+02  0.43223226431E+02 -0.34137780566E+02  0.71072463529E+02  0.10000000000E+01 0.  0.
<mgrwt>
<rscale>  0 0.12500315E+03</rscale>
<asrwt>0</asrwt>
<pdfrwt beam="2">  1        4 0.15091856E-01 0.12500315E+03</pdfrwt>
<pdfrwt beam="1">  1       -4 0.61265017E-02 0.12500315E+03</pdfrwt>
<totfact> 0.10176170E+04</totfact>
</mgrwt>
</event>
<event>
 5    1  0.3245943E-002  0.1249981E+03  0.7818608E-02  0.1235072E+00
         -4   -1    0    0    0  501 -0.00000000000E+00  0.00000000000E+00  0.77619655593E+02  0.77630044663E+02  0.12700000000E+01 0. -1.
          4   -1    0    0  501    0  0.00000000000E+00 -0.00000000000E+00 -0.50302249131E+02  0.50318278663E+02  0.12700000000E+01 0. -1.
         25    2    1    2    0    0  0.00000000000E+00  0.00000000000E+00  0.27317406462E+02  0.12794832333E+03  0.12499813097E+03 0.  0.
    9000005    1    3    3    0    0  0.31212854339E+02  0.27454511630E+02  0.61419804084E+02  0.74171320728E+02  0.10000000000E+01 0.  0.
    9000005    1    3    3    0    0 -0.31212854339E+02 -0.27454511630E+02 -0.34102397622E+02  0.53777002598E+02  0.10000000000E+01 0.  0.
<mgrwt>
<rscale>  0 0.12499813E+03</rscale>
<asrwt>0</asrwt>
<pdfrwt beam="2">  1        4 0.77408398E-02 0.12499813E+03</pdfrwt>
<pdfrwt beam="1">  1       -4 0.11943518E-01 0.12499813E+03</pdfrwt>
<totfact> 0.10389042E+04</totfact>
</mgrwt>
</event>
<event>
 5    1  0.3245943E-002  0.1250000E+03  0.7818608E-02  0.1235069E+00
         -4   -1    0    0    0  501 -0.00000000000E+00  0.00000000000E+00  0.71079941008E+03  0.71080054465E+03  0.12700000000E+01 0. -1.
          4   -1    0    0  501    0  0.00000000000E+00 -0.00000000000E+00 -0.54210460563E+01  0.55678218672E+01  0.12700000000E+01 0. -1.
         25    2    1    2    0    0  0.00000000000E+00  0.00000000000E+00  0.70537836402E+03  0.71636836651E+03  0.12500000044E+03 0.  0.
    9000005    1    3    3    0    0 -0.10568749515E+02  0.33445465089E+02  0.56284938701E+02  0.66327158283E+02  0.10000000000E+01 0.  0.
    9000005    1    3    3    0    0  0.10568749515E+02 -0.33445465089E+02  0.64909342532E+03  0.65004120823E+03  0.10000000000E+01 0.  0.
<mgrwt>
<rscale>  0 0.12500000E+03</rscale>
<asrwt>0</asrwt>
<pdfrwt beam="2">  1        4 0.84538525E-03 0.12500000E+03</pdfrwt>
<pdfrwt beam="1">  1       -4 0.10936508E+00 0.12500000E+03</pdfrwt>
<totfact> 0.42236616E+03</totfact>
</mgrwt>
</event>
<event>
 5    1  0.3245943E-002  0.1249909E+03  0.7818608E-02  0.1235083E+00
          4   -1    0    0  501    0  0.00000000000E+00  0.00000000000E+00  0.77818612285E+02  0.77828974798E+02  0.12700000000E+01 0.  1.
         -4   -1    0    0    0  501 -0.00000000000E+00 -0.00000000000E+00 -0.50167845564E+02  0.50183918027E+02  0.12700000000E+01 0.  1.
         25    2    1    2    0    0  0.00000000000E+00  0.00000000000E+00  0.27650766721E+02  0.12801289282E+03  0.12499094299E+03 0.  0.
    9000005    1    3    3    0    0 -0.13867992335E+01 -0.38527768621E+02  0.64191295250E+02  0.74885476248E+02  0.10000000000E+01 0.  0.
    9000005    1    3    3    0    0  0.13867992335E+01  0.38527768621E+02 -0.36540528528E+02  0.53127416577E+02  0.10000000000E+01 0.  0.
<mgrwt>
<rscale>  0 0.12499094E+03</rscale>
<asrwt>0</asrwt>
<pdfrwt beam="1">  1        4 0.11974128E-01 0.12499094E+03</pdfrwt>
<pdfrwt beam="2">  1       -4 0.77201635E-02 0.12499094E+03</pdfrwt>
<totfact> 0.10389333E+04</totfact>
</mgrwt>
</event>
<event>
 5    1  0.3245943E-002  0.1249984E+03  0.7818608E-02  0.1235072E+00
          4   -1    0    0  501    0  0.00000000000E+00  0.00000000000E+00  0.37731106802E+02  0.37752474362E+02  0.12700000000E+01 0. -1.
         -4   -1    0    0    0  501 -0.00000000000E+00 -0.00000000000E+00 -0.10347144253E+03  0.10347923617E+03  0.12700000000E+01 0. -1.
         25    2    1    2    0    0  0.00000000000E+00  0.00000000000E+00 -0.65740335724E+02  0.14123171053E+03  0.12499841727E+03 0.  0.
    9000005    1    3    3    0    0  0.45932903415E+02  0.81619025644E+01  0.14107112866E+02  0.48748937456E+02  0.10000000000E+01 0.  0.
    9000005    1    3    3    0    0 -0.45932903415E+02 -0.81619025644E+01 -0.79847448590E+02  0.92482773077E+02  0.10000000000E+01 0.  0.
<mgrwt>
<rscale>  0 0.12499842E+03</rscale>
<asrwt>0</asrwt>
<pdfrwt beam="1">  1        4 0.58070289E-02 0.12499842E+03</pdfrwt>
<pdfrwt beam="2">  1       -4 0.15920927E-01 0.12499842E+03</pdfrwt>
<totfact> 0.10108482E+04</totfact>
</mgrwt>
</event>
<event>
 4    1  0.3245943E-002  0.1251003E+03  0.7818608E-02  0.1234913E+00
         -4   -1    0    0    0  501 -0.00000000000E+00  0.00000000000E+00  0.19539102053E+02  0.19580332200E+02  0.12700000000E+01 0. -1.
          4   -1    0    0  501    0  0.00000000000E+00 -0.00000000000E+00 -0.19998643767E+03  0.19999047015E+03  0.12700000000E+01 0. -1.
    9000005    1    1    2    0    0  0.38688340821E+02 -0.93721056321E+01 -0.17488886833E+03  0.17936482471E+03  0.10000000000E+01 0.  0.
    9000005    1    1    2    0    0 -0.38688340821E+02  0.93721056321E+01 -0.55584672912E+01  0.40205977641E+02  0.10000000000E+01 0.  0.
<mgrwt>
<rscale>  0 0.12510034E+03</rscale>
<asrwt>0</asrwt>
<pdfrwt beam="2">  1        4 0.30770625E-01 0.12510034E+03</pdfrwt>
<pdfrwt beam="1">  1       -4 0.30094976E-02 0.12510034E+03</pdfrwt>
<totfact> 0.86741734E+03</totfact>
</mgrwt>
</event>
<event>
 5    1  0.3245943E-002  0.1250141E+03  0.7818608E-02  0.1235047E+00
         -4   -1    0    0    0  501 -0.00000000000E+00  0.00000000000E+00  0.11763788024E+04  0.11763794879E+04  0.12700000000E+01 0. -1.
          4   -1    0    0  501    0  0.00000000000E+00 -0.00000000000E+00 -0.31992057394E+01  0.34420658569E+01  0.12700000000E+01 0. -1.
         25    2    1    2    0    0  0.00000000000E+00  0.00000000000E+00  0.11731795966E+04  0.11798215538E+04  0.12501413029E+03 0.  0.
    9000005    1    3    3    0    0  0.31110504627E+02 -0.54203650819E+02  0.58202519766E+03  0.58537187323E+03  0.10000000000E+01 0.  0.
    9000005    1    3    3    0    0 -0.31110504627E+02  0.54203650819E+02  0.59115439896E+03  0.59444968052E+03  0.10000000000E+01 0.  0.
<mgrwt>
<rscale>  0 0.12501413E+03</rscale>
<asrwt>0</asrwt>
<pdfrwt beam="2">  1        4 0.51091879E-03 0.12501413E+03</pdfrwt>
<pdfrwt beam="1">  1       -4 0.18100044E+00 0.12501413E+03</pdfrwt>
<totfact> 0.25239271E+03</totfact>
</mgrwt>
</event>
<event>
 5    1  0.3245943E-002  0.1249990E+03  0.7818608E-02  0.1235071E+00
          4   -1    0    0  501    0  0.00000000000E+00  0.00000000000E+00  0.42950864996E+02  0.42969637000E+02  0.12700000000E+01 0.  1.
         -4   -1    0    0    0  501 -0.00000000000E+00 -0.00000000000E+00 -0.90902416716E+02  0.90911287885E+02  0.12700000000E+01 0.  1.
         25    2    1    2    0    0  0.00000000000E+00  0.00000000000E+00 -0.47951551720E+02  0.13388092488E+03  0.12499900294E+03 0.  0.
    9000005    1    3    3    0    0  0.21623026830E+02  0.31912481453E+02  0.28704782420E+02  0.48072094770E+02  0.10000000000E+01 0.  0.
    9000005    1    3    3    0    0 -0.21623026830E+02 -0.31912481453E+02 -0.76656334140E+02  0.85808830115E+02  0.10000000000E+01 0.  0.
<mgrwt>
<rscale>  0 0.12499900E+03</rscale>
<asrwt>0</asrwt>
<pdfrwt beam="1">  1        4 0.66099518E-02 0.12499900E+03</pdfrwt>
<pdfrwt beam="2">  1       -4 0.13987114E-01 0.12499900E+03</pdfrwt>
<totfact> 0.10261943E+04</totfact>
</mgrwt>
</event>
<event>
 5    1  0.3245943E-002  0.1249987E+03  0.7818608E-02  0.1235071E+00
          4   -1    0    0  501    0  0.00000000000E+00  0.00000000000E+00  0.11386978644E+02  0.11457581884E+02  0.12700000000E+01 0. -1.
         -4   -1    0    0    0  501 -0.00000000000E+00 -0.00000000000E+00 -0.34190635780E+03  0.34190871648E+03  0.12700000000E+01 0. -1.
         25    2    1    2    0    0  0.00000000000E+00  0.00000000000E+00 -0.33051937916E+03  0.35336629837E+03  0.12499872328E+03 0.  0.
    9000005    1    3    3    0    0 -0.32725482508E+01 -0.62021440042E+02 -0.18480492044E+03  0.19496468197E+03  0.10000000000E+01 0.  0.
    9000005    1    3    3    0    0  0.32725482508E+01  0.62021440042E+02 -0.14571445872E+03  0.15840161640E+03  0.10000000000E+01 0.  0.
<mgrwt>
<rscale>  0 0.12499872E+03</rscale>
<asrwt>0</asrwt>
<pdfrwt beam="1">  1        4 0.17574556E-02 0.12499872E+03</pdfrwt>
<pdfrwt beam="2">  1       -4 0.52606583E-01 0.12499872E+03</pdfrwt>
<totfact> 0.69357766E+03</totfact>
</mgrwt>
</event>
<event>
 5    1  0.3245943E-002  0.1249878E+03  0.7818608E-02  0.1235088E+00
          4   -1    0    0  501    0  0.00000000000E+00  0.00000000000E+00  0.15837517637E+03  0.15838026831E+03  0.12700000000E+01 0.  1.
         -4   -1    0    0    0  501 -0.00000000000E+00 -0.00000000000E+00 -0.24637864062E+02  0.24670574488E+02  0.12700000000E+01 0.  1.
         25    2    1    2    0    0  0.00000000000E+00  0.00000000000E+00  0.13373731230E+03  0.18305084279E+03  0.12498776878E+03 0.  0.
    9000005    1    3    3    0    0  0.81333385299E+01 -0.57835032546E+02  0.34335747767E+02  0.67756813385E+02  0.10000000000E+01 0.  0.
    9000005    1    3    3    0    0 -0.81333385299E+01  0.57835032546E+02  0.99401564537E+02  0.11529402941E+03  0.10000000000E+01 0.  0.
<mgrwt>
<rscale>  0 0.12498777E+03</rscale>
<asrwt>0</asrwt>
<pdfrwt beam="1">  1        4 0.24368319E-01 0.12498777E+03</pdfrwt>
<pdfrwt beam="2">  1       -4 0.37933486E-02 0.12498777E+03</pdfrwt>
<totfact> 0.93096228E+03</totfact>
</mgrwt>
</event>
<event>
 5    1  0.3245943E-002  0.1250006E+03  0.7818608E-02  0.1235068E+00
         -4   -1    0    0    0  501 -0.00000000000E+00  0.00000000000E+00  0.63211038540E+02  0.63223795309E+02  0.12700000000E+01 0. -1.
          4   -1    0    0  501    0  0.00000000000E+00 -0.00000000000E+00 -0.61772078434E+02  0.61785132306E+02  0.12700000000E+01 0. -1.
         25    2    1    2    0    0  0.00000000000E+00  0.00000000000E+00  0.14389601057E+01  0.12500892761E+03  0.12500064551E+03 0.  0.
    9000005    1    3    3    0    0 -0.56219907076E+02 -0.85266521100E+01  0.26642397252E+02  0.62802858845E+02  0.10000000000E+01 0.  0.
    9000005    1    3    3    0    0  0.56219907076E+02  0.85266521100E+01 -0.25203437147E+02  0.62206068770E+02  0.10000000000E+01 0.  0.
<mgrwt>
<rscale>  0 0.12500065E+03</rscale>
<asrwt>0</asrwt>
<pdfrwt beam="2">  1        4 0.95053821E-02 0.12500065E+03</pdfrwt>
<pdfrwt beam="1">  1       -4 0.97267606E-02 0.12500065E+03</pdfrwt>
<totfact> 0.10452516E+04</totfact>
</mgrwt>
</event>
<event>
 5    1  0.3245943E-002  0.1250028E+03  0.7818608E-02  0.1235065E+00
         -4   -1    0    0    0  501 -0.00000000000E+00  0.00000000000E+00  0.24647573824E+03  0.24647901014E+03  0.12700000000E+01 0. -1.
          4   -1    0    0  501    0  0.00000000000E+00 -0.00000000000E+00 -0.15820297601E+02  0.15871191392E+02  0.12700000000E+01 0. -1.
         25    2    1    2    0    0  0.00000000000E+00  0.00000000000E+00  0.23065544064E+03  0.26235020154E+03  0.12500278377E+03 0.  0.
    9000005    1    3    3    0    0  0.33339455000E+02  0.51494427867E+02  0.90298044479E+02  0.10916928230E+03  0.10000000000E+01 0.  0.
    9000005    1    3    3    0    0 -0.33339455000E+02 -0.51494427867E+02  0.14035739616E+03  0.15318091924E+03  0.10000000000E+01 0.  0.
<mgrwt>
<rscale>  0 0.12500278E+03</rscale>
<asrwt>0</asrwt>
<pdfrwt beam="2">  1        4 0.24380585E-02 0.12500278E+03</pdfrwt>
<pdfrwt beam="1">  1       -4 0.37923511E-01 0.12500278E+03</pdfrwt>
<totfact> 0.80572377E+03</totfact>
</mgrwt>
</event>
<event>
 5    1  0.3245943E-002  0.1250035E+03  0.7818608E-02  0.1235064E+00
          4   -1    0    0  501    0  0.00000000000E+00  0.00000000000E+00  0.62190571352E+02  0.62203537400E+02  0.12700000000E+01 0. -1.
         -4   -1    0    0    0  501 -0.00000000000E+00 -0.00000000000E+00 -0.62788596010E+02  0.62801438589E+02  0.12700000000E+01 0. -1.
         25    2    1    2    0    0  0.00000000000E+00  0.00000000000E+00 -0.59802465728E+00  0.12500497599E+03  0.12500354550E+03 0.  0.
    9000005    1    3    3    0    0 -0.49743905548E+02 -0.33447584288E+02 -0.17970506617E+02  0.62587028544E+02  0.10000000000E+01 0.  0.
    9000005    1    3    3    0    0  0.49743905548E+02  0.33447584288E+02  0.17372481960E+02  0.62417947446E+02  0.10000000000E+01 0.  0.
<mgrwt>
<rscale>  0 0.12500355E+03</rscale>
<asrwt>0</asrwt>
<pdfrwt beam="1">  1        4 0.95697655E-02 0.12500355E+03</pdfrwt>
<pdfrwt beam="2">  1       -4 0.96617693E-02 0.12500355E+03</pdfrwt>
<totfact> 0.10451917E+04</totfact>
</mgrwt>
</event>
<event>
 5    1  0.3245943E-002  0.1250019E+03  0.7818608E-02  0.1235066E+00
          4   -1    0    0  501    0  0.00000000000E+00  0.00000000000E+00  0.19938899079E+03  0.19939303536E+03  0.12700000000E+01 0.  1.
         -4   -1    0    0    0  501 -0.00000000000E+00 -0.00000000000E+00 -0.19566865773E+02  0.19608037540E+02  0.12700000000E+01 0.  1.
         25    2    1    2    0    0  0.00000000000E+00  0.00000000000E+00  0.17982212502E+03  0.21900107290E+03  0.12500189312E+03 0.  0.
    9000005    1    3    3    0    0  0.54961735011E+02  0.21075282286E+02  0.12667800278E+03  0.13968992887E+03  0.10000000000E+01 0.  0.
    9000005    1    3    3    0    0 -0.54961735011E+02 -0.21075282286E+02  0.53144122239E+02  0.79311144030E+02  0.10000000000E+01 0.  0.
<mgrwt>
<rscale>  0 0.12500189E+03</rscale>
<asrwt>0</asrwt>
<pdfrwt beam="1">  1        4 0.30678709E-01 0.12500189E+03</pdfrwt>
<pdfrwt beam="2">  1       -4 0.30137651E-02 0.12500189E+03</pdfrwt>
<totfact> 0.87022982E+03</totfact>
</mgrwt>
</event>
<event>
 5    1  0.3245943E-002  0.1250006E+03  0.7818608E-02  0.1235068E+00
          4   -1    0    0  501    0  0.00000000000E+00  0.00000000000E+00  0.26505829659E+01  0.29391308339E+01  0.12700000000E+01 0. -1.
         -4   -1    0    0    0  501 -0.00000000000E+00 -0.00000000000E+00 -0.13973811607E+04  0.13973817378E+04  0.12700000000E+01 0. -1.
         25    2    1    2    0    0  0.00000000000E+00  0.00000000000E+00 -0.13947305777E+04  0.14003208686E+04  0.12500060283E+03 0.  0.
    9000005    1    3    3    0    0 -0.26687300944E+02  0.55601215137E+02 -0.58445834028E+03  0.58770422721E+03  0.10000000000E+01 0.  0.
    9000005    1    3    3    0    0  0.26687300944E+02 -0.55601215137E+02 -0.81027223742E+03  0.81261664141E+03  0.10000000000E+01 0.  0.
<mgrwt>
<rscale>  0 0.12500060E+03</rscale>
<asrwt>0</asrwt>
<pdfrwt beam="1">  1        4 0.43002349E-03 0.12500060E+03</pdfrwt>
<pdfrwt beam="2">  1       -4 0.21500340E+00 0.12500060E+03</pdfrwt>
<totfact> 0.19973855E+03</totfact>
</mgrwt>
</event>
<event>
 5    1  0.3245943E-002  0.1250011E+03  0.7818608E-02  0.1235068E+00
         -4   -1    0    0    0  501 -0.00000000000E+00  0.00000000000E+00  0.65775105526E+02  0.65787365101E+02  0.12700000000E+01 0.  1.
          4   -1    0    0  501    0  0.00000000000E+00 -0.00000000000E+00 -0.59364397895E+02  0.59377981082E+02  0.12700000000E+01 0.  1.
         25    2    1    2    0    0  0.00000000000E+00  0.00000000000E+00  0.64107076314E+01  0.12516534618E+03  0.12500106685E+03 0.  0.
    9000005    1    3    3    0    0  0.29776991821E+02  0.39162750417E+02  0.41790740054E+02  0.64558935992E+02  0.10000000000E+01 0.  0.
    9000005    1    3    3    0    0 -0.29776991821E+02 -0.39162750417E+02 -0.35380032423E+02  0.60606410192E+02  0.10000000000E+01 0.  0.
<mgrwt>
<rscale>  0 0.12500107E+03</rscale>
<asrwt>0</asrwt>
<pdfrwt beam="2">  1        4 0.91349723E-02 0.12500107E+03</pdfrwt>
<pdfrwt beam="1">  1       -4 0.10121235E-01 0.12500107E+03</pdfrwt>
<totfact> 0.10449020E+04</totfact>
</mgrwt>
</event>
<event>
 5    1  0.3245943E-002  0.1250001E+03  0.7818608E-02  0.1235069E+00
          4   -1    0    0  501    0  0.00000000000E+00  0.00000000000E+00  0.66667436007E+03  0.66667556973E+03  0.12700000000E+01 0.  1.
         -4   -1    0    0    0  501 -0.00000000000E+00 -0.00000000000E+00 -0.57892665706E+01  0.59269306918E+01  0.12700000000E+01 0.  1.
         25    2    1    2    0    0  0.00000000000E+00  0.00000000000E+00  0.66088509350E+03  0.67260250043E+03  0.12500006706E+03 0.  0.
    9000005    1    3    3    0    0 -0.25635745105E+02 -0.52493432367E+02  0.21102933680E+03  0.21896833757E+03  0.10000000000E+01 0.  0.
    9000005    1    3    3    0    0  0.25635745105E+02  0.52493432367E+02  0.44985575670E+03  0.45363416286E+03  0.10000000000E+01 0.  0.
<mgrwt>
<rscale>  0 0.12500007E+03</rscale>
<asrwt>0</asrwt>
<pdfrwt beam="1">  1        4 0.10257600E+00 0.12500007E+03</pdfrwt>
<pdfrwt beam="2">  1       -4 0.90133874E-03 0.12500007E+03</pdfrwt>
<totfact> 0.44572885E+03</totfact>
</mgrwt>
</event>
<event>
 5    1  0.3245943E-002  0.1249878E+03  0.7818608E-02  0.1235088E+00
         -4   -1    0    0    0  501 -0.00000000000E+00  0.00000000000E+00  0.12267514405E+02  0.12333077867E+02  0.12700000000E+01 0. -1.
          4   -1    0    0  501    0  0.00000000000E+00 -0.00000000000E+00 -0.31744490789E+03  0.31744744832E+03  0.12700000000E+01 0. -1.
         25    2    1    2    0    0  0.00000000000E+00  0.00000000000E+00 -0.30517739349E+03  0.32978052619E+03  0.12498781524E+03 0.  0.
    9000005    1    3    3    0    0  0.33134421556E+02  0.22818926773E+02 -0.26439210636E+02  0.48152104523E+02  0.10000000000E+01 0.  0.
    9000005    1    3    3    0    0 -0.33134421556E+02 -0.22818926773E+02 -0.27873818285E+03  0.28162842167E+03  0.10000000000E+01 0.  0.
<mgrwt>
<rscale>  0 0.12498782E+03</rscale>
<asrwt>0</asrwt>
<pdfrwt beam="2">  1        4 0.48842911E-01 0.12498782E+03</pdfrwt>
<pdfrwt beam="1">  1       -4 0.18925489E-02 0.12498782E+03</pdfrwt>
<totfact> 0.72027210E+03</totfact>
</mgrwt>
</event>
<event>
 5    1  0.3245943E-002  0.1250024E+03  0.7818608E-02  0.1235066E+00
         -4   -1    0    0    0  501 -0.00000000000E+00  0.00000000000E+00  0.59163910538E+03  0.59164046846E+03  0.12700000000E+01 0.  1.
          4   -1    0    0  501    0  0.00000000000E+00 -0.00000000000E+00 -0.65402201432E+01  0.66623854228E+01  0.12700000000E+01 0.  1.
         25    2    1    2    0    0  0.00000000000E+00  0.00000000000E+00  0.58509888524E+03  0.59830285388E+03  0.12500239779E+03 0.  0.
    9000005    1    3    3    0    0  0.46701865123E+02 -0.41353156094E+02  0.27448008348E+03  0.28148084118E+03  0.10000000000E+01 0.  0.
    9000005    1    3    3    0    0 -0.46701865123E+02  0.41353156094E+02  0.31061880175E+03  0.31682201269E+03  0.10000000000E+01 0.  0.
<mgrwt>
<rscale>  0 0.12500240E+03</rscale>
<asrwt>0</asrwt>
<pdfrwt beam="2">  1        4 0.10156896E-02 0.12500240E+03</pdfrwt>
<pdfrwt beam="1">  1       -4 0.91030932E-01 0.12500240E+03</pdfrwt>
<totfact> 0.48972328E+03</totfact>
</mgrwt>
</event>
<event>
 5    1  0.3245943E-002  0.1250495E+03  0.7818608E-02  0.1234992E+00
          4   -1    0    0  501    0  0.00000000000E+00  0.00000000000E+00  0.41358953138E+02  0.41378447345E+02  0.12700000000E+01 0.  1.
         -4   -1    0    0    0  501 -0.00000000000E+00 -0.00000000000E+00 -0.94476337504E+02  0.94484873118E+02  0.12700000000E+01 0.  1.
         25    2    1    2    0    0  0.00000000000E+00  0.00000000000E+00 -0.53117384366E+02  0.13586332046E+03  0.12504953149E+03 0.  0.
    9000005    1    3    3    0    0  0.54083421101E+02 -0.23384310399E+02 -0.49258084446E+02  0.76806258170E+02  0.10000000000E+01 0.  0.
    9000005    1    3    3    0    0 -0.54083421101E+02  0.23384310399E+02 -0.38592999194E+01  0.59057062293E+02  0.10000000000E+01 0.  0.
<mgrwt>
<rscale>  0 0.12504953E+03</rscale>
<asrwt>0</asrwt>
<pdfrwt beam="1">  1        4 0.63650720E-02 0.12504953E+03</pdfrwt>
<pdfrwt beam="2">  1       -4 0.14536977E-01 0.12504953E+03</pdfrwt>
<totfact> 0.10208499E+04</totfact>
</mgrwt>
</event>
<event>
 5    1  0.3245943E-002  0.1250072E+03  0.7818608E-02  0.1235058E+00
         -4   -1    0    0    0  501 -0.00000000000E+00  0.00000000000E+00  0.14583304333E+01  0.19338116901E+01  0.12700000000E+01 0. -1.
          4   -1    0    0  501    0  0.00000000000E+00 -0.00000000000E+00 -0.23029066047E+04  0.23029069549E+04  0.12700000000E+01 0. -1.
         25    2    1    2    0    0  0.00000000000E+00  0.00000000000E+00 -0.23014482743E+04  0.23048407666E+04  0.12500720041E+03 0.  0.
    9000005    1    3    3    0    0  0.56313643173E+02  0.23056919501E+02 -0.88812357844E+03  0.89020634604E+03  0.10000000000E+01 0.  0.
    9000005    1    3    3    0    0 -0.56313643173E+02 -0.23056919501E+02 -0.14133246958E+04  0.14146344206E+04  0.10000000000E+01 0.  0.
<mgrwt>
<rscale>  0 0.12500720E+03</rscale>
<asrwt>0</asrwt>
<pdfrwt beam="2">  1        4 0.35432742E+00 0.12500720E+03</pdfrwt>
<pdfrwt beam="1">  1       -4 0.26096279E-03 0.12500720E+03</pdfrwt>
<totfact> 0.63879180E+02</totfact>
</mgrwt>
</event>
<event>
 5    1  0.3245943E-002  0.1250009E+03  0.7818608E-02  0.1235068E+00
          4   -1    0    0  501    0  0.00000000000E+00  0.00000000000E+00  0.20951470503E+02  0.20989926542E+02  0.12700000000E+01 0. -1.
         -4   -1    0    0    0  501 -0.00000000000E+00 -0.00000000000E+00 -0.18623376070E+03  0.18623809096E+03  0.12700000000E+01 0. -1.
         25    2    1    2    0    0  0.00000000000E+00  0.00000000000E+00 -0.16528229020E+03  0.20722801750E+03  0.12500086314E+03 0.  0.
    9000005    1    3    3    0    0 -0.11631080944E+02  0.47125684237E+02 -0.17390012638E+02  0.51570579774E+02  0.10000000000E+01 0.  0.
    9000005    1    3    3    0    0  0.11631080944E+02 -0.47125684237E+02 -0.14789227756E+03  0.15565743773E+03  0.10000000000E+01 0.  0.
<mgrwt>
<rscale>  0 0.12500086E+03</rscale>
<asrwt>0</asrwt>
<pdfrwt beam="1">  1        4 0.32265945E-02 0.12500086E+03</pdfrwt>
<pdfrwt beam="2">  1       -4 0.28654638E-01 0.12500086E+03</pdfrwt>
<totfact> 0.88928876E+03</totfact>
</mgrwt>
</event>
<event>
 5    1  0.3245943E-002  0.1249856E+03  0.7818608E-02  0.1235092E+00
          4   -1    0    0  501    0  0.00000000000E+00  0.00000000000E+00  0.18646625883E+03  0.18647058370E+03  0.12700000000E+01 0. -1.
         -4   -1    0    0    0  501 -0.00000000000E+00 -0.00000000000E+00 -0.20920185029E+02  0.20958698472E+02  0.12700000000E+01 0. -1.
         25    2    1    2    0    0  0.00000000000E+00  0.00000000000E+00  0.16554607381E+03  0.20742928217E+03  0.12498561737E+03 0.  0.
    9000005    1    3    3    0    0 -0.94183175194E+01 -0.51473882597E+02  0.13944591727E+03  0.14894438270E+03  0.10000000000E+01 0.  0.
    9000005    1    3    3    0    0  0.94183175194E+01  0.51473882597E+02  0.26100156533E+02  0.58484899466E+02  0.10000000000E+01 0.  0.
<mgrwt>
<rscale>  0 0.12498562E+03</rscale>
<asrwt>0</asrwt>
<pdfrwt beam="1">  1        4 0.28690410E-01 0.12498562E+03</pdfrwt>
<pdfrwt beam="2">  1       -4 0.32217854E-02 0.12498562E+03</pdfrwt>
<totfact> 0.88926039E+03</totfact>
</mgrwt>
</event>
<event>
 5    1  0.3245943E-002  0.1250009E+03  0.7818608E-02  0.1235068E+00
         -4   -1    0    0    0  501 -0.00000000000E+00  0.00000000000E+00  0.45956636009E+03  0.45956811489E+03  0.12700000000E+01 0.  1.
          4   -1    0    0  501    0  0.00000000000E+00 -0.00000000000E+00 -0.84507579392E+01  0.85456544364E+01  0.12700000000E+01 0.  1.
         25    2    1    2    0    0  0.00000000000E+00  0.00000000000E+00  0.45111560215E+03  0.46811376932E+03  0.12500085812E+03 0.  0.
    9000005    1    3    3    0    0  0.59095217138E+02  0.18345476061E+02  0.19280291446E+03  0.20249139489E+03  0.10000000000E+01 0.  0.
    9000005    1    3    3    0    0 -0.59095217138E+02 -0.18345476061E+02  0.25831268768E+03  0.26562237443E+03  0.10000000000E+01 0.  0.
<mgrwt>
<rscale>  0 0.12500086E+03</rscale>
<asrwt>0</asrwt>
<pdfrwt beam="2">  1        4 0.13075507E-02 0.12500086E+03</pdfrwt>
<pdfrwt beam="1">  1       -4 0.70709985E-01 0.12500086E+03</pdfrwt>
<totfact> 0.58424978E+03</totfact>
</mgrwt>
</event>
<event>
 5    1  0.3245943E-002  0.1249995E+03  0.7818608E-02  0.1235070E+00
         -4   -1    0    0    0  501 -0.00000000000E+00  0.00000000000E+00  0.45752960013E+03  0.45753136275E+03  0.12700000000E+01 0. -1.
          4   -1    0    0  501    0  0.00000000000E+00 -0.00000000000E+00 -0.84886097555E+01  0.85830877650E+01  0.12700000000E+01 0. -1.
         25    2    1    2    0    0  0.00000000000E+00  0.00000000000E+00  0.44904099038E+03  0.46611445051E+03  0.12499947975E+03 0.  0.
    9000005    1    3    3    0    0  0.13081953253E+02  0.13267322720E+02  0.20917656103E+01  0.18775911067E+02  0.10000000000E+01 0.  0.
    9000005    1    3    3    0    0 -0.13081953253E+02 -0.13267322720E+02  0.44694922477E+03  0.44733853944E+03  0.10000000000E+01 0.  0.
<mgrwt>
<rscale>  0 0.12499948E+03</rscale>
<asrwt>0</asrwt>
<pdfrwt beam="2">  1        4 0.13133428E-02 0.12499948E+03</pdfrwt>
<pdfrwt beam="1">  1       -4 0.70396585E-01 0.12499948E+03</pdfrwt>
<totfact> 0.58593447E+03</totfact>
</mgrwt>
</event>
<event>
 5    1  0.3245943E-002  0.1250177E+03  0.7818608E-02  0.1235042E+00
         -4   -1    0    0    0  501 -0.00000000000E+00  0.00000000000E+00  0.13301344146E+03  0.13301950424E+03  0.12700000000E+01 0.  1.
          4   -1    0    0  501    0  0.00000000000E+00 -0.00000000000E+00 -0.29355186415E+02  0.29382645719E+02  0.12700000000E+01 0.  1.
         25    2    1    2    0    0  0.00000000000E+00  0.00000000000E+00  0.10365825504E+03  0.16240214996E+03  0.12501769664E+03 0.  0.
    9000005    1    3    3    0    0  0.14556449012E+02 -0.50306040886E+02  0.75138455583E+01  0.52915459296E+02  0.10000000000E+01 0.  0.
    9000005    1    3    3    0    0 -0.14556449012E+02  0.50306040886E+02  0.96144409484E+02  0.10948669066E+03  0.10000000000E+01 0.  0.
<mgrwt>
<rscale>  0 0.12501770E+03</rscale>
<asrwt>0</asrwt>
<pdfrwt beam="2">  1        4 0.45187612E-02 0.12501770E+03</pdfrwt>
<pdfrwt beam="1">  1       -4 0.20466185E-01 0.12501770E+03</pdfrwt>
<totfact> 0.96843142E+03</totfact>
</mgrwt>
</event>
<event>
 5    1  0.3245943E-002  0.1249912E+03  0.7818608E-02  0.1235083E+00
          4   -1    0    0  501    0  0.00000000000E+00  0.00000000000E+00  0.10394749509E+02  0.10472044564E+02  0.12700000000E+01 0. -1.
         -4   -1    0    0    0  501 -0.00000000000E+00 -0.00000000000E+00 -0.37426769851E+03  0.37426985325E+03  0.12700000000E+01 0. -1.
         25    2    1    2    0    0  0.00000000000E+00  0.00000000000E+00 -0.36387294900E+03  0.38474189781E+03  0.12499121935E+03 0.  0.
    9000005    1    3    3    0    0  0.43288042038E+02 -0.41758688282E+02 -0.23408898965E+03  0.24169463731E+03  0.10000000000E+01 0.  0.
    9000005    1    3    3    0    0 -0.43288042038E+02  0.41758688282E+02 -0.12978395936E+03  0.14304726050E+03  0.10000000000E+01 0.  0.
<mgrwt>
<rscale>  0 0.12499122E+03</rscale>
<asrwt>0</asrwt>
<pdfrwt beam="1">  1        4 0.16053040E-02 0.12499122E+03</pdfrwt>
<pdfrwt beam="2">  1       -4 0.57585747E-01 0.12499122E+03</pdfrwt>
<totfact> 0.66077151E+03</totfact>
</mgrwt>
</event>
<event>
 5    1  0.3245943E-002  0.1250010E+03  0.7818608E-02  0.1235068E+00
         -4   -1    0    0    0  501 -0.00000000000E+00  0.00000000000E+00  0.35733021333E+01  0.37922800709E+01  0.12700000000E+01 0. -1.
          4   -1    0    0  501    0  0.00000000000E+00 -0.00000000000E+00 -0.10604746823E+04  0.10604754427E+04  0.12700000000E+01 0. -1.
         25    2    1    2    0    0  0.00000000000E+00  0.00000000000E+00 -0.10569013801E+04  0.10642677228E+04  0.12500103385E+03 0.  0.
    9000005    1    3    3    0    0 -0.65027838460E+01 -0.97133095892E+01 -0.57754594347E+01  0.13076334066E+02  0.10000000000E+01 0.  0.
    9000005    1    3    3    0    0  0.65027838460E+01  0.97133095892E+01 -0.10511259207E+04  0.10511913887E+04  0.10000000000E+01 0.  0.
<mgrwt>
<rscale>  0 0.12500103E+03</rscale>
<asrwt>0</asrwt>
<pdfrwt beam="2">  1        4 0.16316661E+00 0.12500103E+03</pdfrwt>
<pdfrwt beam="1">  1       -4 0.56664259E-03 0.12500103E+03</pdfrwt>
<totfact> 0.28552830E+03</totfact>
</mgrwt>
</event>
<event>
 5    1  0.3245943E-002  0.1249996E+03  0.7818608E-02  0.1235070E+00
         -4   -1    0    0    0  501 -0.00000000000E+00  0.00000000000E+00  0.85724025816E+02  0.85733432814E+02  0.12700000000E+01 0.  1.
          4   -1    0    0  501    0  0.00000000000E+00 -0.00000000000E+00 -0.45546655104E+02  0.45564357684E+02  0.12700000000E+01 0.  1.
         25    2    1    2    0    0  0.00000000000E+00  0.00000000000E+00  0.40177370713E+02  0.13129779050E+03  0.12499955469E+03 0.  0.
    9000005    1    3    3    0    0 -0.34334454563E+02  0.30124915963E+02  0.64885611035E+02  0.79356838718E+02  0.10000000000E+01 0.  0.
    9000005    1    3    3    0    0  0.34334454563E+02 -0.30124915963E+02 -0.24708240323E+02  0.51940951780E+02  0.10000000000E+01 0.  0.
<mgrwt>
<rscale>  0 0.12499955E+03</rscale>
<asrwt>0</asrwt>
<pdfrwt beam="2">  1        4 0.70092631E-02 0.12499955E+03</pdfrwt>
<pdfrwt beam="1">  1       -4 0.13190397E-01 0.12499955E+03</pdfrwt>
<totfact> 0.10316813E+04</totfact>
</mgrwt>
</event>
<event>
 5    1  0.3245943E-002  0.1249945E+03  0.7818608E-02  0.1235078E+00
          4   -1    0    0  501    0  0.00000000000E+00  0.00000000000E+00  0.11771407553E+03  0.11772092625E+03  0.12700000000E+01 0. -1.
         -4   -1    0    0    0  501 -0.00000000000E+00 -0.00000000000E+00 -0.33161351705E+02  0.33185661767E+02  0.12700000000E+01 0. -1.
         25    2    1    2    0    0  0.00000000000E+00  0.00000000000E+00  0.84552723822E+02  0.15090658802E+03  0.12499454069E+03 0.  0.
    9000005    1    3    3    0    0  0.45321255471E+02  0.21323118815E+02 -0.28358007818E+01  0.50177020234E+02  0.10000000000E+01 0.  0.
    9000005    1    3    3    0    0 -0.45321255471E+02 -0.21323118815E+02  0.87388524603E+02  0.10072956778E+03  0.10000000000E+01 0.  0.
<mgrwt>
<rscale>  0 0.12499454E+03</rscale>
<asrwt>0</asrwt>
<pdfrwt beam="1">  1        4 0.18112255E-01 0.12499454E+03</pdfrwt>
<pdfrwt beam="2">  1       -4 0.51041434E-02 0.12499454E+03</pdfrwt>
<totfact> 0.99135468E+03</totfact>
</mgrwt>
</event>
<event>
 5    1  0.3245943E-002  0.1249999E+03  0.7818608E-02  0.1235069E+00
          4   -1    0    0  501    0  0.00000000000E+00  0.00000000000E+00  0.20883188434E+02  0.20921769982E+02  0.12700000000E+01 0.  1.
         -4   -1    0    0    0  501 -0.00000000000E+00 -0.00000000000E+00 -0.18683861715E+03  0.18684293339E+03  0.12700000000E+01 0.  1.
         25    2    1    2    0    0  0.00000000000E+00  0.00000000000E+00 -0.16595542872E+03  0.20776470338E+03  0.12499987059E+03 0.  0.
    9000005    1    3    3    0    0  0.25034981622E+02 -0.42764523917E+02 -0.14626250421E+03  0.15443210465E+03  0.10000000000E+01 0.  0.
    9000005    1    3    3    0    0 -0.25034981622E+02  0.42764523917E+02 -0.19692924511E+02  0.53332598723E+02  0.10000000000E+01 0.  0.
<mgrwt>
<rscale>  0 0.12499987E+03</rscale>
<asrwt>0</asrwt>
<pdfrwt beam="1">  1        4 0.32160982E-02 0.12499987E+03</pdfrwt>
<pdfrwt beam="2">  1       -4 0.28747701E-01 0.12499987E+03</pdfrwt>
<totfact> 0.88842498E+03</totfact>
</mgrwt>
</event>
<event>
 5    1  0.3245943E-002  0.1250012E+03  0.7818608E-02  0.1235067E+00
          4   -1    0    0  501    0  0.00000000000E+00  0.00000000000E+00  0.62936328209E+02  0.62949140649E+02  0.12700000000E+01 0.  1.
         -4   -1    0    0    0  501 -0.00000000000E+00 -0.00000000000E+00 -0.62042268148E+02  0.62055265183E+02  0.12700000000E+01 0.  1.
         25    2    1    2    0    0  0.00000000000E+00  0.00000000000E+00  0.89406006092E+00  0.12500440583E+03  0.12500120853E+03 0.  0.
    9000005    1    3    3    0    0  0.60651897798E+02  0.12993522648E+02 -0.71585044788E+01  0.62447806396E+02  0.10000000000E+01 0.  0.
    9000005    1    3    3    0    0 -0.60651897798E+02 -0.12993522648E+02  0.80525645397E+01  0.62556599436E+02  0.10000000000E+01 0.  0.
<mgrwt>
<rscale>  0 0.12500121E+03</rscale>
<asrwt>0</asrwt>
<pdfrwt beam="1">  1        4 0.96844973E-02 0.12500121E+03</pdfrwt>
<pdfrwt beam="2">  1       -4 0.95469498E-02 0.12500121E+03</pdfrwt>
<totfact> 0.10452481E+04</totfact>
</mgrwt>
</event>
<event>
 5    1  0.3245943E-002  0.1249918E+03  0.7818608E-02  0.1235082E+00
          4   -1    0    0  501    0  0.00000000000E+00  0.00000000000E+00  0.79391809657E+02  0.79401966856E+02  0.12700000000E+01 0.  1.
         -4   -1    0    0    0  501 -0.00000000000E+00 -0.00000000000E+00 -0.49174202313E+02  0.49190599438E+02  0.12700000000E+01 0.  1.
         25    2    1    2    0    0  0.00000000000E+00  0.00000000000E+00  0.30217607344E+02  0.12859256629E+03  0.12499177698E+03 0.  0.
    9000005    1    3    3    0    0 -0.83749419299E+01  0.45261005157E+02 -0.28370216542E+02  0.54079269844E+02  0.10000000000E+01 0.  0.
    9000005    1    3    3    0    0  0.83749419299E+01 -0.45261005157E+02  0.58587823886E+02  0.74513296450E+02  0.10000000000E+01 0.  0.
<mgrwt>
<rscale>  0 0.12499178E+03</rscale>
<asrwt>0</asrwt>
<pdfrwt beam="1">  1        4 0.12216167E-01 0.12499178E+03</pdfrwt>
<pdfrwt beam="2">  1       -4 0.75673046E-02 0.12499178E+03</pdfrwt>
<totfact> 0.10376636E+04</totfact>
</mgrwt>
</event>
<event>
 5    1  0.3245943E-002  0.1249992E+03  0.7818608E-02  0.1235071E+00
          4   -1    0    0  501    0  0.00000000000E+00  0.00000000000E+00  0.22888652748E+03  0.22889005082E+03  0.12700000000E+01 0. -1.
         -4   -1    0    0    0  501 -0.00000000000E+00 -0.00000000000E+00 -0.17038815059E+02  0.17086079674E+02  0.12700000000E+01 0. -1.
         25    2    1    2    0    0  0.00000000000E+00  0.00000000000E+00  0.21184771243E+03  0.24597613049E+03  0.12499921405E+03 0.  0.
    9000005    1    3    3    0    0 -0.26644540235E+02  0.55598507799E+02  0.12599903796E+03  0.14027787837E+03  0.10000000000E+01 0.  0.
    9000005    1    3    3    0    0  0.26644540235E+02 -0.55598507799E+02  0.85848674468E+02  0.10569825212E+03  0.10000000000E+01 0.  0.
<mgrwt>
<rscale>  0 0.12499921E+03</rscale>
<asrwt>0</asrwt>
<pdfrwt beam="1">  1        4 0.35217220E-01 0.12499921E+03</pdfrwt>
<pdfrwt beam="2">  1       -4 0.26252628E-02 0.12499921E+03</pdfrwt>
<totfact> 0.82916753E+03</totfact>
</mgrwt>
</event>
<event>
 5    1  0.3245943E-002  0.1250021E+03  0.7818608E-02  0.1235066E+00
         -4   -1    0    0    0  501 -0.00000000000E+00  0.00000000000E+00  0.19945253060E+02  0.19985645340E+02  0.12700000000E+01 0.  1.
          4   -1    0    0  501    0  0.00000000000E+00 -0.00000000000E+00 -0.19561450854E+03  0.19561863114E+03  0.12700000000E+01 0.  1.
         25    2    1    2    0    0  0.00000000000E+00  0.00000000000E+00 -0.17566925548E+03  0.21560427648E+03  0.12500206685E+03 0.  0.
    9000005    1    3    3    0    0 -0.52498309978E+02  0.22871862374E+02 -0.13099561275E+03  0.14296868608E+03  0.10000000000E+01 0.  0.
    9000005    1    3    3    0    0  0.52498309978E+02 -0.22871862374E+02 -0.44673642727E+02  0.72635590405E+02  0.10000000000E+01 0.  0.
<mgrwt>
<rscale>  0 0.12500207E+03</rscale>
<asrwt>0</asrwt>
<pdfrwt beam="2">  1        4 0.30097963E-01 0.12500207E+03</pdfrwt>
<pdfrwt beam="1">  1       -4 0.30719248E-02 0.12500207E+03</pdfrwt>
<totfact> 0.87564687E+03</totfact>
</mgrwt>
</event>
<event>
 5    1  0.3245943E-002  0.1250029E+03  0.7818608E-02  0.1235065E+00
          4   -1    0    0  501    0  0.00000000000E+00  0.00000000000E+00  0.27325028794E+02  0.27354526108E+02  0.12700000000E+01 0.  1.
         -4   -1    0    0    0  501 -0.00000000000E+00 -0.00000000000E+00 -0.14285211989E+03  0.14285776513E+03  0.12700000000E+01 0.  1.
         25    2    1    2    0    0  0.00000000000E+00  0.00000000000E+00 -0.11552709110E+03  0.17021229124E+03  0.12500286121E+03 0.  0.
    9000005    1    3    3    0    0 -0.11599926926E+02 -0.43731514698E+02 -0.11646427534E+03  0.12494771351E+03  0.10000000000E+01 0.  0.
    9000005    1    3    3    0    0  0.11599926926E+02  0.43731514698E+02  0.93718423519E+00  0.45264577726E+02  0.10000000000E+01 0.  0.
<mgrwt>
<rscale>  0 0.12500286E+03</rscale>
<asrwt>0</asrwt>
<pdfrwt beam="1">  1        4 0.42065539E-02 0.12500286E+03</pdfrwt>
<pdfrwt beam="2">  1       -4 0.21979952E-01 0.12500286E+03</pdfrwt>
<totfact> 0.95402956E+03</totfact>
</mgrwt>
</event>
<event>
 5    1  0.3245943E-002  0.1249999E+03  0.7818608E-02  0.1235069E+00
         -4   -1    0    0    0  501 -0.00000000000E+00  0.00000000000E+00  0.55077675450E+02  0.55092315553E+02  0.12700000000E+01 0.  1.
          4   -1    0    0  501    0  0.00000000000E+00 -0.00000000000E+00 -0.70892669397E+02  0.70904044131E+02  0.12700000000E+01 0.  1.
         25    2    1    2    0    0  0.00000000000E+00  0.00000000000E+00 -0.15814993946E+02  0.12599635968E+03  0.12499987448E+03 0.  0.
    9000005    1    3    3    0    0 -0.29535141107E+02 -0.90077945623E+01  0.46855878608E+02  0.56124310982E+02  0.10000000000E+01 0.  0.
    9000005    1    3    3    0    0  0.29535141107E+02  0.90077945623E+01 -0.62670872555E+02  0.69872048702E+02  0.10000000000E+01 0.  0.
<mgrwt>
<rscale>  0 0.12499987E+03</rscale>
<asrwt>0</asrwt>
<pdfrwt beam="2">  1        4 0.10908566E-01 0.12499987E+03</pdfrwt>
<pdfrwt beam="1">  1       -4 0.84754897E-02 0.12499987E+03</pdfrwt>
<totfact> 0.10431066E+04</totfact>
</mgrwt>
</event>
<event>
 5    1  0.3245943E-002  0.1250023E+03  0.7818608E-02  0.1235066E+00
         -4   -1    0    0    0  501 -0.00000000000E+00  0.00000000000E+00  0.67974913405E+02  0.67986776305E+02  0.12700000000E+01 0. -1.
          4   -1    0    0  501    0  0.00000000000E+00 -0.00000000000E+00 -0.57444265517E+02  0.57458302627E+02  0.12700000000E+01 0. -1.
         25    2    1    2    0    0  0.00000000000E+00  0.00000000000E+00  0.10530647888E+02  0.12544507893E+03  0.12500229311E+03 0.  0.
    9000005    1    3    3    0    0  0.17159992371E+01 -0.38392598666E+02  0.54719259800E+02  0.66874013479E+02  0.10000000000E+01 0.  0.
    9000005    1    3    3    0    0 -0.17159992371E+01  0.38392598666E+02 -0.44188611912E+02  0.58571065454E+02  0.10000000000E+01 0.  0.
<mgrwt>
<rscale>  0 0.12500229E+03</rscale>
<asrwt>0</asrwt>
<pdfrwt beam="2">  1        4 0.88395716E-02 0.12500229E+03</pdfrwt>
<pdfrwt beam="1">  1       -4 0.10459671E-01 0.12500229E+03</pdfrwt>
<totfact> 0.10442629E+04</totfact>
</mgrwt>
</event>
<event>
 5    1  0.3245943E-002  0.1250024E+03  0.7818608E-02  0.1235066E+00
          4   -1    0    0  501    0  0.00000000000E+00  0.00000000000E+00  0.17322454628E+03  0.17322920174E+03  0.12700000000E+01 0.  1.
         -4   -1    0    0    0  501 -0.00000000000E+00 -0.00000000000E+00 -0.22528225833E+02  0.22563994752E+02  0.12700000000E+01 0.  1.
         25    2    1    2    0    0  0.00000000000E+00  0.00000000000E+00  0.15069632045E+03  0.19579319649E+03  0.12500237916E+03 0.  0.
    9000005    1    3    3    0    0 -0.18830086774E+02  0.45724902390E+02  0.15498092756E+02  0.51831744574E+02  0.10000000000E+01 0.  0.
    9000005    1    3    3    0    0  0.18830086774E+02 -0.45724902390E+02  0.13519822769E+03  0.14396145191E+03  0.10000000000E+01 0.  0.
<mgrwt>
<rscale>  0 0.12500238E+03</rscale>
<asrwt>0</asrwt>
<pdfrwt beam="1">  1        4 0.26653039E-01 0.12500238E+03</pdfrwt>
<pdfrwt beam="2">  1       -4 0.34689906E-02 0.12500238E+03</pdfrwt>
<totfact> 0.90844135E+03</totfact>
</mgrwt>
</event>
<event>
 5    1  0.3245943E-002  0.1250028E+03  0.7818608E-02  0.1235065E+00
          4   -1    0    0  501    0  0.00000000000E+00  0.00000000000E+00  0.13614126366E+04  0.13614132289E+04  0.12700000000E+01 0. -1.
         -4   -1    0    0    0  501 -0.00000000000E+00 -0.00000000000E+00 -0.27282404302E+01  0.30093513993E+01  0.12700000000E+01 0. -1.
         25    2    1    2    0    0  0.00000000000E+00  0.00000000000E+00  0.13586843961E+04  0.13644225803E+04  0.12500275759E+03 0.  0.
    9000005    1    3    3    0    0  0.41476462073E+02 -0.35963342215E+02  0.35338982937E+03  0.35762973924E+03  0.10000000000E+01 0.  0.
    9000005    1    3    3    0    0 -0.41476462073E+02  0.35963342215E+02  0.10052945668E+04  0.10067928411E+04  0.10000000000E+01 0.  0.
<mgrwt>
<rscale>  0 0.12500276E+03</rscale>
<asrwt>0</asrwt>
<pdfrwt beam="1">  1        4 0.20947007E+00 0.12500276E+03</pdfrwt>
<pdfrwt beam="2">  1       -4 0.44139815E-03 0.12500276E+03</pdfrwt>
<totfact> 0.20755759E+03</totfact>
</mgrwt>
</event>
<event>
 5    1  0.3245943E-002  0.1249953E+03  0.7818608E-02  0.1235077E+00
          4   -1    0    0  501    0  0.00000000000E+00  0.00000000000E+00  0.28224564504E+02  0.28253122685E+02  0.12700000000E+01 0.  1.
         -4   -1    0    0    0  501 -0.00000000000E+00 -0.00000000000E+00 -0.13828712895E+03  0.13829296054E+03  0.12700000000E+01 0.  1.
         25    2    1    2    0    0  0.00000000000E+00  0.00000000000E+00 -0.11006256445E+03  0.16654608322E+03  0.12499531889E+03 0.  0.
    9000005    1    3    3    0    0 -0.17394221970E+02  0.54931975894E+02 -0.87254786041E+02  0.10456805736E+03  0.10000000000E+01 0.  0.
    9000005    1    3    3    0    0  0.17394221970E+02 -0.54931975894E+02 -0.22807778407E+02  0.61978025859E+02  0.10000000000E+01 0.  0.
<mgrwt>
<rscale>  0 0.12499532E+03</rscale>
<asrwt>0</asrwt>
<pdfrwt beam="1">  1        4 0.43448861E-02 0.12499532E+03</pdfrwt>
<pdfrwt beam="2">  1       -4 0.21277588E-01 0.12499532E+03</pdfrwt>
<totfact> 0.96105492E+03</totfact>
</mgrwt>
</event>
<event>
 5    1  0.3245943E-002  0.1249988E+03  0.7818608E-02  0.1235071E+00
         -4   -1    0    0    0  501 -0.00000000000E+00  0.00000000000E+00  0.61732641806E+01  0.63025463618E+01  0.12700000000E+01 0. -1.
          4   -1    0    0  501    0  0.00000000000E+00 -0.00000000000E+00 -0.62606962250E+03  0.62607091062E+03  0.12700000000E+01 0. -1.
         25    2    1    2    0    0  0.00000000000E+00  0.00000000000E+00 -0.61989635832E+03  0.63237345698E+03  0.12499877611E+03 0.  0.
    9000005    1    3    3    0    0 -0.22914445954E+02  0.99870905996E+01 -0.59970162243E+03  0.60022316662E+03  0.10000000000E+01 0.  0.
    9000005    1    3    3    0    0  0.22914445954E+02 -0.99870905996E+01 -0.20194735898E+02  0.32150290356E+02  0.10000000000E+01 0.  0.
<mgrwt>
<rscale>  0 0.12499878E+03</rscale>
<asrwt>0</asrwt>
<pdfrwt beam="2">  1        4 0.96328398E-01 0.12499878E+03</pdfrwt>
<pdfrwt beam="1">  1       -4 0.95977731E-03 0.12499878E+03</pdfrwt>
<totfact> 0.46887132E+03</totfact>
</mgrwt>
</event>
<event>
 5    1  0.3245943E-002  0.1249995E+03  0.7818608E-02  0.1235070E+00
          4   -1    0    0  501    0  0.00000000000E+00  0.00000000000E+00  0.86500923979E+03  0.86501017209E+03  0.12700000000E+01 0. -1.
         -4   -1    0    0    0  501 -0.00000000000E+00 -0.00000000000E+00 -0.44255640531E+01  0.46041847474E+01  0.12700000000E+01 0. -1.
         25    2    1    2    0    0  0.00000000000E+00  0.00000000000E+00  0.86058367573E+03  0.86961435684E+03  0.12499946670E+03 0.  0.
    9000005    1    3    3    0    0 -0.31386715369E+02 -0.45402857021E+02  0.22643183538E+03  0.23306420017E+03  0.10000000000E+01 0.  0.
    9000005    1    3    3    0    0  0.31386715369E+02  0.45402857021E+02  0.63415184036E+03  0.63655015667E+03  0.10000000000E+01 0.  0.
<mgrwt>
<rscale>  0 0.12499947E+03</rscale>
<asrwt>0</asrwt>
<pdfrwt beam="1">  1        4 0.13309220E+00 0.12499947E+03</pdfrwt>
<pdfrwt beam="2">  1       -4 0.69466756E-03 0.12499947E+03</pdfrwt>
<totfact> 0.35338258E+03</totfact>
</mgrwt>
</event>
<event>
 5    1  0.3245943E-002  0.1249995E+03  0.7818608E-02  0.1235070E+00
          4   -1    0    0  501    0  0.00000000000E+00  0.00000000000E+00  0.28486321294E+03  0.28486604393E+03  0.12700000000E+01 0.  1.
         -4   -1    0    0    0  501 -0.00000000000E+00 -0.00000000000E+00 -0.13680292753E+02  0.13739116049E+02  0.12700000000E+01 0.  1.
         25    2    1    2    0    0  0.00000000000E+00  0.00000000000E+00  0.27118292019E+03  0.29860515998E+03  0.12499946147E+03 0.  0.
    9000005    1    3    3    0    0 -0.47147114482E+02  0.35040532967E+01  0.37966968478E+02  0.60643379596E+02  0.10000000000E+01 0.  0.
    9000005    1    3    3    0    0  0.47147114482E+02 -0.35040532967E+01  0.23321595171E+03  0.23796178039E+03  0.10000000000E+01 0.  0.
<mgrwt>
<rscale>  0 0.12499946E+03</rscale>
<asrwt>0</asrwt>
<pdfrwt beam="1">  1        4 0.43829853E-01 0.12499946E+03</pdfrwt>
<pdfrwt beam="2">  1       -4 0.21094030E-02 0.12499946E+03</pdfrwt>
<totfact> 0.75775042E+03</totfact>
</mgrwt>
</event>
<event>
 5    1  0.3245943E-002  0.1250009E+03  0.7818608E-02  0.1235068E+00
         -4   -1    0    0    0  501 -0.00000000000E+00  0.00000000000E+00  0.17817290529E+04  0.17817295055E+04  0.12700000000E+01 0. -1.
          4   -1    0    0  501    0  0.00000000000E+00 -0.00000000000E+00 -0.20080158496E+01  0.23759266933E+01  0.12700000000E+01 0. -1.
         25    2    1    2    0    0  0.00000000000E+00  0.00000000000E+00  0.17797210371E+04  0.17841054322E+04  0.12500089416E+03 0.  0.
    9000005    1    3    3    0    0 -0.35583142600E+02 -0.21618513853E+02  0.15550048300E+04  0.15555624518E+04  0.10000000000E+01 0.  0.
    9000005    1    3    3    0    0  0.35583142600E+02  0.21618513853E+02  0.22471620707E+03  0.22854298042E+03  0.10000000000E+01 0.  0.
<mgrwt>
<rscale>  0 0.12500089E+03</rscale>
<asrwt>0</asrwt>
<pdfrwt beam="2">  1        4 0.33726145E-03 0.12500089E+03</pdfrwt>
<pdfrwt beam="1">  1       -4 0.27414027E+00 0.12500089E+03</pdfrwt>
<totfact> 0.12949733E+03</totfact>
</mgrwt>
</event>
<event>
 5    1  0.3245943E-002  0.1249996E+03  0.7818608E-02  0.1235070E+00
          4   -1    0    0  501    0  0.00000000000E+00  0.00000000000E+00  0.86245277808E+01  0.87175328759E+01  0.12700000000E+01 0.  1.
         -4   -1    0    0    0  501 -0.00000000000E+00 -0.00000000000E+00 -0.45039764332E+03  0.45039943384E+03  0.12700000000E+01 0.  1.
         25    2    1    2    0    0  0.00000000000E+00  0.00000000000E+00 -0.44177311554E+03  0.45911696672E+03  0.12499961407E+03 0.  0.
    9000005    1    3    3    0    0  0.44731597075E+01 -0.52626512023E+02 -0.34356887068E+03  0.34760628278E+03  0.10000000000E+01 0.  0.
    9000005    1    3    3    0    0 -0.44731597075E+01  0.52626512023E+02 -0.98204244858E+02  0.11151068394E+03  0.10000000000E+01 0.  0.
<mgrwt>
<rscale>  0 0.12499961E+03</rscale>
<asrwt>0</asrwt>
<pdfrwt beam="1">  1        4 0.13341427E-02 0.12499961E+03</pdfrwt>
<pdfrwt beam="2">  1       -4 0.69299219E-01 0.12499961E+03</pdfrwt>
<totfact> 0.59182561E+03</totfact>
</mgrwt>
</event>
<event>
 5    1  0.3245943E-002  0.1249781E+03  0.7818608E-02  0.1235103E+00
         -4   -1    0    0    0  501 -0.00000000000E+00  0.00000000000E+00  0.41327071250E+02  0.41346580489E+02  0.12700000000E+01 0.  1.
          4   -1    0    0  501    0  0.00000000000E+00 -0.00000000000E+00 -0.94441219375E+02  0.94449758163E+02  0.12700000000E+01 0.  1.
         25    2    1    2    0    0  0.00000000000E+00  0.00000000000E+00 -0.53114148125E+02  0.13579633865E+03  0.12497812953E+03 0.  0.
    9000005    1    3    3    0    0 -0.40078495239E+02 -0.41089028820E+02 -0.53377505551E+02  0.78388469617E+02  0.10000000000E+01 0.  0.
    9000005    1    3    3    0    0  0.40078495239E+02  0.41089028820E+02  0.26335742624E+00  0.57407869035E+02  0.10000000000E+01 0.  0.
<mgrwt>
<rscale>  0 0.12497813E+03</rscale>
<asrwt>0</asrwt>
<pdfrwt beam="2">  1        4 0.14531576E-01 0.12497813E+03</pdfrwt>
<pdfrwt beam="1">  1       -4 0.63601685E-02 0.12497813E+03</pdfrwt>
<totfact> 0.10226356E+04</totfact>
</mgrwt>
</event>
<event>
 5    1  0.3245943E-002  0.1249891E+03  0.7818608E-02  0.1235086E+00
          4   -1    0    0  501    0  0.00000000000E+00  0.00000000000E+00  0.32700295066E+02  0.32724947630E+02  0.12700000000E+01 0. -1.
         -4   -1    0    0    0  501 -0.00000000000E+00 -0.00000000000E+00 -0.11936216228E+03  0.11936891842E+03  0.12700000000E+01 0. -1.
         25    2    1    2    0    0  0.00000000000E+00  0.00000000000E+00 -0.86661867214E+02  0.15209386605E+03  0.12498905896E+03 0.  0.
    9000005    1    3    3    0    0  0.12018791078E+01  0.30845862390E+02  0.22779873540E+02  0.38377524392E+02  0.10000000000E+01 0.  0.
    9000005    1    3    3    0    0 -0.12018791078E+01 -0.30845862390E+02 -0.10944174075E+03  0.11371634165E+03  0.10000000000E+01 0.  0.
<mgrwt>
<rscale>  0 0.12498906E+03</rscale>
<asrwt>0</asrwt>
<pdfrwt beam="1">  1        4 0.50332307E-02 0.12498906E+03</pdfrwt>
<pdfrwt beam="2">  1       -4 0.18365825E-01 0.12498906E+03</pdfrwt>
<totfact> 0.98912291E+03</totfact>
</mgrwt>
</event>
<event>
 5    1  0.3245943E-002  0.1250001E+03  0.7818608E-02  0.1235069E+00
         -4   -1    0    0    0  501 -0.00000000000E+00  0.00000000000E+00  0.27472259509E+03  0.27472553058E+03  0.12700000000E+01 0.  1.
          4   -1    0    0  501    0  0.00000000000E+00 -0.00000000000E+00 -0.14187545389E+02  0.14244274083E+02  0.12700000000E+01 0.  1.
         25    2    1    2    0    0  0.00000000000E+00  0.00000000000E+00  0.26053504970E+03  0.28896980466E+03  0.12500014354E+03 0.  0.
    9000005    1    3    3    0    0  0.29896617926E+02 -0.71670040654E+01  0.44926010578E+01  0.31086285963E+02  0.10000000000E+01 0.  0.
    9000005    1    3    3    0    0 -0.29896617926E+02  0.71670040654E+01  0.25604244864E+03  0.25788351870E+03  0.10000000000E+01 0.  0.
<mgrwt>
<rscale>  0 0.12500014E+03</rscale>
<asrwt>0</asrwt>
<pdfrwt beam="2">  1        4 0.21872890E-02 0.12500014E+03</pdfrwt>
<pdfrwt beam="1">  1       -4 0.42269601E-01 0.12500014E+03</pdfrwt>
<totfact> 0.77003366E+03</totfact>
</mgrwt>
</event>
<event>
 5    1  0.3245943E-002  0.1250024E+03  0.7818608E-02  0.1235066E+00
          4   -1    0    0  501    0  0.00000000000E+00  0.00000000000E+00  0.28574423881E+01  0.31269597057E+01  0.12700000000E+01 0.  1.
         -4   -1    0    0    0  501 -0.00000000000E+00 -0.00000000000E+00 -0.13052575507E+04  0.13052581685E+04  0.12700000000E+01 0.  1.
         25    2    1    2    0    0  0.00000000000E+00  0.00000000000E+00 -0.13024001083E+04  0.13083851282E+04  0.12500240679E+03 0.  0.
    9000005    1    3    3    0    0  0.14664339756E+02  0.59062606292E+02 -0.79994988038E+03  0.80226195563E+03  0.10000000000E+01 0.  0.
    9000005    1    3    3    0    0 -0.14664339756E+02 -0.59062606292E+02 -0.50245022791E+03  0.50612317260E+03  0.10000000000E+01 0.  0.
<mgrwt>
<rscale>  0 0.12500241E+03</rscale>
<asrwt>0</asrwt>
<pdfrwt beam="1">  1        4 0.46038719E-03 0.12500241E+03</pdfrwt>
<pdfrwt beam="2">  1       -4 0.20082918E+00 0.12500241E+03</pdfrwt>
<totfact> 0.22030385E+03</totfact>
</mgrwt>
</event>
<event>
 5    1  0.3245943E-002  0.1250030E+03  0.7818608E-02  0.1235065E+00
          4   -1    0    0  501    0  0.00000000000E+00  0.00000000000E+00  0.27007772924E+03  0.27008071522E+03  0.12700000000E+01 0. -1.
         -4   -1    0    0    0  501 -0.00000000000E+00 -0.00000000000E+00 -0.14433173396E+02  0.14488940412E+02  0.12700000000E+01 0. -1.
         25    2    1    2    0    0  0.00000000000E+00  0.00000000000E+00  0.25564455585E+03  0.28456965563E+03  0.12500299985E+03 0.  0.
    9000005    1    3    3    0    0  0.54912098493E+02  0.20315182041E+02  0.78082268562E+02  0.97600644701E+02  0.10000000000E+01 0.  0.
    9000005    1    3    3    0    0 -0.54912098493E+02 -0.20315182041E+02  0.17756228728E+03  0.18696901093E+03  0.10000000000E+01 0.  0.
<mgrwt>
<rscale>  0 0.12500300E+03</rscale>
<asrwt>0</asrwt>
<pdfrwt beam="1">  1        4 0.41554936E-01 0.12500300E+03</pdfrwt>
<pdfrwt beam="2">  1       -4 0.22250078E-02 0.12500300E+03</pdfrwt>
<totfact> 0.77570908E+03</totfact>
</mgrwt>
</event>
<event>
 5    1  0.3245943E-002  0.1249914E+03  0.7818608E-02  0.1235083E+00
          4   -1    0    0  501    0  0.00000000000E+00  0.00000000000E+00  0.58279767864E+01  0.59647475574E+01  0.12700000000E+01 0. -1.
         -4   -1    0    0    0  501 -0.00000000000E+00 -0.00000000000E+00 -0.66225654464E+03  0.66225776237E+03  0.12700000000E+01 0. -1.
         25    2    1    2    0    0  0.00000000000E+00  0.00000000000E+00 -0.65642856785E+03  0.66822250993E+03  0.12499143202E+03 0.  0.
    9000005    1    3    3    0    0  0.53403132853E+02 -0.31834281868E+02 -0.36177106194E+03  0.36707576515E+03  0.10000000000E+01 0.  0.
    9000005    1    3    3    0    0 -0.53403132853E+02  0.31834281868E+02 -0.29465750592E+03  0.30114674478E+03  0.10000000000E+01 0.  0.
<mgrwt>
<rscale>  0 0.12499143E+03</rscale>
<asrwt>0</asrwt>
<pdfrwt beam="1">  1        4 0.90722684E-03 0.12499143E+03</pdfrwt>
<pdfrwt beam="2">  1       -4 0.10189618E+00 0.12499143E+03</pdfrwt>
<totfact> 0.44826501E+03</totfact>
</mgrwt>
</event>
<event>
 5    1  0.3245943E-002  0.1250022E+03  0.7818608E-02  0.1235066E+00
         -4   -1    0    0    0  501 -0.00000000000E+00  0.00000000000E+00  0.29362858288E+03  0.29363132936E+03  0.12700000000E+01 0.  1.
          4   -1    0    0  501    0  0.00000000000E+00 -0.00000000000E+00 -0.13270708600E+02  0.13331339270E+02  0.12700000000E+01 0.  1.
         25    2    1    2    0    0  0.00000000000E+00  0.00000000000E+00  0.28035787428E+03  0.30696266863E+03  0.12500216904E+03 0.  0.
    9000005    1    3    3    0    0 -0.56434801458E+02  0.22571909626E+02  0.17585008702E+03  0.18606082615E+03  0.10000000000E+01 0.  0.
    9000005    1    3    3    0    0  0.56434801458E+02 -0.22571909626E+02  0.10450778726E+03  0.12090184249E+03  0.10000000000E+01 0.  0.
<mgrwt>
<rscale>  0 0.12500217E+03</rscale>
<asrwt>0</asrwt>
<pdfrwt beam="2">  1        4 0.20465225E-02 0.12500217E+03</pdfrwt>
<pdfrwt beam="1">  1       -4 0.45178506E-01 0.12500217E+03</pdfrwt>
<totfact> 0.74730072E+03</totfact>
</mgrwt>
</event>
<event>
 5    1  0.3245943E-002  0.1249973E+03  0.7818608E-02  0.1235074E+00
         -4   -1    0    0    0  501 -0.00000000000E+00  0.00000000000E+00  0.15777788218E+03  0.15778299340E+03  0.12700000000E+01 0.  1.
          4   -1    0    0  501    0  0.00000000000E+00 -0.00000000000E+00 -0.24735019062E+02  0.24767601176E+02  0.12700000000E+01 0.  1.
         25    2    1    2    0    0  0.00000000000E+00  0.00000000000E+00  0.13304286312E+03  0.18255059457E+03  0.12499726458E+03 0.  0.
    9000005    1    3    3    0    0  0.50185941265E+01 -0.62011984270E+02  0.75087930325E+02  0.97518561108E+02  0.10000000000E+01 0.  0.
    9000005    1    3    3    0    0 -0.50185941265E+01  0.62011984270E+02  0.57954932795E+02  0.85032033466E+02  0.10000000000E+01 0.  0.
<mgrwt>
<rscale>  0 0.12499726E+03</rscale>
<asrwt>0</asrwt>
<pdfrwt beam="2">  1        4 0.38082872E-02 0.12499726E+03</pdfrwt>
<pdfrwt beam="1">  1       -4 0.24276419E-01 0.12499726E+03</pdfrwt>
<totfact> 0.93165606E+03</totfact>
</mgrwt>
</event>
<event>
 5    1  0.3245943E-002  0.1250006E+03  0.7818608E-02  0.1235068E+00
         -4   -1    0    0    0  501 -0.00000000000E+00  0.00000000000E+00  0.30371991380E+03  0.30372256903E+03  0.12700000000E+01 0. -1.
          4   -1    0    0  501    0  0.00000000000E+00 -0.00000000000E+00 -0.12827413748E+02  0.12890129691E+02  0.12700000000E+01 0. -1.
         25    2    1    2    0    0  0.00000000000E+00  0.00000000000E+00  0.29089250005E+03  0.31661269872E+03  0.12500061762E+03 0.  0.
    9000005    1    3    3    0    0 -0.50303338128E+02 -0.11678697105E+02  0.56309035625E+02  0.76410243331E+02  0.10000000000E+01 0.  0.
    9000005    1    3    3    0    0  0.50303338128E+02  0.11678697105E+02  0.23458346443E+03  0.24020245539E+03  0.10000000000E+01 0.  0.
<mgrwt>
<rscale>  0 0.12500062E+03</rscale>
<asrwt>0</asrwt>
<pdfrwt beam="2">  1        4 0.19784770E-02 0.12500062E+03</pdfrwt>
<pdfrwt beam="1">  1       -4 0.46731164E-01 0.12500062E+03</pdfrwt>
<totfact> 0.73559814E+03</totfact>
</mgrwt>
</event>
<event>
 5    1  0.3245943E-002  0.1249976E+03  0.7818608E-02  0.1235073E+00
          4   -1    0    0  501    0  0.00000000000E+00  0.00000000000E+00  0.96562150672E+01  0.97393731535E+01  0.12700000000E+01 0. -1.
         -4   -1    0    0    0  501 -0.00000000000E+00 -0.00000000000E+00 -0.40269788115E+03  0.40269988377E+03  0.12700000000E+01 0. -1.
         25    2    1    2    0    0  0.00000000000E+00  0.00000000000E+00 -0.39304166609E+03  0.41243925692E+03  0.12499755745E+03 0.  0.
    9000005    1    3    3    0    0  0.77698261545E+01  0.31880137977E+02 -0.21040822888E+02  0.38992686797E+02  0.10000000000E+01 0.  0.
    9000005    1    3    3    0    0 -0.77698261545E+01 -0.31880137977E+02 -0.37200084320E+03  0.37344657012E+03  0.10000000000E+01 0.  0.
<mgrwt>
<rscale>  0 0.12499756E+03</rscale>
<asrwt>0</asrwt>
<pdfrwt beam="1">  1        4 0.14921227E-02 0.12499756E+03</pdfrwt>
<pdfrwt beam="2">  1       -4 0.61960058E-01 0.12499756E+03</pdfrwt>
<totfact> 0.63364100E+03</totfact>
</mgrwt>
</event>
<event>
 5    1  0.3245943E-002  0.1250000E+03  0.7818608E-02  0.1235069E+00
          4   -1    0    0  501    0  0.00000000000E+00  0.00000000000E+00  0.49467366958E+01  0.51071620238E+01  0.12700000000E+01 0.  1.
         -4   -1    0    0    0  501 -0.00000000000E+00 -0.00000000000E+00 -0.77690052224E+03  0.77690156027E+03  0.12700000000E+01 0.  1.
         25    2    1    2    0    0  0.00000000000E+00  0.00000000000E+00 -0.77195378554E+03  0.78200872230E+03  0.12499997894E+03 0.  0.
    9000005    1    3    3    0    0  0.14927459165E+02  0.33045504196E+02 -0.70438657960E+03  0.70531998972E+03  0.10000000000E+01 0.  0.
    9000005    1    3    3    0    0 -0.14927459165E+02 -0.33045504196E+02 -0.67567205946E+02  0.76688732576E+02  0.10000000000E+01 0.  0.
<mgrwt>
<rscale>  0 0.12499998E+03</rscale>
<asrwt>0</asrwt>
<pdfrwt beam="1">  1        4 0.77345729E-03 0.12499998E+03</pdfrwt>
<pdfrwt beam="2">  1       -4 0.11953548E+00 0.12499998E+03</pdfrwt>
<totfact> 0.39080677E+03</totfact>
</mgrwt>
</event>
<event>
 5    1  0.3245943E-002  0.1250007E+03  0.7818608E-02  0.1235068E+00
         -4   -1    0    0    0  501 -0.00000000000E+00  0.00000000000E+00  0.59093598232E+03  0.59093734701E+03  0.12700000000E+01 0.  1.
          4   -1    0    0  501    0  0.00000000000E+00 -0.00000000000E+00 -0.65479650861E+01  0.66699885134E+01  0.12700000000E+01 0.  1.
         25    2    1    2    0    0  0.00000000000E+00  0.00000000000E+00  0.58438801723E+03  0.59760733553E+03  0.12500069117E+03 0.  0.
    9000005    1    3    3    0    0 -0.64920909294E+01 -0.41100612053E+02  0.51510005679E+03  0.51677894313E+03  0.10000000000E+01 0.  0.
    9000005    1    3    3    0    0  0.64920909294E+01  0.41100612053E+02  0.69287960434E+02  0.80828392393E+02  0.10000000000E+01 0.  0.
<mgrwt>
<rscale>  0 0.12500069E+03</rscale>
<asrwt>0</asrwt>
<pdfrwt beam="2">  1        4 0.10168703E-02 0.12500069E+03</pdfrwt>
<pdfrwt beam="1">  1       -4 0.90922752E-01 0.12500069E+03</pdfrwt>
<totfact> 0.49018235E+03</totfact>
</mgrwt>
</event>
<event>
 5    1  0.3245943E-002  0.1250021E+03  0.7818608E-02  0.1235066E+00
          4   -1    0    0  501    0  0.00000000000E+00  0.00000000000E+00  0.30823789356E+03  0.30824050987E+03  0.12700000000E+01 0.  1.
         -4   -1    0    0    0  501 -0.00000000000E+00 -0.00000000000E+00 -0.12638775479E+02  0.12702422825E+02  0.12700000000E+01 0.  1.
         25    2    1    2    0    0  0.00000000000E+00  0.00000000000E+00  0.29559911808E+03  0.32094293270E+03  0.12500210973E+03 0.  0.
    9000005    1    3    3    0    0 -0.48223520822E+02 -0.16232591770E+02  0.54645755075E+02  0.74673713874E+02  0.10000000000E+01 0.  0.
    9000005    1    3    3    0    0  0.48223520822E+02  0.16232591770E+02  0.24095336301E+03  0.24626921882E+03  0.10000000000E+01 0.  0.
<mgrwt>
<rscale>  0 0.12500211E+03</rscale>
<asrwt>0</asrwt>
<pdfrwt beam="1">  1        4 0.47426306E-01 0.12500211E+03</pdfrwt>
<pdfrwt beam="2">  1       -4 0.19495244E-02 0.12500211E+03</pdfrwt>
<totfact> 0.73040703E+03</totfact>
</mgrwt>
</event>
<event>
 5    1  0.3245943E-002  0.1250000E+03  0.7818608E-02  0.1235069E+00
          4   -1    0    0  501    0  0.00000000000E+00  0.00000000000E+00  0.73169095946E+02  0.73180116846E+02  0.12700000000E+01 0. -1.
         -4   -1    0    0    0  501 -0.00000000000E+00 -0.00000000000E+00 -0.53364024700E+02  0.53379134802E+02  0.12700000000E+01 0. -1.
         25    2    1    2    0    0  0.00000000000E+00  0.00000000000E+00  0.19805071246E+02  0.12655925165E+03  0.12500001332E+03 0.  0.
    9000005    1    3    3    0    0  0.21604635665E+02  0.37524446753E+02  0.55524641772E+02  0.70418962150E+02  0.10000000000E+01 0.  0.
    9000005    1    3    3    0    0 -0.21604635665E+02 -0.37524446753E+02 -0.35719570525E+02  0.56140289498E+02  0.10000000000E+01 0.  0.
<mgrwt>
<rscale>  0 0.12500001E+03</rscale>
<asrwt>0</asrwt>
<pdfrwt beam="1">  1        4 0.11258794E-01 0.12500001E+03</pdfrwt>
<pdfrwt beam="2">  1       -4 0.82118600E-02 0.12500001E+03</pdfrwt>
<totfact> 0.10418733E+04</totfact>
</mgrwt>
</event>
<event>
 5    1  0.3245943E-002  0.1250054E+03  0.7818608E-02  0.1235061E+00
          4   -1    0    0  501    0  0.00000000000E+00  0.00000000000E+00  0.92751696319E+03  0.92751783266E+03  0.12700000000E+01 0. -1.
         -4   -1    0    0    0  501 -0.00000000000E+00 -0.00000000000E+00 -0.41152491726E+01  0.43067593098E+01  0.12700000000E+01 0. -1.
         25    2    1    2    0    0  0.00000000000E+00  0.00000000000E+00  0.92340171402E+03  0.93182459197E+03  0.12500537889E+03 0.  0.
    9000005    1    3    3    0    0 -0.18651537405E+02  0.55653519440E+02  0.30175632216E+03  0.30741351961E+03  0.10000000000E+01 0.  0.
    9000005    1    3    3    0    0  0.18651537405E+02 -0.55653519440E+02  0.62164539186E+03  0.62441107237E+03  0.10000000000E+01 0.  0.
<mgrwt>
<rscale>  0 0.12500538E+03</rscale>
<asrwt>0</asrwt>
<pdfrwt beam="1">  1        4 0.14270965E+00 0.12500538E+03</pdfrwt>
<pdfrwt beam="2">  1       -4 0.64791398E-03 0.12500538E+03</pdfrwt>
<totfact> 0.32966332E+03</totfact>
</mgrwt>
</event>
<event>
 4    1  0.3245943E-002  0.1251010E+03  0.7818608E-02  0.1234911E+00
          4   -1    0    0  501    0  0.00000000000E+00  0.00000000000E+00  0.42339090351E+02  0.42358133479E+02  0.12700000000E+01 0.  1.
         -4   -1    0    0    0  501 -0.00000000000E+00 -0.00000000000E+00 -0.92366092872E+02  0.92374823477E+02  0.12700000000E+01 0.  1.
    9000005    1    1    2    0    0  0.45358514154E+02 -0.23247529702E+02 -0.64049485161E+02  0.81860729247E+02  0.10000000000E+01 0.  0.
    9000005    1    1    2    0    0 -0.45358514154E+02  0.23247529702E+02  0.14022482641E+02  0.52872227709E+02  0.10000000000E+01 0.  0.
<mgrwt>
<rscale>  0 0.12510103E+03</rscale>
<asrwt>0</asrwt>
<pdfrwt beam="1">  1        4 0.65158427E-02 0.12510103E+03</pdfrwt>
<pdfrwt beam="2">  1       -4 0.14212305E-01 0.12510103E+03</pdfrwt>
<totfact> 0.10220396E+04</totfact>
</mgrwt>
</event>
<event>
 5    1  0.3245943E-002  0.1250014E+03  0.7818608E-02  0.1235067E+00
          4   -1    0    0  501    0  0.00000000000E+00  0.00000000000E+00  0.28441180888E+03  0.28441464436E+03  0.12700000000E+01 0. -1.
         -4   -1    0    0    0  501 -0.00000000000E+00 -0.00000000000E+00 -0.13702519011E+02  0.13761247299E+02  0.12700000000E+01 0. -1.
         25    2    1    2    0    0  0.00000000000E+00  0.00000000000E+00  0.27070928987E+03  0.29817589166E+03  0.12500137099E+03 0.  0.
    9000005    1    3    3    0    0  0.13235909332E+02 -0.45662061400E+02  0.23210595999E+03  0.23692697147E+03  0.10000000000E+01 0.  0.
    9000005    1    3    3    0    0 -0.13235909332E+02  0.45662061400E+02  0.38603329873E+02  0.61248920190E+02  0.10000000000E+01 0.  0.
<mgrwt>
<rscale>  0 0.12500137E+03</rscale>
<asrwt>0</asrwt>
<pdfrwt beam="1">  1        4 0.43760396E-01 0.12500137E+03</pdfrwt>
<pdfrwt beam="2">  1       -4 0.21128156E-02 0.12500137E+03</pdfrwt>
<totfact> 0.75825915E+03</totfact>
</mgrwt>
</event>
<event>
 5    1  0.3245943E-002  0.1249990E+03  0.7818608E-02  0.1235071E+00
         -4   -1    0    0    0  501 -0.00000000000E+00  0.00000000000E+00  0.58370115771E+02  0.58383930282E+02  0.12700000000E+01 0. -1.
          4   -1    0    0  501    0  0.00000000000E+00 -0.00000000000E+00 -0.66893300462E+02  0.66905355142E+02  0.12700000000E+01 0. -1.
         25    2    1    2    0    0  0.00000000000E+00  0.00000000000E+00 -0.85231846910E+01  0.12528928542E+03  0.12499904146E+03 0.  0.
    9000005    1    3    3    0    0  0.16420173716E+01  0.57372477234E+02 -0.29035226889E+02  0.64329944547E+02  0.10000000000E+01 0.  0.
    9000005    1    3    3    0    0 -0.16420173716E+01 -0.57372477234E+02  0.20512042198E+02  0.60959340877E+02  0.10000000000E+01 0.  0.
<mgrwt>
<rscale>  0 0.12499904E+03</rscale>
<asrwt>0</asrwt>
<pdfrwt beam="2">  1        4 0.10293267E-01 0.12499904E+03</pdfrwt>
<pdfrwt beam="1">  1       -4 0.89820078E-02 0.12499904E+03</pdfrwt>
<totfact> 0.10446809E+04</totfact>
</mgrwt>
</event>
<event>
 5    1  0.3245943E-002  0.1249955E+03  0.7818608E-02  0.1235076E+00
          4   -1    0    0  501    0  0.00000000000E+00  0.00000000000E+00  0.18443346777E+04  0.18443351149E+04  0.12700000000E+01 0. -1.
         -4   -1    0    0    0  501 -0.00000000000E+00 -0.00000000000E+00 -0.19269467054E+01  0.23078179316E+01  0.12700000000E+01 0. -1.
         25    2    1    2    0    0  0.00000000000E+00  0.00000000000E+00  0.18424077309E+04  0.18466429328E+04  0.12499549737E+03 0.  0.
    9000005    1    3    3    0    0  0.55983722590E+02 -0.32321650795E+01  0.51382943627E+03  0.51688133422E+03  0.10000000000E+01 0.  0.
    9000005    1    3    3    0    0 -0.55983722590E+02  0.32321650795E+01  0.13285782947E+04  0.13297615986E+04  0.10000000000E+01 0.  0.
<mgrwt>
<rscale>  0 0.12499550E+03</rscale>
<asrwt>0</asrwt>
<pdfrwt beam="1">  1        4 0.28377323E+00 0.12499550E+03</pdfrwt>
<pdfrwt beam="2">  1       -4 0.32578464E-03 0.12499550E+03</pdfrwt>
<totfact> 0.11999650E+03</totfact>
</mgrwt>
</event>
<event>
 5    1  0.3245943E-002  0.1250180E+03  0.7818608E-02  0.1235041E+00
         -4   -1    0    0    0  501 -0.00000000000E+00  0.00000000000E+00  0.35104553907E+03  0.35104783634E+03  0.12700000000E+01 0.  1.
          4   -1    0    0  501    0  0.00000000000E+00 -0.00000000000E+00 -0.11092117766E+02  0.11164585821E+02  0.12700000000E+01 0.  1.
         25    2    1    2    0    0  0.00000000000E+00  0.00000000000E+00  0.33995342130E+03  0.36221242216E+03  0.12501803915E+03 0.  0.
    9000005    1    3    3    0    0  0.52136362484E+02  0.76820415967E+01  0.26733413320E+03  0.27248073845E+03  0.10000000000E+01 0.  0.
    9000005    1    3    3    0    0 -0.52136362484E+02 -0.76820415967E+01  0.72619288103E+02  0.89731683706E+02  0.10000000000E+01 0.  0.
<mgrwt>
<rscale>  0 0.12501804E+03</rscale>
<asrwt>0</asrwt>
<pdfrwt beam="2">  1        4 0.17122308E-02 0.12501804E+03</pdfrwt>
<pdfrwt beam="1">  1       -4 0.54012759E-01 0.12501804E+03</pdfrwt>
<totfact> 0.68374325E+03</totfact>
</mgrwt>
</event>
<event>
 5    1  0.3245943E-002  0.1249960E+03  0.7818608E-02  0.1235076E+00
          4   -1    0    0  501    0  0.00000000000E+00  0.00000000000E+00  0.45794984352E+01  0.47523368902E+01  0.12700000000E+01 0. -1.
         -4   -1    0    0    0  501 -0.00000000000E+00 -0.00000000000E+00 -0.83696061695E+03  0.83696158049E+03  0.12700000000E+01 0. -1.
         25    2    1    2    0    0  0.00000000000E+00  0.00000000000E+00 -0.83238111851E+03  0.84171391738E+03  0.12499596898E+03 0.  0.
    9000005    1    3    3    0    0 -0.26460426451E+02 -0.52033644416E+02 -0.26601583918E+03  0.27234735360E+03  0.10000000000E+01 0.  0.
    9000005    1    3    3    0    0  0.26460426451E+02  0.52033644416E+02 -0.56636527933E+03  0.56936656378E+03  0.10000000000E+01 0.  0.
<mgrwt>
<rscale>  0 0.12499597E+03</rscale>
<asrwt>0</asrwt>
<pdfrwt beam="1">  1        4 0.71790827E-03 0.12499597E+03</pdfrwt>
<pdfrwt beam="2">  1       -4 0.12877642E+00 0.12499597E+03</pdfrwt>
<totfact> 0.36472060E+03</totfact>
</mgrwt>
</event>
<event>
 5    1  0.3245943E-002  0.1250004E+03  0.7818608E-02  0.1235069E+00
         -4   -1    0    0    0  501 -0.00000000000E+00  0.00000000000E+00  0.14248038757E+03  0.14248604753E+03  0.12700000000E+01 0.  1.
          4   -1    0    0  501    0  0.00000000000E+00 -0.00000000000E+00 -0.27395334377E+02  0.27424756072E+02  0.12700000000E+01 0.  1.
         25    2    1    2    0    0  0.00000000000E+00  0.00000000000E+00  0.11508505319E+03  0.16991080360E+03  0.12500044685E+03 0.  0.
    9000005    1    3    3    0    0  0.90634345700E+01 -0.61027507304E+02  0.44033193726E+02  0.75805175573E+02  0.10000000000E+01 0.  0.
    9000005    1    3    3    0    0 -0.90634345700E+01  0.61027507304E+02  0.71051859465E+02  0.94105628032E+02  0.10000000000E+01 0.  0.
<mgrwt>
<rscale>  0 0.12500045E+03</rscale>
<asrwt>0</asrwt>
<pdfrwt beam="2">  1        4 0.42173655E-02 0.12500045E+03</pdfrwt>
<pdfrwt beam="1">  1       -4 0.21922758E-01 0.12500045E+03</pdfrwt>
<totfact> 0.95464307E+03</totfact>
</mgrwt>
</event>
<event>
 5    1  0.3245943E-002  0.1250001E+03  0.7818608E-02  0.1235069E+00
          4   -1    0    0  501    0  0.00000000000E+00  0.00000000000E+00  0.21130432077E+03  0.21130813727E+03  0.12700000000E+01 0. -1.
         -4   -1    0    0    0  501 -0.00000000000E+00 -0.00000000000E+00 -0.18460593722E+02  0.18504227100E+02  0.12700000000E+01 0. -1.
         25    2    1    2    0    0  0.00000000000E+00  0.00000000000E+00  0.19284372705E+03  0.22981236437E+03  0.12500007902E+03 0.  0.
    9000005    1    3    3    0    0 -0.53733570077E+02 -0.22221888860E+02  0.54330862127E+02  0.79586126160E+02  0.10000000000E+01 0.  0.
    9000005    1    3    3    0    0  0.53733570077E+02  0.22221888860E+02  0.13851286492E+03  0.15022623821E+03  0.10000000000E+01 0.  0.
<mgrwt>
<rscale>  0 0.12500008E+03</rscale>
<asrwt>0</asrwt>
<pdfrwt beam="1">  1        4 0.32512006E-01 0.12500008E+03</pdfrwt>
<pdfrwt beam="2">  1       -4 0.28437414E-02 0.12500008E+03</pdfrwt>
<totfact> 0.85338266E+03</totfact>
</mgrwt>
</event>
<event>
 5    1  0.3245943E-002  0.1249989E+03  0.7818608E-02  0.1235071E+00
         -4   -1    0    0    0  501 -0.00000000000E+00  0.00000000000E+00  0.11633931632E+03  0.11634624799E+03  0.12700000000E+01 0.  1.
          4   -1    0    0  501    0  0.00000000000E+00 -0.00000000000E+00 -0.33555802909E+02  0.33579827409E+02  0.12700000000E+01 0.  1.
         25    2    1    2    0    0  0.00000000000E+00  0.00000000000E+00  0.82783513410E+02  0.14992607540E+03  0.12499887196E+03 0.  0.
    9000005    1    3    3    0    0 -0.40720428185E+02 -0.46530277293E+02  0.30533232940E+02  0.68967371200E+02  0.10000000000E+01 0.  0.
    9000005    1    3    3    0    0  0.40720428185E+02  0.46530277293E+02  0.52250280471E+02  0.80958704200E+02  0.10000000000E+01 0.  0.
<mgrwt>
<rscale>  0 0.12499887E+03</rscale>
<asrwt>0</asrwt>
<pdfrwt beam="2">  1        4 0.51648124E-02 0.12499887E+03</pdfrwt>
<pdfrwt beam="1">  1       -4 0.17900738E-01 0.12499887E+03</pdfrwt>
<totfact> 0.99320957E+03</totfact>
</mgrwt>
</event>
<event>
 5    1  0.3245943E-002  0.1249897E+03  0.7818608E-02  0.1235085E+00
          4   -1    0    0  501    0  0.00000000000E+00  0.00000000000E+00  0.37246594404E+02  0.37268239759E+02  0.12700000000E+01 0.  1.
         -4   -1    0    0    0  501 -0.00000000000E+00 -0.00000000000E+00 -0.10480205934E+03  0.10480975404E+03  0.12700000000E+01 0.  1.
         25    2    1    2    0    0  0.00000000000E+00  0.00000000000E+00 -0.67555464935E+02  0.14207799380E+03  0.12498966149E+03 0.  0.
    9000005    1    3    3    0    0 -0.83847755830E+01 -0.14363918368E+02  0.34689851355E+02  0.38483923910E+02  0.10000000000E+01 0.  0.
    9000005    1    3    3    0    0  0.83847755830E+01  0.14363918368E+02 -0.10224531629E+03  0.10359406989E+03  0.10000000000E+01 0.  0.
<mgrwt>
<rscale>  0 0.12498966E+03</rscale>
<asrwt>0</asrwt>
<pdfrwt beam="1">  1        4 0.57325023E-02 0.12498966E+03</pdfrwt>
<pdfrwt beam="2">  1       -4 0.16125651E-01 0.12498966E+03</pdfrwt>
<totfact> 0.10093049E+04</totfact>
</mgrwt>
</event>
<event>
 5    1  0.3245943E-002  0.1249991E+03  0.7818608E-02  0.1235071E+00
          4   -1    0    0  501    0  0.00000000000E+00  0.00000000000E+00  0.18473687550E+03  0.18474124085E+03  0.12700000000E+01 0.  1.
         -4   -1    0    0    0  501 -0.00000000000E+00 -0.00000000000E+00 -0.21120947239E+02  0.21159095261E+02  0.12700000000E+01 0.  1.
         25    2    1    2    0    0  0.00000000000E+00  0.00000000000E+00  0.16361592826E+03  0.20590033611E+03  0.12499910571E+03 0.  0.
    9000005    1    3    3    0    0  0.20372282022E+02 -0.17863192255E+02 -0.10950405119E+02  0.29240979542E+02  0.10000000000E+01 0.  0.
    9000005    1    3    3    0    0 -0.20372282022E+02  0.17863192255E+02  0.17456633338E+03  0.17665935657E+03  0.10000000000E+01 0.  0.
<mgrwt>
<rscale>  0 0.12499911E+03</rscale>
<asrwt>0</asrwt>
<pdfrwt beam="1">  1        4 0.28424328E-01 0.12499911E+03</pdfrwt>
<pdfrwt beam="2">  1       -4 0.32526468E-02 0.12499911E+03</pdfrwt>
<totfact> 0.89151600E+03</totfact>
</mgrwt>
</event>
<event>
 5    1  0.3245943E-002  0.1250022E+03  0.7818608E-02  0.1235066E+00
          4   -1    0    0  501    0  0.00000000000E+00  0.00000000000E+00  0.66062371493E+01  0.67272036741E+01  0.12700000000E+01 0.  1.
         -4   -1    0    0    0  501 -0.00000000000E+00 -0.00000000000E+00 -0.58583162180E+03  0.58583299839E+03  0.12700000000E+01 0.  1.
         25    2    1    2    0    0  0.00000000000E+00  0.00000000000E+00 -0.57922538465E+03  0.59256020206E+03  0.12500218736E+03 0.  0.
    9000005    1    3    3    0    0 -0.69113008359E+01  0.38134221112E+02 -0.57217007737E+02  0.69114187208E+02  0.10000000000E+01 0.  0.
    9000005    1    3    3    0    0  0.69113008359E+01 -0.38134221112E+02 -0.52200837692E+03  0.52344601486E+03  0.10000000000E+01 0.  0.
<mgrwt>
<rscale>  0 0.12500219E+03</rscale>
<asrwt>0</asrwt>
<pdfrwt beam="1">  1        4 0.10257556E-02 0.12500219E+03</pdfrwt>
<pdfrwt beam="2">  1       -4 0.90137312E-01 0.12500219E+03</pdfrwt>
<totfact> 0.49338274E+03</totfact>
</mgrwt>
</event>
<event>
 5    1  0.3245943E-002  0.1249634E+03  0.7818608E-02  0.1235126E+00
          4   -1    0    0  501    0  0.00000000000E+00  0.00000000000E+00  0.58395274942E+02  0.58409083502E+02  0.12700000000E+01 0.  1.
         -4   -1    0    0    0  501 -0.00000000000E+00 -0.00000000000E+00 -0.66826390345E+02  0.66838457093E+02  0.12700000000E+01 0.  1.
         25    2    1    2    0    0  0.00000000000E+00  0.00000000000E+00 -0.84311154036E+01  0.12524754060E+03  0.12496344553E+03 0.  0.
    9000005    1    3    3    0    0 -0.54933236001E+02 -0.52596280105E+01 -0.33567654323E+02  0.64599624776E+02  0.10000000000E+01 0.  0.
    9000005    1    3    3    0    0  0.54933236001E+02  0.52596280105E+01  0.25136538920E+02  0.60647915820E+02  0.10000000000E+01 0.  0.
<mgrwt>
<rscale>  0 0.12496345E+03</rscale>
<asrwt>0</asrwt>
<pdfrwt beam="1">  1        4 0.89858789E-02 0.12496345E+03</pdfrwt>
<pdfrwt beam="2">  1       -4 0.10282974E-01 0.12496345E+03</pdfrwt>
<totfact> 0.10456124E+04</totfact>
</mgrwt>
</event>
<event>
 5    1  0.3245943E-002  0.1250014E+03  0.7818608E-02  0.1235067E+00
          4   -1    0    0  501    0  0.00000000000E+00  0.00000000000E+00  0.69543719983E+02  0.69555315319E+02  0.12700000000E+01 0. -1.
         -4   -1    0    0    0  501 -0.00000000000E+00 -0.00000000000E+00 -0.56147539092E+02  0.56161900307E+02  0.12700000000E+01 0. -1.
         25    2    1    2    0    0  0.00000000000E+00  0.00000000000E+00  0.13396180891E+02  0.12571721563E+03  0.12500144256E+03 0.  0.
    9000005    1    3    3    0    0  0.25217757795E+02  0.55317841909E+02 -0.78533874223E+01  0.61308030760E+02  0.10000000000E+01 0.  0.
    9000005    1    3    3    0    0 -0.25217757795E+02 -0.55317841909E+02  0.21249568313E+02  0.64409184866E+02  0.10000000000E+01 0.  0.
<mgrwt>
<rscale>  0 0.12500144E+03</rscale>
<asrwt>0</asrwt>
<pdfrwt beam="1">  1        4 0.10701031E-01 0.12500144E+03</pdfrwt>
<pdfrwt beam="2">  1       -4 0.86400796E-02 0.12500144E+03</pdfrwt>
<totfact> 0.10436826E+04</totfact>
</mgrwt>
</event>
<event>
 5    1  0.3245943E-002  0.1249942E+03  0.7818608E-02  0.1235078E+00
         -4   -1    0    0    0  501 -0.00000000000E+00  0.00000000000E+00  0.46618319836E+03  0.46618492826E+03  0.12700000000E+01 0.  1.
          4   -1    0    0  501    0  0.00000000000E+00 -0.00000000000E+00 -0.83285561881E+01  0.84248292670E+01  0.12700000000E+01 0.  1.
         25    2    1    2    0    0  0.00000000000E+00  0.00000000000E+00  0.45785464218E+03  0.47460975753E+03  0.12499419418E+03 0.  0.
    9000005    1    3    3    0    0  0.41903909759E+02  0.36000629054E+02  0.33981848654E+03  0.34428126110E+03  0.10000000000E+01 0.  0.
    9000005    1    3    3    0    0 -0.41903909759E+02 -0.36000629054E+02  0.11803615563E+03  0.13032849643E+03  0.10000000000E+01 0.  0.
<mgrwt>
<rscale>  0 0.12499419E+03</rscale>
<asrwt>0</asrwt>
<pdfrwt beam="2">  1        4 0.12888548E-02 0.12499419E+03</pdfrwt>
<pdfrwt beam="1">  1       -4 0.71728046E-01 0.12499419E+03</pdfrwt>
<totfact> 0.57896982E+03</totfact>
</mgrwt>
</event>
<event>
 5    1  0.3245943E-002  0.1250000E+03  0.7818608E-02  0.1235069E+00
          4   -1    0    0  501    0  0.00000000000E+00  0.00000000000E+00  0.64768266740E+02  0.64780716857E+02  0.12700000000E+01 0.  1.
         -4   -1    0    0    0  501 -0.00000000000E+00 -0.00000000000E+00 -0.60286273615E+02  0.60299649139E+02  0.12700000000E+01 0.  1.
         25    2    1    2    0    0  0.00000000000E+00  0.00000000000E+00  0.44819931258E+01  0.12508036600E+03  0.12500003878E+03 0.  0.
    9000005    1    3    3    0    0  0.13385191086E+02 -0.60427423197E+02 -0.64025871041E+01  0.62230458268E+02  0.10000000000E+01 0.  0.
    9000005    1    3    3    0    0 -0.13385191086E+02  0.60427423197E+02  0.10884580230E+02  0.62849907728E+02  0.10000000000E+01 0.  0.
<mgrwt>
<rscale>  0 0.12500004E+03</rscale>
<asrwt>0</asrwt>
<pdfrwt beam="1">  1        4 0.99663353E-02 0.12500004E+03</pdfrwt>
<pdfrwt beam="2">  1       -4 0.92767979E-02 0.12500004E+03</pdfrwt>
<totfact> 0.10451108E+04</totfact>
</mgrwt>
</event>
<event>
 5    1  0.3245943E-002  0.1250023E+03  0.7818608E-02  0.1235066E+00
         -4   -1    0    0    0  501 -0.00000000000E+00  0.00000000000E+00  0.54580152915E+02  0.54594926433E+02  0.12700000000E+01 0. -1.
          4   -1    0    0  501    0  0.00000000000E+00 -0.00000000000E+00 -0.71541588251E+02  0.71552859827E+02  0.12700000000E+01 0. -1.
         25    2    1    2    0    0  0.00000000000E+00  0.00000000000E+00 -0.16961435336E+02  0.12614778626E+03  0.12500229474E+03 0.  0.
    9000005    1    3    3    0    0 -0.34274264731E+02 -0.38559849024E+02  0.27110103965E+02  0.58288462980E+02  0.10000000000E+01 0.  0.
    9000005    1    3    3    0    0  0.34274264731E+02  0.38559849024E+02 -0.44071539302E+02  0.67859323280E+02  0.10000000000E+01 0.  0.
<mgrwt>
<rscale>  0 0.12500229E+03</rscale>
<asrwt>0</asrwt>
<pdfrwt beam="2">  1        4 0.11008402E-01 0.12500229E+03</pdfrwt>
<pdfrwt beam="1">  1       -4 0.83989501E-02 0.12500229E+03</pdfrwt>
<totfact> 0.10427181E+04</totfact>
</mgrwt>
</event>
<event>
 5    1  0.3245943E-002  0.1249961E+03  0.7818608E-02  0.1235075E+00
         -4   -1    0    0    0  501 -0.00000000000E+00  0.00000000000E+00  0.72994142501E+02  0.73005189812E+02  0.12700000000E+01 0. -1.
          4   -1    0    0  501    0  0.00000000000E+00 -0.00000000000E+00 -0.53488591558E+02  0.53503666480E+02  0.12700000000E+01 0. -1.
         25    2    1    2    0    0  0.00000000000E+00  0.00000000000E+00  0.19505550943E+02  0.12650885629E+03  0.12499609675E+03 0.  0.
    9000005    1    3    3    0    0  0.40551909535E+02 -0.26311790079E+02 -0.30327483412E+02  0.57074722200E+02  0.10000000000E+01 0.  0.
    9000005    1    3    3    0    0 -0.40551909535E+02  0.26311790079E+02  0.49833034355E+02  0.69434134092E+02  0.10000000000E+01 0.  0.
<mgrwt>
<rscale>  0 0.12499610E+03</rscale>
<asrwt>0</asrwt>
<pdfrwt beam="2">  1        4 0.82310235E-02 0.12499610E+03</pdfrwt>
<pdfrwt beam="1">  1       -4 0.11231878E-01 0.12499610E+03</pdfrwt>
<totfact> 0.10420753E+04</totfact>
</mgrwt>
</event>
<event>
 5    1  0.3245943E-002  0.1249988E+03  0.7818608E-02  0.1235071E+00
          4   -1    0    0  501    0  0.00000000000E+00  0.00000000000E+00  0.57401665337E+02  0.57415712862E+02  0.12700000000E+01 0. -1.
         -4   -1    0    0    0  501 -0.00000000000E+00 -0.00000000000E+00 -0.68021587433E+02  0.68033442195E+02  0.12700000000E+01 0. -1.
         25    2    1    2    0    0  0.00000000000E+00  0.00000000000E+00 -0.10619922095E+02  0.12544915506E+03  0.12499883103E+03 0.  0.
    9000005    1    3    3    0    0  0.22435389930E+02 -0.48073879577E+02  0.27835256984E+02  0.59918662788E+02  0.10000000000E+01 0.  0.
    9000005    1    3    3    0    0 -0.22435389930E+02  0.48073879577E+02 -0.38455179080E+02  0.65530492269E+02  0.10000000000E+01 0.  0.
<mgrwt>
<rscale>  0 0.12499883E+03</rscale>
<asrwt>0</asrwt>
<pdfrwt beam="1">  1        4 0.88330180E-02 0.12499883E+03</pdfrwt>
<pdfrwt beam="2">  1       -4 0.10466852E-01 0.12499883E+03</pdfrwt>
<totfact> 0.10443354E+04</totfact>
</mgrwt>
</event>
<event>
 5    1  0.3245943E-002  0.1250010E+03  0.7818608E-02  0.1235068E+00
          4   -1    0    0  501    0  0.00000000000E+00  0.00000000000E+00  0.65627410884E+01  0.66844947897E+01  0.12700000000E+01 0. -1.
         -4   -1    0    0    0  501 -0.00000000000E+00 -0.00000000000E+00 -0.58963255066E+03  0.58963391837E+03  0.12700000000E+01 0. -1.
         25    2    1    2    0    0  0.00000000000E+00  0.00000000000E+00 -0.58306980957E+03  0.59631841316E+03  0.12500098818E+03 0.  0.
    9000005    1    3    3    0    0 -0.51087396687E+02  0.34758429532E+02 -0.33609290404E+03  0.34172724602E+03  0.10000000000E+01 0.  0.
    9000005    1    3    3    0    0  0.51087396687E+02 -0.34758429532E+02 -0.24697690553E+03  0.25459116714E+03  0.10000000000E+01 0.  0.
<mgrwt>
<rscale>  0 0.12500099E+03</rscale>
<asrwt>0</asrwt>
<pdfrwt beam="1">  1        4 0.10191238E-02 0.12500099E+03</pdfrwt>
<pdfrwt beam="2">  1       -4 0.90722130E-01 0.12500099E+03</pdfrwt>
<totfact> 0.49099783E+03</totfact>
</mgrwt>
</event>
<event>
 5    1  0.3245943E-002  0.1249993E+03  0.7818608E-02  0.1235070E+00
         -4   -1    0    0    0  501 -0.00000000000E+00  0.00000000000E+00  0.11774632095E+03  0.11775316980E+03  0.12700000000E+01 0.  1.
          4   -1    0    0  501    0  0.00000000000E+00 -0.00000000000E+00 -0.33154790463E+02  0.33179105333E+02  0.12700000000E+01 0.  1.
         25    2    1    2    0    0  0.00000000000E+00  0.00000000000E+00  0.84591530486E+02  0.15093227513E+03  0.12499929858E+03 0.  0.
    9000005    1    3    3    0    0  0.37094283450E+01  0.50386760261E+02 -0.21123719649E+01  0.50577144874E+02  0.10000000000E+01 0.  0.
    9000005    1    3    3    0    0 -0.37094283450E+01 -0.50386760261E+02  0.86703902451E+02  0.10035513026E+03  0.10000000000E+01 0.  0.
<mgrwt>
<rscale>  0 0.12499930E+03</rscale>
<asrwt>0</asrwt>
<pdfrwt beam="2">  1        4 0.51031343E-02 0.12499930E+03</pdfrwt>
<pdfrwt beam="1">  1       -4 0.18117216E-01 0.12499930E+03</pdfrwt>
<totfact> 0.99119752E+03</totfact>
</mgrwt>
</event>
<event>
 5    1  0.3245943E-002  0.1249999E+03  0.7818608E-02  0.1235069E+00
         -4   -1    0    0    0  501 -0.00000000000E+00  0.00000000000E+00  0.49508029535E+03  0.49508192428E+03  0.12700000000E+01 0.  1.
          4   -1    0    0  501    0  0.00000000000E+00 -0.00000000000E+00 -0.78373618515E+01  0.79395932384E+01  0.12700000000E+01 0.  1.
         25    2    1    2    0    0  0.00000000000E+00  0.00000000000E+00  0.48724293350E+03  0.50302151752E+03  0.12499988335E+03 0.  0.
    9000005    1    3    3    0    0 -0.13561439465E+02 -0.33055602411E+02  0.37300229330E+02  0.51661325953E+02  0.10000000000E+01 0.  0.
    9000005    1    3    3    0    0  0.13561439465E+02  0.33055602411E+02  0.44994270417E+03  0.45136019156E+03  0.10000000000E+01 0.  0.
<mgrwt>
<rscale>  0 0.12499988E+03</rscale>
<asrwt>0</asrwt>
<pdfrwt beam="2">  1        4 0.12137374E-02 0.12499988E+03</pdfrwt>
<pdfrwt beam="1">  1       -4 0.76174181E-01 0.12499988E+03</pdfrwt>
<totfact> 0.55630839E+03</totfact>
</mgrwt>
</event>
<event>
 5    1  0.3245943E-002  0.1250043E+03  0.7818608E-02  0.1235063E+00
          4   -1    0    0  501    0  0.00000000000E+00  0.00000000000E+00  0.24562487117E+02  0.24595297790E+02  0.12700000000E+01 0.  1.
         -4   -1    0    0    0  501 -0.00000000000E+00 -0.00000000000E+00 -0.15890259095E+03  0.15890766599E+03  0.12700000000E+01 0.  1.
         25    2    1    2    0    0  0.00000000000E+00  0.00000000000E+00 -0.13434010383E+03  0.18350296378E+03  0.12500429680E+03 0.  0.
    9000005    1    3    3    0    0  0.35228191486E+02  0.51498775433E+02 -0.72332896976E+02  0.95531132786E+02  0.10000000000E+01 0.  0.
    9000005    1    3    3    0    0 -0.35228191486E+02 -0.51498775433E+02 -0.62007206859E+02  0.87971830997E+02  0.10000000000E+01 0.  0.
<mgrwt>
<rscale>  0 0.12500430E+03</rscale>
<asrwt>0</asrwt>
<pdfrwt beam="1">  1        4 0.37817586E-02 0.12500430E+03</pdfrwt>
<pdfrwt beam="2">  1       -4 0.24449466E-01 0.12500430E+03</pdfrwt>
<totfact> 0.92981277E+03</totfact>
</mgrwt>
</event>
<event>
 5    1  0.3245943E-002  0.1249589E+03  0.7818608E-02  0.1235134E+00
          4   -1    0    0  501    0  0.00000000000E+00  0.00000000000E+00  0.77505170734E+01  0.78538789719E+01  0.12700000000E+01 0. -1.
         -4   -1    0    0    0  501 -0.00000000000E+00 -0.00000000000E+00 -0.50022698315E+03  0.50022859532E+03  0.12700000000E+01 0. -1.
         25    2    1    2    0    0  0.00000000000E+00  0.00000000000E+00 -0.49247646608E+03  0.50808247429E+03  0.12495891740E+03 0.  0.
    9000005    1    3    3    0    0 -0.45438534358E+02 -0.32415443458E+02 -0.13215378793E+03  0.14346095302E+03  0.10000000000E+01 0.  0.
    9000005    1    3    3    0    0  0.45438534358E+02  0.32415443458E+02 -0.36032267815E+03  0.36462152126E+03  0.10000000000E+01 0.  0.
<mgrwt>
<rscale>  0 0.12495892E+03</rscale>
<asrwt>0</asrwt>
<pdfrwt beam="1">  1        4 0.12004626E-02 0.12495892E+03</pdfrwt>
<pdfrwt beam="2">  1       -4 0.76966047E-01 0.12495892E+03</pdfrwt>
<totfact> 0.55292605E+03</totfact>
</mgrwt>
</event>
<event>
 5    1  0.3245943E-002  0.1250042E+03  0.7818608E-02  0.1235063E+00
         -4   -1    0    0    0  501 -0.00000000000E+00  0.00000000000E+00  0.67133544894E+01  0.68324247893E+01  0.12700000000E+01 0. -1.
          4   -1    0    0  501    0  0.00000000000E+00 -0.00000000000E+00 -0.57666683651E+03  0.57666823497E+03  0.12700000000E+01 0. -1.
         25    2    1    2    0    0  0.00000000000E+00  0.00000000000E+00 -0.56995348202E+03  0.58350065976E+03  0.12500419305E+03 0.  0.
    9000005    1    3    3    0    0  0.49955580891E+02 -0.36670949673E+02 -0.24728737967E+03  0.25493600522E+03  0.10000000000E+01 0.  0.
    9000005    1    3    3    0    0 -0.49955580891E+02  0.36670949673E+02 -0.32266610235E+03  0.32856465454E+03  0.10000000000E+01 0.  0.
<mgrwt>
<rscale>  0 0.12500419E+03</rscale>
<asrwt>0</asrwt>
<pdfrwt beam="2">  1        4 0.88727203E-01 0.12500419E+03</pdfrwt>
<pdfrwt beam="1">  1       -4 0.10420911E-02 0.12500419E+03</pdfrwt>
<totfact> 0.49921362E+03</totfact>
</mgrwt>
</event>
<event>
 5    1  0.3245943E-002  0.1250013E+03  0.7818608E-02  0.1235067E+00
          4   -1    0    0  501    0  0.00000000000E+00  0.00000000000E+00  0.14306323586E+02  0.14362583144E+02  0.12700000000E+01 0.  1.
         -4   -1    0    0    0  501 -0.00000000000E+00 -0.00000000000E+00 -0.27245566404E+03  0.27245862396E+03  0.12700000000E+01 0.  1.
         25    2    1    2    0    0  0.00000000000E+00  0.00000000000E+00 -0.25814934046E+03  0.28682120710E+03  0.12500129145E+03 0.  0.
    9000005    1    3    3    0    0 -0.93886806125E+01 -0.61707481053E+02 -0.13609844542E+03  0.14973225233E+03  0.10000000000E+01 0.  0.
    9000005    1    3    3    0    0  0.93886806125E+01  0.61707481053E+02 -0.12205089504E+03  0.13708895478E+03  0.10000000000E+01 0.  0.
<mgrwt>
<rscale>  0 0.12500129E+03</rscale>
<asrwt>0</asrwt>
<pdfrwt beam="1">  1        4 0.22055284E-02 0.12500129E+03</pdfrwt>
<pdfrwt beam="2">  1       -4 0.41920807E-01 0.12500129E+03</pdfrwt>
<totfact> 0.77280054E+03</totfact>
</mgrwt>
</event>
<event>
 5    1  0.3245943E-002  0.1249898E+03  0.7818608E-02  0.1235085E+00
         -4   -1    0    0    0  501 -0.00000000000E+00  0.00000000000E+00  0.61164349148E+02  0.61177532695E+02  0.12700000000E+01 0. -1.
          4   -1    0    0  501    0  0.00000000000E+00 -0.00000000000E+00 -0.63828035681E+02  0.63840669161E+02  0.12700000000E+01 0. -1.
         25    2    1    2    0    0  0.00000000000E+00  0.00000000000E+00 -0.26636865333E+01  0.12501820186E+03  0.12498982186E+03 0.  0.
    9000005    1    3    3    0    0  0.61532700713E+02 -0.10015734221E+02  0.29147895200E+01  0.62418620515E+02  0.10000000000E+01 0.  0.
    9000005    1    3    3    0    0 -0.61532700713E+02  0.10015734221E+02 -0.55784760533E+01  0.62599581341E+02  0.10000000000E+01 0.  0.
<mgrwt>
<rscale>  0 0.12498982E+03</rscale>
<asrwt>0</asrwt>
<pdfrwt beam="2">  1        4 0.98216837E-02 0.12498982E+03</pdfrwt>
<pdfrwt beam="1">  1       -4 0.94118858E-02 0.12498982E+03</pdfrwt>
<totfact> 0.10454872E+04</totfact>
</mgrwt>
</event>
<event>
 5    1  0.3245943E-002  0.1250030E+03  0.7818608E-02  0.1235065E+00
          4   -1    0    0  501    0  0.00000000000E+00  0.00000000000E+00  0.31739644957E+04  0.31739647498E+04  0.12700000000E+01 0. -1.
         -4   -1    0    0    0  501 -0.00000000000E+00 -0.00000000000E+00 -0.90283512361E+00  0.15582077077E+01  0.12700000000E+01 0. -1.
         25    2    1    2    0    0  0.00000000000E+00  0.00000000000E+00  0.31730616606E+04  0.31755229575E+04  0.12500300688E+03 0.  0.
    9000005    1    3    3    0    0 -0.22056067333E+02 -0.53872289022E+02  0.10090565515E+04  0.10107347910E+04  0.10000000000E+01 0.  0.
    9000005    1    3    3    0    0  0.22056067333E+02  0.53872289022E+02  0.21640051091E+04  0.21647881665E+04  0.10000000000E+01 0.  0.
<mgrwt>
<rscale>  0 0.12500301E+03</rscale>
<asrwt>0</asrwt>
<pdfrwt beam="1">  1        4 0.48835065E+00 0.12500301E+03</pdfrwt>
<pdfrwt beam="2">  1       -4 0.18933131E-03 0.12500301E+03</pdfrwt>
<totfact> 0.12428762E+02</totfact>
</mgrwt>
</event>
<event>
 4    1  0.3245943E-002  0.1251714E+03  0.7818608E-02  0.1234802E+00
         -4   -1    0    0    0  501 -0.00000000000E+00  0.00000000000E+00  0.26585781061E+03  0.26586084399E+03  0.12700000000E+01 0.  1.
          4   -1    0    0  501    0  0.00000000000E+00 -0.00000000000E+00 -0.14702843963E+02  0.14757591964E+02  0.12700000000E+01 0.  1.
    9000005    1    1    2    0    0 -0.35243544560E+01  0.94772018897E+01  0.26402531102E+03  0.26422074727E+03  0.10000000000E+01 0.  0.
    9000005    1    1    2    0    0  0.35243544560E+01 -0.94772018897E+01 -0.12870344365E+02  0.16397688681E+02  0.10000000000E+01 0.  0.
<mgrwt>
<rscale>  0 0.12517144E+03</rscale>
<asrwt>0</asrwt>
<pdfrwt beam="2">  1        4 0.22664208E-02 0.12517144E+03</pdfrwt>
<pdfrwt beam="1">  1       -4 0.40905644E-01 0.12517144E+03</pdfrwt>
<totfact> 0.77799324E+03</totfact>
</mgrwt>
</event>
<event>
 5    1  0.3245943E-002  0.1250019E+03  0.7818608E-02  0.1235066E+00
          4   -1    0    0  501    0  0.00000000000E+00  0.00000000000E+00  0.19362303269E+02  0.19403909087E+02  0.12700000000E+01 0. -1.
         -4   -1    0    0    0  501 -0.00000000000E+00 -0.00000000000E+00 -0.20149125389E+03  0.20149525626E+03  0.12700000000E+01 0. -1.
         25    2    1    2    0    0  0.00000000000E+00  0.00000000000E+00 -0.18212895062E+03  0.22089916535E+03  0.12500194637E+03 0.  0.
    9000005    1    3    3    0    0  0.85437940279E+01 -0.39001307216E+02 -0.17602221467E+03  0.18049631143E+03  0.10000000000E+01 0.  0.
    9000005    1    3    3    0    0 -0.85437940279E+01  0.39001307216E+02 -0.61067359538E+01  0.40402853921E+02  0.10000000000E+01 0.  0.
<mgrwt>
<rscale>  0 0.12500195E+03</rscale>
<asrwt>0</asrwt>
<pdfrwt beam="1">  1        4 0.29823244E-02 0.12500195E+03</pdfrwt>
<pdfrwt beam="2">  1       -4 0.31002161E-01 0.12500195E+03</pdfrwt>
<totfact> 0.86722499E+03</totfact>
</mgrwt>
</event>
<event>
 5    1  0.3245943E-002  0.1249993E+03  0.7818608E-02  0.1235070E+00
         -4   -1    0    0    0  501 -0.00000000000E+00  0.00000000000E+00  0.17545368099E+02  0.17591271749E+02  0.12700000000E+01 0. -1.
          4   -1    0    0  501    0  0.00000000000E+00 -0.00000000000E+00 -0.22229607845E+03  0.22229970624E+03  0.12700000000E+01 0. -1.
         25    2    1    2    0    0  0.00000000000E+00  0.00000000000E+00 -0.20475071035E+03  0.23989097799E+03  0.12499931172E+03 0.  0.
    9000005    1    3    3    0    0 -0.21802795057E+02  0.54467195164E+02 -0.61072850179E+02  0.84693153503E+02  0.10000000000E+01 0.  0.
    9000005    1    3    3    0    0  0.21802795057E+02 -0.54467195164E+02 -0.14367786017E+03  0.15519782448E+03  0.10000000000E+01 0.  0.
<mgrwt>
<rscale>  0 0.12499931E+03</rscale>
<asrwt>0</asrwt>
<pdfrwt beam="2">  1        4 0.34203205E-01 0.12499931E+03</pdfrwt>
<pdfrwt beam="1">  1       -4 0.27030977E-02 0.12499931E+03</pdfrwt>
<totfact> 0.83814894E+03</totfact>
</mgrwt>
</event>
<event>
 5    1  0.3245943E-002  0.1249976E+03  0.7818608E-02  0.1235073E+00
          4   -1    0    0  501    0  0.00000000000E+00  0.00000000000E+00  0.33600689991E+03  0.33600930000E+03  0.12700000000E+01 0.  1.
         -4   -1    0    0    0  501 -0.00000000000E+00 -0.00000000000E+00 -0.11587919550E+02  0.11657305842E+02  0.12700000000E+01 0.  1.
         25    2    1    2    0    0  0.00000000000E+00  0.00000000000E+00  0.32441898036E+03  0.34766660584E+03  0.12499757598E+03 0.  0.
    9000005    1    3    3    0    0  0.37888765329E+01  0.61680354217E+02  0.13637449126E+03  0.14972582792E+03  0.10000000000E+01 0.  0.
    9000005    1    3    3    0    0 -0.37888765329E+01 -0.61680354217E+02  0.18804448910E+03  0.19794077792E+03  0.10000000000E+01 0.  0.
<mgrwt>
<rscale>  0 0.12499758E+03</rscale>
<asrwt>0</asrwt>
<pdfrwt beam="1">  1        4 0.51698886E-01 0.12499758E+03</pdfrwt>
<pdfrwt beam="2">  1       -4 0.17882790E-02 0.12499758E+03</pdfrwt>
<totfact> 0.69985779E+03</totfact>
</mgrwt>
</event>
<event>
 5    1  0.3245943E-002  0.1249892E+03  0.7818608E-02  0.1235086E+00
         -4   -1    0    0    0  501 -0.00000000000E+00  0.00000000000E+00  0.10407659470E+04  0.10407667219E+04  0.12700000000E+01 0.  1.
          4   -1    0    0  501    0  0.00000000000E+00 -0.00000000000E+00 -0.36443482677E+01  0.38592971247E+01  0.12700000000E+01 0.  1.
         25    2    1    2    0    0  0.00000000000E+00  0.00000000000E+00  0.10371215987E+04  0.10446260190E+04  0.12498923548E+03 0.  0.
    9000005    1    3    3    0    0 -0.61283031921E+02  0.10474242172E+02  0.57092681434E+03  0.57430283569E+03  0.10000000000E+01 0.  0.
    9000005    1    3    3    0    0  0.61283031921E+02 -0.10474242172E+02  0.46619478441E+03  0.47032318332E+03  0.10000000000E+01 0.  0.
<mgrwt>
<rscale>  0 0.12498924E+03</rscale>
<asrwt>0</asrwt>
<pdfrwt beam="2">  1        4 0.57726199E-03 0.12498924E+03</pdfrwt>
<pdfrwt beam="1">  1       -4 0.16013474E+00 0.12498924E+03</pdfrwt>
<totfact> 0.29169943E+03</totfact>
</mgrwt>
</event>
<event>
 5    1  0.3245943E-002  0.1250035E+03  0.7818608E-02  0.1235064E+00
         -4   -1    0    0    0  501 -0.00000000000E+00  0.00000000000E+00  0.89575873895E+03  0.89575963925E+03  0.12700000000E+01 0. -1.
          4   -1    0    0  501    0  0.00000000000E+00 -0.00000000000E+00 -0.42676883467E+01  0.44526468336E+01  0.12700000000E+01 0. -1.
         25    2    1    2    0    0  0.00000000000E+00  0.00000000000E+00  0.89149105061E+03  0.90021228608E+03  0.12500346678E+03 0.  0.
    9000005    1    3    3    0    0  0.53900708140E+02  0.27167381445E+02  0.32915379206E+03  0.33464394777E+03  0.10000000000E+01 0.  0.
    9000005    1    3    3    0    0 -0.53900708140E+02 -0.27167381445E+02  0.56233725855E+03  0.56556833831E+03  0.10000000000E+01 0.  0.
<mgrwt>
<rscale>  0 0.12500347E+03</rscale>
<asrwt>0</asrwt>
<pdfrwt beam="2">  1        4 0.67086421E-03 0.12500347E+03</pdfrwt>
<pdfrwt beam="1">  1       -4 0.13782334E+00 0.12500347E+03</pdfrwt>
<totfact> 0.34149201E+03</totfact>
</mgrwt>
</event>
<event>
 5    1  0.3245943E-002  0.1250055E+03  0.7818608E-02  0.1235061E+00
          4   -1    0    0  501    0  0.00000000000E+00  0.00000000000E+00  0.12339125430E+02  0.12404310395E+02  0.12700000000E+01 0.  1.
         -4   -1    0    0    0  501 -0.00000000000E+00 -0.00000000000E+00 -0.31570165564E+03  0.31570421010E+03  0.12700000000E+01 0.  1.
         25    2    1    2    0    0  0.00000000000E+00  0.00000000000E+00 -0.30336253021E+03  0.32810852050E+03  0.12500550582E+03 0.  0.
    9000005    1    3    3    0    0 -0.65637925712E+01  0.60650591273E+02 -0.18728673990E+03  0.19697436518E+03  0.10000000000E+01 0.  0.
    9000005    1    3    3    0    0  0.65637925712E+01 -0.60650591273E+02 -0.11607579031E+03  0.13113415532E+03  0.10000000000E+01 0.  0.
<mgrwt>
<rscale>  0 0.12500551E+03</rscale>
<asrwt>0</asrwt>
<pdfrwt beam="1">  1        4 0.19035380E-02 0.12500551E+03</pdfrwt>
<pdfrwt beam="2">  1       -4 0.48574690E-01 0.12500551E+03</pdfrwt>
<totfact> 0.72193186E+03</totfact>
</mgrwt>
</event>
<event>
 5    1  0.3245943E-002  0.1249991E+03  0.7818608E-02  0.1235071E+00
         -4   -1    0    0    0  501 -0.00000000000E+00  0.00000000000E+00  0.93021430263E+01  0.93884378297E+01  0.12700000000E+01 0.  1.
          4   -1    0    0  501    0  0.00000000000E+00 -0.00000000000E+00 -0.41789778233E+03  0.41789971211E+03  0.12700000000E+01 0.  1.
         25    2    1    2    0    0  0.00000000000E+00  0.00000000000E+00 -0.40859563931E+03  0.42728814994E+03  0.12499906646E+03 0.  0.
    9000005    1    3    3    0    0  0.33031274171E+02  0.30368555505E+02 -0.35298056642E+03  0.35582241990E+03  0.10000000000E+01 0.  0.
    9000005    1    3    3    0    0 -0.33031274171E+02 -0.30368555505E+02 -0.55615072890E+02  0.71465730035E+02  0.10000000000E+01 0.  0.
<mgrwt>
<rscale>  0 0.12499907E+03</rscale>
<asrwt>0</asrwt>
<pdfrwt beam="2">  1        4 0.64298738E-01 0.12499907E+03</pdfrwt>
<pdfrwt beam="1">  1       -4 0.14378858E-02 0.12499907E+03</pdfrwt>
<totfact> 0.61983858E+03</totfact>
</mgrwt>
</event>
<event>
 5    1  0.3245943E-002  0.1250023E+03  0.7818608E-02  0.1235066E+00
          4   -1    0    0  501    0  0.00000000000E+00  0.00000000000E+00  0.50443584941E+03  0.50443744813E+03  0.12700000000E+01 0. -1.
         -4   -1    0    0    0  501 -0.00000000000E+00 -0.00000000000E+00 -0.76903928614E+01  0.77945520951E+01  0.12700000000E+01 0. -1.
         25    2    1    2    0    0  0.00000000000E+00  0.00000000000E+00  0.49674545655E+03  0.51223200022E+03  0.12500229377E+03 0.  0.
    9000005    1    3    3    0    0 -0.16482547870E+02  0.46880345990E+01  0.21052619873E+01  0.17294050443E+02  0.10000000000E+01 0.  0.
    9000005    1    3    3    0    0  0.16482547870E+02 -0.46880345990E+01  0.49464019456E+03  0.49493794978E+03  0.10000000000E+01 0.  0.
<mgrwt>
<rscale>  0 0.12500229E+03</rscale>
<asrwt>0</asrwt>
<pdfrwt beam="1">  1        4 0.77613622E-01 0.12500229E+03</pdfrwt>
<pdfrwt beam="2">  1       -4 0.11912730E-02 0.12500229E+03</pdfrwt>
<totfact> 0.54924892E+03</totfact>
</mgrwt>
</event>
<event>
 5    1  0.3245943E-002  0.1250015E+03  0.7818608E-02  0.1235067E+00
         -4   -1    0    0    0  501 -0.00000000000E+00  0.00000000000E+00  0.18824517473E+02  0.18867309243E+02  0.12700000000E+01 0.  1.
          4   -1    0    0  501    0  0.00000000000E+00 -0.00000000000E+00 -0.20723325871E+03  0.20723715018E+03  0.12700000000E+01 0.  1.
         25    2    1    2    0    0  0.00000000000E+00  0.00000000000E+00 -0.18840874123E+03  0.22610445942E+03  0.12500149118E+03 0.  0.
    9000005    1    3    3    0    0 -0.44716454553E+02 -0.24964277459E+02 -0.15898332314E+03  0.16703135483E+03  0.10000000000E+01 0.  0.
    9000005    1    3    3    0    0  0.44716454553E+02  0.24964277459E+02 -0.29425418088E+02  0.59073104595E+02  0.10000000000E+01 0.  0.
<mgrwt>
<rscale>  0 0.12500149E+03</rscale>
<asrwt>0</asrwt>
<pdfrwt beam="2">  1        4 0.31885629E-01 0.12500149E+03</pdfrwt>
<pdfrwt beam="1">  1       -4 0.28996708E-02 0.12500149E+03</pdfrwt>
<totfact> 0.85908514E+03</totfact>
</mgrwt>
</event>
<event>
 5    1  0.3245943E-002  0.1249984E+03  0.7818608E-02  0.1235072E+00
          4   -1    0    0  501    0  0.00000000000E+00  0.00000000000E+00  0.84523058669E+02  0.84532599314E+02  0.12700000000E+01 0.  1.
         -4   -1    0    0    0  501 -0.00000000000E+00 -0.00000000000E+00 -0.46193109561E+02  0.46210564495E+02  0.12700000000E+01 0.  1.
         25    2    1    2    0    0  0.00000000000E+00  0.00000000000E+00  0.38329949108E+02  0.13074316381E+03  0.12499835953E+03 0.  0.
    9000005    1    3    3    0    0  0.26422135579E+02  0.55848580727E+02  0.28974389354E+02  0.68247406224E+02  0.10000000000E+01 0.  0.
    9000005    1    3    3    0    0 -0.26422135579E+02 -0.55848580727E+02  0.93555597534E+01  0.62495757585E+02  0.10000000000E+01 0.  0.
<mgrwt>
<rscale>  0 0.12499836E+03</rscale>
<asrwt>0</asrwt>
<pdfrwt beam="1">  1        4 0.13005624E-01 0.12499836E+03</pdfrwt>
<pdfrwt beam="2">  1       -4 0.71087089E-02 0.12499836E+03</pdfrwt>
<totfact> 0.10328981E+04</totfact>
</mgrwt>
</event>
<event>
 5    1  0.3245943E-002  0.1249999E+03  0.7818608E-02  0.1235069E+00
          4   -1    0    0  501    0  0.00000000000E+00  0.00000000000E+00  0.16123066219E+02  0.16173007275E+02  0.12700000000E+01 0. -1.
         -4   -1    0    0    0  501 -0.00000000000E+00 -0.00000000000E+00 -0.24185059819E+03  0.24185393267E+03  0.12700000000E+01 0. -1.
         25    2    1    2    0    0  0.00000000000E+00  0.00000000000E+00 -0.22572753197E+03  0.25802693994E+03  0.12499993218E+03 0.  0.
    9000005    1    3    3    0    0  0.28204446971E+02  0.42873082327E+02 -0.39253275482E+02  0.64617425306E+02  0.10000000000E+01 0.  0.
    9000005    1    3    3    0    0 -0.28204446971E+02 -0.42873082327E+02 -0.18647425649E+03  0.19340951463E+03  0.10000000000E+01 0.  0.
<mgrwt>
<rscale>  0 0.12499993E+03</rscale>
<asrwt>0</asrwt>
<pdfrwt beam="1">  1        4 0.24845700E-02 0.12499993E+03</pdfrwt>
<pdfrwt beam="2">  1       -4 0.37211880E-01 0.12499993E+03</pdfrwt>
<totfact> 0.81183875E+03</totfact>
</mgrwt>
</event>
<event>
 5    1  0.3245943E-002  0.1249967E+03  0.7818608E-02  0.1235074E+00
          4   -1    0    0  501    0  0.00000000000E+00  0.00000000000E+00  0.16876542748E+03  0.16877020594E+03  0.12700000000E+01 0.  1.
         -4   -1    0    0    0  501 -0.00000000000E+00 -0.00000000000E+00 -0.23122295116E+02  0.23157146444E+02  0.12700000000E+01 0.  1.
         25    2    1    2    0    0  0.00000000000E+00  0.00000000000E+00  0.14564313236E+03  0.19192735238E+03  0.12499674631E+03 0.  0.
    9000005    1    3    3    0    0  0.18457289740E+01  0.62373832308E+02  0.77947555630E+02  0.99853508205E+02  0.10000000000E+01 0.  0.
    9000005    1    3    3    0    0 -0.18457289740E+01 -0.62373832308E+02  0.67695576734E+02  0.92073844177E+02  0.10000000000E+01 0.  0.
<mgrwt>
<rscale>  0 0.12499675E+03</rscale>
<asrwt>0</asrwt>
<pdfrwt beam="1">  1        4 0.25966960E-01 0.12499675E+03</pdfrwt>
<pdfrwt beam="2">  1       -4 0.35603246E-02 0.12499675E+03</pdfrwt>
<totfact> 0.91519708E+03</totfact>
</mgrwt>
</event>
<event>
 5    1  0.3245943E-002  0.1249980E+03  0.7818608E-02  0.1235072E+00
          4   -1    0    0  501    0  0.00000000000E+00  0.00000000000E+00  0.11546577361E+03  0.11547275772E+03  0.12700000000E+01 0.  1.
         -4   -1    0    0    0  501 -0.00000000000E+00 -0.00000000000E+00 -0.33809353220E+02  0.33833197679E+02  0.12700000000E+01 0.  1.
         25    2    1    2    0    0  0.00000000000E+00  0.00000000000E+00  0.81656420394E+02  0.14930595540E+03  0.12499798929E+03 0.  0.
    9000005    1    3    3    0    0 -0.57776160576E+01 -0.59485720651E+02  0.62631484945E+02  0.86577333726E+02  0.10000000000E+01 0.  0.
    9000005    1    3    3    0    0  0.57776160576E+01  0.59485720651E+02  0.19024935449E+02  0.62728621677E+02  0.10000000000E+01 0.  0.
<mgrwt>
<rscale>  0 0.12499799E+03</rscale>
<asrwt>0</asrwt>
<pdfrwt beam="1">  1        4 0.17766337E-01 0.12499799E+03</pdfrwt>
<pdfrwt beam="2">  1       -4 0.52038103E-02 0.12499799E+03</pdfrwt>
<totfact> 0.99446725E+03</totfact>
</mgrwt>
</event>
<event>
 5    1  0.3245943E-002  0.1250020E+03  0.7818608E-02  0.1235066E+00
         -4   -1    0    0    0  501 -0.00000000000E+00  0.00000000000E+00  0.15750347107E+02  0.15801466198E+02  0.12700000000E+01 0. -1.
          4   -1    0    0  501    0  0.00000000000E+00 -0.00000000000E+00 -0.24756376735E+03  0.24756702487E+03  0.12700000000E+01 0. -1.
         25    2    1    2    0    0  0.00000000000E+00  0.00000000000E+00 -0.23181342024E+03  0.26336849107E+03  0.12500200112E+03 0.  0.
    9000005    1    3    3    0    0 -0.32428396232E+02  0.35290951876E+02 -0.20040218934E+03  0.20605603524E+03  0.10000000000E+01 0.  0.
    9000005    1    3    3    0    0  0.32428396232E+02 -0.35290951876E+02 -0.31411230899E+02  0.57312455828E+02  0.10000000000E+01 0.  0.
<mgrwt>
<rscale>  0 0.12500200E+03</rscale>
<asrwt>0</asrwt>
<pdfrwt beam="2">  1        4 0.38090914E-01 0.12500200E+03</pdfrwt>
<pdfrwt beam="1">  1       -4 0.24273133E-02 0.12500200E+03</pdfrwt>
<totfact> 0.80432072E+03</totfact>
</mgrwt>
</event>
<event>
 5    1  0.3245943E-002  0.1250044E+03  0.7818608E-02  0.1235062E+00
          4   -1    0    0  501    0  0.00000000000E+00  0.00000000000E+00  0.21653400321E+04  0.21653404045E+04  0.12700000000E+01 0. -1.
         -4   -1    0    0    0  501 -0.00000000000E+00 -0.00000000000E+00 -0.15801939123E+01  0.20272919870E+01  0.12700000000E+01 0. -1.
         25    2    1    2    0    0  0.00000000000E+00  0.00000000000E+00  0.21637598382E+04  0.21673676965E+04  0.12500437823E+03 0.  0.
    9000005    1    3    3    0    0  0.43287353726E+02  0.41272520103E+02  0.13960377790E+04  0.13973187525E+04  0.10000000000E+01 0.  0.
    9000005    1    3    3    0    0 -0.43287353726E+02 -0.41272520103E+02  0.76772205920E+03  0.77004894395E+03  0.10000000000E+01 0.  0.
<mgrwt>
<rscale>  0 0.12500438E+03</rscale>
<asrwt>0</asrwt>
<pdfrwt beam="1">  1        4 0.33316408E+00 0.12500438E+03</pdfrwt>
<pdfrwt beam="2">  1       -4 0.27752721E-03 0.12500438E+03</pdfrwt>
<totfact> 0.78310410E+02</totfact>
</mgrwt>
</event>
<event>
 5    1  0.3245943E-002  0.1250004E+03  0.7818608E-02  0.1235069E+00
         -4   -1    0    0    0  501 -0.00000000000E+00  0.00000000000E+00  0.23083969618E+02  0.23118878721E+02  0.12700000000E+01 0. -1.
          4   -1    0    0  501    0  0.00000000000E+00 -0.00000000000E+00 -0.16905497689E+03  0.16905974716E+03  0.12700000000E+01 0. -1.
         25    2    1    2    0    0  0.00000000000E+00  0.00000000000E+00 -0.14597100727E+03  0.19217862588E+03  0.12500035713E+03 0.  0.
    9000005    1    3    3    0    0 -0.27906593962E+02 -0.50664193056E+02 -0.10935571524E+03  0.12371463494E+03  0.10000000000E+01 0.  0.
    9000005    1    3    3    0    0  0.27906593962E+02  0.50664193056E+02 -0.36615292034E+02  0.68463990939E+02  0.10000000000E+01 0.  0.
<mgrwt>
<rscale>  0 0.12500036E+03</rscale>
<asrwt>0</asrwt>
<pdfrwt beam="2">  1        4 0.26011509E-01 0.12500036E+03</pdfrwt>
<pdfrwt beam="1">  1       -4 0.35544323E-02 0.12500036E+03</pdfrwt>
<totfact> 0.91468886E+03</totfact>
</mgrwt>
</event>
<event>
 5    1  0.3245943E-002  0.1249931E+03  0.7818608E-02  0.1235080E+00
          4   -1    0    0  501    0  0.00000000000E+00  0.00000000000E+00  0.80497656517E+02  0.80507674198E+02  0.12700000000E+01 0.  1.
         -4   -1    0    0    0  501 -0.00000000000E+00 -0.00000000000E+00 -0.48499559660E+02  0.48516184796E+02  0.12700000000E+01 0.  1.
         25    2    1    2    0    0  0.00000000000E+00  0.00000000000E+00  0.31998096857E+02  0.12902385899E+03  0.12499311176E+03 0.  0.
    9000005    1    3    3    0    0 -0.49712429674E+02  0.15130943651E+02 -0.19826765865E+02  0.55627077620E+02  0.10000000000E+01 0.  0.
    9000005    1    3    3    0    0  0.49712429674E+02 -0.15130943651E+02  0.51824862722E+02  0.73396781374E+02  0.10000000000E+01 0.  0.
<mgrwt>
<rscale>  0 0.12499311E+03</rscale>
<asrwt>0</asrwt>
<pdfrwt beam="1">  1        4 0.12386304E-01 0.12499311E+03</pdfrwt>
<pdfrwt beam="2">  1       -4 0.74635201E-02 0.12499311E+03</pdfrwt>
<totfact> 0.10367046E+04</totfact>
</mgrwt>
</event>
<event>
 5    1  0.3245943E-002  0.1250018E+03  0.7818608E-02  0.1235067E+00
         -4   -1    0    0    0  501 -0.00000000000E+00  0.00000000000E+00  0.21297877146E+02  0.21335708821E+02  0.12700000000E+01 0. -1.
          4   -1    0    0  501    0  0.00000000000E+00 -0.00000000000E+00 -0.18321265712E+03  0.18321705878E+03  0.12700000000E+01 0. -1.
         25    2    1    2    0    0  0.00000000000E+00  0.00000000000E+00 -0.16191477997E+03  0.20455276760E+03  0.12500175503E+03 0.  0.
    9000005    1    3    3    0    0 -0.52125794631E+02 -0.21231474024E+02 -0.12539657252E+03  0.13745244398E+03  0.10000000000E+01 0.  0.
    9000005    1    3    3    0    0  0.52125794631E+02  0.21231474024E+02 -0.36518207452E+02  0.67100323626E+02  0.10000000000E+01 0.  0.
<mgrwt>
<rscale>  0 0.12500176E+03</rscale>
<asrwt>0</asrwt>
<pdfrwt beam="2">  1        4 0.28189810E-01 0.12500176E+03</pdfrwt>
<pdfrwt beam="1">  1       -4 0.32798453E-02 0.12500176E+03</pdfrwt>
<totfact> 0.89369777E+03</totfact>
</mgrwt>
</event>
<event>
 5    1  0.3245943E-002  0.1249987E+03  0.7818608E-02  0.1235071E+00
          4   -1    0    0  501    0  0.00000000000E+00  0.00000000000E+00  0.42110572067E+03  0.42110763574E+03  0.12700000000E+01 0.  1.
         -4   -1    0    0    0  501 -0.00000000000E+00 -0.00000000000E+00 -0.92305728978E+01  0.93175305753E+01  0.12700000000E+01 0.  1.
         25    2    1    2    0    0  0.00000000000E+00  0.00000000000E+00  0.41187514777E+03  0.43042516632E+03  0.12499874578E+03 0.  0.
    9000005    1    3    3    0    0 -0.47577801907E+02  0.36858594617E+02  0.14801325241E+03  0.15978462416E+03  0.10000000000E+01 0.  0.
    9000005    1    3    3    0    0  0.47577801907E+02 -0.36858594617E+02  0.26386189537E+03  0.27064054216E+03  0.10000000000E+01 0.  0.
<mgrwt>
<rscale>  0 0.12499875E+03</rscale>
<asrwt>0</asrwt>
<pdfrwt beam="1">  1        4 0.64792332E-01 0.12499875E+03</pdfrwt>
<pdfrwt beam="2">  1       -4 0.14269245E-02 0.12499875E+03</pdfrwt>
<totfact> 0.61699176E+03</totfact>
</mgrwt>
</event>
<event>
 5    1  0.3245943E-002  0.1250177E+03  0.7818608E-02  0.1235042E+00
         -4   -1    0    0    0  501 -0.00000000000E+00  0.00000000000E+00  0.25695155184E+02  0.25726521333E+02  0.12700000000E+01 0.  1.
          4   -1    0    0  501    0  0.00000000000E+00 -0.00000000000E+00 -0.15193909411E+03  0.15194440173E+03  0.12700000000E+01 0.  1.
         25    2    1    2    0    0  0.00000000000E+00  0.00000000000E+00 -0.12624393892E+03  0.17767092307E+03  0.12501769790E+03 0.  0.
    9000005    1    3    3    0    0  0.42324638663E+02  0.21295814162E+02 -0.12105030398E+03  0.12999639546E+03  0.10000000000E+01 0.  0.
    9000005    1    3    3    0    0 -0.42324638663E+02 -0.21295814162E+02 -0.51936349448E+01  0.47674527609E+02  0.10000000000E+01 0.  0.
<mgrwt>
<rscale>  0 0.12501770E+03</rscale>
<asrwt>0</asrwt>
<pdfrwt beam="2">  1        4 0.23378066E-01 0.12501770E+03</pdfrwt>
<pdfrwt beam="1">  1       -4 0.39559219E-02 0.12501770E+03</pdfrwt>
<totfact> 0.94000617E+03</totfact>
</mgrwt>
</event>
<event>
 5    1  0.3245943E-002  0.1250053E+03  0.7818608E-02  0.1235061E+00
          4   -1    0    0  501    0  0.00000000000E+00  0.00000000000E+00  0.88993167628E+03  0.88993258247E+03  0.12700000000E+01 0. -1.
         -4   -1    0    0    0  501 -0.00000000000E+00 -0.00000000000E+00 -0.42969695941E+01  0.44807195507E+01  0.12700000000E+01 0. -1.
         25    2    1    2    0    0  0.00000000000E+00  0.00000000000E+00  0.88563470668E+03  0.89441330202E+03  0.12500528449E+03 0.  0.
    9000005    1    3    3    0    0 -0.24451972222E+02  0.40968748675E+02  0.73162108809E+03  0.73317580010E+03  0.10000000000E+01 0.  0.
    9000005    1    3    3    0    0  0.24451972222E+02 -0.40968748675E+02  0.15401361859E+03  0.16123750192E+03  0.10000000000E+01 0.  0.
<mgrwt>
<rscale>  0 0.12500528E+03</rscale>
<asrwt>0</asrwt>
<pdfrwt beam="1">  1        4 0.13692699E+00 0.12500528E+03</pdfrwt>
<pdfrwt beam="2">  1       -4 0.67527547E-03 0.12500528E+03</pdfrwt>
<totfact> 0.34370721E+03</totfact>
</mgrwt>
</event>
<event>
 5    1  0.3245943E-002  0.1249933E+03  0.7818608E-02  0.1235080E+00
         -4   -1    0    0    0  501 -0.00000000000E+00  0.00000000000E+00  0.71564010329E+02  0.71575278374E+02  0.12700000000E+01 0.  1.
          4   -1    0    0  501    0  0.00000000000E+00 -0.00000000000E+00 -0.54555207257E+02  0.54569987528E+02  0.12700000000E+01 0.  1.
         25    2    1    2    0    0  0.00000000000E+00  0.00000000000E+00  0.17008803072E+02  0.12614526590E+03  0.12499331473E+03 0.  0.
    9000005    1    3    3    0    0 -0.92888108858E+01 -0.48205741602E+02  0.47522798101E+02  0.68333680352E+02  0.10000000000E+01 0.  0.
    9000005    1    3    3    0    0  0.92888108858E+01  0.48205741602E+02 -0.30513995030E+02  0.57811585550E+02  0.10000000000E+01 0.  0.
<mgrwt>
<rscale>  0 0.12499331E+03</rscale>
<asrwt>0</asrwt>
<pdfrwt beam="2">  1        4 0.83951126E-02 0.12499331E+03</pdfrwt>
<pdfrwt beam="1">  1       -4 0.11011851E-01 0.12499331E+03</pdfrwt>
<totfact> 0.10429350E+04</totfact>
</mgrwt>
</event>
<event>
 5    1  0.3245943E-002  0.1250195E+03  0.7818608E-02  0.1235039E+00
          4   -1    0    0  501    0  0.00000000000E+00  0.00000000000E+00  0.28604124571E+02  0.28632304176E+02  0.12700000000E+01 0. -1.
         -4   -1    0    0    0  501 -0.00000000000E+00 -0.00000000000E+00 -0.13650672466E+03  0.13651263230E+03  0.12700000000E+01 0. -1.
         25    2    1    2    0    0  0.00000000000E+00  0.00000000000E+00 -0.10790260009E+03  0.16514493648E+03  0.12501951423E+03 0.  0.
    9000005    1    3    3    0    0 -0.88039523049E+01 -0.41968012296E+02  0.61142638693E+01  0.43326756802E+02  0.10000000000E+01 0.  0.
    9000005    1    3    3    0    0  0.88039523049E+01  0.41968012296E+02 -0.11401686396E+03  0.12181817968E+03  0.10000000000E+01 0.  0.
<mgrwt>
<rscale>  0 0.12501951E+03</rscale>
<asrwt>0</asrwt>
<pdfrwt beam="1">  1        4 0.44032567E-02 0.12501951E+03</pdfrwt>
<pdfrwt beam="2">  1       -4 0.21003656E-01 0.12501951E+03</pdfrwt>
<totfact> 0.96317721E+03</totfact>
</mgrwt>
</event>
<event>
 5    1  0.3245943E-002  0.1250019E+03  0.7818608E-02  0.1235066E+00
         -4   -1    0    0    0  501 -0.00000000000E+00  0.00000000000E+00  0.10052283951E+04  0.10052291974E+04  0.12700000000E+01 0.  1.
          4   -1    0    0  501    0  0.00000000000E+00 -0.00000000000E+00 -0.37814656292E+01  0.39890327531E+01  0.12700000000E+01 0.  1.
         25    2    1    2    0    0  0.00000000000E+00  0.00000000000E+00  0.10014469295E+04  0.10092182301E+04  0.12500193373E+03 0.  0.
    9000005    1    3    3    0    0  0.29061569023E+02  0.19451814320E+02  0.82573575303E+02  0.89679112466E+02  0.10000000000E+01 0.  0.
    9000005    1    3    3    0    0 -0.29061569023E+02 -0.19451814320E+02  0.91887335417E+03  0.91953911765E+03  0.10000000000E+01 0.  0.
<mgrwt>
<rscale>  0 0.12500193E+03</rscale>
<asrwt>0</asrwt>
<pdfrwt beam="2">  1        4 0.59779226E-03 0.12500193E+03</pdfrwt>
<pdfrwt beam="1">  1       -4 0.15466658E+00 0.12500193E+03</pdfrwt>
<totfact> 0.30300750E+03</totfact>
</mgrwt>
</event>
<event>
 5    1  0.3245943E-002  0.1250055E+03  0.7818608E-02  0.1235061E+00
         -4   -1    0    0    0  501 -0.00000000000E+00  0.00000000000E+00  0.59869567462E+02  0.59883036063E+02  0.12700000000E+01 0.  1.
          4   -1    0    0  501    0  0.00000000000E+00 -0.00000000000E+00 -0.65224790750E+02  0.65237153742E+02  0.12700000000E+01 0.  1.
         25    2    1    2    0    0  0.00000000000E+00  0.00000000000E+00 -0.53552232871E+01  0.12512018980E+03  0.12500553380E+03 0.  0.
    9000005    1    3    3    0    0  0.31116285594E+02 -0.54187723429E+02 -0.16455157648E+01  0.62515920546E+02  0.10000000000E+01 0.  0.
    9000005    1    3    3    0    0 -0.31116285594E+02  0.54187723429E+02 -0.37097075223E+01  0.62604269259E+02  0.10000000000E+01 0.  0.
<mgrwt>
<rscale>  0 0.12500553E+03</rscale>
<asrwt>0</asrwt>
<pdfrwt beam="2">  1        4 0.10036570E-01 0.12500553E+03</pdfrwt>
<pdfrwt beam="1">  1       -4 0.92126897E-02 0.12500553E+03</pdfrwt>
<totfact> 0.10448946E+04</totfact>
</mgrwt>
</event>
<event>
 5    1  0.3245943E-002  0.1249964E+03  0.7818608E-02  0.1235075E+00
          4   -1    0    0  501    0  0.00000000000E+00  0.00000000000E+00  0.49115678538E+02  0.49132095195E+02  0.12700000000E+01 0.  1.
         -4   -1    0    0    0  501 -0.00000000000E+00 -0.00000000000E+00 -0.79492275469E+02  0.79502419833E+02  0.12700000000E+01 0.  1.
         25    2    1    2    0    0  0.00000000000E+00  0.00000000000E+00 -0.30376596931E+02  0.12863451503E+03  0.12499640321E+03 0.  0.
    9000005    1    3    3    0    0 -0.41931850492E+02  0.42562343458E+02  0.36528271007E+01  0.59867990714E+02  0.10000000000E+01 0.  0.
    9000005    1    3    3    0    0  0.41931850492E+02 -0.42562343458E+02 -0.34029424031E+02  0.68766524314E+02  0.10000000000E+01 0.  0.
<mgrwt>
<rscale>  0 0.12499640E+03</rscale>
<asrwt>0</asrwt>
<pdfrwt beam="1">  1        4 0.75583014E-02 0.12499640E+03</pdfrwt>
<pdfrwt beam="2">  1       -4 0.12231624E-01 0.12499640E+03</pdfrwt>
<totfact> 0.10374650E+04</totfact>
</mgrwt>
</event>
<event>
 5    1  0.3245943E-002  0.1250009E+03  0.7818608E-02  0.1235068E+00
         -4   -1    0    0    0  501 -0.00000000000E+00  0.00000000000E+00  0.27708954374E+02  0.27738043415E+02  0.12700000000E+01 0. -1.
          4   -1    0    0  501    0  0.00000000000E+00 -0.00000000000E+00 -0.14087034542E+03  0.14087607008E+03  0.12700000000E+01 0. -1.
         25    2    1    2    0    0  0.00000000000E+00  0.00000000000E+00 -0.11316139105E+03  0.16861411349E+03  0.12500087537E+03 0.  0.
    9000005    1    3    3    0    0  0.24257753756E+02  0.16614108256E+02 -0.13096434382E+03  0.13422789041E+03  0.10000000000E+01 0.  0.
    9000005    1    3    3    0    0 -0.24257753756E+02 -0.16614108256E+02  0.17802952773E+02  0.34386223082E+02  0.10000000000E+01 0.  0.
<mgrwt>
<rscale>  0 0.12500088E+03</rscale>
<asrwt>0</asrwt>
<pdfrwt beam="2">  1        4 0.21675038E-01 0.12500088E+03</pdfrwt>
<pdfrwt beam="1">  1       -4 0.42655941E-02 0.12500088E+03</pdfrwt>
<totfact> 0.95705400E+03</totfact>
</mgrwt>
</event>
<event>
 5    1  0.3245943E-002  0.1250066E+03  0.7818608E-02  0.1235059E+00
          4   -1    0    0  501    0  0.00000000000E+00  0.00000000000E+00  0.31137728096E+03  0.31137987089E+03  0.12700000000E+01 0.  1.
         -4   -1    0    0    0  501 -0.00000000000E+00 -0.00000000000E+00 -0.12511613174E+02  0.12575904111E+02  0.12700000000E+01 0.  1.
         25    2    1    2    0    0  0.00000000000E+00  0.00000000000E+00  0.29886566778E+03  0.32395577500E+03  0.12500662694E+03 0.  0.
    9000005    1    3    3    0    0 -0.58855700571E+02  0.51190860729E+01  0.20225549272E+03  0.21070947503E+03  0.10000000000E+01 0.  0.
    9000005    1    3    3    0    0  0.58855700571E+02 -0.51190860729E+01  0.96610175066E+02  0.11324629998E+03  0.10000000000E+01 0.  0.
<mgrwt>
<rscale>  0 0.12500663E+03</rscale>
<asrwt>0</asrwt>
<pdfrwt beam="1">  1        4 0.47909336E-01 0.12500663E+03</pdfrwt>
<pdfrwt beam="2">  1       -4 0.19300085E-02 0.12500663E+03</pdfrwt>
<totfact> 0.72677423E+03</totfact>
</mgrwt>
</event>
<event>
 5    1  0.3245943E-002  0.1249902E+03  0.7818608E-02  0.1235085E+00
         -4   -1    0    0    0  501 -0.00000000000E+00  0.00000000000E+00  0.76621569776E+01  0.77666948923E+01  0.12700000000E+01 0.  1.
          4   -1    0    0  501    0  0.00000000000E+00 -0.00000000000E+00 -0.50617162827E+03  0.50617322150E+03  0.12700000000E+01 0.  1.
         25    2    1    2    0    0  0.00000000000E+00  0.00000000000E+00 -0.49850947129E+03  0.51393991639E+03  0.12499017839E+03 0.  0.
    9000005    1    3    3    0    0 -0.46254294992E+02  0.41679010758E+02 -0.22748276082E+03  0.23585166146E+03  0.10000000000E+01 0.  0.
    9000005    1    3    3    0    0  0.46254294992E+02 -0.41679010758E+02 -0.27102671047E+03  0.27808825493E+03  0.10000000000E+01 0.  0.
<mgrwt>
<rscale>  0 0.12499018E+03</rscale>
<asrwt>0</asrwt>
<pdfrwt beam="2">  1        4 0.77880696E-01 0.12499018E+03</pdfrwt>
<pdfrwt beam="1">  1       -4 0.11869577E-02 0.12499018E+03</pdfrwt>
<totfact> 0.54810635E+03</totfact>
</mgrwt>
</event>
<event>
 5    1  0.3245943E-002  0.1250033E+03  0.7818608E-02  0.1235064E+00
         -4   -1    0    0    0  501 -0.00000000000E+00  0.00000000000E+00  0.69902621424E+02  0.69914157236E+02  0.12700000000E+01 0.  1.
          4   -1    0    0  501    0  0.00000000000E+00 -0.00000000000E+00 -0.55860871544E+02  0.55875306439E+02  0.12700000000E+01 0.  1.
         25    2    1    2    0    0  0.00000000000E+00  0.00000000000E+00  0.14041749880E+02  0.12578946368E+03  0.12500327369E+03 0.  0.
    9000005    1    3    3    0    0 -0.38529534434E+02 -0.48185323274E+02  0.17038595667E+02  0.64012999812E+02  0.10000000000E+01 0.  0.
    9000005    1    3    3    0    0  0.38529534434E+02  0.48185323274E+02 -0.29968457866E+01  0.61776463863E+02  0.10000000000E+01 0.  0.
<mgrwt>
<rscale>  0 0.12500327E+03</rscale>
<asrwt>0</asrwt>
<pdfrwt beam="2">  1        4 0.85959780E-02 0.12500327E+03</pdfrwt>
<pdfrwt beam="1">  1       -4 0.10756247E-01 0.12500327E+03</pdfrwt>
<totfact> 0.10434806E+04</totfact>
</mgrwt>
</event>
<event>
 5    1  0.3245943E-002  0.1250016E+03  0.7818608E-02  0.1235067E+00
          4   -1    0    0  501    0  0.00000000000E+00  0.00000000000E+00  0.20403109805E+02  0.20442597431E+02  0.12700000000E+01 0.  1.
         -4   -1    0    0    0  501 -0.00000000000E+00 -0.00000000000E+00 -0.19123198298E+03  0.19123620007E+03  0.12700000000E+01 0.  1.
         25    2    1    2    0    0  0.00000000000E+00  0.00000000000E+00 -0.17082887318E+03  0.21167879750E+03  0.12500163758E+03 0.  0.
    9000005    1    3    3    0    0  0.10884518489E+01 -0.30056087785E+02 -0.17817857721E+03  0.18070184978E+03  0.10000000000E+01 0.  0.
    9000005    1    3    3    0    0 -0.10884518489E+01  0.30056087785E+02  0.73497040269E+01  0.30976947713E+02  0.10000000000E+01 0.  0.
<mgrwt>
<rscale>  0 0.12500164E+03</rscale>
<asrwt>0</asrwt>
<pdfrwt beam="1">  1        4 0.31423020E-02 0.12500164E+03</pdfrwt>
<pdfrwt beam="2">  1       -4 0.29423666E-01 0.12500164E+03</pdfrwt>
<totfact> 0.88199215E+03</totfact>
</mgrwt>
</event>
<event>
 5    1  0.3245943E-002  0.1249990E+03  0.7818608E-02  0.1235071E+00
         -4   -1    0    0    0  501 -0.00000000000E+00  0.00000000000E+00  0.15151134351E+03  0.15151666612E+03  0.12700000000E+01 0.  1.
          4   -1    0    0  501    0  0.00000000000E+00 -0.00000000000E+00 -0.25760057180E+02  0.25791344399E+02  0.12700000000E+01 0.  1.
         25    2    1    2    0    0  0.00000000000E+00  0.00000000000E+00  0.12575128633E+03  0.17730801052E+03  0.12499897832E+03 0.  0.
    9000005    1    3    3    0    0  0.52988768270E+02  0.32265054684E+02  0.73522985468E+02  0.96205367359E+02  0.10000000000E+01 0.  0.
    9000005    1    3    3    0    0 -0.52988768270E+02 -0.32265054684E+02  0.52228300857E+02  0.81102643156E+02  0.10000000000E+01 0.  0.
<mgrwt>
<rscale>  0 0.12499898E+03</rscale>
<asrwt>0</asrwt>
<pdfrwt beam="2">  1        4 0.39659017E-02 0.12499898E+03</pdfrwt>
<pdfrwt beam="1">  1       -4 0.23312254E-01 0.12499898E+03</pdfrwt>
<totfact> 0.94105982E+03</totfact>
</mgrwt>
</event>
<event>
 5    1  0.3245943E-002  0.1250004E+03  0.7818608E-02  0.1235069E+00
          4   -1    0    0  501    0  0.00000000000E+00  0.00000000000E+00  0.63257323499E+01  0.64519601488E+01  0.12700000000E+01 0. -1.
         -4   -1    0    0    0  501 -0.00000000000E+00 -0.00000000000E+00 -0.61129383486E+03  0.61129515411E+03  0.12700000000E+01 0. -1.
         25    2    1    2    0    0  0.00000000000E+00  0.00000000000E+00 -0.60496810251E+03  0.61774711426E+03  0.12500036848E+03 0.  0.
    9000005    1    3    3    0    0  0.28524894452E+02 -0.55436708216E+02 -0.28129991092E+03  0.28812764203E+03  0.10000000000E+01 0.  0.
    9000005    1    3    3    0    0 -0.28524894452E+02  0.55436708216E+02 -0.32366819159E+03  0.32961947222E+03  0.10000000000E+01 0.  0.
<mgrwt>
<rscale>  0 0.12500037E+03</rscale>
<asrwt>0</asrwt>
<pdfrwt beam="1">  1        4 0.98300139E-03 0.12500037E+03</pdfrwt>
<pdfrwt beam="2">  1       -4 0.94054970E-01 0.12500037E+03</pdfrwt>
<totfact> 0.47765819E+03</totfact>
</mgrwt>
</event>
<event>
 5    1  0.3245943E-002  0.1250019E+03  0.7818608E-02  0.1235066E+00
          4   -1    0    0  501    0  0.00000000000E+00  0.00000000000E+00  0.10686975056E+04  0.10686982602E+04  0.12700000000E+01 0.  1.
         -4   -1    0    0    0  501 -0.00000000000E+00 -0.00000000000E+00 -0.35441693212E+01  0.37648421185E+01  0.12700000000E+01 0.  1.
         25    2    1    2    0    0  0.00000000000E+00  0.00000000000E+00  0.10651533363E+04  0.10724631023E+04  0.12500190426E+03 0.  0.
    9000005    1    3    3    0    0  0.13083447213E+02  0.90266633676E+01  0.10511061245E+04  0.10512267797E+04  0.10000000000E+01 0.  0.
    9000005    1    3    3    0    0 -0.13083447213E+02 -0.90266633676E+01  0.14047211737E+02  0.21236322660E+02  0.10000000000E+01 0.  0.
<mgrwt>
<rscale>  0 0.12500190E+03</rscale>
<asrwt>0</asrwt>
<pdfrwt beam="1">  1        4 0.16443204E+00 0.12500190E+03</pdfrwt>
<pdfrwt beam="2">  1       -4 0.56228968E-03 0.12500190E+03</pdfrwt>
<totfact> 0.28302445E+03</totfact>
</mgrwt>
</event>
<event>
 5    1  0.3245943E-002  0.1250022E+03  0.7818608E-02  0.1235066E+00
          4   -1    0    0  501    0  0.00000000000E+00  0.00000000000E+00  0.43917358159E+02  0.43935717221E+02  0.12700000000E+01 0.  1.
         -4   -1    0    0    0  501 -0.00000000000E+00 -0.00000000000E+00 -0.88907153066E+02  0.88916223302E+02  0.12700000000E+01 0.  1.
         25    2    1    2    0    0  0.00000000000E+00  0.00000000000E+00 -0.44989794906E+02  0.13285194052E+03  0.12500222580E+03 0.  0.
    9000005    1    3    3    0    0  0.26260217039E+01  0.50575424611E+02 -0.61408633636E+02  0.79603956243E+02  0.10000000000E+01 0.  0.
    9000005    1    3    3    0    0 -0.26260217039E+01 -0.50575424611E+02  0.16418838730E+02  0.53247984279E+02  0.10000000000E+01 0.  0.
<mgrwt>
<rscale>  0 0.12500223E+03</rscale>
<asrwt>0</asrwt>
<pdfrwt beam="1">  1        4 0.67586266E-02 0.12500223E+03</pdfrwt>
<pdfrwt beam="2">  1       -4 0.13680133E-01 0.12500223E+03</pdfrwt>
<totfact> 0.10283031E+04</totfact>
</mgrwt>
</event>
<event>
 5    1  0.3245943E-002  0.1249984E+03  0.7818608E-02  0.1235072E+00
          4   -1    0    0  501    0  0.00000000000E+00  0.00000000000E+00  0.89018037491E+01  0.89919413914E+01  0.12700000000E+01 0.  1.
         -4   -1    0    0    0  501 -0.00000000000E+00 -0.00000000000E+00 -0.43650258735E+03  0.43650443487E+03  0.12700000000E+01 0.  1.
         25    2    1    2    0    0  0.00000000000E+00  0.00000000000E+00 -0.42760078360E+03  0.44549637626E+03  0.12499836450E+03 0.  0.
    9000005    1    3    3    0    0 -0.31127574039E+02 -0.12952226440E+02 -0.26275420095E+02  0.42756095899E+02  0.10000000000E+01 0.  0.
    9000005    1    3    3    0    0  0.31127574039E+02  0.12952226440E+02 -0.40132536350E+03  0.40274028036E+03  0.10000000000E+01 0.  0.
<mgrwt>
<rscale>  0 0.12499836E+03</rscale>
<asrwt>0</asrwt>
<pdfrwt beam="1">  1        4 0.13765844E-02 0.12499836E+03</pdfrwt>
<pdfrwt beam="2">  1       -4 0.67161303E-01 0.12499836E+03</pdfrwt>
<totfact> 0.60358121E+03</totfact>
</mgrwt>
</event>
<event>
 5    1  0.3245943E-002  0.1249995E+03  0.7818608E-02  0.1235070E+00
          4   -1    0    0  501    0  0.00000000000E+00  0.00000000000E+00  0.11111006586E+02  0.11183352241E+02  0.12700000000E+01 0.  1.
         -4   -1    0    0    0  501 -0.00000000000E+00 -0.00000000000E+00 -0.35034853724E+03  0.35035083908E+03  0.12700000000E+01 0.  1.
         25    2    1    2    0    0  0.00000000000E+00  0.00000000000E+00 -0.33923753065E+03  0.36153419132E+03  0.12499947717E+03 0.  0.
    9000005    1    3    3    0    0 -0.38972664173E+02  0.47358844249E+02 -0.20426451327E+03  0.21327615916E+03  0.10000000000E+01 0.  0.
    9000005    1    3    3    0    0  0.38972664173E+02 -0.47358844249E+02 -0.13497301738E+03  0.14825803216E+03  0.10000000000E+01 0.  0.
<mgrwt>
<rscale>  0 0.12499948E+03</rscale>
<asrwt>0</asrwt>
<pdfrwt beam="1">  1        4 0.17151280E-02 0.12499948E+03</pdfrwt>
<pdfrwt beam="2">  1       -4 0.53905509E-01 0.12499948E+03</pdfrwt>
<totfact> 0.68474814E+03</totfact>
</mgrwt>
</event>
<event>
 5    1  0.3245943E-002  0.1250005E+03  0.7818608E-02  0.1235069E+00
         -4   -1    0    0    0  501 -0.00000000000E+00  0.00000000000E+00  0.98476153494E+02  0.98484342445E+02  0.12700000000E+01 0.  1.
          4   -1    0    0  501    0  0.00000000000E+00 -0.00000000000E+00 -0.39647246415E+02  0.39667581831E+02  0.12700000000E+01 0.  1.
         25    2    1    2    0    0  0.00000000000E+00  0.00000000000E+00  0.58828907078E+02  0.13815192428E+03  0.12500045549E+03 0.  0.
    9000005    1    3    3    0    0 -0.11113537477E+02  0.59991860410E+02  0.14473874605E+02  0.62713850757E+02  0.10000000000E+01 0.  0.
    9000005    1    3    3    0    0  0.11113537477E+02 -0.59991860410E+02  0.44355032474E+02  0.75438073520E+02  0.10000000000E+01 0.  0.
<mgrwt>
<rscale>  0 0.12500046E+03</rscale>
<asrwt>0</asrwt>
<pdfrwt beam="2">  1        4 0.61017706E-02 0.12500046E+03</pdfrwt>
<pdfrwt beam="1">  1       -4 0.15152372E-01 0.12500046E+03</pdfrwt>
<totfact> 0.10171928E+04</totfact>
</mgrwt>
</event>
<event>
 5    1  0.3245943E-002  0.1249981E+03  0.7818608E-02  0.1235072E+00
         -4   -1    0    0    0  501 -0.00000000000E+00  0.00000000000E+00  0.19856831211E+03  0.19857237340E+03  0.12700000000E+01 0. -1.
          4   -1    0    0  501    0  0.00000000000E+00 -0.00000000000E+00 -0.19646706593E+02  0.19687711395E+02  0.12700000000E+01 0. -1.
         25    2    1    2    0    0  0.00000000000E+00  0.00000000000E+00  0.17892160552E+03  0.21826008479E+03  0.12499809475E+03 0.  0.
    9000005    1    3    3    0    0 -0.45168500044E+02  0.42435150729E+02  0.75470624460E+02  0.97661407782E+02  0.10000000000E+01 0.  0.
    9000005    1    3    3    0    0  0.45168500044E+02 -0.42435150729E+02  0.10345098106E+03  0.12059867701E+03  0.10000000000E+01 0.  0.
<mgrwt>
<rscale>  0 0.12499809E+03</rscale>
<asrwt>0</asrwt>
<pdfrwt beam="2">  1        4 0.30260368E-02 0.12499809E+03</pdfrwt>
<pdfrwt beam="1">  1       -4 0.30552438E-01 0.12499809E+03</pdfrwt>
<totfact> 0.87148128E+03</totfact>
</mgrwt>
</event>
<event>
 5    1  0.3245943E-002  0.1249857E+03  0.7818608E-02  0.1235092E+00
          4   -1    0    0  501    0  0.00000000000E+00  0.00000000000E+00  0.93693384744E+01  0.94550200131E+01  0.12700000000E+01 0. -1.
         -4   -1    0    0    0  501 -0.00000000000E+00 -0.00000000000E+00 -0.41483944533E+03  0.41484138933E+03  0.12700000000E+01 0. -1.
         25    2    1    2    0    0  0.00000000000E+00  0.00000000000E+00 -0.40547010685E+03  0.42429640934E+03  0.12498574090E+03 0.  0.
    9000005    1    3    3    0    0 -0.96257265433E+01  0.53036651144E+02 -0.31002327386E+03  0.31467597828E+03  0.10000000000E+01 0.  0.
    9000005    1    3    3    0    0  0.96257265433E+01 -0.53036651144E+02 -0.95446832994E+02  0.10962043105E+03  0.10000000000E+01 0.  0.
<mgrwt>
<rscale>  0 0.12498574E+03</rscale>
<asrwt>0</asrwt>
<pdfrwt beam="1">  1        4 0.14481774E-02 0.12498574E+03</pdfrwt>
<pdfrwt beam="2">  1       -4 0.63828179E-01 0.12498574E+03</pdfrwt>
<totfact> 0.62275999E+03</totfact>
</mgrwt>
</event>
<event>
 5    1  0.3245943E-002  0.1249998E+03  0.7818608E-02  0.1235070E+00
         -4   -1    0    0    0  501 -0.00000000000E+00  0.00000000000E+00  0.19467242555E+03  0.19467656811E+03  0.12700000000E+01 0.  1.
          4   -1    0    0  501    0  0.00000000000E+00 -0.00000000000E+00 -0.20041238335E+02  0.20081437548E+02  0.12700000000E+01 0.  1.
         25    2    1    2    0    0  0.00000000000E+00  0.00000000000E+00  0.17463118722E+03  0.21475800566E+03  0.12499979778E+03 0.  0.
    9000005    1    3    3    0    0 -0.35495264380E+02 -0.43023899482E+02  0.38895738383E+02  0.68006236364E+02  0.10000000000E+01 0.  0.
    9000005    1    3    3    0    0  0.35495264380E+02  0.43023899482E+02  0.13573544884E+03  0.14675176929E+03  0.10000000000E+01 0.  0.
<mgrwt>
<rscale>  0 0.12499980E+03</rscale>
<asrwt>0</asrwt>
<pdfrwt beam="2">  1        4 0.30866784E-02 0.12499980E+03</pdfrwt>
<pdfrwt beam="1">  1       -4 0.29953015E-01 0.12499980E+03</pdfrwt>
<totfact> 0.87705080E+03</totfact>
</mgrwt>
</event>
<event>
 5    1  0.3245943E-002  0.1249984E+03  0.7818608E-02  0.1235072E+00
         -4   -1    0    0    0  501 -0.00000000000E+00  0.00000000000E+00  0.39226606281E+03  0.39226811868E+03  0.12700000000E+01 0. -1.
          4   -1    0    0  501    0  0.00000000000E+00 -0.00000000000E+00 -0.99153315275E+01  0.99963342931E+01  0.12700000000E+01 0. -1.
         25    2    1    2    0    0  0.00000000000E+00  0.00000000000E+00  0.38235073128E+03  0.40226445297E+03  0.12499843364E+03 0.  0.
    9000005    1    3    3    0    0  0.49076515216E+02  0.12835983026E+02  0.30862197904E+03  0.31276475625E+03  0.10000000000E+01 0.  0.
    9000005    1    3    3    0    0 -0.49076515216E+02 -0.12835983026E+02  0.73728752237E+02  0.89499696717E+02  0.10000000000E+01 0.  0.
<mgrwt>
<rscale>  0 0.12499843E+03</rscale>
<asrwt>0</asrwt>
<pdfrwt beam="2">  1        4 0.15318245E-02 0.12499843E+03</pdfrwt>
<pdfrwt beam="1">  1       -4 0.60355025E-01 0.12499843E+03</pdfrwt>
<totfact> 0.64335362E+03</totfact>
</mgrwt>
</event>
<event>
 5    1  0.3245943E-002  0.1249997E+03  0.7818608E-02  0.1235070E+00
         -4   -1    0    0    0  501 -0.00000000000E+00  0.00000000000E+00  0.13946902773E+02  0.14004606276E+02  0.12700000000E+01 0. -1.
          4   -1    0    0  501    0  0.00000000000E+00 -0.00000000000E+00 -0.27944155348E+03  0.27944443940E+03  0.12700000000E+01 0. -1.
         25    2    1    2    0    0  0.00000000000E+00  0.00000000000E+00 -0.26549465070E+03  0.29344904567E+03  0.12499973141E+03 0.  0.
    9000005    1    3    3    0    0 -0.80823453212E+01  0.58834064181E+02 -0.87076943101E+02  0.10540476950E+03  0.10000000000E+01 0.  0.
    9000005    1    3    3    0    0  0.80823453212E+01 -0.58834064181E+02 -0.17841770760E+03  0.18804427617E+03  0.10000000000E+01 0.  0.
<mgrwt>
<rscale>  0 0.12499973E+03</rscale>
<asrwt>0</asrwt>
<pdfrwt beam="2">  1        4 0.42995665E-01 0.12499973E+03</pdfrwt>
<pdfrwt beam="1">  1       -4 0.21503383E-02 0.12499973E+03</pdfrwt>
<totfact> 0.76428453E+03</totfact>
</mgrwt>
</event>
<event>
 5    1  0.3245943E-002  0.1249640E+03  0.7818608E-02  0.1235126E+00
          4   -1    0    0  501    0  0.00000000000E+00  0.00000000000E+00  0.39127195185E+02  0.39147800743E+02  0.12700000000E+01 0.  1.
         -4   -1    0    0    0  501 -0.00000000000E+00 -0.00000000000E+00 -0.99726256238E+02  0.99734342547E+02  0.12700000000E+01 0.  1.
         25    2    1    2    0    0  0.00000000000E+00  0.00000000000E+00 -0.60599061053E+02  0.13888214329E+03  0.12496400892E+03 0.  0.
    9000005    1    3    3    0    0  0.14581282426E+02 -0.36942865916E+02 -0.83895245233E+02  0.92826727358E+02  0.10000000000E+01 0.  0.
    9000005    1    3    3    0    0 -0.14581282426E+02  0.36942865916E+02  0.23296184180E+02  0.46055415932E+02  0.10000000000E+01 0.  0.
<mgrwt>
<rscale>  0 0.12496401E+03</rscale>
<asrwt>0</asrwt>
<pdfrwt beam="1">  1        4 0.60217756E-02 0.12496401E+03</pdfrwt>
<pdfrwt beam="2">  1       -4 0.15344708E-01 0.12496401E+03</pdfrwt>
<totfact> 0.10165048E+04</totfact>
</mgrwt>
</event>
<event>
 5    1  0.3245943E-002  0.1249919E+03  0.7818608E-02  0.1235082E+00
          4   -1    0    0  501    0  0.00000000000E+00  0.00000000000E+00  0.90152235737E+02  0.90161180718E+02  0.12700000000E+01 0. -1.
         -4   -1    0    0    0  501 -0.00000000000E+00 -0.00000000000E+00 -0.43303478236E+02  0.43322097449E+02  0.12700000000E+01 0. -1.
         25    2    1    2    0    0  0.00000000000E+00  0.00000000000E+00  0.46848757501E+02  0.13348327817E+03  0.12499191762E+03 0.  0.
    9000005    1    3    3    0    0  0.56983183314E+02 -0.29408915892E+01  0.50630810044E+02  0.76290307049E+02  0.10000000000E+01 0.  0.
    9000005    1    3    3    0    0 -0.56983183314E+02  0.29408915892E+01 -0.37820525429E+01  0.57192971118E+02  0.10000000000E+01 0.  0.
<mgrwt>
<rscale>  0 0.12499192E+03</rscale>
<asrwt>0</asrwt>
<pdfrwt beam="1">  1        4 0.13871695E-01 0.12499192E+03</pdfrwt>
<pdfrwt beam="2">  1       -4 0.66641939E-02 0.12499192E+03</pdfrwt>
<totfact> 0.10272012E+04</totfact>
</mgrwt>
</event>
<event>
 5    1  0.3245943E-002  0.1249990E+03  0.7818608E-02  0.1235071E+00
          4   -1    0    0  501    0  0.00000000000E+00  0.00000000000E+00  0.25753724086E+02  0.25785018989E+02  0.12700000000E+01 0.  1.
         -4   -1    0    0    0  501 -0.00000000000E+00 -0.00000000000E+00 -0.15154853017E+03  0.15155385147E+03  0.12700000000E+01 0.  1.
         25    2    1    2    0    0  0.00000000000E+00  0.00000000000E+00 -0.12579480608E+03  0.17733887046E+03  0.12499896695E+03 0.  0.
    9000005    1    3    3    0    0 -0.48599368896E+02 -0.38198237589E+02 -0.49880560685E+02  0.79435976398E+02  0.10000000000E+01 0.  0.
    9000005    1    3    3    0    0  0.48599368896E+02  0.38198237589E+02 -0.75914245399E+02  0.97902894066E+02  0.10000000000E+01 0.  0.
<mgrwt>
<rscale>  0 0.12499897E+03</rscale>
<asrwt>0</asrwt>
<pdfrwt beam="1">  1        4 0.39649281E-02 0.12499897E+03</pdfrwt>
<pdfrwt beam="2">  1       -4 0.23317975E-01 0.12499897E+03</pdfrwt>
<totfact> 0.94100400E+03</totfact>
</mgrwt>
</event>
<event>
 5    1  0.3245943E-002  0.1250015E+03  0.7818608E-02  0.1235067E+00
         -4   -1    0    0    0  501 -0.00000000000E+00  0.00000000000E+00  0.20374758947E+02  0.20414301412E+02  0.12700000000E+01 0.  1.
          4   -1    0    0  501    0  0.00000000000E+00 -0.00000000000E+00 -0.19149713076E+03  0.19150134200E+03  0.12700000000E+01 0.  1.
         25    2    1    2    0    0  0.00000000000E+00  0.00000000000E+00 -0.17112237181E+03  0.21191564341E+03  0.12500149515E+03 0.  0.
    9000005    1    3    3    0    0 -0.58292559632E+02 -0.20019502261E+02 -0.10305985867E+03  0.12008804041E+03  0.10000000000E+01 0.  0.
    9000005    1    3    3    0    0  0.58292559632E+02  0.20019502261E+02 -0.68062513140E+02  0.91827603007E+02  0.10000000000E+01 0.  0.
<mgrwt>
<rscale>  0 0.12500150E+03</rscale>
<asrwt>0</asrwt>
<pdfrwt beam="2">  1        4 0.29464462E-01 0.12500150E+03</pdfrwt>
<pdfrwt beam="1">  1       -4 0.31379441E-02 0.12500150E+03</pdfrwt>
<totfact> 0.88161038E+03</totfact>
</mgrwt>
</event>
<event>
 5    1  0.3245943E-002  0.1249967E+03  0.7818608E-02  0.1235074E+00
          4   -1    0    0  501    0  0.00000000000E+00  0.00000000000E+00  0.27078398458E+02  0.27108164140E+02  0.12700000000E+01 0. -1.
         -4   -1    0    0    0  501 -0.00000000000E+00 -0.00000000000E+00 -0.14413766855E+03  0.14414326344E+03  0.12700000000E+01 0. -1.
         25    2    1    2    0    0  0.00000000000E+00  0.00000000000E+00 -0.11705927009E+03  0.17125142758E+03  0.12499671489E+03 0.  0.
    9000005    1    3    3    0    0  0.25260571224E+02 -0.23937691255E+02  0.12580118058E+02  0.37018493912E+02  0.10000000000E+01 0.  0.
    9000005    1    3    3    0    0 -0.25260571224E+02  0.23937691255E+02 -0.12963938815E+03  0.13423293367E+03  0.10000000000E+01 0.  0.
<mgrwt>
<rscale>  0 0.12499671E+03</rscale>
<asrwt>0</asrwt>
<pdfrwt beam="1">  1        4 0.41686276E-02 0.12499671E+03</pdfrwt>
<pdfrwt beam="2">  1       -4 0.22177746E-01 0.12499671E+03</pdfrwt>
<totfact> 0.95222921E+03</totfact>
</mgrwt>
</event>
<event>
 5    1  0.3245943E-002  0.1249709E+03  0.7818608E-02  0.1235115E+00
          4   -1    0    0  501    0  0.00000000000E+00  0.00000000000E+00  0.17710109560E+02  0.17755587308E+02  0.12700000000E+01 0.  1.
         -4   -1    0    0    0  501 -0.00000000000E+00 -0.00000000000E+00 -0.22013326833E+03  0.22013693176E+03  0.12700000000E+01 0.  1.
         25    2    1    2    0    0  0.00000000000E+00  0.00000000000E+00 -0.20242315877E+03  0.23789251907E+03  0.12497085830E+03 0.  0.
    9000005    1    3    3    0    0  0.45907715385E+02  0.13376583686E+02 -0.17775784805E+03  0.18407961285E+03  0.10000000000E+01 0.  0.
    9000005    1    3    3    0    0 -0.45907715385E+02 -0.13376583686E+02 -0.24665310717E+02  0.53812906219E+02  0.10000000000E+01 0.  0.
<mgrwt>
<rscale>  0 0.12497086E+03</rscale>
<asrwt>0</asrwt>
<pdfrwt beam="1">  1        4 0.27284125E-02 0.12497086E+03</pdfrwt>
<pdfrwt beam="2">  1       -4 0.33870435E-01 0.12497086E+03</pdfrwt>
<totfact> 0.84166923E+03</totfact>
</mgrwt>
</event>
<event>
 5    1  0.3245943E-002  0.1249974E+03  0.7818608E-02  0.1235073E+00
          4   -1    0    0  501    0  0.00000000000E+00  0.00000000000E+00  0.16541096744E+02  0.16589779429E+02  0.12700000000E+01 0.  1.
         -4   -1    0    0    0  501 -0.00000000000E+00 -0.00000000000E+00 -0.23574715782E+03  0.23575057862E+03  0.12700000000E+01 0.  1.
         25    2    1    2    0    0  0.00000000000E+00  0.00000000000E+00 -0.21920606108E+03  0.25234035805E+03  0.12499743633E+03 0.  0.
    9000005    1    3    3    0    0  0.37316332853E+02 -0.42973771897E+02 -0.57511244677E+02  0.80918459161E+02  0.10000000000E+01 0.  0.
    9000005    1    3    3    0    0 -0.37316332853E+02  0.42973771897E+02 -0.16169481640E+03  0.17142189889E+03  0.10000000000E+01 0.  0.
<mgrwt>
<rscale>  0 0.12499744E+03</rscale>
<asrwt>0</asrwt>
<pdfrwt beam="1">  1        4 0.25487922E-02 0.12499744E+03</pdfrwt>
<pdfrwt beam="2">  1       -4 0.36272799E-01 0.12499744E+03</pdfrwt>
<totfact> 0.81997829E+03</totfact>
</mgrwt>
</event>
<event>
 5    1  0.3245943E-002  0.1250009E+03  0.7818608E-02  0.1235068E+00
         -4   -1    0    0    0  501 -0.00000000000E+00  0.00000000000E+00  0.42139844875E+02  0.42158978001E+02  0.12700000000E+01 0.  1.
          4   -1    0    0  501    0  0.00000000000E+00 -0.00000000000E+00 -0.92654159856E+02  0.92662863320E+02  0.12700000000E+01 0.  1.
         25    2    1    2    0    0  0.00000000000E+00  0.00000000000E+00 -0.50514314981E+02  0.13482184132E+03  0.12500093151E+03 0.  0.
    9000005    1    3    3    0    0  0.54160603477E+02  0.26033768580E+02 -0.67579261616E+01  0.60479729178E+02  0.10000000000E+01 0.  0.
    9000005    1    3    3    0    0 -0.54160603477E+02 -0.26033768580E+02 -0.43756388819E+02  0.74342112143E+02  0.10000000000E+01 0.  0.
<mgrwt>
<rscale>  0 0.12500093E+03</rscale>
<asrwt>0</asrwt>
<pdfrwt beam="2">  1        4 0.14256627E-01 0.12500093E+03</pdfrwt>
<pdfrwt beam="1">  1       -4 0.64851944E-02 0.12500093E+03</pdfrwt>
<totfact> 0.10241612E+04</totfact>
</mgrwt>
</event>
<event>
 5    1  0.3245943E-002  0.1249838E+03  0.7818608E-02  0.1235095E+00
          4   -1    0    0  501    0  0.00000000000E+00  0.00000000000E+00  0.14352602429E+04  0.14352608047E+04  0.12700000000E+01 0.  1.
         -4   -1    0    0    0  501 -0.00000000000E+00 -0.00000000000E+00 -0.25721412850E+01  0.28685903838E+01  0.12700000000E+01 0.  1.
         25    2    1    2    0    0  0.00000000000E+00  0.00000000000E+00  0.14326881016E+04  0.14381293951E+04  0.12498384190E+03 0.  0.
    9000005    1    3    3    0    0 -0.36142190032E+02  0.50925628824E+02  0.69176580473E+03  0.69457944554E+03  0.10000000000E+01 0.  0.
    9000005    1    3    3    0    0  0.36142190032E+02 -0.50925628824E+02  0.74092229684E+03  0.74354994959E+03  0.10000000000E+01 0.  0.
<mgrwt>
<rscale>  0 0.12498384E+03</rscale>
<asrwt>0</asrwt>
<pdfrwt beam="1">  1        4 0.22083176E+00 0.12498384E+03</pdfrwt>
<pdfrwt beam="2">  1       -4 0.41856172E-03 0.12498384E+03</pdfrwt>
<totfact> 0.19184009E+03</totfact>
</mgrwt>
</event>
<event>
 5    1  0.3245943E-002  0.1250011E+03  0.7818608E-02  0.1235067E+00
          4   -1    0    0  501    0  0.00000000000E+00  0.00000000000E+00  0.19553615108E+02  0.19594814717E+02  0.12700000000E+01 0.  1.
         -4   -1    0    0    0  501 -0.00000000000E+00 -0.00000000000E+00 -0.19952142820E+03  0.19952547008E+03  0.12700000000E+01 0.  1.
         25    2    1    2    0    0  0.00000000000E+00  0.00000000000E+00 -0.17996781309E+03  0.21912028480E+03  0.12500114184E+03 0.  0.
    9000005    1    3    3    0    0 -0.50815503655E+02  0.16929221946E+02 -0.33548090835E+02  0.63208293492E+02  0.10000000000E+01 0.  0.
    9000005    1    3    3    0    0  0.50815503655E+02 -0.16929221946E+02 -0.14641972225E+03  0.15591199130E+03  0.10000000000E+01 0.  0.
<mgrwt>
<rscale>  0 0.12500114E+03</rscale>
<asrwt>0</asrwt>
<pdfrwt beam="1">  1        4 0.30117287E-02 0.12500114E+03</pdfrwt>
<pdfrwt beam="2">  1       -4 0.30699083E-01 0.12500114E+03</pdfrwt>
<totfact> 0.87005526E+03</totfact>
</mgrwt>
</event>
<event>
 5    1  0.3245943E-002  0.1250015E+03  0.7818608E-02  0.1235067E+00
          4   -1    0    0  501    0  0.00000000000E+00  0.00000000000E+00  0.19773803715E+03  0.19774211549E+03  0.12700000000E+01 0.  1.
         -4   -1    0    0    0  501 -0.00000000000E+00 -0.00000000000E+00 -0.19730450311E+02  0.19771281432E+02  0.12700000000E+01 0.  1.
         25    2    1    2    0    0  0.00000000000E+00  0.00000000000E+00  0.17800758684E+03  0.21751339692E+03  0.12500150745E+03 0.  0.
    9000005    1    3    3    0    0  0.50292539887E+02 -0.11845198013E+02  0.15017211572E+03  0.15881534127E+03  0.10000000000E+01 0.  0.
    9000005    1    3    3    0    0 -0.50292539887E+02  0.11845198013E+02  0.27835471128E+02  0.58698055650E+02  0.10000000000E+01 0.  0.
<mgrwt>
<rscale>  0 0.12500151E+03</rscale>
<asrwt>0</asrwt>
<pdfrwt beam="1">  1        4 0.30424691E-01 0.12500151E+03</pdfrwt>
<pdfrwt beam="2">  1       -4 0.30389085E-02 0.12500151E+03</pdfrwt>
<totfact> 0.87260418E+03</totfact>
</mgrwt>
</event>
<event>
 5    1  0.3245943E-002  0.1250014E+03  0.7818608E-02  0.1235067E+00
         -4   -1    0    0    0  501 -0.00000000000E+00  0.00000000000E+00  0.74768657089E+02  0.74779442248E+02  0.12700000000E+01 0.  1.
          4   -1    0    0  501    0  0.00000000000E+00 -0.00000000000E+00 -0.52223409294E+02  0.52238849320E+02  0.12700000000E+01 0.  1.
         25    2    1    2    0    0  0.00000000000E+00  0.00000000000E+00  0.22545247796E+02  0.12701829157E+03  0.12500143277E+03 0.  0.
    9000005    1    3    3    0    0  0.79383276575E+01 -0.55255316720E+02  0.39818096743E+02  0.68575855080E+02  0.10000000000E+01 0.  0.
    9000005    1    3    3    0    0 -0.79383276575E+01  0.55255316720E+02 -0.17272848947E+02  0.58442436487E+02  0.10000000000E+01 0.  0.
<mgrwt>
<rscale>  0 0.12500143E+03</rscale>
<asrwt>0</asrwt>
<pdfrwt beam="2">  1        4 0.80363880E-02 0.12500143E+03</pdfrwt>
<pdfrwt beam="1">  1       -4 0.11504888E-01 0.12500143E+03</pdfrwt>
<totfact> 0.10408412E+04</totfact>
</mgrwt>
</event>
<event>
 5    1  0.3245943E-002  0.1249962E+03  0.7818608E-02  0.1235075E+00
          4   -1    0    0  501    0  0.00000000000E+00  0.00000000000E+00  0.49130145602E+02  0.49146557427E+02  0.12700000000E+01 0.  1.
         -4   -1    0    0    0  501 -0.00000000000E+00 -0.00000000000E+00 -0.79468618393E+02  0.79478765776E+02  0.12700000000E+01 0.  1.
         25    2    1    2    0    0  0.00000000000E+00  0.00000000000E+00 -0.30338472791E+02  0.12862532320E+03  0.12499620329E+03 0.  0.
    9000005    1    3    3    0    0 -0.33419294390E+02 -0.51221591964E+02 -0.19706191885E+01  0.61199542979E+02  0.10000000000E+01 0.  0.
    9000005    1    3    3    0    0  0.33419294390E+02  0.51221591964E+02 -0.28367853602E+02  0.67425780224E+02  0.10000000000E+01 0.  0.
<mgrwt>
<rscale>  0 0.12499620E+03</rscale>
<asrwt>0</asrwt>
<pdfrwt beam="1">  1        4 0.75605270E-02 0.12499620E+03</pdfrwt>
<pdfrwt beam="2">  1       -4 0.12227984E-01 0.12499620E+03</pdfrwt>
<totfact> 0.10374894E+04</totfact>
</mgrwt>
</event>
<event>
 5    1  0.3245943E-002  0.1249977E+03  0.7818608E-02  0.1235073E+00
          4   -1    0    0  501    0  0.00000000000E+00  0.00000000000E+00  0.42788639813E+02  0.42807482956E+02  0.12700000000E+01 0. -1.
         -4   -1    0    0    0  501 -0.00000000000E+00 -0.00000000000E+00 -0.91244963460E+02  0.91253801328E+02  0.12700000000E+01 0. -1.
         25    2    1    2    0    0  0.00000000000E+00  0.00000000000E+00 -0.48456323647E+02  0.13406128428E+03  0.12499765055E+03 0.  0.
    9000005    1    3    3    0    0 -0.55806527476E+02  0.60423527954E+01  0.52263533901E+01  0.56384335643E+02  0.10000000000E+01 0.  0.
    9000005    1    3    3    0    0  0.55806527476E+02 -0.60423527954E+01 -0.53682677037E+02  0.77676948640E+02  0.10000000000E+01 0.  0.
<mgrwt>
<rscale>  0 0.12499765E+03</rscale>
<asrwt>0</asrwt>
<pdfrwt beam="1">  1        4 0.65849970E-02 0.12499765E+03</pdfrwt>
<pdfrwt beam="2">  1       -4 0.14039816E-01 0.12499765E+03</pdfrwt>
<totfact> 0.10258438E+04</totfact>
</mgrwt>
</event>
<event>
 5    1  0.3245943E-002  0.1250082E+03  0.7818608E-02  0.1235057E+00
         -4   -1    0    0    0  501 -0.00000000000E+00  0.00000000000E+00  0.33751871855E+03  0.33752110789E+03  0.12700000000E+01 0.  1.
          4   -1    0    0  501    0  0.00000000000E+00 -0.00000000000E+00 -0.11537671744E+02  0.11607358410E+02  0.12700000000E+01 0.  1.
         25    2    1    2    0    0  0.00000000000E+00  0.00000000000E+00  0.32598104681E+03  0.34912846631E+03  0.12500817215E+03 0.  0.
    9000005    1    3    3    0    0 -0.52192973282E+02 -0.26050343092E+02  0.10035142471E+03  0.11607814298E+03  0.10000000000E+01 0.  0.
    9000005    1    3    3    0    0  0.52192973282E+02  0.26050343092E+02  0.22562962210E+03  0.23305032333E+03  0.10000000000E+01 0.  0.
<mgrwt>
<rscale>  0 0.12500817E+03</rscale>
<asrwt>0</asrwt>
<pdfrwt beam="2">  1        4 0.17805710E-02 0.12500817E+03</pdfrwt>
<pdfrwt beam="1">  1       -4 0.51931493E-01 0.12500817E+03</pdfrwt>
<totfact> 0.69807919E+03</totfact>
</mgrwt>
</event>
<event>
 5    1  0.3245943E-002  0.1249956E+03  0.7818608E-02  0.1235076E+00
         -4   -1    0    0    0  501 -0.00000000000E+00  0.00000000000E+00  0.46528922238E+03  0.46529095560E+03  0.12700000000E+01 0. -1.
          4   -1    0    0  501    0  0.00000000000E+00 -0.00000000000E+00 -0.83449363803E+01  0.84410226389E+01  0.12700000000E+01 0. -1.
         25    2    1    2    0    0  0.00000000000E+00  0.00000000000E+00  0.45694428600E+03  0.47373197824E+03  0.12499562672E+03 0.  0.
    9000005    1    3    3    0    0 -0.49663744742E+02 -0.37924970305E+02  0.22683866175E+03  0.23529039373E+03  0.10000000000E+01 0.  0.
    9000005    1    3    3    0    0  0.49663744742E+02  0.37924970305E+02  0.23010562425E+03  0.23844158451E+03  0.10000000000E+01 0.  0.
<mgrwt>
<rscale>  0 0.12499563E+03</rscale>
<asrwt>0</asrwt>
<pdfrwt beam="2">  1        4 0.12913603E-02 0.12499563E+03</pdfrwt>
<pdfrwt beam="1">  1       -4 0.71590515E-01 0.12499563E+03</pdfrwt>
<totfact> 0.57967201E+03</totfact>
</mgrwt>
</event>
<event>
 5    1  0.3245943E-002  0.1249929E+03  0.7818608E-02  0.1235080E+00
         -4   -1    0    0    0  501 -0.00000000000E+00  0.00000000000E+00  0.33092961314E+02  0.33117321579E+02  0.12700000000E+01 0. -1.
          4   -1    0    0  501    0  0.00000000000E+00 -0.00000000000E+00 -0.11795409223E+03  0.11796092902E+03  0.12700000000E+01 0. -1.
         25    2    1    2    0    0  0.00000000000E+00  0.00000000000E+00 -0.84861130920E+02  0.15107825060E+03  0.12499290485E+03 0.  0.
    9000005    1    3    3    0    0 -0.19441955038E+02 -0.10336240365E+02 -0.11311573616E+03  0.11524320912E+03  0.10000000000E+01 0.  0.
    9000005    1    3    3    0    0  0.19441955038E+02  0.10336240365E+02  0.28254605240E+02  0.35835041480E+02  0.10000000000E+01 0.  0.
<mgrwt>
<rscale>  0 0.12499290E+03</rscale>
<asrwt>0</asrwt>
<pdfrwt beam="2">  1        4 0.18149183E-01 0.12499290E+03</pdfrwt>
<pdfrwt beam="1">  1       -4 0.50936247E-02 0.12499290E+03</pdfrwt>
<totfact> 0.99105021E+03</totfact>
</mgrwt>
</event>
<event>
 5    1  0.3245943E-002  0.1249985E+03  0.7818608E-02  0.1235072E+00
          4   -1    0    0  501    0  0.00000000000E+00  0.00000000000E+00  0.28441178542E+02  0.28469519435E+02  0.12700000000E+01 0.  1.
         -4   -1    0    0    0  501 -0.00000000000E+00 -0.00000000000E+00 -0.13724190902E+03  0.13724778502E+03  0.12700000000E+01 0.  1.
         25    2    1    2    0    0  0.00000000000E+00  0.00000000000E+00 -0.10880073048E+03  0.16571730445E+03  0.12499850416E+03 0.  0.
    9000005    1    3    3    0    0  0.57858084047E+02 -0.23600323179E+02 -0.53353634789E+02  0.82171427448E+02  0.10000000000E+01 0.  0.
    9000005    1    3    3    0    0 -0.57858084047E+02  0.23600323179E+02 -0.55447095692E+02  0.83545877004E+02  0.10000000000E+01 0.  0.
<mgrwt>
<rscale>  0 0.12499850E+03</rscale>
<asrwt>0</asrwt>
<pdfrwt beam="1">  1        4 0.43781981E-02 0.12499850E+03</pdfrwt>
<pdfrwt beam="2">  1       -4 0.21116772E-01 0.12499850E+03</pdfrwt>
<totfact> 0.96254953E+03</totfact>
</mgrwt>
</event>
<event>
 5    1  0.3245943E-002  0.1249959E+03  0.7818608E-02  0.1235076E+00
          4   -1    0    0  501    0  0.00000000000E+00  0.00000000000E+00  0.43017528924E+02  0.43036271850E+02  0.12700000000E+01 0. -1.
         -4   -1    0    0    0  501 -0.00000000000E+00 -0.00000000000E+00 -0.90757088397E+02  0.90765973769E+02  0.12700000000E+01 0. -1.
         25    2    1    2    0    0  0.00000000000E+00  0.00000000000E+00 -0.47739559473E+02  0.13380224562E+03  0.12499590151E+03 0.  0.
    9000005    1    3    3    0    0 -0.48939794143E+02 -0.38141426692E+02 -0.15922289830E+02  0.64065522665E+02  0.10000000000E+01 0.  0.
    9000005    1    3    3    0    0  0.48939794143E+02  0.38141426692E+02 -0.31817269642E+02  0.69736722954E+02  0.10000000000E+01 0.  0.
<mgrwt>
<rscale>  0 0.12499590E+03</rscale>
<asrwt>0</asrwt>
<pdfrwt beam="1">  1        4 0.66202066E-02 0.12499590E+03</pdfrwt>
<pdfrwt beam="2">  1       -4 0.13964754E-01 0.12499590E+03</pdfrwt>
<totfact> 0.10264327E+04</totfact>
</mgrwt>
</event>
<event>
 5    1  0.3245943E-002  0.1250001E+03  0.7818608E-02  0.1235069E+00
         -4   -1    0    0    0  501 -0.00000000000E+00  0.00000000000E+00  0.11685863889E+04  0.11685870790E+04  0.12700000000E+01 0.  1.
          4   -1    0    0  501    0  0.00000000000E+00 -0.00000000000E+00 -0.32213770602E+01  0.34626825098E+01  0.12700000000E+01 0.  1.
         25    2    1    2    0    0  0.00000000000E+00  0.00000000000E+00  0.11653650119E+04  0.11720497616E+04  0.12500013061E+03 0.  0.
    9000005    1    3    3    0    0  0.17892283102E+02 -0.52517658911E+02  0.31303677039E+03  0.31791706136E+03  0.10000000000E+01 0.  0.
    9000005    1    3    3    0    0 -0.17892283102E+02  0.52517658911E+02  0.85232824149E+03  0.85413270019E+03  0.10000000000E+01 0.  0.
<mgrwt>
<rscale>  0 0.12500013E+03</rscale>
<asrwt>0</asrwt>
<pdfrwt beam="2">  1        4 0.51421132E-03 0.12500013E+03</pdfrwt>
<pdfrwt beam="1">  1       -4 0.17980121E+00 0.12500013E+03</pdfrwt>
<totfact> 0.25456205E+03</totfact>
</mgrwt>
</event>
<event>
 5    1  0.3245943E-002  0.1249990E+03  0.7818608E-02  0.1235071E+00
         -4   -1    0    0    0  501 -0.00000000000E+00  0.00000000000E+00  0.50207592089E+03  0.50207752712E+03  0.12700000000E+01 0.  1.
          4   -1    0    0  501    0  0.00000000000E+00 -0.00000000000E+00 -0.77266195945E+01  0.78302969521E+01  0.12700000000E+01 0.  1.
         25    2    1    2    0    0  0.00000000000E+00  0.00000000000E+00  0.49434930130E+03  0.50990782407E+03  0.12499902943E+03 0.  0.
    9000005    1    3    3    0    0 -0.33304511163E+02  0.52651672819E+02  0.22727362014E+03  0.23566011017E+03  0.10000000000E+01 0.  0.
    9000005    1    3    3    0    0  0.33304511163E+02 -0.52651672819E+02  0.26707568116E+03  0.27424771390E+03  0.10000000000E+01 0.  0.
<mgrwt>
<rscale>  0 0.12499903E+03</rscale>
<asrwt>0</asrwt>
<pdfrwt beam="2">  1        4 0.11968098E-02 0.12499903E+03</pdfrwt>
<pdfrwt beam="1">  1       -4 0.77250525E-01 0.12499903E+03</pdfrwt>
<totfact> 0.55104939E+03</totfact>
</mgrwt>
</event>
<event>
 5    1  0.3245943E-002  0.1250009E+03  0.7818608E-02  0.1235068E+00
         -4   -1    0    0    0  501 -0.00000000000E+00  0.00000000000E+00  0.33293366157E+02  0.33317579895E+02  0.12700000000E+01 0. -1.
          4   -1    0    0  501    0  0.00000000000E+00 -0.00000000000E+00 -0.11725947449E+03  0.11726635177E+03  0.12700000000E+01 0. -1.
         25    2    1    2    0    0  0.00000000000E+00  0.00000000000E+00 -0.83966108336E+02  0.15058393167E+03  0.12500085251E+03 0.  0.
    9000005    1    3    3    0    0  0.40961520647E+02 -0.21673778267E+02  0.85224350952E+01  0.47129934627E+02  0.10000000000E+01 0.  0.
    9000005    1    3    3    0    0 -0.40961520647E+02  0.21673778267E+02 -0.92488543431E+02  0.10345399704E+03  0.10000000000E+01 0.  0.
<mgrwt>
<rscale>  0 0.12500085E+03</rscale>
<asrwt>0</asrwt>
<pdfrwt beam="2">  1        4 0.18042311E-01 0.12500085E+03</pdfrwt>
<pdfrwt beam="1">  1       -4 0.51244480E-02 0.12500085E+03</pdfrwt>
<totfact> 0.99185525E+03</totfact>
</mgrwt>
</event>
<event>
 5    1  0.3245943E-002  0.1250292E+03  0.7818608E-02  0.1235024E+00
         -4   -1    0    0    0  501 -0.00000000000E+00  0.00000000000E+00  0.12781497735E+03  0.12782128670E+03  0.12700000000E+01 0. -1.
          4   -1    0    0  501    0  0.00000000000E+00 -0.00000000000E+00 -0.30555756343E+02  0.30582137690E+02  0.12700000000E+01 0. -1.
         25    2    1    2    0    0  0.00000000000E+00  0.00000000000E+00  0.97259221005E+02  0.15840342439E+03  0.12502915176E+03 0.  0.
    9000005    1    3    3    0    0 -0.98715478589E+01 -0.38804068883E+02 -0.12181392936E+02  0.41863940962E+02  0.10000000000E+01 0.  0.
    9000005    1    3    3    0    0  0.98715478589E+01  0.38804068883E+02  0.10944061394E+03  0.11653948343E+03  0.10000000000E+01 0.  0.
<mgrwt>
<rscale>  0 0.12502915E+03</rscale>
<asrwt>0</asrwt>
<pdfrwt beam="2">  1        4 0.47034002E-02 0.12502915E+03</pdfrwt>
<pdfrwt beam="1">  1       -4 0.19666357E-01 0.12502915E+03</pdfrwt>
<totfact> 0.97587507E+03</totfact>
</mgrwt>
</event>
<event>
 5    1  0.3245943E-002  0.1249983E+03  0.7818608E-02  0.1235072E+00
          4   -1    0    0  501    0  0.00000000000E+00  0.00000000000E+00  0.25072875742E+02  0.25105019378E+02  0.12700000000E+01 0.  1.
         -4   -1    0    0    0  501 -0.00000000000E+00 -0.00000000000E+00 -0.15565716733E+03  0.15566234818E+03  0.12700000000E+01 0.  1.
         25    2    1    2    0    0  0.00000000000E+00  0.00000000000E+00 -0.13058429159E+03  0.18076736756E+03  0.12499833585E+03 0.  0.
    9000005    1    3    3    0    0 -0.23942784403E+01 -0.27570801318E+01  0.24925548811E+02  0.25211446679E+02  0.10000000000E+01 0.  0.
    9000005    1    3    3    0    0  0.23942784403E+01  0.27570801318E+01 -0.15550984040E+03  0.15555592088E+03  0.10000000000E+01 0.  0.
<mgrwt>
<rscale>  0 0.12499834E+03</rscale>
<asrwt>0</asrwt>
<pdfrwt beam="1">  1        4 0.38602367E-02 0.12499834E+03</pdfrwt>
<pdfrwt beam="2">  1       -4 0.23950127E-01 0.12499834E+03</pdfrwt>
<totfact> 0.93482545E+03</totfact>
</mgrwt>
</event>
<event>
 5    1  0.3245943E-002  0.1249963E+03  0.7818608E-02  0.1235075E+00
         -4   -1    0    0    0  501 -0.00000000000E+00  0.00000000000E+00  0.44808251856E+03  0.44808431834E+03  0.12700000000E+01 0. -1.
          4   -1    0    0  501    0  0.00000000000E+00 -0.00000000000E+00 -0.86690979604E+01  0.87616299538E+01  0.12700000000E+01 0. -1.
         25    2    1    2    0    0  0.00000000000E+00  0.00000000000E+00  0.43941342060E+03  0.45684594829E+03  0.12499626501E+03 0.  0.
    9000005    1    3    3    0    0 -0.58708117239E+02  0.20445373502E+02  0.19648738438E+03  0.20608966143E+03  0.10000000000E+01 0.  0.
    9000005    1    3    3    0    0  0.58708117239E+02 -0.20445373502E+02  0.24292603622E+03  0.25075628686E+03  0.10000000000E+01 0.  0.
<mgrwt>
<rscale>  0 0.12499627E+03</rscale>
<asrwt>0</asrwt>
<pdfrwt beam="2">  1        4 0.13409639E-02 0.12499627E+03</pdfrwt>
<pdfrwt beam="1">  1       -4 0.68943019E-01 0.12499627E+03</pdfrwt>
<totfact> 0.59380173E+03</totfact>
</mgrwt>
</event>
<event>
 5    1  0.3245943E-002  0.1249971E+03  0.7818608E-02  0.1235074E+00
          4   -1    0    0  501    0  0.00000000000E+00  0.00000000000E+00  0.25050551169E+03  0.25050873096E+03  0.12700000000E+01 0.  1.
         -4   -1    0    0    0  501 -0.00000000000E+00 -0.00000000000E+00 -0.15563559490E+02  0.15615290071E+02  0.12700000000E+01 0.  1.
         25    2    1    2    0    0  0.00000000000E+00  0.00000000000E+00  0.23494195220E+03  0.26612402103E+03  0.12499709463E+03 0.  0.
    9000005    1    3    3    0    0 -0.21039752968E+02  0.54328206909E+02  0.69350718511E+02  0.90580060879E+02  0.10000000000E+01 0.  0.
    9000005    1    3    3    0    0  0.21039752968E+02 -0.54328206909E+02  0.16559123369E+03  0.17554396015E+03  0.10000000000E+01 0.  0.
<mgrwt>
<rscale>  0 0.12499709E+03</rscale>
<asrwt>0</asrwt>
<pdfrwt beam="1">  1        4 0.38543538E-01 0.12499709E+03</pdfrwt>
<pdfrwt beam="2">  1       -4 0.23986206E-02 0.12499709E+03</pdfrwt>
<totfact> 0.80059422E+03</totfact>
</mgrwt>
</event>
<event>
 5    1  0.3245943E-002  0.1249992E+03  0.7818608E-02  0.1235071E+00
          4   -1    0    0  501    0  0.00000000000E+00  0.00000000000E+00  0.50078159734E+02  0.50094260972E+02  0.12700000000E+01 0.  1.
         -4   -1    0    0    0  501 -0.00000000000E+00 -0.00000000000E+00 -0.77968270817E+02  0.77978613441E+02  0.12700000000E+01 0.  1.
         25    2    1    2    0    0  0.00000000000E+00  0.00000000000E+00 -0.27890111084E+02  0.12807287441E+03  0.12499921145E+03 0.  0.
    9000005    1    3    3    0    0 -0.40334217195E+02 -0.45332861743E+02  0.13650431545E+01  0.60702395121E+02  0.10000000000E+01 0.  0.
    9000005    1    3    3    0    0  0.40334217195E+02  0.45332861743E+02 -0.29255154238E+02  0.67370479292E+02  0.10000000000E+01 0.  0.
<mgrwt>
<rscale>  0 0.12499921E+03</rscale>
<asrwt>0</asrwt>
<pdfrwt beam="1">  1        4 0.77063664E-02 0.12499921E+03</pdfrwt>
<pdfrwt beam="2">  1       -4 0.11997153E-01 0.12499921E+03</pdfrwt>
<totfact> 0.10386099E+04</totfact>
</mgrwt>
</event>
<event>
 5    1  0.3245943E-002  0.1249987E+03  0.7818608E-02  0.1235071E+00
          4   -1    0    0  501    0  0.00000000000E+00  0.00000000000E+00  0.22783769119E+03  0.22784123074E+03  0.12700000000E+01 0. -1.
         -4   -1    0    0    0  501 -0.00000000000E+00 -0.00000000000E+00 -0.17117339528E+02  0.17164387916E+02  0.12700000000E+01 0. -1.
         25    2    1    2    0    0  0.00000000000E+00  0.00000000000E+00  0.21072035166E+03  0.24500561866E+03  0.12499874627E+03 0.  0.
    9000005    1    3    3    0    0  0.28856140167E+02 -0.35798525229E+02  0.18830960079E+03  0.19384456913E+03  0.10000000000E+01 0.  0.
    9000005    1    3    3    0    0 -0.28856140167E+02  0.35798525229E+02  0.22410750876E+02  0.51161049527E+02  0.10000000000E+01 0.  0.
<mgrwt>
<rscale>  0 0.12499875E+03</rscale>
<asrwt>0</asrwt>
<pdfrwt beam="1">  1        4 0.35055843E-01 0.12499875E+03</pdfrwt>
<pdfrwt beam="2">  1       -4 0.26373283E-02 0.12499875E+03</pdfrwt>
<totfact> 0.83059792E+03</totfact>
</mgrwt>
</event>
<event>
 5    1  0.3245943E-002  0.1250156E+03  0.7818608E-02  0.1235045E+00
          4   -1    0    0  501    0  0.00000000000E+00  0.00000000000E+00  0.10826167911E+04  0.10826175361E+04  0.12700000000E+01 0. -1.
         -4   -1    0    0    0  501 -0.00000000000E+00 -0.00000000000E+00 -0.34965631413E+01  0.37200609942E+01  0.12700000000E+01 0. -1.
         25    2    1    2    0    0  0.00000000000E+00  0.00000000000E+00  0.10791202280E+04  0.10863375970E+04  0.12501563211E+03 0.  0.
    9000005    1    3    3    0    0  0.26652332600E+02 -0.30471046278E+02  0.12578521971E+03  0.13214292637E+03  0.10000000000E+01 0.  0.
    9000005    1    3    3    0    0 -0.26652332600E+02  0.30471046278E+02  0.95333500830E+03  0.95419467067E+03  0.10000000000E+01 0.  0.
<mgrwt>
<rscale>  0 0.12501563E+03</rscale>
<asrwt>0</asrwt>
<pdfrwt beam="1">  1        4 0.16657381E+00 0.12501563E+03</pdfrwt>
<pdfrwt beam="2">  1       -4 0.55518180E-03 0.12501563E+03</pdfrwt>
<totfact> 0.27877193E+03</totfact>
</mgrwt>
</event>
<event>
 5    1  0.3245943E-002  0.1249982E+03  0.7818608E-02  0.1235072E+00
          4   -1    0    0  501    0  0.00000000000E+00  0.00000000000E+00  0.32681014812E+02  0.32705681909E+02  0.12700000000E+01 0.  1.
         -4   -1    0    0    0  501 -0.00000000000E+00 -0.00000000000E+00 -0.11944995678E+03  0.11945670795E+03  0.12700000000E+01 0.  1.
         25    2    1    2    0    0  0.00000000000E+00  0.00000000000E+00 -0.86768941969E+02  0.15216238986E+03  0.12499817438E+03 0.  0.
    9000005    1    3    3    0    0  0.55368445108E+02  0.26039892506E+02 -0.58849435801E+02  0.84899922318E+02  0.10000000000E+01 0.  0.
    9000005    1    3    3    0    0 -0.55368445108E+02 -0.26039892506E+02 -0.27919506167E+02  0.67262467544E+02  0.10000000000E+01 0.  0.
<mgrwt>
<rscale>  0 0.12499817E+03</rscale>
<asrwt>0</asrwt>
<pdfrwt beam="1">  1        4 0.50302653E-02 0.12499817E+03</pdfrwt>
<pdfrwt beam="2">  1       -4 0.18379333E-01 0.12499817E+03</pdfrwt>
<totfact> 0.98878454E+03</totfact>
</mgrwt>
</event>
<event>
 5    1  0.3245943E-002  0.1249997E+03  0.7818608E-02  0.1235070E+00
         -4   -1    0    0    0  501 -0.00000000000E+00  0.00000000000E+00  0.64069605412E+01  0.65316187409E+01  0.12700000000E+01 0. -1.
          4   -1    0    0  501    0  0.00000000000E+00 -0.00000000000E+00 -0.60368647980E+03  0.60368781568E+03  0.12700000000E+01 0. -1.
         25    2    1    2    0    0  0.00000000000E+00  0.00000000000E+00 -0.59727951926E+03  0.61021943442E+03  0.12499973605E+03 0.  0.
    9000005    1    3    3    0    0 -0.47245082643E+02 -0.37963829399E+02 -0.22430161802E+03  0.23234794172E+03  0.10000000000E+01 0.  0.
    9000005    1    3    3    0    0  0.47245082643E+02  0.37963829399E+02 -0.37297790124E+03  0.37787149269E+03  0.10000000000E+01 0.  0.
<mgrwt>
<rscale>  0 0.12499974E+03</rscale>
<asrwt>0</asrwt>
<pdfrwt beam="2">  1        4 0.92884491E-01 0.12499974E+03</pdfrwt>
<pdfrwt beam="1">  1       -4 0.99537856E-03 0.12499974E+03</pdfrwt>
<totfact> 0.48229116E+03</totfact>
</mgrwt>
</event>
<event>
 5    1  0.3245943E-002  0.1250039E+03  0.7818608E-02  0.1235063E+00
         -4   -1    0    0    0  501 -0.00000000000E+00  0.00000000000E+00  0.70492872638E+02  0.70504311874E+02  0.12700000000E+01 0.  1.
          4   -1    0    0  501    0  0.00000000000E+00 -0.00000000000E+00 -0.55393674504E+02  0.55408231112E+02  0.12700000000E+01 0.  1.
         25    2    1    2    0    0  0.00000000000E+00  0.00000000000E+00  0.15099198135E+02  0.12591254299E+03  0.12500393073E+03 0.  0.
    9000005    1    3    3    0    0 -0.33601116189E+02  0.11252057609E+02 -0.44301280006E+02  0.56738410444E+02  0.10000000000E+01 0.  0.
    9000005    1    3    3    0    0  0.33601116189E+02 -0.11252057609E+02  0.59400478141E+02  0.69174132542E+02  0.10000000000E+01 0.  0.
<mgrwt>
<rscale>  0 0.12500393E+03</rscale>
<asrwt>0</asrwt>
<pdfrwt beam="2">  1        4 0.85241035E-02 0.12500393E+03</pdfrwt>
<pdfrwt beam="1">  1       -4 0.10847057E-01 0.12500393E+03</pdfrwt>
<totfact> 0.10431949E+04</totfact>
</mgrwt>
</event>
<event>
 5    1  0.3245943E-002  0.1249989E+03  0.7818608E-02  0.1235071E+00
         -4   -1    0    0    0  501 -0.00000000000E+00  0.00000000000E+00  0.33075433124E+01  0.35429850075E+01  0.12700000000E+01 0. -1.
          4   -1    0    0  501    0  0.00000000000E+00 -0.00000000000E+00 -0.11401666238E+04  0.11401673311E+04  0.12700000000E+01 0. -1.
         25    2    1    2    0    0  0.00000000000E+00  0.00000000000E+00 -0.11368590804E+04  0.11437103161E+04  0.12499887321E+03 0.  0.
    9000005    1    3    3    0    0 -0.30101550185E+02 -0.36302436968E+02 -0.94359326152E+03  0.94477151388E+03  0.10000000000E+01 0.  0.
    9000005    1    3    3    0    0  0.30101550185E+02  0.36302436968E+02 -0.19326581892E+03  0.19893880218E+03  0.10000000000E+01 0.  0.
<mgrwt>
<rscale>  0 0.12499887E+03</rscale>
<asrwt>0</asrwt>
<pdfrwt beam="2">  1        4 0.17542811E+00 0.12499887E+03</pdfrwt>
<pdfrwt beam="1">  1       -4 0.52701904E-03 0.12499887E+03</pdfrwt>
<totfact> 0.26236093E+03</totfact>
</mgrwt>
</event>
<event>
 5    1  0.3245943E-002  0.1249978E+03  0.7818608E-02  0.1235073E+00
         -4   -1    0    0    0  501 -0.00000000000E+00  0.00000000000E+00  0.36256849898E+01  0.38416782329E+01  0.12700000000E+01 0.  1.
          4   -1    0    0  501    0  0.00000000000E+00 -0.00000000000E+00 -0.10459668817E+04  0.10459676527E+04  0.12700000000E+01 0.  1.
         25    2    1    2    0    0  0.00000000000E+00  0.00000000000E+00 -0.10423411967E+04  0.10498093309E+04  0.12499784387E+03 0.  0.
    9000005    1    3    3    0    0 -0.14140762512E+02 -0.60517434812E+02 -0.46622914132E+03  0.47035405100E+03  0.10000000000E+01 0.  0.
    9000005    1    3    3    0    0  0.14140762512E+02  0.60517434812E+02 -0.57611205537E+03  0.57945527991E+03  0.10000000000E+01 0.  0.
<mgrwt>
<rscale>  0 0.12499784E+03</rscale>
<asrwt>0</asrwt>
<pdfrwt beam="2">  1        4 0.16093442E+00 0.12499784E+03</pdfrwt>
<pdfrwt beam="1">  1       -4 0.57447270E-03 0.12499784E+03</pdfrwt>
<totfact> 0.29002132E+03</totfact>
</mgrwt>
</event>
<event>
 5    1  0.3245943E-002  0.1249934E+03  0.7818608E-02  0.1235080E+00
          4   -1    0    0  501    0  0.00000000000E+00  0.00000000000E+00  0.19258894363E+02  0.19300723097E+02  0.12700000000E+01 0.  1.
         -4   -1    0    0    0  501 -0.00000000000E+00 -0.00000000000E+00 -0.20254327012E+03  0.20254725170E+03  0.12700000000E+01 0.  1.
         25    2    1    2    0    0  0.00000000000E+00  0.00000000000E+00 -0.18328437576E+03  0.22184797480E+03  0.12499344593E+03 0.  0.
    9000005    1    3    3    0    0 -0.45891634305E+02  0.33739268964E+02 -0.13725548765E+03  0.14860837547E+03  0.10000000000E+01 0.  0.
    9000005    1    3    3    0    0  0.45891634305E+02 -0.33739268964E+02 -0.46028888110E+02  0.73239599330E+02  0.10000000000E+01 0.  0.
<mgrwt>
<rscale>  0 0.12499345E+03</rscale>
<asrwt>0</asrwt>
<pdfrwt beam="1">  1        4 0.29664308E-02 0.12499345E+03</pdfrwt>
<pdfrwt beam="2">  1       -4 0.31164025E-01 0.12499345E+03</pdfrwt>
<totfact> 0.86589448E+03</totfact>
</mgrwt>
</event>
<event>
 4    1  0.3245943E-002  0.1251291E+03  0.7818608E-02  0.1234868E+00
         -4   -1    0    0    0  501 -0.00000000000E+00  0.00000000000E+00  0.10160108704E+02  0.10239175205E+02  0.12700000000E+01 0.  1.
          4   -1    0    0  501    0  0.00000000000E+00 -0.00000000000E+00 -0.38369029263E+03  0.38369239445E+03  0.12700000000E+01 0.  1.
    9000005    1    1    2    0    0 -0.13851652927E+02 -0.33378201457E+02 -0.26010977144E+02  0.44536990842E+02  0.10000000000E+01 0.  0.
    9000005    1    1    2    0    0  0.13851652927E+02  0.33378201457E+02 -0.34751920679E+03  0.34939457882E+03  0.10000000000E+01 0.  0.
<mgrwt>
<rscale>  0 0.12512907E+03</rscale>
<asrwt>0</asrwt>
<pdfrwt beam="2">  1        4 0.59035508E-01 0.12512907E+03</pdfrwt>
<pdfrwt beam="1">  1       -4 0.15693377E-02 0.12512907E+03</pdfrwt>
<totfact> 0.64961981E+03</totfact>
</mgrwt>
</event>
<event>
 5    1  0.3245943E-002  0.1249658E+03  0.7818608E-02  0.1235123E+00
         -4   -1    0    0    0  501 -0.00000000000E+00  0.00000000000E+00  0.37065442558E+02  0.37087193639E+02  0.12700000000E+01 0.  1.
          4   -1    0    0  501    0  0.00000000000E+00 -0.00000000000E+00 -0.10527372773E+03  0.10528138795E+03  0.12700000000E+01 0.  1.
         25    2    1    2    0    0  0.00000000000E+00  0.00000000000E+00 -0.68208285170E+02  0.14236858159E+03  0.12496576675E+03 0.  0.
    9000005    1    3    3    0    0  0.90056774247E+00 -0.47712328230E+02 -0.80040983379E+02  0.93192469158E+02  0.10000000000E+01 0.  0.
    9000005    1    3    3    0    0 -0.90056774247E+00  0.47712328230E+02  0.11832698210E+02  0.49176112435E+02  0.10000000000E+01 0.  0.
<mgrwt>
<rscale>  0 0.12496577E+03</rscale>
<asrwt>0</asrwt>
<pdfrwt beam="2">  1        4 0.16198220E-01 0.12496577E+03</pdfrwt>
<pdfrwt beam="1">  1       -4 0.57046383E-02 0.12496577E+03</pdfrwt>
<totfact> 0.10092509E+04</totfact>
</mgrwt>
</event>
<event>
 5    1  0.3245943E-002  0.1249961E+03  0.7818608E-02  0.1235075E+00
         -4   -1    0    0    0  501 -0.00000000000E+00  0.00000000000E+00  0.10232669601E+03  0.10233457684E+03  0.12700000000E+01 0.  1.
          4   -1    0    0  501    0  0.00000000000E+00 -0.00000000000E+00 -0.38151994022E+02  0.38173125990E+02  0.12700000000E+01 0.  1.
         25    2    1    2    0    0  0.00000000000E+00  0.00000000000E+00  0.64174701993E+02  0.14050770283E+03  0.12499608865E+03 0.  0.
    9000005    1    3    3    0    0 -0.61188326261E+02 -0.18340929517E+01  0.46200491574E+02  0.76699808274E+02  0.10000000000E+01 0.  0.
    9000005    1    3    3    0    0  0.61188326261E+02  0.18340929517E+01  0.17974210418E+02  0.63807894557E+02  0.10000000000E+01 0.  0.
<mgrwt>
<rscale>  0 0.12499609E+03</rscale>
<asrwt>0</asrwt>
<pdfrwt beam="2">  1        4 0.58717693E-02 0.12499609E+03</pdfrwt>
<pdfrwt beam="1">  1       -4 0.15744800E-01 0.12499609E+03</pdfrwt>
<totfact> 0.10123966E+04</totfact>
</mgrwt>
</event>
<event>
 5    1  0.3245943E-002  0.1250017E+03  0.7818608E-02  0.1235067E+00
          4   -1    0    0  501    0  0.00000000000E+00  0.00000000000E+00  0.18341651952E+03  0.18342091629E+03  0.12700000000E+01 0.  1.
         -4   -1    0    0    0  501 -0.00000000000E+00 -0.00000000000E+00 -0.21274153263E+02  0.21312027052E+02  0.12700000000E+01 0.  1.
         25    2    1    2    0    0  0.00000000000E+00  0.00000000000E+00  0.16214236625E+03  0.20473294334E+03  0.12500172460E+03 0.  0.
    9000005    1    3    3    0    0 -0.55995556768E+02  0.72846478490E+01  0.12492097002E+03  0.13709419106E+03  0.10000000000E+01 0.  0.
    9000005    1    3    3    0    0  0.55995556768E+02 -0.72846478490E+01  0.37221396233E+02  0.67638752277E+02  0.10000000000E+01 0.  0.
<mgrwt>
<rscale>  0 0.12500172E+03</rscale>
<asrwt>0</asrwt>
<pdfrwt beam="1">  1        4 0.28221177E-01 0.12500172E+03</pdfrwt>
<pdfrwt beam="2">  1       -4 0.32761983E-02 0.12500172E+03</pdfrwt>
<totfact> 0.89339904E+03</totfact>
</mgrwt>
</event>
<event>
 5    1  0.3245943E-002  0.1249971E+03  0.7818608E-02  0.1235074E+00
          4   -1    0    0  501    0  0.00000000000E+00  0.00000000000E+00  0.34565829917E+03  0.34566063225E+03  0.12700000000E+01 0. -1.
         -4   -1    0    0    0  501 -0.00000000000E+00 -0.00000000000E+00 -0.11262313188E+02  0.11333693059E+02  0.12700000000E+01 0. -1.
         25    2    1    2    0    0  0.00000000000E+00  0.00000000000E+00  0.33439598599E+03  0.35699432531E+03  0.12499709140E+03 0.  0.
    9000005    1    3    3    0    0  0.21900331669E+02  0.58460938241E+02  0.17515517092E+03  0.18595063788E+03  0.10000000000E+01 0.  0.
    9000005    1    3    3    0    0 -0.21900331669E+02 -0.58460938241E+02  0.15924081506E+03  0.17104368743E+03  0.10000000000E+01 0.  0.
<mgrwt>
<rscale>  0 0.12499709E+03</rscale>
<asrwt>0</asrwt>
<pdfrwt beam="1">  1        4 0.53183870E-01 0.12499709E+03</pdfrwt>
<pdfrwt beam="2">  1       -4 0.17383338E-02 0.12499709E+03</pdfrwt>
<totfact> 0.68966323E+03</totfact>
</mgrwt>
</event>
<event>
 5    1  0.3245943E-002  0.1249997E+03  0.7818608E-02  0.1235070E+00
          4   -1    0    0  501    0  0.00000000000E+00  0.00000000000E+00  0.32499328429E+02  0.32524133322E+02  0.12700000000E+01 0.  1.
         -4   -1    0    0    0  501 -0.00000000000E+00 -0.00000000000E+00 -0.12012019098E+03  0.12012690448E+03  0.12700000000E+01 0.  1.
         25    2    1    2    0    0  0.00000000000E+00  0.00000000000E+00 -0.87620862550E+02  0.15265103780E+03  0.12499969516E+03 0.  0.
    9000005    1    3    3    0    0  0.23418434589E+02  0.28849423605E+02 -0.10516968897E+03  0.11154539793E+03  0.10000000000E+01 0.  0.
    9000005    1    3    3    0    0 -0.23418434589E+02 -0.28849423605E+02  0.17548826420E+02  0.41105639877E+02  0.10000000000E+01 0.  0.
<mgrwt>
<rscale>  0 0.12499970E+03</rscale>
<asrwt>0</asrwt>
<pdfrwt beam="1">  1        4 0.50023212E-02 0.12499970E+03</pdfrwt>
<pdfrwt beam="2">  1       -4 0.18482454E-01 0.12499970E+03</pdfrwt>
<totfact> 0.98778532E+03</totfact>
</mgrwt>
</event>
<event>
 5    1  0.3245943E-002  0.1249993E+03  0.7818608E-02  0.1235070E+00
         -4   -1    0    0    0  501 -0.00000000000E+00  0.00000000000E+00  0.15217231392E+03  0.15217761341E+03  0.12700000000E+01 0.  1.
          4   -1    0    0  501    0  0.00000000000E+00 -0.00000000000E+00 -0.25648186675E+02  0.25679610194E+02  0.12700000000E+01 0.  1.
         25    2    1    2    0    0  0.00000000000E+00  0.00000000000E+00  0.12652412724E+03  0.17785722361E+03  0.12499934885E+03 0.  0.
    9000005    1    3    3    0    0  0.13334394659E+02 -0.58928126736E+02  0.40546115300E+02  0.72768933395E+02  0.10000000000E+01 0.  0.
    9000005    1    3    3    0    0 -0.13334394659E+02  0.58928126736E+02  0.85978011945E+02  0.10508829021E+03  0.10000000000E+01 0.  0.
<mgrwt>
<rscale>  0 0.12499935E+03</rscale>
<asrwt>0</asrwt>
<pdfrwt beam="2">  1        4 0.39486997E-02 0.12499935E+03</pdfrwt>
<pdfrwt beam="1">  1       -4 0.23413950E-01 0.12499935E+03</pdfrwt>
<totfact> 0.94005510E+03</totfact>
</mgrwt>
</event>
<event>
 5    1  0.3245943E-002  0.1250195E+03  0.7818608E-02  0.1235039E+00
          4   -1    0    0  501    0  0.00000000000E+00  0.00000000000E+00  0.56778470514E+02  0.56792672185E+02  0.12700000000E+01 0.  1.
         -4   -1    0    0    0  501 -0.00000000000E+00 -0.00000000000E+00 -0.68790828549E+02  0.68802550770E+02  0.12700000000E+01 0.  1.
         25    2    1    2    0    0  0.00000000000E+00  0.00000000000E+00 -0.12012358034E+02  0.12559522296E+03  0.12501945162E+03 0.  0.
    9000005    1    3    3    0    0  0.73558058485E+01  0.11665209716E+02  0.55235881427E+02  0.56940210698E+02  0.10000000000E+01 0.  0.
    9000005    1    3    3    0    0 -0.73558058485E+01 -0.11665209716E+02 -0.67248239461E+02  0.68655012257E+02  0.10000000000E+01 0.  0.
<mgrwt>
<rscale>  0 0.12501945E+03</rscale>
<asrwt>0</asrwt>
<pdfrwt beam="1">  1        4 0.87371434E-02 0.12501945E+03</pdfrwt>
<pdfrwt beam="2">  1       -4 0.10585199E-01 0.12501945E+03</pdfrwt>
<totfact> 0.10435273E+04</totfact>
</mgrwt>
</event>
<event>
 4    1  0.3245943E-002  0.1249016E+03  0.7818608E-02  0.1235223E+00
          4   -1    0    0  501    0  0.00000000000E+00  0.00000000000E+00  0.57149781258E+02  0.57163890681E+02  0.12700000000E+01 0. -1.
         -4   -1    0    0    0  501 -0.00000000000E+00 -0.00000000000E+00 -0.68215130352E+02  0.68226951485E+02  0.12700000000E+01 0. -1.
    9000005    1    1    2    0    0 -0.19740788450E+02 -0.45801409846E+02  0.32186244927E+02  0.59366844576E+02  0.10000000000E+01 0.  0.
    9000005    1    1    2    0    0  0.19740788450E+02  0.45801409846E+02 -0.43251594021E+02  0.66023997590E+02  0.10000000000E+01 0.  0.
<mgrwt>
<rscale>  0 0.12490165E+03</rscale>
<asrwt>0</asrwt>
<pdfrwt beam="1">  1        4 0.87942687E-02 0.12490165E+03</pdfrwt>
<pdfrwt beam="2">  1       -4 0.10496630E-01 0.12490165E+03</pdfrwt>
<totfact> 0.10467570E+04</totfact>
</mgrwt>
</event>
<event>
 5    1  0.3245943E-002  0.1249945E+03  0.7818608E-02  0.1235078E+00
          4   -1    0    0  501    0  0.00000000000E+00  0.00000000000E+00  0.89079534123E+03  0.89079624655E+03  0.12700000000E+01 0. -1.
         -4   -1    0    0    0  501 -0.00000000000E+00 -0.00000000000E+00 -0.42918515800E+01  0.44758116565E+01  0.12700000000E+01 0. -1.
         25    2    1    2    0    0  0.00000000000E+00  0.00000000000E+00  0.88650348965E+03  0.89527205820E+03  0.12499448401E+03 0.  0.
    9000005    1    3    3    0    0  0.35873328776E+02  0.37851263926E+02  0.19666101755E+03  0.20346048688E+03  0.10000000000E+01 0.  0.
    9000005    1    3    3    0    0 -0.35873328776E+02 -0.37851263926E+02  0.68984247210E+03  0.69181157132E+03  0.10000000000E+01 0.  0.
<mgrwt>
<rscale>  0 0.12499448E+03</rscale>
<asrwt>0</asrwt>
<pdfrwt beam="1">  1        4 0.13705969E+00 0.12499448E+03</pdfrwt>
<pdfrwt beam="2">  1       -4 0.67450513E-03 0.12499448E+03</pdfrwt>
<totfact> 0.34345729E+03</totfact>
</mgrwt>
</event>
<event>
 5    1  0.3245943E-002  0.1250019E+03  0.7818608E-02  0.1235066E+00
          4   -1    0    0  501    0  0.00000000000E+00  0.00000000000E+00  0.16147529133E+02  0.16197394763E+02  0.12700000000E+01 0. -1.
         -4   -1    0    0    0  501 -0.00000000000E+00 -0.00000000000E+00 -0.24149287845E+03  0.24149621786E+03  0.12700000000E+01 0. -1.
         25    2    1    2    0    0  0.00000000000E+00  0.00000000000E+00 -0.22534534932E+03  0.25769361263E+03  0.12500188610E+03 0.  0.
    9000005    1    3    3    0    0  0.59243375371E+02  0.11995033869E+02 -0.79965961040E+02  0.10024576444E+03  0.10000000000E+01 0.  0.
    9000005    1    3    3    0    0 -0.59243375371E+02 -0.11995033869E+02 -0.14537938828E+03  0.15744784819E+03  0.10000000000E+01 0.  0.
<mgrwt>
<rscale>  0 0.12500189E+03</rscale>
<asrwt>0</asrwt>
<pdfrwt beam="1">  1        4 0.24883281E-02 0.12500189E+03</pdfrwt>
<pdfrwt beam="2">  1       -4 0.37156841E-01 0.12500189E+03</pdfrwt>
<totfact> 0.81227413E+03</totfact>
</mgrwt>
</event>
<event>
 5    1  0.3245943E-002  0.1250004E+03  0.7818608E-02  0.1235069E+00
          4   -1    0    0  501    0  0.00000000000E+00  0.00000000000E+00  0.26237761921E+02  0.26268480173E+02  0.12700000000E+01 0. -1.
         -4   -1    0    0    0  501 -0.00000000000E+00 -0.00000000000E+00 -0.14875937592E+03  0.14876479699E+03  0.12700000000E+01 0. -1.
         25    2    1    2    0    0  0.00000000000E+00  0.00000000000E+00 -0.12252161399E+03  0.17503327716E+03  0.12500040887E+03 0.  0.
    9000005    1    3    3    0    0  0.84264372689E+01 -0.61762093853E+02 -0.67478106217E+02  0.91868688358E+02  0.10000000000E+01 0.  0.
    9000005    1    3    3    0    0 -0.84264372689E+01  0.61762093853E+02 -0.55043507778E+02  0.83164588802E+02  0.10000000000E+01 0.  0.
<mgrwt>
<rscale>  0 0.12500041E+03</rscale>
<asrwt>0</asrwt>
<pdfrwt beam="1">  1        4 0.40393588E-02 0.12500041E+03</pdfrwt>
<pdfrwt beam="2">  1       -4 0.22888837E-01 0.12500041E+03</pdfrwt>
<totfact> 0.94517880E+03</totfact>
</mgrwt>
</event>
<event>
 5    1  0.3245943E-002  0.1250015E+03  0.7818608E-02  0.1235067E+00
          4   -1    0    0  501    0  0.00000000000E+00  0.00000000000E+00  0.25526310922E+03  0.25526626849E+03  0.12700000000E+01 0. -1.
         -4   -1    0    0    0  501 -0.00000000000E+00 -0.00000000000E+00 -0.15273586847E+02  0.15326296198E+02  0.12700000000E+01 0. -1.
         25    2    1    2    0    0  0.00000000000E+00  0.00000000000E+00  0.23998952237E+03  0.27059256468E+03  0.12500146085E+03 0.  0.
    9000005    1    3    3    0    0  0.50369188873E+01 -0.55609952666E+02  0.18074208241E+03  0.18917330081E+03  0.10000000000E+01 0.  0.
    9000005    1    3    3    0    0 -0.50369188873E+01  0.55609952666E+02  0.59247439962E+02  0.81419263872E+02  0.10000000000E+01 0.  0.
<mgrwt>
<rscale>  0 0.12500146E+03</rscale>
<asrwt>0</asrwt>
<pdfrwt beam="1">  1        4 0.39275547E-01 0.12500146E+03</pdfrwt>
<pdfrwt beam="2">  1       -4 0.23540801E-02 0.12500146E+03</pdfrwt>
<totfact> 0.79439565E+03</totfact>
</mgrwt>
</event>
<event>
 5    1  0.3245943E-002  0.1250123E+03  0.7818608E-02  0.1235050E+00
          4   -1    0    0  501    0  0.00000000000E+00  0.00000000000E+00  0.10570465987E+03  0.10571228887E+03  0.12700000000E+01 0.  1.
         -4   -1    0    0    0  501 -0.00000000000E+00 -0.00000000000E+00 -0.36941753277E+02  0.36963577143E+02  0.12700000000E+01 0.  1.
         25    2    1    2    0    0  0.00000000000E+00  0.00000000000E+00  0.68762906592E+02  0.14267586601E+03  0.12501226108E+03 0.  0.
    9000005    1    3    3    0    0  0.29635631919E+02  0.17204791251E+02 -0.25269536488E+02  0.42589024355E+02  0.10000000000E+01 0.  0.
    9000005    1    3    3    0    0 -0.29635631919E+02 -0.17204791251E+02  0.94032443079E+02  0.10008684166E+03  0.10000000000E+01 0.  0.
<mgrwt>
<rscale>  0 0.12501226E+03</rscale>
<asrwt>0</asrwt>
<pdfrwt beam="1">  1        4 0.16264521E-01 0.12501226E+03</pdfrwt>
<pdfrwt beam="2">  1       -4 0.56856123E-02 0.12501226E+03</pdfrwt>
<totfact> 0.10075642E+04</totfact>
</mgrwt>
</event>
<event>
 5    1  0.3245943E-002  0.1249994E+03  0.7818608E-02  0.1235070E+00
          4   -1    0    0  501    0  0.00000000000E+00  0.00000000000E+00  0.17172068219E+04  0.17172072915E+04  0.12700000000E+01 0.  1.
         -4   -1    0    0    0  501 -0.00000000000E+00 -0.00000000000E+00 -0.20969805400E+01  0.24515765101E+01  0.12700000000E+01 0.  1.
         25    2    1    2    0    0  0.00000000000E+00  0.00000000000E+00  0.17151098413E+04  0.17196588680E+04  0.12499941798E+03 0.  0.
    9000005    1    3    3    0    0  0.43844431729E+02 -0.44322444793E+02  0.79854201849E+03  0.80097263911E+03  0.10000000000E+01 0.  0.
    9000005    1    3    3    0    0 -0.43844431729E+02  0.44322444793E+02  0.91656782284E+03  0.91868622890E+03  0.10000000000E+01 0.  0.
<mgrwt>
<rscale>  0 0.12499942E+03</rscale>
<asrwt>0</asrwt>
<pdfrwt beam="1">  1        4 0.26421294E+00 0.12499942E+03</pdfrwt>
<pdfrwt beam="2">  1       -4 0.34992519E-03 0.12499942E+03</pdfrwt>
<totfact> 0.13982718E+03</totfact>
</mgrwt>
</event>
<event>
 5    1  0.3245943E-002  0.1249967E+03  0.7818608E-02  0.1235074E+00
          4   -1    0    0  501    0  0.00000000000E+00  0.00000000000E+00  0.80464039131E+03  0.80464139356E+03  0.12700000000E+01 0.  1.
         -4   -1    0    0    0  501 -0.00000000000E+00 -0.00000000000E+00 -0.47703127280E+01  0.49364748072E+01  0.12700000000E+01 0.  1.
         25    2    1    2    0    0  0.00000000000E+00  0.00000000000E+00  0.79987007858E+03  0.80957786836E+03  0.12499672930E+03 0.  0.
    9000005    1    3    3    0    0 -0.41922325098E+02 -0.70955311082E+01  0.69654226937E+03  0.69783949510E+03  0.10000000000E+01 0.  0.
    9000005    1    3    3    0    0  0.41922325098E+02  0.70955311082E+01  0.10332780921E+03  0.11173837326E+03  0.10000000000E+01 0.  0.
<mgrwt>
<rscale>  0 0.12499673E+03</rscale>
<asrwt>0</asrwt>
<pdfrwt beam="1">  1        4 0.12380354E+00 0.12499673E+03</pdfrwt>
<pdfrwt beam="2">  1       -4 0.74675393E-03 0.12499673E+03</pdfrwt>
<totfact> 0.37843449E+03</totfact>
</mgrwt>
</event>
<event>
 5    1  0.3245943E-002  0.1250010E+03  0.7818608E-02  0.1235068E+00
         -4   -1    0    0    0  501 -0.00000000000E+00  0.00000000000E+00  0.23171781760E+02  0.23206558770E+02  0.12700000000E+01 0. -1.
          4   -1    0    0  501    0  0.00000000000E+00 -0.00000000000E+00 -0.16841704251E+03  0.16842183085E+03  0.12700000000E+01 0. -1.
         25    2    1    2    0    0  0.00000000000E+00  0.00000000000E+00 -0.14524526075E+03  0.19162838962E+03  0.12500101575E+03 0.  0.
    9000005    1    3    3    0    0  0.46898841074E+02 -0.29361735078E+02 -0.11715138137E+03  0.12956488312E+03  0.10000000000E+01 0.  0.
    9000005    1    3    3    0    0 -0.46898841074E+02  0.29361735078E+02 -0.28093879381E+02  0.62063506504E+02  0.10000000000E+01 0.  0.
<mgrwt>
<rscale>  0 0.12500102E+03</rscale>
<asrwt>0</asrwt>
<pdfrwt beam="2">  1        4 0.25913357E-01 0.12500102E+03</pdfrwt>
<pdfrwt beam="1">  1       -4 0.35679331E-02 0.12500102E+03</pdfrwt>
<totfact> 0.91562667E+03</totfact>
</mgrwt>
</event>
<event>
 5    1  0.3245943E-002  0.1249991E+03  0.7818608E-02  0.1235071E+00
          4   -1    0    0  501    0  0.00000000000E+00  0.00000000000E+00  0.12842570180E+03  0.12843198116E+03  0.12700000000E+01 0.  1.
         -4   -1    0    0    0  501 -0.00000000000E+00 -0.00000000000E+00 -0.30395684990E+02  0.30422205147E+02  0.12700000000E+01 0.  1.
         25    2    1    2    0    0  0.00000000000E+00  0.00000000000E+00  0.98030016814E+02  0.15885418630E+03  0.12499907323E+03 0.  0.
    9000005    1    3    3    0    0  0.52579704307E+02 -0.25997508453E+02  0.21619681264E+02  0.62521247338E+02  0.10000000000E+01 0.  0.
    9000005    1    3    3    0    0 -0.52579704307E+02  0.25997508453E+02  0.76410335551E+02  0.96332938966E+02  0.10000000000E+01 0.  0.
<mgrwt>
<rscale>  0 0.12499907E+03</rscale>
<asrwt>0</asrwt>
<pdfrwt beam="1">  1        4 0.19760323E-01 0.12499907E+03</pdfrwt>
<pdfrwt beam="2">  1       -4 0.46787823E-02 0.12499907E+03</pdfrwt>
<totfact> 0.97566177E+03</totfact>
</mgrwt>
</event>
<event>
 5    1  0.3245943E-002  0.1249925E+03  0.7818608E-02  0.1235081E+00
         -4   -1    0    0    0  501 -0.00000000000E+00  0.00000000000E+00  0.46606289825E+02  0.46623590072E+02  0.12700000000E+01 0. -1.
          4   -1    0    0  501    0  0.00000000000E+00 -0.00000000000E+00 -0.83766092455E+02  0.83775719306E+02  0.12700000000E+01 0. -1.
         25    2    1    2    0    0  0.00000000000E+00  0.00000000000E+00 -0.37159802630E+02  0.13039930938E+03  0.12499251559E+03 0.  0.
    9000005    1    3    3    0    0 -0.57828181917E+02 -0.23381185534E+02 -0.22483937998E+02  0.66312185371E+02  0.10000000000E+01 0.  0.
    9000005    1    3    3    0    0  0.57828181917E+02  0.23381185534E+02 -0.14675864632E+02  0.64087124007E+02  0.10000000000E+01 0.  0.
<mgrwt>
<rscale>  0 0.12499252E+03</rscale>
<asrwt>0</asrwt>
<pdfrwt beam="2">  1        4 0.12889162E-01 0.12499252E+03</pdfrwt>
<pdfrwt beam="1">  1       -4 0.71722698E-02 0.12499252E+03</pdfrwt>
<totfact> 0.10337719E+04</totfact>
</mgrwt>
</event>
<event>
 5    1  0.3245943E-002  0.1249965E+03  0.7818608E-02  0.1235075E+00
         -4   -1    0    0    0  501 -0.00000000000E+00  0.00000000000E+00  0.59979315414E+02  0.59992759376E+02  0.12700000000E+01 0.  1.
          4   -1    0    0  501    0  0.00000000000E+00 -0.00000000000E+00 -0.65096063818E+02  0.65108451253E+02  0.12700000000E+01 0.  1.
         25    2    1    2    0    0  0.00000000000E+00  0.00000000000E+00 -0.51167484040E+01  0.12510121063E+03  0.12499652710E+03 0.  0.
    9000005    1    3    3    0    0 -0.19938942906E+02 -0.47686218172E+02 -0.37708950997E+02  0.63988294501E+02  0.10000000000E+01 0.  0.
    9000005    1    3    3    0    0  0.19938942906E+02  0.47686218172E+02  0.32592202593E+02  0.61112916128E+02  0.10000000000E+01 0.  0.
<mgrwt>
<rscale>  0 0.12499653E+03</rscale>
<asrwt>0</asrwt>
<pdfrwt beam="2">  1        4 0.10016766E-01 0.12499653E+03</pdfrwt>
<pdfrwt beam="1">  1       -4 0.92295741E-02 0.12499653E+03</pdfrwt>
<totfact> 0.10451485E+04</totfact>
</mgrwt>
</event>
<event>
 5    1  0.3245943E-002  0.1250014E+03  0.7818608E-02  0.1235067E+00
         -4   -1    0    0    0  501 -0.00000000000E+00  0.00000000000E+00  0.64569219400E+03  0.64569344297E+03  0.12700000000E+01 0. -1.
          4   -1    0    0  501    0  0.00000000000E+00 -0.00000000000E+00 -0.59819280478E+01  0.61152565906E+01  0.12700000000E+01 0. -1.
         25    2    1    2    0    0  0.00000000000E+00  0.00000000000E+00  0.63971026595E+03  0.65180869956E+03  0.12500142582E+03 0.  0.
    9000005    1    3    3    0    0 -0.41237712892E+02  0.32361939780E+02  0.49725968053E+03  0.50001603374E+03  0.10000000000E+01 0.  0.
    9000005    1    3    3    0    0  0.41237712892E+02 -0.32361939780E+02  0.14245058542E+03  0.15179266582E+03  0.10000000000E+01 0.  0.
<mgrwt>
<rscale>  0 0.12500143E+03</rscale>
<asrwt>0</asrwt>
<pdfrwt beam="2">  1        4 0.93064859E-03 0.12500143E+03</pdfrwt>
<pdfrwt beam="1">  1       -4 0.99347629E-01 0.12500143E+03</pdfrwt>
<totfact> 0.45750870E+03</totfact>
</mgrwt>
</event>
<event>
 5    1  0.3245943E-002  0.1249995E+03  0.7818608E-02  0.1235070E+00
         -4   -1    0    0    0  501 -0.00000000000E+00  0.00000000000E+00  0.17803019068E+03  0.17803472047E+03  0.12700000000E+01 0.  1.
          4   -1    0    0  501    0  0.00000000000E+00 -0.00000000000E+00 -0.21918125262E+02  0.21954888180E+02  0.12700000000E+01 0.  1.
         25    2    1    2    0    0  0.00000000000E+00  0.00000000000E+00  0.15611206541E+03  0.19998960865E+03  0.12499946640E+03 0.  0.
    9000005    1    3    3    0    0 -0.23765295695E+02 -0.49924306919E+02  0.12464626544E+03  0.13636318121E+03  0.10000000000E+01 0.  0.
    9000005    1    3    3    0    0  0.23765295695E+02  0.49924306919E+02  0.31465799973E+02  0.63626427440E+02  0.10000000000E+01 0.  0.
<mgrwt>
<rscale>  0 0.12499947E+03</rscale>
<asrwt>0</asrwt>
<pdfrwt beam="2">  1        4 0.33751955E-02 0.12499947E+03</pdfrwt>
<pdfrwt beam="1">  1       -4 0.27392437E-01 0.12499947E+03</pdfrwt>
<totfact> 0.90138334E+03</totfact>
</mgrwt>
</event>
<event>
 5    1  0.3245943E-002  0.1250058E+03  0.7818608E-02  0.1235060E+00
          4   -1    0    0  501    0  0.00000000000E+00  0.00000000000E+00  0.23679972613E+02  0.23714004364E+02  0.12700000000E+01 0.  1.
         -4   -1    0    0    0  501 -0.00000000000E+00 -0.00000000000E+00 -0.16482051048E+03  0.16482540330E+03  0.12700000000E+01 0.  1.
         25    2    1    2    0    0  0.00000000000E+00  0.00000000000E+00 -0.14114053786E+03  0.18853940767E+03  0.12500582712E+03 0.  0.
    9000005    1    3    3    0    0 -0.43878313577E+02  0.38312007584E+02 -0.36425992384E+02  0.68709309767E+02  0.10000000000E+01 0.  0.
    9000005    1    3    3    0    0  0.43878313577E+02 -0.38312007584E+02 -0.10471454548E+03  0.11983009790E+03  0.10000000000E+01 0.  0.
<mgrwt>
<rscale>  0 0.12500583E+03</rscale>
<asrwt>0</asrwt>
<pdfrwt beam="1">  1        4 0.36460670E-02 0.12500583E+03</pdfrwt>
<pdfrwt beam="2">  1       -4 0.25359995E-01 0.12500583E+03</pdfrwt>
<totfact> 0.92090053E+03</totfact>
</mgrwt>
</event>
<event>
 5    1  0.3245943E-002  0.1249870E+03  0.7818608E-02  0.1235090E+00
         -4   -1    0    0    0  501 -0.00000000000E+00  0.00000000000E+00  0.29083709809E+01  0.31735660955E+01  0.12700000000E+01 0.  1.
          4   -1    0    0  501    0  0.00000000000E+00 -0.00000000000E+00 -0.12840086656E+04  0.12840092937E+04  0.12700000000E+01 0.  1.
         25    2    1    2    0    0  0.00000000000E+00  0.00000000000E+00 -0.12811002946E+04  0.12871828598E+04  0.12498699775E+03 0.  0.
    9000005    1    3    3    0    0 -0.40300164597E+01  0.33442439762E+02 -0.11825505201E+04  0.11830305873E+04  0.10000000000E+01 0.  0.
    9000005    1    3    3    0    0  0.40300164597E+01 -0.33442439762E+02 -0.98549774491E+02  0.10415227248E+03  0.10000000000E+01 0.  0.
<mgrwt>
<rscale>  0 0.12498700E+03</rscale>
<asrwt>0</asrwt>
<pdfrwt beam="2">  1        4 0.19755981E+00 0.12498700E+03</pdfrwt>
<pdfrwt beam="1">  1       -4 0.46789065E-03 0.12498700E+03</pdfrwt>
<totfact> 0.22539520E+03</totfact>
</mgrwt>
</event>
<event>
 5    1  0.3245943E-002  0.1250007E+03  0.7818608E-02  0.1235068E+00
         -4   -1    0    0    0  501 -0.00000000000E+00  0.00000000000E+00  0.47409209760E+02  0.47426217118E+02  0.12700000000E+01 0. -1.
          4   -1    0    0  501    0  0.00000000000E+00 -0.00000000000E+00 -0.82358561029E+02  0.82368352386E+02  0.12700000000E+01 0. -1.
         25    2    1    2    0    0  0.00000000000E+00  0.00000000000E+00 -0.34949351269E+02  0.12979456950E+03  0.12500069247E+03 0.  0.
    9000005    1    3    3    0    0  0.65270920922E+01 -0.10344576665E+02  0.46159203524E+02  0.47762802132E+02  0.10000000000E+01 0.  0.
    9000005    1    3    3    0    0 -0.65270920922E+01  0.10344576665E+02 -0.81108554793E+02  0.82031767372E+02  0.10000000000E+01 0.  0.
<mgrwt>
<rscale>  0 0.12500069E+03</rscale>
<asrwt>0</asrwt>
<pdfrwt beam="2">  1        4 0.12672609E-01 0.12500069E+03</pdfrwt>
<pdfrwt beam="1">  1       -4 0.72957861E-02 0.12500069E+03</pdfrwt>
<totfact> 0.10348742E+04</totfact>
</mgrwt>
</event>
<event>
 5    1  0.3245943E-002  0.1250030E+03  0.7818608E-02  0.1235065E+00
         -4   -1    0    0    0  501 -0.00000000000E+00  0.00000000000E+00  0.35337736363E+02  0.35360550211E+02  0.12700000000E+01 0.  1.
          4   -1    0    0  501    0  0.00000000000E+00 -0.00000000000E+00 -0.11048368523E+03  0.11049098426E+03  0.12700000000E+01 0.  1.
         25    2    1    2    0    0  0.00000000000E+00  0.00000000000E+00 -0.75145948870E+02  0.14585153447E+03  0.12500302587E+03 0.  0.
    9000005    1    3    3    0    0 -0.36807174283E+01 -0.55209553951E+02 -0.71465923578E+02  0.90388167152E+02  0.10000000000E+01 0.  0.
    9000005    1    3    3    0    0  0.36807174283E+01  0.55209553951E+02 -0.36800252925E+01  0.55463367319E+02  0.10000000000E+01 0.  0.
<mgrwt>
<rscale>  0 0.12500303E+03</rscale>
<asrwt>0</asrwt>
<pdfrwt beam="2">  1        4 0.16999806E-01 0.12500303E+03</pdfrwt>
<pdfrwt beam="1">  1       -4 0.54388912E-02 0.12500303E+03</pdfrwt>
<totfact> 0.10013034E+04</totfact>
</mgrwt>
</event>
<event>
 5    1  0.3245943E-002  0.1250017E+03  0.7818608E-02  0.1235067E+00
          4   -1    0    0  501    0  0.00000000000E+00  0.00000000000E+00  0.65461784787E+03  0.65461907981E+03  0.12700000000E+01 0.  1.
         -4   -1    0    0    0  501 -0.00000000000E+00 -0.00000000000E+00 -0.58985569740E+01  0.60337280661E+01  0.12700000000E+01 0.  1.
         25    2    1    2    0    0  0.00000000000E+00  0.00000000000E+00  0.64871929090E+03  0.66065280788E+03  0.12500165668E+03 0.  0.
    9000005    1    3    3    0    0  0.52563996878E+02 -0.14645607051E+02  0.16336745100E+03  0.17224224691E+03  0.10000000000E+01 0.  0.
    9000005    1    3    3    0    0 -0.52563996878E+02  0.14645607051E+02  0.48535183990E+03  0.48841056097E+03  0.10000000000E+01 0.  0.
<mgrwt>
<rscale>  0 0.12500166E+03</rscale>
<asrwt>0</asrwt>
<pdfrwt beam="1">  1        4 0.10072091E+00 0.12500166E+03</pdfrwt>
<pdfrwt beam="2">  1       -4 0.91796302E-03 0.12500166E+03</pdfrwt>
<totfact> 0.45244970E+03</totfact>
</mgrwt>
</event>
<event>
 5    1  0.3245943E-002  0.1250015E+03  0.7818608E-02  0.1235067E+00
         -4   -1    0    0    0  501 -0.00000000000E+00  0.00000000000E+00  0.17202358041E+02  0.17249174536E+02  0.12700000000E+01 0.  1.
          4   -1    0    0  501    0  0.00000000000E+00 -0.00000000000E+00 -0.22672454976E+03  0.22672810669E+03  0.12700000000E+01 0.  1.
         25    2    1    2    0    0  0.00000000000E+00  0.00000000000E+00 -0.20952219171E+03  0.24397728122E+03  0.12500145972E+03 0.  0.
    9000005    1    3    3    0    0  0.48254936926E+02 -0.37026148566E+02 -0.13276556002E+03  0.14603824343E+03  0.10000000000E+01 0.  0.
    9000005    1    3    3    0    0 -0.48254936926E+02  0.37026148566E+02 -0.76756631689E+02  0.97939037792E+02  0.10000000000E+01 0.  0.
<mgrwt>
<rscale>  0 0.12500146E+03</rscale>
<asrwt>0</asrwt>
<pdfrwt beam="2">  1        4 0.34884573E-01 0.12500146E+03</pdfrwt>
<pdfrwt beam="1">  1       -4 0.26503917E-02 0.12500146E+03</pdfrwt>
<totfact> 0.83205859E+03</totfact>
</mgrwt>
</event>
<event>
 5    1  0.3245943E-002  0.1249971E+03  0.7818608E-02  0.1235074E+00
         -4   -1    0    0    0  501 -0.00000000000E+00  0.00000000000E+00  0.18789405052E+03  0.18789834252E+03  0.12700000000E+01 0. -1.
          4   -1    0    0  501    0  0.00000000000E+00 -0.00000000000E+00 -0.20764735507E+02  0.20803536735E+02  0.12700000000E+01 0. -1.
         25    2    1    2    0    0  0.00000000000E+00  0.00000000000E+00  0.16712931502E+03  0.20870187926E+03  0.12499706583E+03 0.  0.
    9000005    1    3    3    0    0  0.48660903505E+02  0.38940163887E+02  0.91188000171E+02  0.11045574348E+03  0.10000000000E+01 0.  0.
    9000005    1    3    3    0    0 -0.48660903505E+02 -0.38940163887E+02  0.75941314845E+02  0.98246135771E+02  0.10000000000E+01 0.  0.
<mgrwt>
<rscale>  0 0.12499707E+03</rscale>
<asrwt>0</asrwt>
<pdfrwt beam="2">  1        4 0.31978895E-02 0.12499707E+03</pdfrwt>
<pdfrwt beam="1">  1       -4 0.28910092E-01 0.12499707E+03</pdfrwt>
<totfact> 0.88694138E+03</totfact>
</mgrwt>
</event>
<event>
 5    1  0.3245943E-002  0.1250020E+03  0.7818608E-02  0.1235066E+00
         -4   -1    0    0    0  501 -0.00000000000E+00  0.00000000000E+00  0.20709212729E+03  0.20709602141E+03  0.12700000000E+01 0.  1.
          4   -1    0    0  501    0  0.00000000000E+00 -0.00000000000E+00 -0.18837519107E+02  0.18880281410E+02  0.12700000000E+01 0.  1.
         25    2    1    2    0    0  0.00000000000E+00  0.00000000000E+00  0.18825460818E+03  0.22597630282E+03  0.12500196773E+03 0.  0.
    9000005    1    3    3    0    0  0.36262326878E+02  0.50814243980E+02  0.99344639904E+02  0.11733456958E+03  0.10000000000E+01 0.  0.
    9000005    1    3    3    0    0 -0.36262326878E+02 -0.50814243980E+02  0.88909968273E+02  0.10864173323E+03  0.10000000000E+01 0.  0.
<mgrwt>
<rscale>  0 0.12500197E+03</rscale>
<asrwt>0</asrwt>
<pdfrwt beam="2">  1        4 0.29016687E-02 0.12500197E+03</pdfrwt>
<pdfrwt beam="1">  1       -4 0.31863918E-01 0.12500197E+03</pdfrwt>
<totfact> 0.85927517E+03</totfact>
</mgrwt>
</event>
<event>
 5    1  0.3245943E-002  0.1249917E+03  0.7818608E-02  0.1235082E+00
         -4   -1    0    0    0  501 -0.00000000000E+00  0.00000000000E+00  0.33825545451E+03  0.33825783864E+03  0.12700000000E+01 0. -1.
          4   -1    0    0  501    0  0.00000000000E+00 -0.00000000000E+00 -0.11509331288E+02  0.11579188516E+02  0.12700000000E+01 0. -1.
         25    2    1    2    0    0  0.00000000000E+00  0.00000000000E+00  0.32674612322E+03  0.34983702716E+03  0.12499166585E+03 0.  0.
    9000005    1    3    3    0    0 -0.25536658473E+01  0.59672927714E+02  0.11196575724E+03  0.12690433525E+03  0.10000000000E+01 0.  0.
    9000005    1    3    3    0    0  0.25536658473E+01 -0.59672927714E+02  0.21478036598E+03  0.22293269191E+03  0.10000000000E+01 0.  0.
<mgrwt>
<rscale>  0 0.12499167E+03</rscale>
<asrwt>0</asrwt>
<pdfrwt beam="2">  1        4 0.17762234E-02 0.12499167E+03</pdfrwt>
<pdfrwt beam="1">  1       -4 0.52044857E-01 0.12499167E+03</pdfrwt>
<totfact> 0.69755352E+03</totfact>
</mgrwt>
</event>
<event>
 5    1  0.3245943E-002  0.1249997E+03  0.7818608E-02  0.1235070E+00
         -4   -1    0    0    0  501 -0.00000000000E+00  0.00000000000E+00  0.54212493636E+02  0.54227367318E+02  0.12700000000E+01 0. -1.
          4   -1    0    0  501    0  0.00000000000E+00 -0.00000000000E+00 -0.72023739378E+02  0.72034935511E+02  0.12700000000E+01 0. -1.
         25    2    1    2    0    0  0.00000000000E+00  0.00000000000E+00 -0.17811245743E+02  0.12626230283E+03  0.12499971456E+03 0.  0.
    9000005    1    3    3    0    0 -0.36930705246E+02 -0.48652449023E+02 -0.22241032767E+02  0.65012316714E+02  0.10000000000E+01 0.  0.
    9000005    1    3    3    0    0  0.36930705246E+02  0.48652449023E+02  0.44297870241E+01  0.61249986114E+02  0.10000000000E+01 0.  0.
<mgrwt>
<rscale>  0 0.12499971E+03</rscale>
<asrwt>0</asrwt>
<pdfrwt beam="2">  1        4 0.11082581E-01 0.12499971E+03</pdfrwt>
<pdfrwt beam="1">  1       -4 0.83423890E-02 0.12499971E+03</pdfrwt>
<totfact> 0.10425284E+04</totfact>
</mgrwt>
</event>
<event>
 5    1  0.3245943E-002  0.1249966E+03  0.7818608E-02  0.1235075E+00
          4   -1    0    0  501    0  0.00000000000E+00  0.00000000000E+00  0.26890812341E+02  0.26920785433E+02  0.12700000000E+01 0.  1.
         -4   -1    0    0    0  501 -0.00000000000E+00 -0.00000000000E+00 -0.14514182190E+03  0.14514737808E+03  0.12700000000E+01 0.  1.
         25    2    1    2    0    0  0.00000000000E+00  0.00000000000E+00 -0.11825100956E+03  0.17206816352E+03  0.12499660649E+03 0.  0.
    9000005    1    3    3    0    0 -0.28805159640E+02  0.52099603801E+02 -0.85278111152E+02  0.10400702947E+03  0.10000000000E+01 0.  0.
    9000005    1    3    3    0    0  0.28805159640E+02 -0.52099603801E+02 -0.32972898408E+02  0.68061134045E+02  0.10000000000E+01 0.  0.
<mgrwt>
<rscale>  0 0.12499661E+03</rscale>
<asrwt>0</asrwt>
<pdfrwt beam="1">  1        4 0.41397812E-02 0.12499661E+03</pdfrwt>
<pdfrwt beam="2">  1       -4 0.22332244E-01 0.12499661E+03</pdfrwt>
<totfact> 0.95071798E+03</totfact>
</mgrwt>
</event>
<event>
 5    1  0.3245943E-002  0.1249971E+03  0.7818608E-02  0.1235074E+00
         -4   -1    0    0    0  501 -0.00000000000E+00  0.00000000000E+00  0.17660540725E+02  0.17706145789E+02  0.12700000000E+01 0. -1.
          4   -1    0    0  501    0  0.00000000000E+00 -0.00000000000E+00 -0.22084236856E+03  0.22084602023E+03  0.12700000000E+01 0. -1.
         25    2    1    2    0    0  0.00000000000E+00  0.00000000000E+00 -0.20318182784E+03  0.23855216602E+03  0.12499712297E+03 0.  0.
    9000005    1    3    3    0    0  0.60010548726E+02  0.12975556990E+02 -0.79380561134E+02  0.10035887865E+03  0.10000000000E+01 0.  0.
    9000005    1    3    3    0    0 -0.60010548726E+02 -0.12975556990E+02 -0.12380126670E+03  0.13819328737E+03  0.10000000000E+01 0.  0.
<mgrwt>
<rscale>  0 0.12499712E+03</rscale>
<asrwt>0</asrwt>
<pdfrwt beam="2">  1        4 0.33979536E-01 0.12499712E+03</pdfrwt>
<pdfrwt beam="1">  1       -4 0.27207954E-02 0.12499712E+03</pdfrwt>
<totfact> 0.84018860E+03</totfact>
</mgrwt>
</event>
<event>
 5    1  0.3245943E-002  0.1250001E+03  0.7818608E-02  0.1235069E+00
          4   -1    0    0  501    0  0.00000000000E+00  0.00000000000E+00  0.13384443894E+02  0.13444561665E+02  0.12700000000E+01 0.  1.
         -4   -1    0    0    0  501 -0.00000000000E+00 -0.00000000000E+00 -0.29113481380E+03  0.29113758381E+03  0.12700000000E+01 0.  1.
         25    2    1    2    0    0  0.00000000000E+00  0.00000000000E+00 -0.27775036990E+03  0.30458214547E+03  0.12500006143E+03 0.  0.
    9000005    1    3    3    0    0  0.23761544891E+02  0.47648355297E+02 -0.21859060224E+03  0.22498406203E+03  0.10000000000E+01 0.  0.
    9000005    1    3    3    0    0 -0.23761544891E+02 -0.47648355297E+02 -0.59159767662E+02  0.79598083444E+02  0.10000000000E+01 0.  0.
<mgrwt>
<rscale>  0 0.12500006E+03</rscale>
<asrwt>0</asrwt>
<pdfrwt beam="1">  1        4 0.20639829E-02 0.12500006E+03</pdfrwt>
<pdfrwt beam="2">  1       -4 0.44794804E-01 0.12500006E+03</pdfrwt>
<totfact> 0.75027534E+03</totfact>
</mgrwt>
</event>
<event>
 5    1  0.3245943E-002  0.1249996E+03  0.7818608E-02  0.1235070E+00
          4   -1    0    0  501    0  0.00000000000E+00  0.00000000000E+00  0.80041615056E+01  0.81042890748E+01  0.12700000000E+01 0.  1.
         -4   -1    0    0    0  501 -0.00000000000E+00 -0.00000000000E+00 -0.48488979898E+03  0.48489146214E+03  0.12700000000E+01 0.  1.
         25    2    1    2    0    0  0.00000000000E+00  0.00000000000E+00 -0.47688563748E+03  0.49299575122E+03  0.12499959794E+03 0.  0.
    9000005    1    3    3    0    0 -0.21445944524E+02 -0.52048219691E+02 -0.34546056850E+03  0.35001849965E+03  0.10000000000E+01 0.  0.
    9000005    1    3    3    0    0  0.21445944524E+02  0.52048219691E+02 -0.13142506898E+03  0.14297725157E+03  0.10000000000E+01 0.  0.
<mgrwt>
<rscale>  0 0.12499960E+03</rscale>
<asrwt>0</asrwt>
<pdfrwt beam="1">  1        4 0.12392399E-02 0.12499960E+03</pdfrwt>
<pdfrwt beam="2">  1       -4 0.74606238E-01 0.12499960E+03</pdfrwt>
<totfact> 0.56412443E+03</totfact>
</mgrwt>
</event>
<event>
 4    1  0.3245943E-002  0.1252284E+03  0.7818608E-02  0.1234713E+00
          4   -1    0    0  501    0  0.00000000000E+00  0.00000000000E+00  0.10623865821E+03  0.10624624886E+03  0.12700000000E+01 0. -1.
         -4   -1    0    0    0  501 -0.00000000000E+00 -0.00000000000E+00 -0.36883273868E+02  0.36905132316E+02  0.12700000000E+01 0. -1.
    9000005    1    1    2    0    0  0.18539163392E+02  0.43070367238E+02  0.82097025034E+02  0.94549873785E+02  0.10000000000E+01 0.  0.
    9000005    1    1    2    0    0 -0.18539163392E+02 -0.43070367238E+02 -0.12741640697E+02  0.48601507394E+02  0.10000000000E+01 0.  0.
<mgrwt>
<rscale>  0 0.12522839E+03</rscale>
<asrwt>0</asrwt>
<pdfrwt beam="1">  1        4 0.16346674E-01 0.12522839E+03</pdfrwt>
<pdfrwt beam="2">  1       -4 0.56766152E-02 0.12522839E+03</pdfrwt>
<totfact> 0.10017068E+04</totfact>
</mgrwt>
</event>
<event>
 5    1  0.3245943E-002  0.1249838E+03  0.7818608E-02  0.1235095E+00
         -4   -1    0    0    0  501 -0.00000000000E+00  0.00000000000E+00  0.86478717484E+02  0.86488042397E+02  0.12700000000E+01 0. -1.
          4   -1    0    0  501    0  0.00000000000E+00 -0.00000000000E+00 -0.45137676423E+02  0.45155539338E+02  0.12700000000E+01 0. -1.
         25    2    1    2    0    0  0.00000000000E+00  0.00000000000E+00  0.41341041061E+02  0.13164358173E+03  0.12498380269E+03 0.  0.
    9000005    1    3    3    0    0 -0.10542300653E+02  0.45905327481E+02  0.63916804180E+02  0.79402752161E+02  0.10000000000E+01 0.  0.
    9000005    1    3    3    0    0  0.10542300653E+02 -0.45905327481E+02 -0.22575763119E+02  0.52240829574E+02  0.10000000000E+01 0.  0.
<mgrwt>
<rscale>  0 0.12498380E+03</rscale>
<asrwt>0</asrwt>
<pdfrwt beam="2">  1        4 0.69463493E-02 0.12498380E+03</pdfrwt>
<pdfrwt beam="1">  1       -4 0.13306509E-01 0.12498380E+03</pdfrwt>
<totfact> 0.10313080E+04</totfact>
</mgrwt>
</event>
<event>
 4    1  0.3245943E-002  0.1250716E+03  0.7818608E-02  0.1234957E+00
         -4   -1    0    0    0  501 -0.00000000000E+00  0.00000000000E+00  0.79321709380E+02  0.79331875554E+02  0.12700000000E+01 0. -1.
          4   -1    0    0  501    0  0.00000000000E+00 -0.00000000000E+00 -0.49280553523E+02  0.49296915274E+02  0.12700000000E+01 0. -1.
    9000005    1    1    2    0    0  0.23651432724E+02  0.40934693567E+02  0.57107396517E+02  0.74143739751E+02  0.10000000000E+01 0.  0.
    9000005    1    1    2    0    0 -0.23651432724E+02 -0.40934693567E+02 -0.27066240661E+02  0.54485051077E+02  0.10000000000E+01 0.  0.
<mgrwt>
<rscale>  0 0.12507156E+03</rscale>
<asrwt>0</asrwt>
<pdfrwt beam="2">  1        4 0.75836644E-02 0.12507156E+03</pdfrwt>
<pdfrwt beam="1">  1       -4 0.12205380E-01 0.12507156E+03</pdfrwt>
<totfact> 0.10357190E+04</totfact>
</mgrwt>
</event>
<event>
 5    1  0.3245943E-002  0.1250007E+03  0.7818608E-02  0.1235068E+00
          4   -1    0    0  501    0  0.00000000000E+00  0.00000000000E+00  0.90657692882E+02  0.90666587995E+02  0.12700000000E+01 0. -1.
         -4   -1    0    0    0  501 -0.00000000000E+00 -0.00000000000E+00 -0.43068024137E+02  0.43086745097E+02  0.12700000000E+01 0. -1.
         25    2    1    2    0    0  0.00000000000E+00  0.00000000000E+00  0.47589668745E+02  0.13375333309E+03  0.12500071017E+03 0.  0.
    9000005    1    3    3    0    0 -0.26691794662E+02  0.56006164124E+02  0.15776669301E+02  0.64023789456E+02  0.10000000000E+01 0.  0.
    9000005    1    3    3    0    0  0.26691794662E+02 -0.56006164124E+02  0.31812999443E+02  0.69729543636E+02  0.10000000000E+01 0.  0.
<mgrwt>
<rscale>  0 0.12500071E+03</rscale>
<asrwt>0</asrwt>
<pdfrwt beam="1">  1        4 0.13949461E-01 0.12500071E+03</pdfrwt>
<pdfrwt beam="2">  1       -4 0.66279743E-02 0.12500071E+03</pdfrwt>
<totfact> 0.10264250E+04</totfact>
</mgrwt>
</event>
<event>
 5    1  0.3245943E-002  0.1249997E+03  0.7818608E-02  0.1235070E+00
         -4   -1    0    0    0  501 -0.00000000000E+00  0.00000000000E+00  0.13233539179E+03  0.13234148564E+03  0.12700000000E+01 0.  1.
          4   -1    0    0  501    0  0.00000000000E+00 -0.00000000000E+00 -0.29497224850E+02  0.29524552052E+02  0.12700000000E+01 0.  1.
         25    2    1    2    0    0  0.00000000000E+00  0.00000000000E+00  0.10283816694E+03  0.16186603769E+03  0.12499970231E+03 0.  0.
    9000005    1    3    3    0    0 -0.33305191625E+02  0.28262764165E+02 -0.64516271248E+01  0.44166085631E+02  0.10000000000E+01 0.  0.
    9000005    1    3    3    0    0  0.33305191625E+02 -0.28262764165E+02  0.10928979407E+03  0.11769995206E+03  0.10000000000E+01 0.  0.
<mgrwt>
<rscale>  0 0.12499970E+03</rscale>
<asrwt>0</asrwt>
<pdfrwt beam="2">  1        4 0.45406054E-02 0.12499970E+03</pdfrwt>
<pdfrwt beam="1">  1       -4 0.20361862E-01 0.12499970E+03</pdfrwt>
<totfact> 0.96984878E+03</totfact>
</mgrwt>
</event>
<event>
 5    1  0.3245943E-002  0.1249998E+03  0.7818608E-02  0.1235070E+00
         -4   -1    0    0    0  501 -0.00000000000E+00  0.00000000000E+00  0.64964791693E+03  0.64964915830E+03  0.12700000000E+01 0. -1.
          4   -1    0    0  501    0  0.00000000000E+00 -0.00000000000E+00 -0.59445286269E+01  0.60786775368E+01  0.12700000000E+01 0. -1.
         25    2    1    2    0    0  0.00000000000E+00  0.00000000000E+00  0.64370338831E+03  0.65572783583E+03  0.12499977028E+03 0.  0.
    9000005    1    3    3    0    0 -0.94124816201E+01  0.51174426614E+02  0.50340743439E+03  0.50609036915E+03  0.10000000000E+01 0.  0.
    9000005    1    3    3    0    0  0.94124816201E+01 -0.51174426614E+02  0.14029595392E+03  0.14963746668E+03  0.10000000000E+01 0.  0.
<mgrwt>
<rscale>  0 0.12499977E+03</rscale>
<asrwt>0</asrwt>
<pdfrwt beam="2">  1        4 0.92495789E-03 0.12499977E+03</pdfrwt>
<pdfrwt beam="1">  1       -4 0.99956206E-01 0.12499977E+03</pdfrwt>
<totfact> 0.45528817E+03</totfact>
</mgrwt>
</event>
<event>
 5    1  0.3245943E-002  0.1250025E+03  0.7818608E-02  0.1235065E+00
          4   -1    0    0  501    0  0.00000000000E+00  0.00000000000E+00  0.30868430409E+03  0.30868691662E+03  0.12700000000E+01 0. -1.
         -4   -1    0    0    0  501 -0.00000000000E+00 -0.00000000000E+00 -0.12620477630E+02  0.12684216791E+02  0.12700000000E+01 0. -1.
         25    2    1    2    0    0  0.00000000000E+00  0.00000000000E+00  0.29606382646E+03  0.32137113341E+03  0.12500246418E+03 0.  0.
    9000005    1    3    3    0    0  0.19203749098E+02 -0.56936263957E+02  0.10388378112E+03  0.12001400799E+03  0.10000000000E+01 0.  0.
    9000005    1    3    3    0    0 -0.19203749098E+02  0.56936263957E+02  0.19218004533E+03  0.20135712542E+03  0.10000000000E+01 0.  0.
<mgrwt>
<rscale>  0 0.12500246E+03</rscale>
<asrwt>0</asrwt>
<pdfrwt beam="1">  1        4 0.47494993E-01 0.12500246E+03</pdfrwt>
<pdfrwt beam="2">  1       -4 0.19467161E-02 0.12500246E+03</pdfrwt>
<totfact> 0.72989358E+03</totfact>
</mgrwt>
</event>
<event>
 5    1  0.3245943E-002  0.1250015E+03  0.7818608E-02  0.1235067E+00
          4   -1    0    0  501    0  0.00000000000E+00  0.00000000000E+00  0.65702664938E+02  0.65714938027E+02  0.12700000000E+01 0.  1.
         -4   -1    0    0    0  501 -0.00000000000E+00 -0.00000000000E+00 -0.59430219607E+02  0.59443787753E+02  0.12700000000E+01 0.  1.
         25    2    1    2    0    0  0.00000000000E+00  0.00000000000E+00  0.62724453311E+01  0.12515872578E+03  0.12500145227E+03 0.  0.
    9000005    1    3    3    0    0  0.41781551333E+01  0.44617209745E+01  0.65407533296E+02  0.65700147232E+02  0.10000000000E+01 0.  0.
    9000005    1    3    3    0    0 -0.41781551333E+01 -0.44617209745E+01 -0.59135087965E+02  0.59458578549E+02  0.10000000000E+01 0.  0.
<mgrwt>
<rscale>  0 0.12500145E+03</rscale>
<asrwt>0</asrwt>
<pdfrwt beam="1">  1        4 0.10110090E-01 0.12500145E+03</pdfrwt>
<pdfrwt beam="2">  1       -4 0.91450985E-02 0.12500145E+03</pdfrwt>
<totfact> 0.10449073E+04</totfact>
</mgrwt>
</event>
<event>
 4    1  0.3245943E-002  0.1251749E+03  0.7818608E-02  0.1234796E+00
         -4   -1    0    0    0  501 -0.00000000000E+00  0.00000000000E+00  0.25394064937E+03  0.25394382509E+03  0.12700000000E+01 0.  1.
          4   -1    0    0  501    0  0.00000000000E+00 -0.00000000000E+00 -0.15396185347E+02  0.15448476405E+02  0.12700000000E+01 0.  1.
    9000005    1    1    2    0    0 -0.44354895209E+02  0.44117469175E+02  0.12266132517E+03  0.13769716231E+03  0.10000000000E+01 0.  0.
    9000005    1    1    2    0    0  0.44354895209E+02 -0.44117469175E+02  0.11588313885E+03  0.13169513918E+03  0.10000000000E+01 0.  0.
<mgrwt>
<rscale>  0 0.12517488E+03</rscale>
<asrwt>0</asrwt>
<pdfrwt beam="2">  1        4 0.23729107E-02 0.12517488E+03</pdfrwt>
<pdfrwt beam="1">  1       -4 0.39072057E-01 0.12517488E+03</pdfrwt>
<totfact> 0.79296899E+03</totfact>
</mgrwt>
</event>
<event>
 5    1  0.3245943E-002  0.1249974E+03  0.7818608E-02  0.1235073E+00
         -4   -1    0    0    0  501 -0.00000000000E+00  0.00000000000E+00  0.23479616318E+02  0.23513938046E+02  0.12700000000E+01 0. -1.
          4   -1    0    0  501    0  0.00000000000E+00 -0.00000000000E+00 -0.16620252506E+03  0.16620737721E+03  0.12700000000E+01 0. -1.
         25    2    1    2    0    0  0.00000000000E+00  0.00000000000E+00 -0.14272290875E+03  0.18972131525E+03  0.12499739509E+03 0.  0.
    9000005    1    3    3    0    0  0.71011728192E+01  0.58427570384E+02 -0.10323094674E+03  0.11883533145E+03  0.10000000000E+01 0.  0.
    9000005    1    3    3    0    0 -0.71011728192E+01 -0.58427570384E+02 -0.39491962008E+02  0.70885983802E+02  0.10000000000E+01 0.  0.
<mgrwt>
<rscale>  0 0.12499740E+03</rscale>
<asrwt>0</asrwt>
<pdfrwt beam="2">  1        4 0.25572632E-01 0.12499740E+03</pdfrwt>
<pdfrwt beam="1">  1       -4 0.36152621E-02 0.12499740E+03</pdfrwt>
<totfact> 0.91901190E+03</totfact>
</mgrwt>
</event>
<event>
 5    1  0.3245943E-002  0.1250014E+03  0.7818608E-02  0.1235067E+00
          4   -1    0    0  501    0  0.00000000000E+00  0.00000000000E+00  0.79550728686E+02  0.79560865597E+02  0.12700000000E+01 0.  1.
         -4   -1    0    0    0  501 -0.00000000000E+00 -0.00000000000E+00 -0.49083529652E+02  0.49099957058E+02  0.12700000000E+01 0.  1.
         25    2    1    2    0    0  0.00000000000E+00  0.00000000000E+00  0.30467199035E+02  0.12866082265E+03  0.12500142827E+03 0.  0.
    9000005    1    3    3    0    0  0.39200459834E+01  0.23657561315E+02  0.74631695694E+02  0.78396026494E+02  0.10000000000E+01 0.  0.
    9000005    1    3    3    0    0 -0.39200459834E+01 -0.23657561315E+02 -0.44164496659E+02  0.50264796161E+02  0.10000000000E+01 0.  0.
<mgrwt>
<rscale>  0 0.12500143E+03</rscale>
<asrwt>0</asrwt>
<pdfrwt beam="1">  1        4 0.12240617E-01 0.12500143E+03</pdfrwt>
<pdfrwt beam="2">  1       -4 0.75533557E-02 0.12500143E+03</pdfrwt>
<totfact> 0.10372906E+04</totfact>
</mgrwt>
</event>
<event>
 5    1  0.3245943E-002  0.1250013E+03  0.7818608E-02  0.1235067E+00
          4   -1    0    0  501    0  0.00000000000E+00  0.00000000000E+00  0.46393096464E+02  0.46410476183E+02  0.12700000000E+01 0. -1.
         -4   -1    0    0    0  501 -0.00000000000E+00 -0.00000000000E+00 -0.84162808518E+02  0.84172389996E+02  0.12700000000E+01 0. -1.
         25    2    1    2    0    0  0.00000000000E+00  0.00000000000E+00 -0.37769712054E+02  0.13058286618E+03  0.12500133516E+03 0.  0.
    9000005    1    3    3    0    0  0.25983914763E+02  0.27174718609E+02  0.33260999240E+02  0.50208796324E+02  0.10000000000E+01 0.  0.
    9000005    1    3    3    0    0 -0.25983914763E+02 -0.27174718609E+02 -0.71030711294E+02  0.80374069854E+02  0.10000000000E+01 0.  0.
<mgrwt>
<rscale>  0 0.12500134E+03</rscale>
<asrwt>0</asrwt>
<pdfrwt beam="1">  1        4 0.71394734E-02 0.12500134E+03</pdfrwt>
<pdfrwt beam="2">  1       -4 0.12950198E-01 0.12500134E+03</pdfrwt>
<totfact> 0.10331729E+04</totfact>
</mgrwt>
</event>
<event>
 5    1  0.3245943E-002  0.1249985E+03  0.7818608E-02  0.1235072E+00
         -4   -1    0    0    0  501 -0.00000000000E+00  0.00000000000E+00  0.12881018709E+02  0.12943474919E+02  0.12700000000E+01 0.  1.
          4   -1    0    0  501    0  0.00000000000E+00 -0.00000000000E+00 -0.30245204002E+03  0.30245470638E+03  0.12700000000E+01 0.  1.
         25    2    1    2    0    0  0.00000000000E+00  0.00000000000E+00 -0.28957102131E+03  0.31539818130E+03  0.12499854553E+03 0.  0.
    9000005    1    3    3    0    0 -0.32837635921E+01 -0.62019163067E+02 -0.16226674734E+03  0.17374883304E+03  0.10000000000E+01 0.  0.
    9000005    1    3    3    0    0  0.32837635921E+01  0.62019163067E+02 -0.12730427397E+03  0.14164934826E+03  0.10000000000E+01 0.  0.
<mgrwt>
<rscale>  0 0.12499855E+03</rscale>
<asrwt>0</asrwt>
<pdfrwt beam="2">  1        4 0.46536087E-01 0.12499855E+03</pdfrwt>
<pdfrwt beam="1">  1       -4 0.19867048E-02 0.12499855E+03</pdfrwt>
<totfact> 0.73709193E+03</totfact>
</mgrwt>
</event>
<event>
 5    1  0.3245943E-002  0.1250004E+03  0.7818608E-02  0.1235069E+00
          4   -1    0    0  501    0  0.00000000000E+00  0.00000000000E+00  0.22964050867E+03  0.22964402044E+03  0.12700000000E+01 0. -1.
         -4   -1    0    0    0  501 -0.00000000000E+00 -0.00000000000E+00 -0.16983027710E+02  0.17030447152E+02  0.12700000000E+01 0. -1.
         25    2    1    2    0    0  0.00000000000E+00  0.00000000000E+00  0.21265748096E+03  0.24667446759E+03  0.12500035501E+03 0.  0.
    9000005    1    3    3    0    0 -0.80768615673E+01 -0.22060383069E+02 -0.79470090761E+01  0.24820377660E+02  0.10000000000E+01 0.  0.
    9000005    1    3    3    0    0  0.80768615673E+01  0.22060383069E+02  0.22060449004E+03  0.22185408993E+03  0.10000000000E+01 0.  0.
<mgrwt>
<rscale>  0 0.12500036E+03</rscale>
<asrwt>0</asrwt>
<pdfrwt beam="1">  1        4 0.35333226E-01 0.12500036E+03</pdfrwt>
<pdfrwt beam="2">  1       -4 0.26166913E-02 0.12500036E+03</pdfrwt>
<totfact> 0.82812603E+03</totfact>
</mgrwt>
</event>
<event>
 5    1  0.3245943E-002  0.1249888E+03  0.7818608E-02  0.1235087E+00
         -4   -1    0    0    0  501 -0.00000000000E+00  0.00000000000E+00  0.77086298402E+02  0.77096759343E+02  0.12700000000E+01 0.  1.
          4   -1    0    0  501    0  0.00000000000E+00 -0.00000000000E+00 -0.50642774910E+02  0.50658696692E+02  0.12700000000E+01 0.  1.
         25    2    1    2    0    0  0.00000000000E+00  0.00000000000E+00  0.26443523492E+02  0.12775545604E+03  0.12498878595E+03 0.  0.
    9000005    1    3    3    0    0  0.60910382945E+02 -0.13670941045E+02  0.10407681211E+02  0.63295254227E+02  0.10000000000E+01 0.  0.
    9000005    1    3    3    0    0 -0.60910382945E+02  0.13670941045E+02  0.16035842281E+02  0.64460201808E+02  0.10000000000E+01 0.  0.
<mgrwt>
<rscale>  0 0.12498879E+03</rscale>
<asrwt>0</asrwt>
<pdfrwt beam="2">  1        4 0.77932256E-02 0.12498879E+03</pdfrwt>
<pdfrwt beam="1">  1       -4 0.11861460E-01 0.12498879E+03</pdfrwt>
<totfact> 0.10395404E+04</totfact>
</mgrwt>
</event>
<event>
 5    1  0.3245943E-002  0.1249998E+03  0.7818608E-02  0.1235070E+00
          4   -1    0    0  501    0  0.00000000000E+00  0.00000000000E+00  0.18685656016E+03  0.18686087599E+03  0.12700000000E+01 0.  1.
         -4   -1    0    0    0  501 -0.00000000000E+00 -0.00000000000E+00 -0.20881152407E+02  0.20919737710E+02  0.12700000000E+01 0.  1.
         25    2    1    2    0    0  0.00000000000E+00  0.00000000000E+00  0.16597540776E+03  0.20778061370E+03  0.12499978980E+03 0.  0.
    9000005    1    3    3    0    0  0.70942652237E+00 -0.19130991524E+02  0.18187033007E+03  0.18287786931E+03  0.10000000000E+01 0.  0.
    9000005    1    3    3    0    0 -0.70942652237E+00  0.19130991524E+02 -0.15894922318E+02  0.24902744390E+02  0.10000000000E+01 0.  0.
<mgrwt>
<rscale>  0 0.12499979E+03</rscale>
<asrwt>0</asrwt>
<pdfrwt beam="1">  1        4 0.28750463E-01 0.12499979E+03</pdfrwt>
<pdfrwt beam="2">  1       -4 0.32157851E-02 0.12499979E+03</pdfrwt>
<totfact> 0.88840041E+03</totfact>
</mgrwt>
</event>
<event>
 5    1  0.3245943E-002  0.1250013E+03  0.7818608E-02  0.1235067E+00
         -4   -1    0    0    0  501 -0.00000000000E+00  0.00000000000E+00  0.31755396691E+02  0.31780782227E+02  0.12700000000E+01 0.  1.
          4   -1    0    0  501    0  0.00000000000E+00 -0.00000000000E+00 -0.12293526611E+03  0.12294182589E+03  0.12700000000E+01 0.  1.
         25    2    1    2    0    0  0.00000000000E+00  0.00000000000E+00 -0.91179869417E+02  0.15472260812E+03  0.12500126750E+03 0.  0.
    9000005    1    3    3    0    0 -0.46434327141E+02  0.41114757930E+02 -0.55077988939E+02  0.82952727033E+02  0.10000000000E+01 0.  0.
    9000005    1    3    3    0    0  0.46434327141E+02 -0.41114757930E+02 -0.36101880477E+02  0.71769881083E+02  0.10000000000E+01 0.  0.
<mgrwt>
<rscale>  0 0.12500127E+03</rscale>
<asrwt>0</asrwt>
<pdfrwt beam="2">  1        4 0.18915575E-01 0.12500127E+03</pdfrwt>
<pdfrwt beam="1">  1       -4 0.48879030E-02 0.12500127E+03</pdfrwt>
<totfact> 0.98367178E+03</totfact>
</mgrwt>
</event>
<event>
 5    1  0.3245943E-002  0.1249988E+03  0.7818608E-02  0.1235071E+00
          4   -1    0    0  501    0  0.00000000000E+00  0.00000000000E+00  0.11696423863E+02  0.11765170257E+02  0.12700000000E+01 0. -1.
         -4   -1    0    0    0  501 -0.00000000000E+00 -0.00000000000E+00 -0.33291483215E+03  0.33291725454E+03  0.12700000000E+01 0. -1.
         25    2    1    2    0    0  0.00000000000E+00  0.00000000000E+00 -0.32121840829E+03  0.34468242479E+03  0.12499883254E+03 0.  0.
    9000005    1    3    3    0    0  0.60236667557E+02 -0.27980339818E+01 -0.20582623694E+03  0.21448012711E+03  0.10000000000E+01 0.  0.
    9000005    1    3    3    0    0 -0.60236667557E+02  0.27980339818E+01 -0.11539217135E+03  0.13020229768E+03  0.10000000000E+01 0.  0.
<mgrwt>
<rscale>  0 0.12499883E+03</rscale>
<asrwt>0</asrwt>
<pdfrwt beam="1">  1        4 0.18049246E-02 0.12499883E+03</pdfrwt>
<pdfrwt beam="2">  1       -4 0.51223134E-01 0.12499883E+03</pdfrwt>
<totfact> 0.70315363E+03</totfact>
</mgrwt>
</event>
<event>
 5    1  0.3245943E-002  0.1250000E+03  0.7818608E-02  0.1235069E+00
         -4   -1    0    0    0  501 -0.00000000000E+00  0.00000000000E+00  0.29803779973E+04  0.29803782679E+04  0.12700000000E+01 0. -1.
          4   -1    0    0  501    0  0.00000000000E+00 -0.00000000000E+00 -0.10026692901E+01  0.16180994115E+01  0.12700000000E+01 0. -1.
         25    2    1    2    0    0  0.00000000000E+00  0.00000000000E+00  0.29793753280E+04  0.29819963673E+04  0.12499995770E+03 0.  0.
    9000005    1    3    3    0    0  0.51289264068E+02  0.27210496180E+02  0.93828539070E+03  0.94008056788E+03  0.10000000000E+01 0.  0.
    9000005    1    3    3    0    0 -0.51289264068E+02 -0.27210496180E+02  0.20410899374E+04  0.20419157995E+04  0.10000000000E+01 0.  0.
<mgrwt>
<rscale>  0 0.12499996E+03</rscale>
<asrwt>0</asrwt>
<pdfrwt beam="2">  1        4 0.20161865E-03 0.12499996E+03</pdfrwt>
<pdfrwt beam="1">  1       -4 0.45856650E+00 0.12499996E+03</pdfrwt>
<totfact> 0.18873158E+02</totfact>
</mgrwt>
</event>
<event>
 5    1  0.3245943E-002  0.1250013E+03  0.7818608E-02  0.1235067E+00
         -4   -1    0    0    0  501 -0.00000000000E+00  0.00000000000E+00  0.16688911535E+03  0.16689394753E+03  0.12700000000E+01 0. -1.
          4   -1    0    0  501    0  0.00000000000E+00 -0.00000000000E+00 -0.23384349226E+02  0.23418810574E+02  0.12700000000E+01 0. -1.
         25    2    1    2    0    0  0.00000000000E+00  0.00000000000E+00  0.14350476612E+03  0.19031275810E+03  0.12500131198E+03 0.  0.
    9000005    1    3    3    0    0  0.26127737239E+02  0.20923534969E+02 -0.85921811626E+01  0.34572800667E+02  0.10000000000E+01 0.  0.
    9000005    1    3    3    0    0 -0.26127737239E+02 -0.20923534969E+02  0.15209694728E+03  0.15573995743E+03  0.10000000000E+01 0.  0.
<mgrwt>
<rscale>  0 0.12500131E+03</rscale>
<asrwt>0</asrwt>
<pdfrwt beam="2">  1        4 0.36006146E-02 0.12500131E+03</pdfrwt>
<pdfrwt beam="1">  1       -4 0.25678272E-01 0.12500131E+03</pdfrwt>
<totfact> 0.91790225E+03</totfact>
</mgrwt>
</event>
<event>
 5    1  0.3245943E-002  0.1250035E+03  0.7818608E-02  0.1235064E+00
          4   -1    0    0  501    0  0.00000000000E+00  0.00000000000E+00  0.87282741229E+02  0.87291980253E+02  0.12700000000E+01 0.  1.
         -4   -1    0    0    0  501 -0.00000000000E+00 -0.00000000000E+00 -0.44735883205E+02  0.44753906490E+02  0.12700000000E+01 0.  1.
         25    2    1    2    0    0  0.00000000000E+00  0.00000000000E+00  0.42546858025E+02  0.13204588674E+03  0.12500352426E+03 0.  0.
    9000005    1    3    3    0    0  0.34329520793E+02  0.46479507228E+02  0.46418022263E+02  0.74124849955E+02  0.10000000000E+01 0.  0.
    9000005    1    3    3    0    0 -0.34329520793E+02 -0.46479507228E+02 -0.38711642385E+01  0.57921036788E+02  0.10000000000E+01 0.  0.
<mgrwt>
<rscale>  0 0.12500352E+03</rscale>
<asrwt>0</asrwt>
<pdfrwt beam="1">  1        4 0.13430211E-01 0.12500352E+03</pdfrwt>
<pdfrwt beam="2">  1       -4 0.68845407E-02 0.12500352E+03</pdfrwt>
<totfact> 0.10299900E+04</totfact>
</mgrwt>
</event>
<event>
 5    1  0.3245943E-002  0.1250064E+03  0.7818608E-02  0.1235059E+00
         -4   -1    0    0    0  501 -0.00000000000E+00  0.00000000000E+00  0.25208047514E+03  0.25208367430E+03  0.12700000000E+01 0. -1.
          4   -1    0    0  501    0  0.00000000000E+00 -0.00000000000E+00 -0.15468315980E+02  0.15520364018E+02  0.12700000000E+01 0. -1.
         25    2    1    2    0    0  0.00000000000E+00  0.00000000000E+00  0.23661215916E+03  0.26760403832E+03  0.12500642968E+03 0.  0.
    9000005    1    3    3    0    0  0.56225940767E+02 -0.17070098510E+02  0.16386410762E+03  0.17408386038E+03  0.10000000000E+01 0.  0.
    9000005    1    3    3    0    0 -0.56225940767E+02  0.17070098510E+02  0.72748051538E+02  0.93520177934E+02  0.10000000000E+01 0.  0.
<mgrwt>
<rscale>  0 0.12500643E+03</rscale>
<asrwt>0</asrwt>
<pdfrwt beam="2">  1        4 0.23839906E-02 0.12500643E+03</pdfrwt>
<pdfrwt beam="1">  1       -4 0.38785863E-01 0.12500643E+03</pdfrwt>
<totfact> 0.79839221E+03</totfact>
</mgrwt>
</event>
<event>
 5    1  0.3245943E-002  0.1249915E+03  0.7818608E-02  0.1235083E+00
         -4   -1    0    0    0  501 -0.00000000000E+00  0.00000000000E+00  0.65986575524E+01  0.67197605235E+01  0.12700000000E+01 0.  1.
          4   -1    0    0  501    0  0.00000000000E+00 -0.00000000000E+00 -0.58639194048E+03  0.58639331575E+03  0.12700000000E+01 0.  1.
         25    2    1    2    0    0  0.00000000000E+00  0.00000000000E+00 -0.57979328292E+03  0.59311307627E+03  0.12499148100E+03 0.  0.
    9000005    1    3    3    0    0 -0.19574872566E+02 -0.53961143734E+02 -0.40706985162E+03  0.41109833953E+03  0.10000000000E+01 0.  0.
    9000005    1    3    3    0    0  0.19574872566E+02  0.53961143734E+02 -0.17272343131E+03  0.18201473674E+03  0.10000000000E+01 0.  0.
<mgrwt>
<rscale>  0 0.12499148E+03</rscale>
<asrwt>0</asrwt>
<pdfrwt beam="2">  1        4 0.90223526E-01 0.12499148E+03</pdfrwt>
<pdfrwt beam="1">  1       -4 0.10245999E-02 0.12499148E+03</pdfrwt>
<totfact> 0.49314468E+03</totfact>
</mgrwt>
</event>
<event>
 5    1  0.3245943E-002  0.1249990E+03  0.7818608E-02  0.1235071E+00
         -4   -1    0    0    0  501 -0.00000000000E+00  0.00000000000E+00  0.68709732832E+02  0.68721468886E+02  0.12700000000E+01 0.  1.
          4   -1    0    0  501    0  0.00000000000E+00 -0.00000000000E+00 -0.56826887560E+02  0.56841077134E+02  0.12700000000E+01 0.  1.
         25    2    1    2    0    0  0.00000000000E+00  0.00000000000E+00  0.11882845272E+02  0.12556254602E+03  0.12499900380E+03 0.  0.
    9000005    1    3    3    0    0  0.41333777579E+01 -0.22659867386E+02 -0.52412070347E+02  0.57258881579E+02  0.10000000000E+01 0.  0.
    9000005    1    3    3    0    0 -0.41333777579E+01  0.22659867386E+02  0.64294915618E+02  0.68303664441E+02  0.10000000000E+01 0.  0.
<mgrwt>
<rscale>  0 0.12499900E+03</rscale>
<asrwt>0</asrwt>
<pdfrwt beam="2">  1        4 0.87445925E-02 0.12499900E+03</pdfrwt>
<pdfrwt beam="1">  1       -4 0.10572722E-01 0.12499900E+03</pdfrwt>
<totfact> 0.10440808E+04</totfact>
</mgrwt>
</event>
<event>
 5    1  0.3245943E-002  0.1250005E+03  0.7818608E-02  0.1235068E+00
         -4   -1    0    0    0  501 -0.00000000000E+00  0.00000000000E+00  0.31862944236E+02  0.31888244157E+02  0.12700000000E+01 0.  1.
          4   -1    0    0  501    0  0.00000000000E+00 -0.00000000000E+00 -0.12251920937E+03  0.12252579142E+03  0.12700000000E+01 0.  1.
         25    2    1    2    0    0  0.00000000000E+00  0.00000000000E+00 -0.90656265130E+02  0.15441403558E+03  0.12500054391E+03 0.  0.
    9000005    1    3    3    0    0 -0.23799542828E+01 -0.41257790891E+02  0.12578840487E+02  0.43209914598E+02  0.10000000000E+01 0.  0.
    9000005    1    3    3    0    0  0.23799542828E+01  0.41257790891E+02 -0.10323510562E+03  0.11120412098E+03  0.10000000000E+01 0.  0.
<mgrwt>
<rscale>  0 0.12500054E+03</rscale>
<asrwt>0</asrwt>
<pdfrwt beam="2">  1        4 0.18851561E-01 0.12500054E+03</pdfrwt>
<pdfrwt beam="1">  1       -4 0.49044439E-02 0.12500054E+03</pdfrwt>
<totfact> 0.98429450E+03</totfact>
</mgrwt>
</event>
<event>
 5    1  0.3245943E-002  0.1250000E+03  0.7818608E-02  0.1235069E+00
          4   -1    0    0  501    0  0.00000000000E+00  0.00000000000E+00  0.15255345026E+02  0.15308117189E+02  0.12700000000E+01 0.  1.
         -4   -1    0    0    0  501 -0.00000000000E+00 -0.00000000000E+00 -0.25556115870E+03  0.25556431429E+03  0.12700000000E+01 0.  1.
         25    2    1    2    0    0  0.00000000000E+00  0.00000000000E+00 -0.24030581367E+03  0.27087243147E+03  0.12499996019E+03 0.  0.
    9000005    1    3    3    0    0  0.62138347321E+02  0.21907444292E+01 -0.10657267500E+03  0.12338844608E+03  0.10000000000E+01 0.  0.
    9000005    1    3    3    0    0 -0.62138347321E+02 -0.21907444292E+01 -0.13373313867E+03  0.14748398539E+03  0.10000000000E+01 0.  0.
<mgrwt>
<rscale>  0 0.12499996E+03</rscale>
<asrwt>0</asrwt>
<pdfrwt beam="1">  1        4 0.23512785E-02 0.12499996E+03</pdfrwt>
<pdfrwt beam="2">  1       -4 0.39321400E-01 0.12499996E+03</pdfrwt>
<totfact> 0.79404145E+03</totfact>
</mgrwt>
</event>
<event>
 5    1  0.3245943E-002  0.1250115E+03  0.7818608E-02  0.1235051E+00
         -4   -1    0    0    0  501 -0.00000000000E+00  0.00000000000E+00  0.18407726491E+03  0.18408164590E+03  0.12700000000E+01 0.  1.
          4   -1    0    0  501    0  0.00000000000E+00 -0.00000000000E+00 -0.21200987410E+02  0.21238991670E+02  0.12700000000E+01 0.  1.
         25    2    1    2    0    0  0.00000000000E+00  0.00000000000E+00  0.16287627750E+03  0.20532063757E+03  0.12501152923E+03 0.  0.
    9000005    1    3    3    0    0 -0.18785924212E+02  0.18295315579E+02  0.17461296067E+03  0.17657382466E+03  0.10000000000E+01 0.  0.
    9000005    1    3    3    0    0  0.18785924212E+02 -0.18295315579E+02 -0.11736683171E+02  0.28746812910E+02  0.10000000000E+01 0.  0.
<mgrwt>
<rscale>  0 0.12501153E+03</rscale>
<asrwt>0</asrwt>
<pdfrwt beam="2">  1        4 0.32649507E-02 0.12501153E+03</pdfrwt>
<pdfrwt beam="1">  1       -4 0.28322840E-01 0.12501153E+03</pdfrwt>
<totfact> 0.89222819E+03</totfact>
</mgrwt>
</event>
<event>
 5    1  0.3245943E-002  0.1250058E+03  0.7818608E-02  0.1235060E+00
         -4   -1    0    0    0  501 -0.00000000000E+00  0.00000000000E+00  0.10746363627E+03  0.10747114041E+03  0.12700000000E+01 0. -1.
          4   -1    0    0  501    0  0.00000000000E+00 -0.00000000000E+00 -0.36332992646E+02  0.36355181950E+02  0.12700000000E+01 0. -1.
         25    2    1    2    0    0  0.00000000000E+00  0.00000000000E+00  0.71130643622E+02  0.14382632236E+03  0.12500577003E+03 0.  0.
    9000005    1    3    3    0    0  0.32945492005E+02 -0.30862049192E+02  0.85289363579E+02  0.96504647886E+02  0.10000000000E+01 0.  0.
    9000005    1    3    3    0    0 -0.32945492005E+02  0.30862049192E+02 -0.14158719957E+02  0.47321674470E+02  0.10000000000E+01 0.  0.
<mgrwt>
<rscale>  0 0.12500577E+03</rscale>
<asrwt>0</asrwt>
<pdfrwt beam="2">  1        4 0.55919754E-02 0.12500577E+03</pdfrwt>
<pdfrwt beam="1">  1       -4 0.16535151E-01 0.12500577E+03</pdfrwt>
<totfact> 0.10053583E+04</totfact>
</mgrwt>
</event>
<event>
 5    1  0.3245943E-002  0.1249957E+03  0.7818608E-02  0.1235076E+00
         -4   -1    0    0    0  501 -0.00000000000E+00  0.00000000000E+00  0.29988435669E+02  0.30015315655E+02  0.12700000000E+01 0.  1.
          4   -1    0    0  501    0  0.00000000000E+00 -0.00000000000E+00 -0.13016116571E+03  0.13016736135E+03  0.12700000000E+01 0.  1.
         25    2    1    2    0    0  0.00000000000E+00  0.00000000000E+00 -0.10017273004E+03  0.16018267700E+03  0.12499565659E+03 0.  0.
    9000005    1    3    3    0    0 -0.42077786148E+02 -0.17637809853E+00 -0.10929148678E+03  0.11711618282E+03  0.10000000000E+01 0.  0.
    9000005    1    3    3    0    0  0.42077786148E+02  0.17637809853E+00  0.91187567364E+01  0.43066494178E+02  0.10000000000E+01 0.  0.
<mgrwt>
<rscale>  0 0.12499566E+03</rscale>
<asrwt>0</asrwt>
<pdfrwt beam="2">  1        4 0.20027339E-01 0.12499566E+03</pdfrwt>
<pdfrwt beam="1">  1       -4 0.46161498E-02 0.12499566E+03</pdfrwt>
<totfact> 0.97317078E+03</totfact>
</mgrwt>
</event>
<event>
 4    1  0.3245943E-002  0.1270120E+03  0.7818608E-02  0.1231958E+00
         -4   -1    0    0    0  501 -0.00000000000E+00  0.00000000000E+00  0.81480563917E+02  0.81490460769E+02  0.12700000000E+01 0. -1.
          4   -1    0    0  501    0  0.00000000000E+00 -0.00000000000E+00 -0.49475568445E+02  0.49491865725E+02  0.12700000000E+01 0. -1.
    9000005    1    1    2    0    0 -0.47425379358E+02 -0.18682558651E+02 -0.23046816098E+02  0.55949623209E+02  0.10000000000E+01 0.  0.
    9000005    1    1    2    0    0  0.47425379358E+02  0.18682558651E+02  0.55051811570E+02  0.75032703284E+02  0.10000000000E+01 0.  0.
<mgrwt>
<rscale>  0 0.12701201E+03</rscale>
<asrwt>0</asrwt>
<pdfrwt beam="2">  1        4 0.76136410E-02 0.12701201E+03</pdfrwt>
<pdfrwt beam="1">  1       -4 0.12537486E-01 0.12701201E+03</pdfrwt>
<totfact> 0.98683809E+03</totfact>
</mgrwt>
</event>
<event>
 5    1  0.3245943E-002  0.1250031E+03  0.7818608E-02  0.1235064E+00
          4   -1    0    0  501    0  0.00000000000E+00  0.00000000000E+00  0.89150425529E+01  0.90050476801E+01  0.12700000000E+01 0. -1.
         -4   -1    0    0    0  501 -0.00000000000E+00 -0.00000000000E+00 -0.43589394689E+03  0.43589579699E+03  0.12700000000E+01 0. -1.
         25    2    1    2    0    0  0.00000000000E+00  0.00000000000E+00 -0.42697890434E+03  0.44490084467E+03  0.12500310733E+03 0.  0.
    9000005    1    3    3    0    0 -0.35085195045E+02 -0.51679027504E+02 -0.22038295543E+03  0.22906623462E+03  0.10000000000E+01 0.  0.
    9000005    1    3    3    0    0  0.35085195045E+02  0.51679027504E+02 -0.20659594890E+03  0.21583461006E+03  0.10000000000E+01 0.  0.
<mgrwt>
<rscale>  0 0.12500311E+03</rscale>
<asrwt>0</asrwt>
<pdfrwt beam="1">  1        4 0.13786111E-02 0.12500311E+03</pdfrwt>
<pdfrwt beam="2">  1       -4 0.67067656E-01 0.12500311E+03</pdfrwt>
<totfact> 0.60403966E+03</totfact>
</mgrwt>
</event>
<event>
 5    1  0.3245943E-002  0.1249996E+03  0.7818608E-02  0.1235070E+00
          4   -1    0    0  501    0  0.00000000000E+00  0.00000000000E+00  0.24560437798E+02  0.24593251205E+02  0.12700000000E+01 0. -1.
         -4   -1    0    0    0  501 -0.00000000000E+00 -0.00000000000E+00 -0.15890383734E+03  0.15890891234E+03  0.12700000000E+01 0. -1.
         25    2    1    2    0    0  0.00000000000E+00  0.00000000000E+00 -0.13434339954E+03  0.18350216355E+03  0.12499958010E+03 0.  0.
    9000005    1    3    3    0    0 -0.39716541008E+02  0.43795263695E+02 -0.96889452514E+02  0.11350768591E+03  0.10000000000E+01 0.  0.
    9000005    1    3    3    0    0  0.39716541008E+02 -0.43795263695E+02 -0.37453947029E+02  0.69994477638E+02  0.10000000000E+01 0.  0.
<mgrwt>
<rscale>  0 0.12499958E+03</rscale>
<asrwt>0</asrwt>
<pdfrwt beam="1">  1        4 0.37814435E-02 0.12499958E+03</pdfrwt>
<pdfrwt beam="2">  1       -4 0.24449658E-01 0.12499958E+03</pdfrwt>
<totfact> 0.92991249E+03</totfact>
</mgrwt>
</event>
<event>
 5    1  0.3245943E-002  0.1250015E+03  0.7818608E-02  0.1235067E+00
         -4   -1    0    0    0  501 -0.00000000000E+00  0.00000000000E+00  0.14570307598E+03  0.14570861076E+03  0.12700000000E+01 0. -1.
          4   -1    0    0  501    0  0.00000000000E+00 -0.00000000000E+00 -0.26789202322E+02  0.26819288973E+02  0.12700000000E+01 0. -1.
         25    2    1    2    0    0  0.00000000000E+00  0.00000000000E+00  0.11891387365E+03  0.17252789973E+03  0.12500146734E+03 0.  0.
    9000005    1    3    3    0    0 -0.47679669806E+02  0.15626222079E+02  0.80396044991E+01  0.50824845989E+02  0.10000000000E+01 0.  0.
    9000005    1    3    3    0    0  0.47679669806E+02 -0.15626222079E+02  0.11087426915E+03  0.12170305374E+03  0.10000000000E+01 0.  0.
<mgrwt>
<rscale>  0 0.12500147E+03</rscale>
<asrwt>0</asrwt>
<pdfrwt beam="2">  1        4 0.41241557E-02 0.12500147E+03</pdfrwt>
<pdfrwt beam="1">  1       -4 0.22418599E-01 0.12500147E+03</pdfrwt>
<totfact> 0.94976432E+03</totfact>
</mgrwt>
</event>
<event>
 5    1  0.3245943E-002  0.1250035E+03  0.7818608E-02  0.1235064E+00
         -4   -1    0    0    0  501 -0.00000000000E+00  0.00000000000E+00  0.16166042237E+03  0.16166541084E+03  0.12700000000E+01 0.  1.
          4   -1    0    0  501    0  0.00000000000E+00 -0.00000000000E+00 -0.24142608280E+02  0.24175988803E+02  0.12700000000E+01 0.  1.
         25    2    1    2    0    0  0.00000000000E+00  0.00000000000E+00  0.13751781409E+03  0.18584139964E+03  0.12500350646E+03 0.  0.
    9000005    1    3    3    0    0  0.43126479452E+02 -0.38295641542E+02  0.10453286291E+03  0.11939249901E+03  0.10000000000E+01 0.  0.
    9000005    1    3    3    0    0 -0.43126479452E+02  0.38295641542E+02  0.32984951182E+02  0.66448900634E+02  0.10000000000E+01 0.  0.
<mgrwt>
<rscale>  0 0.12500351E+03</rscale>
<asrwt>0</asrwt>
<pdfrwt beam="2">  1        4 0.37171989E-02 0.12500351E+03</pdfrwt>
<pdfrwt beam="1">  1       -4 0.24873786E-01 0.12500351E+03</pdfrwt>
<totfact> 0.92568700E+03</totfact>
</mgrwt>
</event>
<event>
 5    1  0.3245943E-002  0.1250073E+03  0.7818608E-02  0.1235058E+00
         -4   -1    0    0    0  501 -0.00000000000E+00  0.00000000000E+00  0.45862304344E+02  0.45879885132E+02  0.12700000000E+01 0. -1.
          4   -1    0    0  501    0  0.00000000000E+00 -0.00000000000E+00 -0.85144762962E+02  0.85154233952E+02  0.12700000000E+01 0. -1.
         25    2    1    2    0    0  0.00000000000E+00  0.00000000000E+00 -0.39282458618E+02  0.13103411908E+03  0.12500731502E+03 0.  0.
    9000005    1    3    3    0    0  0.23055420607E+01 -0.55420170766E+02 -0.49821649041E+02  0.74564787702E+02  0.10000000000E+01 0.  0.
    9000005    1    3    3    0    0 -0.23055420607E+01  0.55420170766E+02  0.10539190422E+02  0.56469331382E+02  0.10000000000E+01 0.  0.
<mgrwt>
<rscale>  0 0.12500732E+03</rscale>
<asrwt>0</asrwt>
<pdfrwt beam="2">  1        4 0.13101275E-01 0.12500732E+03</pdfrwt>
<pdfrwt beam="1">  1       -4 0.70578201E-02 0.12500732E+03</pdfrwt>
<totfact> 0.10320655E+04</totfact>
</mgrwt>
</event>
<event>
 4    1  0.3245943E-002  0.1251838E+03  0.7818608E-02  0.1234782E+00
          4   -1    0    0  501    0  0.00000000000E+00  0.00000000000E+00  0.24916741674E+02  0.24949086469E+02  0.12700000000E+01 0. -1.
         -4   -1    0    0    0  501 -0.00000000000E+00 -0.00000000000E+00 -0.15709651387E+03  0.15710164726E+03  0.12700000000E+01 0. -1.
    9000005    1    1    2    0    0  0.56171987438E+02 -0.22988202906E+02 -0.88288069356E+02  0.10714258181E+03  0.10000000000E+01 0.  0.
    9000005    1    1    2    0    0 -0.56171987438E+02  0.22988202906E+02 -0.43891702843E+02  0.74908151920E+02  0.10000000000E+01 0.  0.
<mgrwt>
<rscale>  0 0.12518377E+03</rscale>
<asrwt>0</asrwt>
<pdfrwt beam="1">  1        4 0.38362279E-02 0.12518377E+03</pdfrwt>
<pdfrwt beam="2">  1       -4 0.24171577E-01 0.12518377E+03</pdfrwt>
<totfact> 0.92866038E+03</totfact>
</mgrwt>
</event>
<event>
 5    1  0.3245943E-002  0.1250076E+03  0.7818608E-02  0.1235057E+00
          4   -1    0    0  501    0  0.00000000000E+00  0.00000000000E+00  0.48720998747E+02  0.48737548347E+02  0.12700000000E+01 0.  1.
         -4   -1    0    0    0  501 -0.00000000000E+00 -0.00000000000E+00 -0.80150419401E+02  0.80160480476E+02  0.12700000000E+01 0.  1.
         25    2    1    2    0    0  0.00000000000E+00  0.00000000000E+00 -0.31429420654E+02  0.12889802882E+03  0.12500757318E+03 0.  0.
    9000005    1    3    3    0    0  0.60677260128E+02  0.10335099226E+02 -0.45528867989E+01  0.61727408425E+02  0.10000000000E+01 0.  0.
    9000005    1    3    3    0    0 -0.60677260128E+02 -0.10335099226E+02 -0.26876533855E+02  0.67170620398E+02  0.10000000000E+01 0.  0.
<mgrwt>
<rscale>  0 0.12500757E+03</rscale>
<asrwt>0</asrwt>
<pdfrwt beam="1">  1        4 0.74975852E-02 0.12500757E+03</pdfrwt>
<pdfrwt beam="2">  1       -4 0.12332881E-01 0.12500757E+03</pdfrwt>
<totfact> 0.10366366E+04</totfact>
</mgrwt>
</event>
<event>
 5    1  0.3245943E-002  0.1250565E+03  0.7818608E-02  0.1234981E+00
         -4   -1    0    0    0  501 -0.00000000000E+00  0.00000000000E+00  0.36515327442E+03  0.36515548294E+03  0.12700000000E+01 0.  1.
          4   -1    0    0  501    0  0.00000000000E+00 -0.00000000000E+00 -0.10667326097E+02  0.10742660101E+02  0.12700000000E+01 0.  1.
         25    2    1    2    0    0  0.00000000000E+00  0.00000000000E+00  0.35448594832E+03  0.37589814304E+03  0.12505649276E+03 0.  0.
    9000005    1    3    3    0    0 -0.11832692446E+02  0.36864282350E+02  0.29687996250E+02  0.48799232013E+02  0.10000000000E+01 0.  0.
    9000005    1    3    3    0    0  0.11832692446E+02 -0.36864282350E+02  0.32479795207E+03  0.32709891102E+03  0.10000000000E+01 0.  0.
<mgrwt>
<rscale>  0 0.12505649E+03</rscale>
<asrwt>0</asrwt>
<pdfrwt beam="2">  1        4 0.16470919E-02 0.12505649E+03</pdfrwt>
<pdfrwt beam="1">  1       -4 0.56183391E-01 0.12505649E+03</pdfrwt>
<totfact> 0.66882817E+03</totfact>
</mgrwt>
</event>
<event>
 5    1  0.3245943E-002  0.1250005E+03  0.7818608E-02  0.1235068E+00
         -4   -1    0    0    0  501 -0.00000000000E+00  0.00000000000E+00  0.79421640055E+01  0.80430634145E+01  0.12700000000E+01 0.  1.
          4   -1    0    0  501    0  0.00000000000E+00 -0.00000000000E+00 -0.48863503633E+03  0.48863668674E+03  0.12700000000E+01 0.  1.
         25    2    1    2    0    0  0.00000000000E+00  0.00000000000E+00 -0.48069287232E+03  0.49667975016E+03  0.12500054684E+03 0.  0.
    9000005    1    3    3    0    0  0.34976023049E+02 -0.49351081397E+02 -0.17797097685E+03  0.18797212566E+03  0.10000000000E+01 0.  0.
    9000005    1    3    3    0    0 -0.34976023049E+02  0.49351081397E+02 -0.30272189547E+03  0.30870762450E+03  0.10000000000E+01 0.  0.
<mgrwt>
<rscale>  0 0.12500055E+03</rscale>
<asrwt>0</asrwt>
<pdfrwt beam="2">  1        4 0.75182486E-01 0.12500055E+03</pdfrwt>
<pdfrwt beam="1">  1       -4 0.12297602E-02 0.12500055E+03</pdfrwt>
<totfact> 0.56122236E+03</totfact>
</mgrwt>
</event>
<event>
 5    1  0.3245943E-002  0.1250006E+03  0.7818608E-02  0.1235068E+00
          4   -1    0    0  501    0  0.00000000000E+00  0.00000000000E+00  0.43876897207E+02  0.43895273191E+02  0.12700000000E+01 0. -1.
         -4   -1    0    0    0  501 -0.00000000000E+00 -0.00000000000E+00 -0.88986849248E+02  0.88995911362E+02  0.12700000000E+01 0. -1.
         25    2    1    2    0    0  0.00000000000E+00  0.00000000000E+00 -0.45109952041E+02  0.13289118455E+03  0.12500063663E+03 0.  0.
    9000005    1    3    3    0    0  0.24938352593E+01  0.62251488801E+02 -0.17366024688E+02  0.64684201207E+02  0.10000000000E+01 0.  0.
    9000005    1    3    3    0    0 -0.24938352593E+01 -0.62251488801E+02 -0.27743927353E+02  0.68206983346E+02  0.10000000000E+01 0.  0.
<mgrwt>
<rscale>  0 0.12500064E+03</rscale>
<asrwt>0</asrwt>
<pdfrwt beam="1">  1        4 0.67524025E-02 0.12500064E+03</pdfrwt>
<pdfrwt beam="2">  1       -4 0.13692395E-01 0.12500064E+03</pdfrwt>
<totfact> 0.10282565E+04</totfact>
</mgrwt>
</event>
<event>
 5    1  0.3245943E-002  0.1250017E+03  0.7818608E-02  0.1235067E+00
          4   -1    0    0  501    0  0.00000000000E+00  0.00000000000E+00  0.24197132755E+03  0.24197466036E+03  0.12700000000E+01 0.  1.
         -4   -1    0    0    0  501 -0.00000000000E+00 -0.00000000000E+00 -0.16115466462E+02  0.16165430996E+02  0.12700000000E+01 0.  1.
         25    2    1    2    0    0  0.00000000000E+00  0.00000000000E+00  0.22585586108E+03  0.25814009135E+03  0.12500174710E+03 0.  0.
    9000005    1    3    3    0    0  0.44298046210E+02  0.27368997833E+02  0.41570706170E+02  0.66637095914E+02  0.10000000000E+01 0.  0.
    9000005    1    3    3    0    0 -0.44298046210E+02 -0.27368997833E+02  0.18428515491E+03  0.19150299544E+03  0.10000000000E+01 0.  0.
<mgrwt>
<rscale>  0 0.12500175E+03</rscale>
<asrwt>0</asrwt>
<pdfrwt beam="1">  1        4 0.37230459E-01 0.12500175E+03</pdfrwt>
<pdfrwt beam="2">  1       -4 0.24834023E-02 0.12500175E+03</pdfrwt>
<totfact> 0.81164624E+03</totfact>
</mgrwt>
</event>
<event>
 5    1  0.3245943E-002  0.1250018E+03  0.7818608E-02  0.1235067E+00
          4   -1    0    0  501    0  0.00000000000E+00  0.00000000000E+00  0.39589101960E+01  0.41576279223E+01  0.12700000000E+01 0.  1.
         -4   -1    0    0    0  501 -0.00000000000E+00 -0.00000000000E+00 -0.96236903852E+03  0.96236987651E+03  0.12700000000E+01 0.  1.
         25    2    1    2    0    0  0.00000000000E+00  0.00000000000E+00 -0.95841012833E+03  0.96652750443E+03  0.12500177094E+03 0.  0.
    9000005    1    3    3    0    0 -0.33859344368E+02 -0.22413487330E+02 -0.84650400201E+03  0.84747793189E+03  0.10000000000E+01 0.  0.
    9000005    1    3    3    0    0  0.33859344368E+02  0.22413487330E+02 -0.11190612632E+03  0.11904957254E+03  0.10000000000E+01 0.  0.
<mgrwt>
<rscale>  0 0.12500177E+03</rscale>
<asrwt>0</asrwt>
<pdfrwt beam="1">  1        4 0.62441431E-03 0.12500177E+03</pdfrwt>
<pdfrwt beam="2">  1       -4 0.14807194E+00 0.12500177E+03</pdfrwt>
<totfact> 0.31735166E+03</totfact>
</mgrwt>
</event>
<event>
 5    1  0.3245943E-002  0.1249653E+03  0.7818608E-02  0.1235124E+00
         -4   -1    0    0    0  501 -0.00000000000E+00  0.00000000000E+00  0.86648063753E+02  0.86657370443E+02  0.12700000000E+01 0.  1.
          4   -1    0    0  501    0  0.00000000000E+00 -0.00000000000E+00 -0.45036053620E+02  0.45053956826E+02  0.12700000000E+01 0.  1.
         25    2    1    2    0    0  0.00000000000E+00  0.00000000000E+00  0.41612010133E+02  0.13171132727E+03  0.12496525254E+03 0.  0.
    9000005    1    3    3    0    0  0.27742088371E+02  0.20236343090E+02 -0.34202908163E+02  0.48476509524E+02  0.10000000000E+01 0.  0.
    9000005    1    3    3    0    0 -0.27742088371E+02 -0.20236343090E+02  0.75814918296E+02  0.83234817745E+02  0.10000000000E+01 0.  0.
<mgrwt>
<rscale>  0 0.12496525E+03</rscale>
<asrwt>0</asrwt>
<pdfrwt beam="2">  1        4 0.69307167E-02 0.12496525E+03</pdfrwt>
<pdfrwt beam="1">  1       -4 0.13332564E-01 0.12496525E+03</pdfrwt>
<totfact> 0.10315948E+04</totfact>
</mgrwt>
</event>
<event>
 5    1  0.3245943E-002  0.1249999E+03  0.7818608E-02  0.1235069E+00
         -4   -1    0    0    0  501 -0.00000000000E+00  0.00000000000E+00  0.67543200426E+02  0.67555139137E+02  0.12700000000E+01 0. -1.
          4   -1    0    0  501    0  0.00000000000E+00 -0.00000000000E+00 -0.57809283034E+02  0.57823231533E+02  0.12700000000E+01 0. -1.
         25    2    1    2    0    0  0.00000000000E+00  0.00000000000E+00  0.97339173921E+01  0.12537837067E+03  0.12499994674E+03 0.  0.
    9000005    1    3    3    0    0 -0.59102651520E+02  0.45135180766E+01  0.24719590011E+02  0.64230470903E+02  0.10000000000E+01 0.  0.
    9000005    1    3    3    0    0  0.59102651520E+02 -0.45135180766E+01 -0.14985672619E+02  0.61147899767E+02  0.10000000000E+01 0.  0.
<mgrwt>
<rscale>  0 0.12499995E+03</rscale>
<asrwt>0</asrwt>
<pdfrwt beam="2">  1        4 0.88957273E-02 0.12499995E+03</pdfrwt>
<pdfrwt beam="1">  1       -4 0.10393253E-01 0.12499995E+03</pdfrwt>
<totfact> 0.10444659E+04</totfact>
</mgrwt>
</event>
<event>
 5    1  0.3245943E-002  0.1250006E+03  0.7818608E-02  0.1235068E+00
          4   -1    0    0  501    0  0.00000000000E+00  0.00000000000E+00  0.13216101262E+02  0.13276981305E+02  0.12700000000E+01 0. -1.
         -4   -1    0    0    0  501 -0.00000000000E+00 -0.00000000000E+00 -0.29482906329E+03  0.29483179859E+03  0.12700000000E+01 0. -1.
         25    2    1    2    0    0  0.00000000000E+00  0.00000000000E+00 -0.28161296203E+03  0.30810877990E+03  0.12500063946E+03 0.  0.
    9000005    1    3    3    0    0  0.19690676014E+01  0.45798522856E+02 -0.24549499543E+03  0.24974021444E+03  0.10000000000E+01 0.  0.
    9000005    1    3    3    0    0 -0.19690676014E+01 -0.45798522856E+02 -0.36117966594E+02  0.58368565460E+02  0.10000000000E+01 0.  0.
<mgrwt>
<rscale>  0 0.12500064E+03</rscale>
<asrwt>0</asrwt>
<pdfrwt beam="1">  1        4 0.20381401E-02 0.12500064E+03</pdfrwt>
<pdfrwt beam="2">  1       -4 0.45363206E-01 0.12500064E+03</pdfrwt>
<totfact> 0.74591761E+03</totfact>
</mgrwt>
</event>
<event>
 5    1  0.3245943E-002  0.1249973E+03  0.7818608E-02  0.1235073E+00
          4   -1    0    0  501    0  0.00000000000E+00  0.00000000000E+00  0.10046367400E+03  0.10047170096E+03  0.12700000000E+01 0. -1.
         -4   -1    0    0    0  501 -0.00000000000E+00 -0.00000000000E+00 -0.38860599949E+02  0.38881346792E+02  0.12700000000E+01 0. -1.
         25    2    1    2    0    0  0.00000000000E+00  0.00000000000E+00  0.61603074049E+02  0.13935304775E+03  0.12499733271E+03 0.  0.
    9000005    1    3    3    0    0  0.55016296040E+02 -0.21222665780E+02  0.77403717763E+01  0.59481994990E+02  0.10000000000E+01 0.  0.
    9000005    1    3    3    0    0 -0.55016296040E+02  0.21222665780E+02  0.53862702273E+02  0.79871052759E+02  0.10000000000E+01 0.  0.
<mgrwt>
<rscale>  0 0.12499733E+03</rscale>
<asrwt>0</asrwt>
<pdfrwt beam="1">  1        4 0.15458163E-01 0.12499733E+03</pdfrwt>
<pdfrwt beam="2">  1       -4 0.59807673E-02 0.12499733E+03</pdfrwt>
<totfact> 0.10147622E+04</totfact>
</mgrwt>
</event>
<event>
 5    1  0.3245943E-002  0.1249978E+03  0.7818608E-02  0.1235073E+00
         -4   -1    0    0    0  501 -0.00000000000E+00  0.00000000000E+00  0.31213843937E+03  0.31214102299E+03  0.12700000000E+01 0.  1.
          4   -1    0    0  501    0  0.00000000000E+00 -0.00000000000E+00 -0.12479176852E+02  0.12543634039E+02  0.12700000000E+01 0.  1.
         25    2    1    2    0    0  0.00000000000E+00  0.00000000000E+00  0.29965926252E+03  0.32468465703E+03  0.12499781157E+03 0.  0.
    9000005    1    3    3    0    0  0.33392917682E+02  0.44081594754E+01  0.13105292005E+02  0.36156154384E+02  0.10000000000E+01 0.  0.
    9000005    1    3    3    0    0 -0.33392917682E+02 -0.44081594754E+01  0.28655397051E+03  0.28852850264E+03  0.10000000000E+01 0.  0.
<mgrwt>
<rscale>  0 0.12499781E+03</rscale>
<asrwt>0</asrwt>
<pdfrwt beam="2">  1        4 0.19250305E-02 0.12499781E+03</pdfrwt>
<pdfrwt beam="1">  1       -4 0.48026452E-01 0.12499781E+03</pdfrwt>
<totfact> 0.72605912E+03</totfact>
</mgrwt>
</event>
<event>
 5    1  0.3245943E-002  0.1250060E+03  0.7818608E-02  0.1235060E+00
          4   -1    0    0  501    0  0.00000000000E+00  0.00000000000E+00  0.37074679122E+03  0.37074896642E+03  0.12700000000E+01 0.  1.
         -4   -1    0    0    0  501 -0.00000000000E+00 -0.00000000000E+00 -0.10496703033E+02  0.10573252791E+02  0.12700000000E+01 0.  1.
         25    2    1    2    0    0  0.00000000000E+00  0.00000000000E+00  0.36025008819E+03  0.38132221921E+03  0.12500603515E+03 0.  0.
    9000005    1    3    3    0    0 -0.19666770332E+02 -0.58780524738E+02  0.20447031973E+03  0.21366104838E+03  0.10000000000E+01 0.  0.
    9000005    1    3    3    0    0  0.19666770332E+02  0.58780524738E+02  0.15577976846E+03  0.16766117084E+03  0.10000000000E+01 0.  0.
<mgrwt>
<rscale>  0 0.12500604E+03</rscale>
<asrwt>0</asrwt>
<pdfrwt beam="1">  1        4 0.57044017E-01 0.12500604E+03</pdfrwt>
<pdfrwt beam="2">  1       -4 0.16209333E-02 0.12500604E+03</pdfrwt>
<totfact> 0.66401970E+03</totfact>
</mgrwt>
</event>
<event>
 5    1  0.3245943E-002  0.1249972E+03  0.7818608E-02  0.1235074E+00
         -4   -1    0    0    0  501 -0.00000000000E+00  0.00000000000E+00  0.96280555016E+02  0.96288930694E+02  0.12700000000E+01 0. -1.
          4   -1    0    0  501    0  0.00000000000E+00 -0.00000000000E+00 -0.40549667534E+02  0.40569550615E+02  0.12700000000E+01 0. -1.
         25    2    1    2    0    0  0.00000000000E+00  0.00000000000E+00  0.55730887482E+02  0.13685848131E+03  0.12499724832E+03 0.  0.
    9000005    1    3    3    0    0  0.43417005828E+02  0.89467489016E+01  0.76090398376E+02  0.88067187056E+02  0.10000000000E+01 0.  0.
    9000005    1    3    3    0    0 -0.43417005828E+02 -0.89467489016E+01 -0.20359510894E+02  0.48791294253E+02  0.10000000000E+01 0.  0.
<mgrwt>
<rscale>  0 0.12499725E+03</rscale>
<asrwt>0</asrwt>
<pdfrwt beam="2">  1        4 0.62405842E-02 0.12499725E+03</pdfrwt>
<pdfrwt beam="1">  1       -4 0.14814567E-01 0.12499725E+03</pdfrwt>
<totfact> 0.10199678E+04</totfact>
</mgrwt>
</event>
<event>
 5    1  0.3245943E-002  0.1249991E+03  0.7818608E-02  0.1235071E+00
         -4   -1    0    0    0  501 -0.00000000000E+00  0.00000000000E+00  0.29952401096E+03  0.29952670339E+03  0.12700000000E+01 0.  1.
          4   -1    0    0  501    0  0.00000000000E+00 -0.00000000000E+00 -0.13007671261E+02  0.13069522242E+02  0.12700000000E+01 0.  1.
         25    2    1    2    0    0  0.00000000000E+00  0.00000000000E+00  0.28651633970E+03  0.31259622563E+03  0.12499914945E+03 0.  0.
    9000005    1    3    3    0    0  0.60242358706E+02  0.16091499479E+02  0.15360511381E+03  0.16578181181E+03  0.10000000000E+01 0.  0.
    9000005    1    3    3    0    0 -0.60242358706E+02 -0.16091499479E+02  0.13291122589E+03  0.14681441382E+03  0.10000000000E+01 0.  0.
<mgrwt>
<rscale>  0 0.12499915E+03</rscale>
<asrwt>0</asrwt>
<pdfrwt beam="2">  1        4 0.20061451E-02 0.12499915E+03</pdfrwt>
<pdfrwt beam="1">  1       -4 0.46085582E-01 0.12499915E+03</pdfrwt>
<totfact> 0.74046841E+03</totfact>
</mgrwt>
</event>
<event>
 5    1  0.3245943E-002  0.1250029E+03  0.7818608E-02  0.1235065E+00
          4   -1    0    0  501    0  0.00000000000E+00  0.00000000000E+00  0.10862576981E+02  0.10936566128E+02  0.12700000000E+01 0.  1.
         -4   -1    0    0    0  501 -0.00000000000E+00 -0.00000000000E+00 -0.35832692526E+03  0.35832917585E+03  0.12700000000E+01 0.  1.
         25    2    1    2    0    0  0.00000000000E+00  0.00000000000E+00 -0.34746434828E+03  0.36926574198E+03  0.12500285947E+03 0.  0.
    9000005    1    3    3    0    0 -0.58244605121E+02 -0.22605345524E+02 -0.17790257504E+03  0.18855705205E+03  0.10000000000E+01 0.  0.
    9000005    1    3    3    0    0  0.58244605121E+02  0.22605345524E+02 -0.16956177324E+03  0.18070868993E+03  0.10000000000E+01 0.  0.
<mgrwt>
<rscale>  0 0.12500286E+03</rscale>
<asrwt>0</asrwt>
<pdfrwt beam="1">  1        4 0.16770306E-02 0.12500286E+03</pdfrwt>
<pdfrwt beam="2">  1       -4 0.55133075E-01 0.12500286E+03</pdfrwt>
<totfact> 0.67651551E+03</totfact>
</mgrwt>
</event>
<event>
 5    1  0.3245943E-002  0.1249951E+03  0.7818608E-02  0.1235077E+00
         -4   -1    0    0    0  501 -0.00000000000E+00  0.00000000000E+00  0.67766278479E+02  0.67778177896E+02  0.12700000000E+01 0. -1.
          4   -1    0    0  501    0  0.00000000000E+00 -0.00000000000E+00 -0.57614467888E+02  0.57628463540E+02  0.12700000000E+01 0. -1.
         25    2    1    2    0    0  0.00000000000E+00  0.00000000000E+00  0.10151810592E+02  0.12540664144E+03  0.12499506573E+03 0.  0.
    9000005    1    3    3    0    0  0.35069624353E+02 -0.50084813228E+02 -0.78729681731E+01  0.61655094649E+02  0.10000000000E+01 0.  0.
    9000005    1    3    3    0    0 -0.35069624353E+02  0.50084813228E+02  0.18024778765E+02  0.63751546788E+02  0.10000000000E+01 0.  0.
<mgrwt>
<rscale>  0 0.12499507E+03</rscale>
<asrwt>0</asrwt>
<pdfrwt beam="2">  1        4 0.88657562E-02 0.12499507E+03</pdfrwt>
<pdfrwt beam="1">  1       -4 0.10427573E-01 0.12499507E+03</pdfrwt>
<totfact> 0.10445182E+04</totfact>
</mgrwt>
</event>
<event>
 5    1  0.3245943E-002  0.1249992E+03  0.7818608E-02  0.1235071E+00
         -4   -1    0    0    0  501 -0.00000000000E+00  0.00000000000E+00  0.45145206278E+02  0.45163066214E+02  0.12700000000E+01 0.  1.
          4   -1    0    0  501    0  0.00000000000E+00 -0.00000000000E+00 -0.86485583160E+02  0.86494907333E+02  0.12700000000E+01 0.  1.
         25    2    1    2    0    0  0.00000000000E+00  0.00000000000E+00 -0.41340376882E+02  0.13165797355E+03  0.12499918095E+03 0.  0.
    9000005    1    3    3    0    0  0.61638507153E+02  0.64382849065E+00 -0.98527994919E+01  0.62432345279E+02  0.10000000000E+01 0.  0.
    9000005    1    3    3    0    0 -0.61638507153E+02 -0.64382849065E+00 -0.31487577390E+02  0.69225628268E+02  0.10000000000E+01 0.  0.
<mgrwt>
<rscale>  0 0.12499918E+03</rscale>
<asrwt>0</asrwt>
<pdfrwt beam="2">  1        4 0.13307565E-01 0.12499918E+03</pdfrwt>
<pdfrwt beam="1">  1       -4 0.69475074E-02 0.12499918E+03</pdfrwt>
<totfact> 0.10309195E+04</totfact>
</mgrwt>
</event>
<event>
 5    1  0.3245943E-002  0.1249988E+03  0.7818608E-02  0.1235071E+00
          4   -1    0    0  501    0  0.00000000000E+00  0.00000000000E+00  0.31160505474E+02  0.31186375252E+02  0.12700000000E+01 0.  1.
         -4   -1    0    0    0  501 -0.00000000000E+00 -0.00000000000E+00 -0.12527543084E+03  0.12528186809E+03  0.12700000000E+01 0.  1.
         25    2    1    2    0    0  0.00000000000E+00  0.00000000000E+00 -0.94114925361E+02  0.15646824334E+03  0.12499876798E+03 0.  0.
    9000005    1    3    3    0    0  0.35945297666E+02  0.27827773049E+02  0.66183590723E+01  0.45948362909E+02  0.10000000000E+01 0.  0.
    9000005    1    3    3    0    0 -0.35945297666E+02 -0.27827773049E+02 -0.10073328443E+03  0.11051988043E+03  0.10000000000E+01 0.  0.
<mgrwt>
<rscale>  0 0.12499877E+03</rscale>
<asrwt>0</asrwt>
<pdfrwt beam="1">  1        4 0.47964091E-02 0.12499877E+03</pdfrwt>
<pdfrwt beam="2">  1       -4 0.19275628E-01 0.12499877E+03</pdfrwt>
<totfact> 0.98030749E+03</totfact>
</mgrwt>
</event>
<event>
 5    1  0.3245943E-002  0.1249996E+03  0.7818608E-02  0.1235070E+00
          4   -1    0    0  501    0  0.00000000000E+00  0.00000000000E+00  0.18454048147E+02  0.18497696965E+02  0.12700000000E+01 0.  1.
         -4   -1    0    0    0  501 -0.00000000000E+00 -0.00000000000E+00 -0.21137733199E+03  0.21138114717E+03  0.12700000000E+01 0.  1.
         25    2    1    2    0    0  0.00000000000E+00  0.00000000000E+00 -0.19292328384E+03  0.22987884413E+03  0.12499955813E+03 0.  0.
    9000005    1    3    3    0    0 -0.16139662551E+02 -0.17419412541E+02  0.98419931670E+01  0.25725269095E+02  0.10000000000E+01 0.  0.
    9000005    1    3    3    0    0  0.16139662551E+02  0.17419412541E+02 -0.20276527701E+03  0.20415357504E+03  0.10000000000E+01 0.  0.
<mgrwt>
<rscale>  0 0.12499956E+03</rscale>
<asrwt>0</asrwt>
<pdfrwt beam="1">  1        4 0.28427356E-02 0.12499956E+03</pdfrwt>
<pdfrwt beam="2">  1       -4 0.32523239E-01 0.12499956E+03</pdfrwt>
<totfact> 0.85329046E+03</totfact>
</mgrwt>
</event>
<event>
 5    1  0.3245943E-002  0.1249953E+03  0.7818608E-02  0.1235077E+00
          4   -1    0    0  501    0  0.00000000000E+00  0.00000000000E+00  0.17820844912E+03  0.17821297438E+03  0.12700000000E+01 0.  1.
         -4   -1    0    0    0  501 -0.00000000000E+00 -0.00000000000E+00 -0.21894713803E+02  0.21931515965E+02  0.12700000000E+01 0.  1.
         25    2    1    2    0    0  0.00000000000E+00  0.00000000000E+00  0.15631373531E+03  0.20014449034E+03  0.12499533258E+03 0.  0.
    9000005    1    3    3    0    0 -0.44578655939E+02  0.25570624515E+02  0.21232694526E+02  0.55614213293E+02  0.10000000000E+01 0.  0.
    9000005    1    3    3    0    0  0.44578655939E+02 -0.25570624515E+02  0.13508104079E+03  0.14453027705E+03  0.10000000000E+01 0.  0.
<mgrwt>
<rscale>  0 0.12499533E+03</rscale>
<asrwt>0</asrwt>
<pdfrwt beam="1">  1        4 0.27419865E-01 0.12499533E+03</pdfrwt>
<pdfrwt beam="2">  1       -4 0.33715964E-02 0.12499533E+03</pdfrwt>
<totfact> 0.90120553E+03</totfact>
</mgrwt>
</event>
<event>
 5    1  0.3245943E-002  0.1250087E+03  0.7818608E-02  0.1235056E+00
         -4   -1    0    0    0  501 -0.00000000000E+00  0.00000000000E+00  0.15165899016E+03  0.15166430759E+03  0.12700000000E+01 0.  1.
          4   -1    0    0  501    0  0.00000000000E+00 -0.00000000000E+00 -0.25738949212E+02  0.25770262058E+02  0.12700000000E+01 0.  1.
         25    2    1    2    0    0  0.00000000000E+00  0.00000000000E+00  0.12592004095E+03  0.17743456965E+03  0.12500867887E+03 0.  0.
    9000005    1    3    3    0    0 -0.55623269306E+02 -0.27298986411E+02  0.51375800009E+02  0.80496307828E+02  0.10000000000E+01 0.  0.
    9000005    1    3    3    0    0  0.55623269306E+02  0.27298986411E+02  0.74544240941E+02  0.96938261821E+02  0.10000000000E+01 0.  0.
<mgrwt>
<rscale>  0 0.12500868E+03</rscale>
<asrwt>0</asrwt>
<pdfrwt beam="2">  1        4 0.39626561E-02 0.12500868E+03</pdfrwt>
<pdfrwt beam="1">  1       -4 0.23334970E-01 0.12500868E+03</pdfrwt>
<totfact> 0.94062528E+03</totfact>
</mgrwt>
</event>
<event>
 5    1  0.3245943E-002  0.1249915E+03  0.7818608E-02  0.1235083E+00
          4   -1    0    0  501    0  0.00000000000E+00  0.00000000000E+00  0.30609682979E+02  0.30636017889E+02  0.12700000000E+01 0. -1.
         -4   -1    0    0    0  501 -0.00000000000E+00 -0.00000000000E+00 -0.12751313226E+03  0.12751945655E+03  0.12700000000E+01 0. -1.
         25    2    1    2    0    0  0.00000000000E+00  0.00000000000E+00 -0.96903449283E+02  0.15815547444E+03  0.12499150216E+03 0.  0.
    9000005    1    3    3    0    0 -0.33535595406E+02  0.52148029741E+02 -0.58307152530E+02  0.85116256974E+02  0.10000000000E+01 0.  0.
    9000005    1    3    3    0    0  0.33535595406E+02 -0.52148029741E+02 -0.38596296754E+02  0.73039217467E+02  0.10000000000E+01 0.  0.
<mgrwt>
<rscale>  0 0.12499150E+03</rscale>
<asrwt>0</asrwt>
<pdfrwt beam="1">  1        4 0.47116943E-02 0.12499150E+03</pdfrwt>
<pdfrwt beam="2">  1       -4 0.19619917E-01 0.12499150E+03</pdfrwt>
<totfact> 0.97718246E+03</totfact>
</mgrwt>
</event>
<event>
 5    1  0.3245943E-002  0.1249826E+03  0.7818608E-02  0.1235096E+00
          4   -1    0    0  501    0  0.00000000000E+00  0.00000000000E+00  0.29754853748E+02  0.29781944557E+02  0.12700000000E+01 0. -1.
         -4   -1    0    0    0  501 -0.00000000000E+00 -0.00000000000E+00 -0.13115475607E+03  0.13116090477E+03  0.12700000000E+01 0. -1.
         25    2    1    2    0    0  0.00000000000E+00  0.00000000000E+00 -0.10139990232E+03  0.16094284932E+03  0.12498264103E+03 0.  0.
    9000005    1    3    3    0    0 -0.14207146988E+02 -0.50499759409E+02 -0.69914010351E+01  0.52933433805E+02  0.10000000000E+01 0.  0.
    9000005    1    3    3    0    0  0.14207146988E+02  0.50499759409E+02 -0.94408501286E+02  0.10800941552E+03  0.10000000000E+01 0.  0.
<mgrwt>
<rscale>  0 0.12498264E+03</rscale>
<asrwt>0</asrwt>
<pdfrwt beam="1">  1        4 0.45802268E-02 0.12498264E+03</pdfrwt>
<pdfrwt beam="2">  1       -4 0.20180211E-01 0.12498264E+03</pdfrwt>
<totfact> 0.97199235E+03</totfact>
</mgrwt>
</event>
<event>
 5    1  0.3245943E-002  0.1250005E+03  0.7818608E-02  0.1235068E+00
         -4   -1    0    0    0  501 -0.00000000000E+00  0.00000000000E+00  0.86948470557E+02  0.86957745097E+02  0.12700000000E+01 0.  1.
          4   -1    0    0  501    0  0.00000000000E+00 -0.00000000000E+00 -0.44905771713E+02  0.44923726839E+02  0.12700000000E+01 0.  1.
         25    2    1    2    0    0  0.00000000000E+00  0.00000000000E+00  0.42042698845E+02  0.13188147194E+03  0.12500053645E+03 0.  0.
    9000005    1    3    3    0    0  0.85417336418E+01 -0.87826916233E+01 -0.43631500361E+02  0.45329953778E+02  0.10000000000E+01 0.  0.
    9000005    1    3    3    0    0 -0.85417336418E+01  0.87826916233E+01  0.85674199206E+02  0.86551518157E+02  0.10000000000E+01 0.  0.
<mgrwt>
<rscale>  0 0.12500054E+03</rscale>
<asrwt>0</asrwt>
<pdfrwt beam="2">  1        4 0.69106749E-02 0.12500054E+03</pdfrwt>
<pdfrwt beam="1">  1       -4 0.13378782E-01 0.12500054E+03</pdfrwt>
<totfact> 0.10304104E+04</totfact>
</mgrwt>
</event>
<event>
 5    1  0.3245943E-002  0.1250021E+03  0.7818608E-02  0.1235066E+00
          4   -1    0    0  501    0  0.00000000000E+00  0.00000000000E+00  0.34034596939E+02  0.34058283703E+02  0.12700000000E+01 0.  1.
         -4   -1    0    0    0  501 -0.00000000000E+00 -0.00000000000E+00 -0.11470966261E+03  0.11471669275E+03  0.12700000000E+01 0.  1.
         25    2    1    2    0    0  0.00000000000E+00  0.00000000000E+00 -0.80675065670E+02  0.14877497645E+03  0.12500210957E+03 0.  0.
    9000005    1    3    3    0    0 -0.19970416299E+02 -0.10893375519E+02  0.28937661928E+02  0.36822159568E+02  0.10000000000E+01 0.  0.
    9000005    1    3    3    0    0  0.19970416299E+02  0.10893375519E+02 -0.10961272760E+03  0.11195281689E+03  0.10000000000E+01 0.  0.
<mgrwt>
<rscale>  0 0.12500211E+03</rscale>
<asrwt>0</asrwt>
<pdfrwt beam="1">  1        4 0.52384547E-02 0.12500211E+03</pdfrwt>
<pdfrwt beam="2">  1       -4 0.17650003E-01 0.12500211E+03</pdfrwt>
<totfact> 0.99543724E+03</totfact>
</mgrwt>
</event>
<event>
 5    1  0.3245943E-002  0.1250020E+03  0.7818608E-02  0.1235066E+00
         -4   -1    0    0    0  501 -0.00000000000E+00  0.00000000000E+00  0.56347868409E+02  0.56362178580E+02  0.12700000000E+01 0. -1.
          4   -1    0    0  501    0  0.00000000000E+00 -0.00000000000E+00 -0.69297161391E+02  0.69308797976E+02  0.12700000000E+01 0. -1.
         25    2    1    2    0    0  0.00000000000E+00  0.00000000000E+00 -0.12949292982E+02  0.12567097656E+03  0.12500204062E+03 0.  0.
    9000005    1    3    3    0    0 -0.41173101918E+02 -0.41769881555E+02 -0.28163928375E+02  0.65070378731E+02  0.10000000000E+01 0.  0.
    9000005    1    3    3    0    0  0.41173101918E+02  0.41769881555E+02  0.15214635393E+02  0.60600597825E+02  0.10000000000E+01 0.  0.
<mgrwt>
<rscale>  0 0.12500204E+03</rscale>
<asrwt>0</asrwt>
<pdfrwt beam="2">  1        4 0.10663098E-01 0.12500204E+03</pdfrwt>
<pdfrwt beam="1">  1       -4 0.86708988E-02 0.12500204E+03</pdfrwt>
<totfact> 0.10437703E+04</totfact>
</mgrwt>
</event>
<event>
 5    1  0.3245943E-002  0.1249995E+03  0.7818608E-02  0.1235070E+00
          4   -1    0    0  501    0  0.00000000000E+00  0.00000000000E+00  0.14630388966E+03  0.14630940171E+03  0.12700000000E+01 0. -1.
         -4   -1    0    0    0  501 -0.00000000000E+00 -0.00000000000E+00 -0.26678228465E+02  0.26708440127E+02  0.12700000000E+01 0. -1.
         25    2    1    2    0    0  0.00000000000E+00  0.00000000000E+00  0.11962566120E+03  0.17301784184E+03  0.12499949911E+03 0.  0.
    9000005    1    3    3    0    0 -0.94229128841E+01  0.60953353067E+02  0.73731345418E+02  0.96132272596E+02  0.10000000000E+01 0.  0.
    9000005    1    3    3    0    0  0.94229128841E+01 -0.60953353067E+02  0.45894315777E+02  0.76885569244E+02  0.10000000000E+01 0.  0.
<mgrwt>
<rscale>  0 0.12499950E+03</rscale>
<asrwt>0</asrwt>
<pdfrwt beam="1">  1        4 0.22511039E-01 0.12499950E+03</pdfrwt>
<pdfrwt beam="2">  1       -4 0.41070907E-02 0.12499950E+03</pdfrwt>
<totfact> 0.94890193E+03</totfact>
</mgrwt>
</event>
<event>
 5    1  0.3245943E-002  0.1249908E+03  0.7818608E-02  0.1235084E+00
         -4   -1    0    0    0  501 -0.00000000000E+00  0.00000000000E+00  0.11299233867E+02  0.11370381962E+02  0.12700000000E+01 0. -1.
          4   -1    0    0  501    0  0.00000000000E+00 -0.00000000000E+00 -0.34450125058E+03  0.34450359149E+03  0.12700000000E+01 0. -1.
         25    2    1    2    0    0  0.00000000000E+00  0.00000000000E+00 -0.33320201671E+03  0.35587397345E+03  0.12499080382E+03 0.  0.
    9000005    1    3    3    0    0  0.14863983191E+02  0.36959309039E+02 -0.29528248918E+02  0.49596834628E+02  0.10000000000E+01 0.  0.
    9000005    1    3    3    0    0 -0.14863983191E+02 -0.36959309039E+02 -0.30367376779E+03  0.30627713883E+03  0.10000000000E+01 0.  0.
<mgrwt>
<rscale>  0 0.12499080E+03</rscale>
<asrwt>0</asrwt>
<pdfrwt beam="2">  1        4 0.53005837E-01 0.12499080E+03</pdfrwt>
<pdfrwt beam="1">  1       -4 0.17439969E-02 0.12499080E+03</pdfrwt>
<totfact> 0.69097205E+03</totfact>
</mgrwt>
</event>
<event>
 5    1  0.3245943E-002  0.1249971E+03  0.7818608E-02  0.1235074E+00
         -4   -1    0    0    0  501 -0.00000000000E+00  0.00000000000E+00  0.86926680490E+01  0.87849517819E+01  0.12700000000E+01 0. -1.
          4   -1    0    0  501    0  0.00000000000E+00 -0.00000000000E+00 -0.44688601064E+03  0.44688781523E+03  0.12700000000E+01 0. -1.
         25    2    1    2    0    0  0.00000000000E+00  0.00000000000E+00 -0.43819334259E+03  0.45567276702E+03  0.12499706041E+03 0.  0.
    9000005    1    3    3    0    0  0.54447617791E+02 -0.82429325301E+01 -0.32678167297E+03  0.33139063175E+03  0.10000000000E+01 0.  0.
    9000005    1    3    3    0    0 -0.54447617791E+02  0.82429325301E+01 -0.11141166962E+03  0.12428213527E+03  0.10000000000E+01 0.  0.
<mgrwt>
<rscale>  0 0.12499706E+03</rscale>
<asrwt>0</asrwt>
<pdfrwt beam="2">  1        4 0.68758914E-01 0.12499706E+03</pdfrwt>
<pdfrwt beam="1">  1       -4 0.13445715E-02 0.12499706E+03</pdfrwt>
<totfact> 0.59479353E+03</totfact>
</mgrwt>
</event>
<event>
 5    1  0.3245943E-002  0.1249913E+03  0.7818608E-02  0.1235083E+00
          4   -1    0    0  501    0  0.00000000000E+00  0.00000000000E+00  0.31424137763E+03  0.31424394396E+03  0.12700000000E+01 0. -1.
         -4   -1    0    0    0  501 -0.00000000000E+00 -0.00000000000E+00 -0.12393932428E+02  0.12458830645E+02  0.12700000000E+01 0. -1.
         25    2    1    2    0    0  0.00000000000E+00  0.00000000000E+00  0.30184744520E+03  0.32670277460E+03  0.12499129073E+03 0.  0.
    9000005    1    3    3    0    0  0.51848462797E+02  0.11592148875E+02  0.23690416603E+03  0.24279049589E+03  0.10000000000E+01 0.  0.
    9000005    1    3    3    0    0 -0.51848462797E+02 -0.11592148875E+02  0.64943279169E+02  0.83912278715E+02  0.10000000000E+01 0.  0.
<mgrwt>
<rscale>  0 0.12499129E+03</rscale>
<asrwt>0</asrwt>
<pdfrwt beam="1">  1        4 0.48350019E-01 0.12499129E+03</pdfrwt>
<pdfrwt beam="2">  1       -4 0.19119483E-02 0.12499129E+03</pdfrwt>
<totfact> 0.72379912E+03</totfact>
</mgrwt>
</event>
<event>
 5    1  0.3245943E-002  0.1250014E+03  0.7818608E-02  0.1235067E+00
         -4   -1    0    0    0  501 -0.00000000000E+00  0.00000000000E+00  0.29034641853E+01  0.31690699385E+01  0.12700000000E+01 0. -1.
          4   -1    0    0  501    0  0.00000000000E+00 -0.00000000000E+00 -0.12862928381E+04  0.12862934651E+04  0.12700000000E+01 0. -1.
         25    2    1    2    0    0  0.00000000000E+00  0.00000000000E+00 -0.12833893740E+04  0.12894625350E+04  0.12500137631E+03 0.  0.
    9000005    1    3    3    0    0  0.19868630465E+01 -0.82577011093E+01 -0.30275004932E+01  0.90721007276E+01  0.10000000000E+01 0.  0.
    9000005    1    3    3    0    0 -0.19868630465E+01  0.82577011093E+01 -0.12803618735E+04  0.12803904343E+04  0.10000000000E+01 0.  0.
<mgrwt>
<rscale>  0 0.12500138E+03</rscale>
<asrwt>0</asrwt>
<pdfrwt beam="2">  1        4 0.19791125E+00 0.12500138E+03</pdfrwt>
<pdfrwt beam="1">  1       -4 0.46716726E-03 0.12500138E+03</pdfrwt>
<totfact> 0.22477983E+03</totfact>
</mgrwt>
</event>
<event>
 5    1  0.3245943E-002  0.1249966E+03  0.7818608E-02  0.1235075E+00
          4   -1    0    0  501    0  0.00000000000E+00  0.00000000000E+00  0.40550050651E+02  0.40569933544E+02  0.12700000000E+01 0.  1.
         -4   -1    0    0    0  501 -0.00000000000E+00 -0.00000000000E+00 -0.96278609168E+02  0.96286985015E+02  0.12700000000E+01 0.  1.
         25    2    1    2    0    0  0.00000000000E+00  0.00000000000E+00 -0.55728558517E+02  0.13685691856E+03  0.12499657565E+03 0.  0.
    9000005    1    3    3    0    0 -0.11403545504E+02 -0.70024292694E+01  0.38968235193E+02  0.41214053668E+02  0.10000000000E+01 0.  0.
    9000005    1    3    3    0    0  0.11403545504E+02  0.70024292694E+01 -0.94696793710E+02  0.95642864891E+02  0.10000000000E+01 0.  0.
<mgrwt>
<rscale>  0 0.12499658E+03</rscale>
<asrwt>0</asrwt>
<pdfrwt beam="1">  1        4 0.62406431E-02 0.12499658E+03</pdfrwt>
<pdfrwt beam="2">  1       -4 0.14814267E-01 0.12499658E+03</pdfrwt>
<totfact> 0.10199866E+04</totfact>
</mgrwt>
</event>
<event>
 5    1  0.3245943E-002  0.1249993E+03  0.7818608E-02  0.1235070E+00
         -4   -1    0    0    0  501 -0.00000000000E+00  0.00000000000E+00  0.70168384483E+02  0.70179876610E+02  0.12700000000E+01 0.  1.
          4   -1    0    0  501    0  0.00000000000E+00 -0.00000000000E+00 -0.55645754393E+02  0.55660245076E+02  0.12700000000E+01 0.  1.
         25    2    1    2    0    0  0.00000000000E+00  0.00000000000E+00  0.14522630090E+02  0.12584012169E+03  0.12499931776E+03 0.  0.
    9000005    1    3    3    0    0 -0.43767153450E+02  0.34802296662E+02  0.35349593058E+02  0.66161599916E+02  0.10000000000E+01 0.  0.
    9000005    1    3    3    0    0  0.43767153450E+02 -0.34802296662E+02 -0.20826962968E+02  0.59678521769E+02  0.10000000000E+01 0.  0.
<mgrwt>
<rscale>  0 0.12499932E+03</rscale>
<asrwt>0</asrwt>
<pdfrwt beam="2">  1        4 0.85628839E-02 0.12499932E+03</pdfrwt>
<pdfrwt beam="1">  1       -4 0.10797135E-01 0.12499932E+03</pdfrwt>
<totfact> 0.10434625E+04</totfact>
</mgrwt>
</event>
<event>
 5    1  0.3245943E-002  0.1249990E+03  0.7818608E-02  0.1235071E+00
          4   -1    0    0  501    0  0.00000000000E+00  0.00000000000E+00  0.25051961097E+02  0.25084131534E+02  0.12700000000E+01 0. -1.
         -4   -1    0    0    0  501 -0.00000000000E+00 -0.00000000000E+00 -0.15578871009E+03  0.15579388657E+03  0.12700000000E+01 0. -1.
         25    2    1    2    0    0  0.00000000000E+00  0.00000000000E+00 -0.13073674900E+03  0.18087801810E+03  0.12499903958E+03 0.  0.
    9000005    1    3    3    0    0 -0.61932857700E+02  0.82676453231E+01 -0.66924964603E+02  0.91564096179E+02  0.10000000000E+01 0.  0.
    9000005    1    3    3    0    0  0.61932857700E+02 -0.82676453231E+01 -0.63811784394E+02  0.89313921925E+02  0.10000000000E+01 0.  0.
<mgrwt>
<rscale>  0 0.12499904E+03</rscale>
<asrwt>0</asrwt>
<pdfrwt beam="1">  1        4 0.38570208E-02 0.12499904E+03</pdfrwt>
<pdfrwt beam="2">  1       -4 0.23970366E-01 0.12499904E+03</pdfrwt>
<totfact> 0.93461208E+03</totfact>
</mgrwt>
</event>
<event>
 5    1  0.3245943E-002  0.1249970E+03  0.7818608E-02  0.1235074E+00
          4   -1    0    0  501    0  0.00000000000E+00  0.00000000000E+00  0.25275542770E+02  0.25307428995E+02  0.12700000000E+01 0.  1.
         -4   -1    0    0    0  501 -0.00000000000E+00 -0.00000000000E+00 -0.15440736676E+03  0.15441258954E+03  0.12700000000E+01 0.  1.
         25    2    1    2    0    0  0.00000000000E+00  0.00000000000E+00 -0.12913182399E+03  0.17972001854E+03  0.12499702835E+03 0.  0.
    9000005    1    3    3    0    0  0.23026985819E+02  0.13780243104E+02 -0.14570806264E+03  0.14816199477E+03  0.10000000000E+01 0.  0.
    9000005    1    3    3    0    0 -0.23026985819E+02 -0.13780243104E+02  0.16576238656E+02  0.31558023764E+02  0.10000000000E+01 0.  0.
<mgrwt>
<rscale>  0 0.12499703E+03</rscale>
<asrwt>0</asrwt>
<pdfrwt beam="1">  1        4 0.38913997E-02 0.12499703E+03</pdfrwt>
<pdfrwt beam="2">  1       -4 0.23757833E-01 0.12499703E+03</pdfrwt>
<totfact> 0.93673667E+03</totfact>
</mgrwt>
</event>
<event>
 5    1  0.3245943E-002  0.1250034E+03  0.7818608E-02  0.1235064E+00
          4   -1    0    0  501    0  0.00000000000E+00  0.00000000000E+00  0.74020975340E+02  0.74031869424E+02  0.12700000000E+01 0.  1.
         -4   -1    0    0    0  501 -0.00000000000E+00 -0.00000000000E+00 -0.52752646075E+02  0.52767931245E+02  0.12700000000E+01 0.  1.
         25    2    1    2    0    0  0.00000000000E+00  0.00000000000E+00  0.21268329266E+02  0.12679980067E+03  0.12500339043E+03 0.  0.
    9000005    1    3    3    0    0 -0.48139605764E+02 -0.16145769067E+02 -0.26322283593E+02  0.57201137361E+02  0.10000000000E+01 0.  0.
    9000005    1    3    3    0    0  0.48139605764E+02  0.16145769067E+02  0.47590612859E+02  0.69598663307E+02  0.10000000000E+01 0.  0.
<mgrwt>
<rscale>  0 0.12500339E+03</rscale>
<asrwt>0</asrwt>
<pdfrwt beam="1">  1        4 0.11389856E-01 0.12500339E+03</pdfrwt>
<pdfrwt beam="2">  1       -4 0.81178055E-02 0.12500339E+03</pdfrwt>
<totfact> 0.10412701E+04</totfact>
</mgrwt>
</event>
<event>
 5    1  0.3245943E-002  0.1250017E+03  0.7818608E-02  0.1235067E+00
          4   -1    0    0  501    0  0.00000000000E+00  0.00000000000E+00  0.36929342375E+02  0.36951173571E+02  0.12700000000E+01 0. -1.
         -4   -1    0    0    0  501 -0.00000000000E+00 -0.00000000000E+00 -0.10572232493E+03  0.10572995266E+03  0.12700000000E+01 0. -1.
         25    2    1    2    0    0  0.00000000000E+00  0.00000000000E+00 -0.68792982560E+02  0.14268112623E+03  0.12500171732E+03 0.  0.
    9000005    1    3    3    0    0  0.39856219488E+01  0.30425029286E+02  0.27743937349E+02  0.41379870094E+02  0.10000000000E+01 0.  0.
    9000005    1    3    3    0    0 -0.39856219488E+01 -0.30425029286E+02 -0.96536919909E+02  0.10130125614E+03  0.10000000000E+01 0.  0.
<mgrwt>
<rscale>  0 0.12500172E+03</rscale>
<asrwt>0</asrwt>
<pdfrwt beam="1">  1        4 0.56837034E-02 0.12500172E+03</pdfrwt>
<pdfrwt beam="2">  1       -4 0.16267239E-01 0.12500172E+03</pdfrwt>
<totfact> 0.10077927E+04</totfact>
</mgrwt>
</event>
<event>
 5    1  0.3245943E-002  0.1250026E+03  0.7818608E-02  0.1235065E+00
          4   -1    0    0  501    0  0.00000000000E+00  0.00000000000E+00  0.10279233040E+03  0.10280017553E+03  0.12700000000E+01 0.  1.
         -4   -1    0    0    0  501 -0.00000000000E+00 -0.00000000000E+00 -0.37983035205E+02  0.38004261121E+02  0.12700000000E+01 0.  1.
         25    2    1    2    0    0  0.00000000000E+00  0.00000000000E+00  0.64809295197E+02  0.14080443665E+03  0.12500257852E+03 0.  0.
    9000005    1    3    3    0    0  0.19727765667E+02 -0.36315241937E+02 -0.20397897390E+02  0.46098327010E+02  0.10000000000E+01 0.  0.
    9000005    1    3    3    0    0 -0.19727765667E+02  0.36315241937E+02  0.85207192588E+02  0.94706109644E+02  0.10000000000E+01 0.  0.
<mgrwt>
<rscale>  0 0.12500258E+03</rscale>
<asrwt>0</asrwt>
<pdfrwt beam="1">  1        4 0.15816441E-01 0.12500258E+03</pdfrwt>
<pdfrwt beam="2">  1       -4 0.58457802E-02 0.12500258E+03</pdfrwt>
<totfact> 0.10116353E+04</totfact>
</mgrwt>
</event>
<event>
 5    1  0.3245943E-002  0.1250011E+03  0.7818608E-02  0.1235068E+00
          4   -1    0    0  501    0  0.00000000000E+00  0.00000000000E+00  0.33315587768E+02  0.33339785367E+02  0.12700000000E+01 0.  1.
         -4   -1    0    0    0  501 -0.00000000000E+00 -0.00000000000E+00 -0.11718169237E+03  0.11718857422E+03  0.12700000000E+01 0.  1.
         25    2    1    2    0    0  0.00000000000E+00  0.00000000000E+00 -0.83866104602E+02  0.15052835958E+03  0.12500105415E+03 0.  0.
    9000005    1    3    3    0    0  0.46680977251E+02 -0.15413275246E+02  0.45290121242E+01  0.49378078555E+02  0.10000000000E+01 0.  0.
    9000005    1    3    3    0    0 -0.46680977251E+02  0.15413275246E+02 -0.88395116726E+02  0.10115028103E+03  0.10000000000E+01 0.  0.
<mgrwt>
<rscale>  0 0.12500105E+03</rscale>
<asrwt>0</asrwt>
<pdfrwt beam="1">  1        4 0.51278658E-02 0.12500105E+03</pdfrwt>
<pdfrwt beam="2">  1       -4 0.18030343E-01 0.12500105E+03</pdfrwt>
<totfact> 0.99196129E+03</totfact>
</mgrwt>
</event>
<event>
 5    1  0.3245943E-002  0.1249947E+03  0.7818608E-02  0.1235078E+00
         -4   -1    0    0    0  501 -0.00000000000E+00  0.00000000000E+00  0.24348034037E+03  0.24348365252E+03  0.12700000000E+01 0.  1.
          4   -1    0    0  501    0  0.00000000000E+00 -0.00000000000E+00 -0.16013470197E+02  0.16063751982E+02  0.12700000000E+01 0.  1.
         25    2    1    2    0    0  0.00000000000E+00  0.00000000000E+00  0.22746687017E+03  0.25954740450E+03  0.12499471253E+03 0.  0.
    9000005    1    3    3    0    0 -0.20565711569E+02 -0.41697726777E+02  0.27035759332E+02  0.53792017933E+02  0.10000000000E+01 0.  0.
    9000005    1    3    3    0    0  0.20565711569E+02  0.41697726777E+02  0.20043111084E+03  0.20575538657E+03  0.10000000000E+01 0.  0.
<mgrwt>
<rscale>  0 0.12499471E+03</rscale>
<asrwt>0</asrwt>
<pdfrwt beam="2">  1        4 0.24677336E-02 0.12499471E+03</pdfrwt>
<pdfrwt beam="1">  1       -4 0.37462633E-01 0.12499471E+03</pdfrwt>
<totfact> 0.80979151E+03</totfact>
</mgrwt>
</event>
<event>
 5    1  0.3245943E-002  0.1250001E+03  0.7818608E-02  0.1235069E+00
         -4   -1    0    0    0  501 -0.00000000000E+00  0.00000000000E+00  0.41081936005E+01  0.43000179836E+01  0.12700000000E+01 0. -1.
          4   -1    0    0  501    0  0.00000000000E+00 -0.00000000000E+00 -0.92896016155E+03  0.92896102967E+03  0.12700000000E+01 0. -1.
         25    2    1    2    0    0  0.00000000000E+00  0.00000000000E+00 -0.92485196795E+03  0.93326104765E+03  0.12500008180E+03 0.  0.
    9000005    1    3    3    0    0 -0.31969209928E+02 -0.45051151833E+02 -0.24429129325E+03  0.25046131962E+03  0.10000000000E+01 0.  0.
    9000005    1    3    3    0    0  0.31969209928E+02  0.45051151833E+02 -0.68056067470E+03  0.68279972804E+03  0.10000000000E+01 0.  0.
<mgrwt>
<rscale>  0 0.12500008E+03</rscale>
<asrwt>0</asrwt>
<pdfrwt beam="2">  1        4 0.14293161E+00 0.12500008E+03</pdfrwt>
<pdfrwt beam="1">  1       -4 0.64685302E-03 0.12500008E+03</pdfrwt>
<totfact> 0.32917805E+03</totfact>
</mgrwt>
</event>
<event>
 5    1  0.3245943E-002  0.1250015E+03  0.7818608E-02  0.1235067E+00
         -4   -1    0    0    0  501 -0.00000000000E+00  0.00000000000E+00  0.27617933753E+03  0.27618225754E+03  0.12700000000E+01 0.  1.
          4   -1    0    0  501    0  0.00000000000E+00 -0.00000000000E+00 -0.14112709310E+02  0.14169737615E+02  0.12700000000E+01 0.  1.
         25    2    1    2    0    0  0.00000000000E+00  0.00000000000E+00  0.26206662822E+03  0.29035199516E+03  0.12500145384E+03 0.  0.
    9000005    1    3    3    0    0 -0.42508959035E+02 -0.37273104590E+02  0.19288430078E+03  0.20100161545E+03  0.10000000000E+01 0.  0.
    9000005    1    3    3    0    0  0.42508959035E+02  0.37273104590E+02  0.69182327442E+02  0.89350379710E+02  0.10000000000E+01 0.  0.
<mgrwt>
<rscale>  0 0.12500145E+03</rscale>
<asrwt>0</asrwt>
<pdfrwt beam="2">  1        4 0.21757974E-02 0.12500145E+03</pdfrwt>
<pdfrwt beam="1">  1       -4 0.42493742E-01 0.12500145E+03</pdfrwt>
<totfact> 0.76822743E+03</totfact>
</mgrwt>
</event>
<event>
 5    1  0.3245943E-002  0.1250012E+03  0.7818608E-02  0.1235067E+00
         -4   -1    0    0    0  501 -0.00000000000E+00  0.00000000000E+00  0.10440841120E+04  0.10440848844E+04  0.12700000000E+01 0.  1.
          4   -1    0    0  501    0  0.00000000000E+00 -0.00000000000E+00 -0.36328181159E+01  0.38484110310E+01  0.12700000000E+01 0.  1.
         25    2    1    2    0    0  0.00000000000E+00  0.00000000000E+00  0.10404512939E+04  0.10479332954E+04  0.12500118690E+03 0.  0.
    9000005    1    3    3    0    0 -0.43269702367E+02 -0.33238858571E+02  0.26480938351E+03  0.27037399737E+03  0.10000000000E+01 0.  0.
    9000005    1    3    3    0    0  0.43269702367E+02  0.33238858571E+02  0.77564191036E+03  0.77755929804E+03  0.10000000000E+01 0.  0.
<mgrwt>
<rscale>  0 0.12500119E+03</rscale>
<asrwt>0</asrwt>
<pdfrwt beam="2">  1        4 0.57553737E-03 0.12500119E+03</pdfrwt>
<pdfrwt beam="1">  1       -4 0.16064531E+00 0.12500119E+03</pdfrwt>
<totfact> 0.29058564E+03</totfact>
</mgrwt>
</event>
<event>
 5    1  0.3245943E-002  0.1250003E+03  0.7818608E-02  0.1235069E+00
         -4   -1    0    0    0  501 -0.00000000000E+00  0.00000000000E+00  0.39149160718E+02  0.39169754721E+02  0.12700000000E+01 0.  1.
          4   -1    0    0  501    0  0.00000000000E+00 -0.00000000000E+00 -0.99728200020E+02  0.99736286171E+02  0.12700000000E+01 0.  1.
         25    2    1    2    0    0  0.00000000000E+00  0.00000000000E+00 -0.60579039302E+02  0.13890604089E+03  0.12500027277E+03 0.  0.
    9000005    1    3    3    0    0  0.47047157371E+02  0.41085200055E+02 -0.28112394017E+02  0.68503542810E+02  0.10000000000E+01 0.  0.
    9000005    1    3    3    0    0 -0.47047157371E+02 -0.41085200055E+02 -0.32466645285E+02  0.70402498082E+02  0.10000000000E+01 0.  0.
<mgrwt>
<rscale>  0 0.12500027E+03</rscale>
<asrwt>0</asrwt>
<pdfrwt beam="2">  1        4 0.15345006E-01 0.12500027E+03</pdfrwt>
<pdfrwt beam="1">  1       -4 0.60251540E-02 0.12500027E+03</pdfrwt>
<totfact> 0.10156247E+04</totfact>
</mgrwt>
</event>
<event>
 5    1  0.3245943E-002  0.1249993E+03  0.7818608E-02  0.1235070E+00
         -4   -1    0    0    0  501 -0.00000000000E+00  0.00000000000E+00  0.14587641244E+03  0.14588194064E+03  0.12700000000E+01 0. -1.
          4   -1    0    0  501    0  0.00000000000E+00 -0.00000000000E+00 -0.26756417141E+02  0.26786540617E+02  0.12700000000E+01 0. -1.
         25    2    1    2    0    0  0.00000000000E+00  0.00000000000E+00  0.11911999530E+03  0.17266848126E+03  0.12499932456E+03 0.  0.
    9000005    1    3    3    0    0 -0.53994065483E+02  0.29999744837E+02  0.72654778844E+02  0.95368027590E+02  0.10000000000E+01 0.  0.
    9000005    1    3    3    0    0  0.53994065483E+02 -0.29999744837E+02  0.46465216454E+02  0.77300453671E+02  0.10000000000E+01 0.  0.
<mgrwt>
<rscale>  0 0.12499932E+03</rscale>
<asrwt>0</asrwt>
<pdfrwt beam="2">  1        4 0.41191143E-02 0.12499932E+03</pdfrwt>
<pdfrwt beam="1">  1       -4 0.22445268E-01 0.12499932E+03</pdfrwt>
<totfact> 0.94955034E+03</totfact>
</mgrwt>
</event>
<event>
 5    1  0.3245943E-002  0.1249984E+03  0.7818608E-02  0.1235072E+00
         -4   -1    0    0    0  501 -0.00000000000E+00  0.00000000000E+00  0.15144628610E+03  0.15145161100E+03  0.12700000000E+01 0.  1.
          4   -1    0    0  501    0  0.00000000000E+00 -0.00000000000E+00 -0.25770895958E+02  0.25802170034E+02  0.12700000000E+01 0.  1.
         25    2    1    2    0    0  0.00000000000E+00  0.00000000000E+00  0.12567539014E+03  0.17725378103E+03  0.12499839680E+03 0.  0.
    9000005    1    3    3    0    0 -0.19325154994E+02 -0.55592109506E+02  0.92623651264E+02  0.10974554674E+03  0.10000000000E+01 0.  0.
    9000005    1    3    3    0    0  0.19325154994E+02  0.55592109506E+02  0.33051738881E+02  0.67508234297E+02  0.10000000000E+01 0.  0.
<mgrwt>
<rscale>  0 0.12499840E+03</rscale>
<asrwt>0</asrwt>
<pdfrwt beam="2">  1        4 0.39675686E-02 0.12499840E+03</pdfrwt>
<pdfrwt beam="1">  1       -4 0.23302244E-01 0.12499840E+03</pdfrwt>
<totfact> 0.94117064E+03</totfact>
</mgrwt>
</event>
<event>
 4    1  0.3245943E-002  0.1247948E+03  0.7818608E-02  0.1235390E+00
         -4   -1    0    0    0  501 -0.00000000000E+00  0.00000000000E+00  0.12963486320E+03  0.12964108398E+03  0.12700000000E+01 0.  1.
          4   -1    0    0  501    0  0.00000000000E+00 -0.00000000000E+00 -0.30013473937E+02  0.30040331519E+02  0.12700000000E+01 0.  1.
    9000005    1    1    2    0    0 -0.67760373741E+01  0.23317500418E+02 -0.23725302838E+02  0.33963370019E+02  0.10000000000E+01 0.  0.
    9000005    1    1    2    0    0  0.67760373741E+01 -0.23317500418E+02  0.12334669210E+03  0.12571804548E+03  0.10000000000E+01 0.  0.
<mgrwt>
<rscale>  0 0.12479476E+03</rscale>
<asrwt>0</asrwt>
<pdfrwt beam="2">  1        4 0.46200020E-02 0.12479476E+03</pdfrwt>
<pdfrwt beam="1">  1       -4 0.19946370E-01 0.12479476E+03</pdfrwt>
<totfact> 0.97854961E+03</totfact>
</mgrwt>
</event>
<event>
 5    1  0.3245943E-002  0.1250006E+03  0.7818608E-02  0.1235068E+00
         -4   -1    0    0    0  501 -0.00000000000E+00  0.00000000000E+00  0.28283241075E+03  0.28283526207E+03  0.12700000000E+01 0.  1.
          4   -1    0    0  501    0  0.00000000000E+00 -0.00000000000E+00 -0.13779201458E+02  0.13837604302E+02  0.12700000000E+01 0.  1.
         25    2    1    2    0    0  0.00000000000E+00  0.00000000000E+00  0.26905320929E+03  0.29667286637E+03  0.12500064085E+03 0.  0.
    9000005    1    3    3    0    0 -0.17477882346E+02 -0.43036413670E+02  0.35307193960E+02  0.58354153393E+02  0.10000000000E+01 0.  0.
    9000005    1    3    3    0    0  0.17477882346E+02  0.43036413670E+02  0.23374601533E+03  0.23831871298E+03  0.10000000000E+01 0.  0.
<mgrwt>
<rscale>  0 0.12500064E+03</rscale>
<asrwt>0</asrwt>
<pdfrwt beam="2">  1        4 0.21245890E-02 0.12500064E+03</pdfrwt>
<pdfrwt beam="1">  1       -4 0.43517391E-01 0.12500064E+03</pdfrwt>
<totfact> 0.76017008E+03</totfact>
</mgrwt>
</event>
<event>
 5    1  0.3245943E-002  0.1250056E+03  0.7818608E-02  0.1235061E+00
          4   -1    0    0  501    0  0.00000000000E+00  0.00000000000E+00  0.53705139414E+01  0.55186338884E+01  0.12700000000E+01 0.  1.
         -4   -1    0    0    0  501 -0.00000000000E+00 -0.00000000000E+00 -0.71737263898E+03  0.71737376315E+03  0.12700000000E+01 0.  1.
         25    2    1    2    0    0  0.00000000000E+00  0.00000000000E+00 -0.71200212504E+03  0.72289239704E+03  0.12500556643E+03 0.  0.
    9000005    1    3    3    0    0  0.41078228503E+02 -0.42528435208E+02 -0.47302539255E+03  0.47670757352E+03  0.10000000000E+01 0.  0.
    9000005    1    3    3    0    0 -0.41078228503E+02  0.42528435208E+02 -0.23897673249E+03  0.24618482352E+03  0.10000000000E+01 0.  0.
<mgrwt>
<rscale>  0 0.12500557E+03</rscale>
<asrwt>0</asrwt>
<pdfrwt beam="1">  1        4 0.83771380E-03 0.12500557E+03</pdfrwt>
<pdfrwt beam="2">  1       -4 0.11037643E+00 0.12500557E+03</pdfrwt>
<totfact> 0.41900353E+03</totfact>
</mgrwt>
</event>
<event>
 5    1  0.3245943E-002  0.1250224E+03  0.7818608E-02  0.1235034E+00
         -4   -1    0    0    0  501 -0.00000000000E+00  0.00000000000E+00  0.16703118946E+03  0.16703601753E+03  0.12700000000E+01 0. -1.
          4   -1    0    0  501    0  0.00000000000E+00 -0.00000000000E+00 -0.23372317593E+02  0.23406796655E+02  0.12700000000E+01 0. -1.
         25    2    1    2    0    0  0.00000000000E+00  0.00000000000E+00  0.14365887186E+03  0.19044281418E+03  0.12502237403E+03 0.  0.
    9000005    1    3    3    0    0 -0.56183071119E+02 -0.22095353352E+02  0.96481307115E+02  0.11381733059E+03  0.10000000000E+01 0.  0.
    9000005    1    3    3    0    0  0.56183071119E+02  0.22095353352E+02  0.47177564749E+02  0.76625483592E+02  0.10000000000E+01 0.  0.
<mgrwt>
<rscale>  0 0.12502237E+03</rscale>
<asrwt>0</asrwt>
<pdfrwt beam="2">  1        4 0.35987647E-02 0.12502237E+03</pdfrwt>
<pdfrwt beam="1">  1       -4 0.25700130E-01 0.12502237E+03</pdfrwt>
<totfact> 0.91724347E+03</totfact>
</mgrwt>
</event>
<event>
 5    1  0.3245943E-002  0.1250014E+03  0.7818608E-02  0.1235067E+00
         -4   -1    0    0    0  501 -0.00000000000E+00  0.00000000000E+00  0.36308268991E+03  0.36308491103E+03  0.12700000000E+01 0. -1.
          4   -1    0    0  501    0  0.00000000000E+00 -0.00000000000E+00 -0.10719061381E+02  0.10794034320E+02  0.12700000000E+01 0. -1.
         25    2    1    2    0    0  0.00000000000E+00  0.00000000000E+00  0.35236362853E+03  0.37387894535E+03  0.12500135624E+03 0.  0.
    9000005    1    3    3    0    0 -0.30442052863E+02 -0.52169999485E+02  0.22412253260E+03  0.23212138429E+03  0.10000000000E+01 0.  0.
    9000005    1    3    3    0    0  0.30442052863E+02  0.52169999485E+02  0.12824109594E+03  0.14175756105E+03  0.10000000000E+01 0.  0.
<mgrwt>
<rscale>  0 0.12500136E+03</rscale>
<asrwt>0</asrwt>
<pdfrwt beam="2">  1        4 0.16550247E-02 0.12500136E+03</pdfrwt>
<pdfrwt beam="1">  1       -4 0.55864803E-01 0.12500136E+03</pdfrwt>
<totfact> 0.67173061E+03</totfact>
</mgrwt>
</event>
<event>
 5    1  0.3245943E-002  0.1249892E+03  0.7818608E-02  0.1235086E+00
         -4   -1    0    0    0  501 -0.00000000000E+00  0.00000000000E+00  0.20453923687E+03  0.20454317960E+03  0.12700000000E+01 0. -1.
          4   -1    0    0  501    0  0.00000000000E+00 -0.00000000000E+00 -0.19069259193E+02  0.19111502980E+02  0.12700000000E+01 0. -1.
         25    2    1    2    0    0  0.00000000000E+00  0.00000000000E+00  0.18546997768E+03  0.22365468258E+03  0.12498921721E+03 0.  0.
    9000005    1    3    3    0    0  0.42063951621E+02  0.44464981690E+02  0.70238022049E+02  0.93171295816E+02  0.10000000000E+01 0.  0.
    9000005    1    3    3    0    0 -0.42063951621E+02 -0.44464981690E+02  0.11523195563E+03  0.13048338676E+03  0.10000000000E+01 0.  0.
<mgrwt>
<rscale>  0 0.12498922E+03</rscale>
<asrwt>0</asrwt>
<pdfrwt beam="2">  1        4 0.29372851E-02 0.12498922E+03</pdfrwt>
<pdfrwt beam="1">  1       -4 0.31471126E-01 0.12498922E+03</pdfrwt>
<totfact> 0.86314108E+03</totfact>
</mgrwt>
</event>
<event>
 5    1  0.3245943E-002  0.1250008E+03  0.7818608E-02  0.1235068E+00
          4   -1    0    0  501    0  0.00000000000E+00  0.00000000000E+00  0.60865756367E+02  0.60879004575E+02  0.12700000000E+01 0.  1.
         -4   -1    0    0    0  501 -0.00000000000E+00 -0.00000000000E+00 -0.64152424781E+02  0.64164994391E+02  0.12700000000E+01 0.  1.
         25    2    1    2    0    0  0.00000000000E+00  0.00000000000E+00 -0.32866684140E+01  0.12504399897E+03  0.12500079795E+03 0.  0.
    9000005    1    3    3    0    0  0.39511215816E+02 -0.43541664765E+02 -0.22823443772E+02  0.63078699506E+02  0.10000000000E+01 0.  0.
    9000005    1    3    3    0    0 -0.39511215816E+02  0.43541664765E+02  0.19536775358E+02  0.61965299460E+02  0.10000000000E+01 0.  0.
<mgrwt>
<rscale>  0 0.12500080E+03</rscale>
<asrwt>0</asrwt>
<pdfrwt beam="1">  1        4 0.93659484E-02 0.12500080E+03</pdfrwt>
<pdfrwt beam="2">  1       -4 0.98715899E-02 0.12500080E+03</pdfrwt>
<totfact> 0.10451718E+04</totfact>
</mgrwt>
</event>
<event>
 5    1  0.3245943E-002  0.1249964E+03  0.7818608E-02  0.1235075E+00
         -4   -1    0    0    0  501 -0.00000000000E+00  0.00000000000E+00  0.25024979368E+02  0.25057184446E+02  0.12700000000E+01 0. -1.
          4   -1    0    0  501    0  0.00000000000E+00 -0.00000000000E+00 -0.15594988536E+03  0.15595505649E+03  0.12700000000E+01 0. -1.
         25    2    1    2    0    0  0.00000000000E+00  0.00000000000E+00 -0.13092490599E+03  0.18101224093E+03  0.12499640138E+03 0.  0.
    9000005    1    3    3    0    0 -0.51209130937E+02  0.10116202864E+02 -0.11521426776E+03  0.12649126510E+03  0.10000000000E+01 0.  0.
    9000005    1    3    3    0    0  0.51209130937E+02 -0.10116202864E+02 -0.15710638229E+02  0.54520975828E+02  0.10000000000E+01 0.  0.
<mgrwt>
<rscale>  0 0.12499640E+03</rscale>
<asrwt>0</asrwt>
<pdfrwt beam="2">  1        4 0.23995165E-01 0.12499640E+03</pdfrwt>
<pdfrwt beam="1">  1       -4 0.38528720E-02 0.12499640E+03</pdfrwt>
<totfact> 0.93442652E+03</totfact>
</mgrwt>
</event>
<event>
 5    1  0.3245943E-002  0.1249994E+03  0.7818608E-02  0.1235070E+00
          4   -1    0    0  501    0  0.00000000000E+00  0.00000000000E+00  0.30167997259E+03  0.30168264577E+03  0.12700000000E+01 0.  1.
         -4   -1    0    0    0  501 -0.00000000000E+00 -0.00000000000E+00 -0.12914318152E+02  0.12976614093E+02  0.12700000000E+01 0.  1.
         25    2    1    2    0    0  0.00000000000E+00  0.00000000000E+00  0.28876565444E+03  0.31465925987E+03  0.12499938655E+03 0.  0.
    9000005    1    3    3    0    0 -0.29897544678E+02  0.53886290580E+02  0.11826894751E+03  0.13336468586E+03  0.10000000000E+01 0.  0.
    9000005    1    3    3    0    0  0.29897544678E+02 -0.53886290580E+02  0.17049670693E+03  0.18129457400E+03  0.10000000000E+01 0.  0.
<mgrwt>
<rscale>  0 0.12499939E+03</rscale>
<asrwt>0</asrwt>
<pdfrwt beam="1">  1        4 0.46417300E-01 0.12499939E+03</pdfrwt>
<pdfrwt beam="2">  1       -4 0.19918158E-02 0.12499939E+03</pdfrwt>
<totfact> 0.73796873E+03</totfact>
</mgrwt>
</event>
<event>
 5    1  0.3245943E-002  0.1250016E+03  0.7818608E-02  0.1235067E+00
         -4   -1    0    0    0  501 -0.00000000000E+00  0.00000000000E+00  0.10623861040E+02  0.10699501081E+02  0.12700000000E+01 0. -1.
          4   -1    0    0  501    0  0.00000000000E+00 -0.00000000000E+00 -0.36631508062E+03  0.36631728213E+03  0.12700000000E+01 0. -1.
         25    2    1    2    0    0  0.00000000000E+00  0.00000000000E+00 -0.35569121958E+03  0.37701678322E+03  0.12500164455E+03 0.  0.
    9000005    1    3    3    0    0  0.47671933418E+02  0.32752166425E+02 -0.10646954546E+03  0.12116964039E+03  0.10000000000E+01 0.  0.
    9000005    1    3    3    0    0 -0.47671933418E+02 -0.32752166425E+02 -0.24922167412E+03  0.25584714283E+03  0.10000000000E+01 0.  0.
<mgrwt>
<rscale>  0 0.12500164E+03</rscale>
<asrwt>0</asrwt>
<pdfrwt beam="2">  1        4 0.56362144E-01 0.12500164E+03</pdfrwt>
<pdfrwt beam="1">  1       -4 0.16404283E-02 0.12500164E+03</pdfrwt>
<totfact> 0.66848758E+03</totfact>
</mgrwt>
</event>
<event>
 5    1  0.3245943E-002  0.1250050E+03  0.7818608E-02  0.1235061E+00
          4   -1    0    0  501    0  0.00000000000E+00  0.00000000000E+00  0.13251345477E+02  0.13312064339E+02  0.12700000000E+01 0. -1.
         -4   -1    0    0    0  501 -0.00000000000E+00 -0.00000000000E+00 -0.29406897447E+03  0.29407171684E+03  0.12700000000E+01 0. -1.
         25    2    1    2    0    0  0.00000000000E+00  0.00000000000E+00 -0.28081762899E+03  0.30738378118E+03  0.12500499262E+03 0.  0.
    9000005    1    3    3    0    0  0.43636016214E+02  0.21837480652E+02 -0.23642166205E+03  0.24140666884E+03  0.10000000000E+01 0.  0.
    9000005    1    3    3    0    0 -0.43636016214E+02 -0.21837480652E+02 -0.44395966939E+02  0.65977112340E+02  0.10000000000E+01 0.  0.
<mgrwt>
<rscale>  0 0.12500499E+03</rscale>
<asrwt>0</asrwt>
<pdfrwt beam="1">  1        4 0.20435504E-02 0.12500499E+03</pdfrwt>
<pdfrwt beam="2">  1       -4 0.45246257E-01 0.12500499E+03</pdfrwt>
<totfact> 0.74673598E+03</totfact>
</mgrwt>
</event>
<event>
 5    1  0.3245943E-002  0.1249989E+03  0.7818608E-02  0.1235071E+00
         -4   -1    0    0    0  501 -0.00000000000E+00  0.00000000000E+00  0.17771167746E+02  0.17816489639E+02  0.12700000000E+01 0. -1.
          4   -1    0    0  501    0  0.00000000000E+00 -0.00000000000E+00 -0.21947742548E+03  0.21948109986E+03  0.12700000000E+01 0. -1.
         25    2    1    2    0    0  0.00000000000E+00  0.00000000000E+00 -0.20170625773E+03  0.23729758950E+03  0.12499892629E+03 0.  0.
    9000005    1    3    3    0    0  0.24566748956E+02  0.13165728640E+02 -0.20703312908E+03  0.20890327452E+03  0.10000000000E+01 0.  0.
    9000005    1    3    3    0    0 -0.24566748956E+02 -0.13165728640E+02  0.53268713515E+01  0.28394314981E+02  0.10000000000E+01 0.  0.
<mgrwt>
<rscale>  0 0.12499893E+03</rscale>
<asrwt>0</asrwt>
<pdfrwt beam="2">  1        4 0.33769525E-01 0.12499893E+03</pdfrwt>
<pdfrwt beam="1">  1       -4 0.27377949E-02 0.12499893E+03</pdfrwt>
<totfact> 0.84203514E+03</totfact>
</mgrwt>
</event>
<event>
 5    1  0.3245943E-002  0.1250016E+03  0.7818608E-02  0.1235067E+00
          4   -1    0    0  501    0  0.00000000000E+00  0.00000000000E+00  0.36571258980E+02  0.36593303806E+02  0.12700000000E+01 0. -1.
         -4   -1    0    0    0  501 -0.00000000000E+00 -0.00000000000E+00 -0.10675672244E+03  0.10676427627E+03  0.12700000000E+01 0. -1.
         25    2    1    2    0    0  0.00000000000E+00  0.00000000000E+00 -0.70185463464E+02  0.14335758007E+03  0.12500158592E+03 0.  0.
    9000005    1    3    3    0    0 -0.33312448476E+02 -0.52542435848E+02 -0.41870032494E+02  0.74996842663E+02  0.10000000000E+01 0.  0.
    9000005    1    3    3    0    0  0.33312448476E+02  0.52542435848E+02 -0.28315430971E+02  0.68360737412E+02  0.10000000000E+01 0.  0.
<mgrwt>
<rscale>  0 0.12500159E+03</rscale>
<asrwt>0</asrwt>
<pdfrwt beam="1">  1        4 0.56286244E-02 0.12500159E+03</pdfrwt>
<pdfrwt beam="2">  1       -4 0.16426388E-01 0.12500159E+03</pdfrwt>
<totfact> 0.10064107E+04</totfact>
</mgrwt>
</event>
<event>
 5    1  0.3245943E-002  0.1250005E+03  0.7818608E-02  0.1235069E+00
          4   -1    0    0  501    0  0.00000000000E+00  0.00000000000E+00  0.14163315185E+02  0.14220140542E+02  0.12700000000E+01 0. -1.
         -4   -1    0    0    0  501 -0.00000000000E+00 -0.00000000000E+00 -0.27519222615E+03  0.27519515663E+03  0.12700000000E+01 0. -1.
         25    2    1    2    0    0  0.00000000000E+00  0.00000000000E+00 -0.26102891096E+03  0.28941529717E+03  0.12500048751E+03 0.  0.
    9000005    1    3    3    0    0 -0.28645556083E+02  0.10905248115E+02 -0.25660422132E+03  0.25843029760E+03  0.10000000000E+01 0.  0.
    9000005    1    3    3    0    0  0.28645556083E+02 -0.10905248115E+02 -0.44246896421E+01  0.30984999567E+02  0.10000000000E+01 0.  0.
<mgrwt>
<rscale>  0 0.12500049E+03</rscale>
<asrwt>0</asrwt>
<pdfrwt beam="1">  1        4 0.21835684E-02 0.12500049E+03</pdfrwt>
<pdfrwt beam="2">  1       -4 0.42341858E-01 0.12500049E+03</pdfrwt>
<totfact> 0.76945209E+03</totfact>
</mgrwt>
</event>
<event>
 5    1  0.3245943E-002  0.1250005E+03  0.7818608E-02  0.1235068E+00
         -4   -1    0    0    0  501 -0.00000000000E+00  0.00000000000E+00  0.61803848766E+01  0.63095211564E+01  0.12700000000E+01 0.  1.
          4   -1    0    0  501    0  0.00000000000E+00 -0.00000000000E+00 -0.62538075237E+03  0.62538204191E+03  0.12700000000E+01 0.  1.
         25    2    1    2    0    0  0.00000000000E+00  0.00000000000E+00 -0.61920036750E+03  0.63169156306E+03  0.12500054294E+03 0.  0.
    9000005    1    3    3    0    0  0.46279780118E+02  0.68978146202E+01 -0.51893303917E+03  0.52103924711E+03  0.10000000000E+01 0.  0.
    9000005    1    3    3    0    0 -0.46279780118E+02 -0.68978146202E+01 -0.10026732833E+03  0.11065231595E+03  0.10000000000E+01 0.  0.
<mgrwt>
<rscale>  0 0.12500054E+03</rscale>
<asrwt>0</asrwt>
<pdfrwt beam="2">  1        4 0.96222407E-01 0.12500054E+03</pdfrwt>
<pdfrwt beam="1">  1       -4 0.96086169E-03 0.12500054E+03</pdfrwt>
<totfact> 0.46925825E+03</totfact>
</mgrwt>
</event>
<event>
 5    1  0.3245943E-002  0.1249989E+03  0.7818608E-02  0.1235071E+00
          4   -1    0    0  501    0  0.00000000000E+00  0.00000000000E+00  0.63589312747E+02  0.63601993645E+02  0.12700000000E+01 0. -1.
         -4   -1    0    0    0  501 -0.00000000000E+00 -0.00000000000E+00 -0.61402933831E+02  0.61416066164E+02  0.12700000000E+01 0. -1.
         25    2    1    2    0    0  0.00000000000E+00  0.00000000000E+00  0.21863789162E+01  0.12501805981E+03  0.12499894010E+03 0.  0.
    9000005    1    3    3    0    0 -0.47489989458E+02 -0.31322600267E+02  0.26957914035E+02  0.62961365259E+02  0.10000000000E+01 0.  0.
    9000005    1    3    3    0    0  0.47489989458E+02  0.31322600267E+02 -0.24771535119E+02  0.62056694549E+02  0.10000000000E+01 0.  0.
<mgrwt>
<rscale>  0 0.12499894E+03</rscale>
<asrwt>0</asrwt>
<pdfrwt beam="1">  1        4 0.97849569E-02 0.12499894E+03</pdfrwt>
<pdfrwt beam="2">  1       -4 0.94485908E-02 0.12499894E+03</pdfrwt>
<totfact> 0.10452721E+04</totfact>
</mgrwt>
</event>
<event>
 5    1  0.3245943E-002  0.1249990E+03  0.7818608E-02  0.1235071E+00
          4   -1    0    0  501    0  0.00000000000E+00  0.00000000000E+00  0.14011848092E+01  0.18910893341E+01  0.12700000000E+01 0. -1.
         -4   -1    0    0    0  501 -0.00000000000E+00 -0.00000000000E+00 -0.23724518330E+04  0.23724521729E+04  0.12700000000E+01 0. -1.
         25    2    1    2    0    0  0.00000000000E+00  0.00000000000E+00 -0.23710506481E+04  0.23743432622E+04  0.12499900295E+03 0.  0.
    9000005    1    3    3    0    0  0.87680069808E+01 -0.45834114106E+02 -0.19750241358E+04  0.19755756075E+04  0.10000000000E+01 0.  0.
    9000005    1    3    3    0    0 -0.87680069808E+01  0.45834114106E+02 -0.39602651233E+03  0.39876765469E+03  0.10000000000E+01 0.  0.
<mgrwt>
<rscale>  0 0.12499900E+03</rscale>
<asrwt>0</asrwt>
<pdfrwt beam="1">  1        4 0.25327990E-03 0.12499900E+03</pdfrwt>
<pdfrwt beam="2">  1       -4 0.36502757E+00 0.12499900E+03</pdfrwt>
<totfact> 0.57333630E+02</totfact>
</mgrwt>
</event>
<event>
 5    1  0.3245943E-002  0.1250012E+03  0.7818608E-02  0.1235067E+00
         -4   -1    0    0    0  501 -0.00000000000E+00  0.00000000000E+00  0.65213055085E+01  0.66438185959E+01  0.12700000000E+01 0.  1.
          4   -1    0    0  501    0  0.00000000000E+00 -0.00000000000E+00 -0.59331168386E+03  0.59331304310E+03  0.12700000000E+01 0.  1.
         25    2    1    2    0    0  0.00000000000E+00  0.00000000000E+00 -0.58679037835E+03  0.59995686169E+03  0.12500115104E+03 0.  0.
    9000005    1    3    3    0    0  0.21179500187E+02  0.19400175271E+02 -0.55977937311E+03  0.56051662294E+03  0.10000000000E+01 0.  0.
    9000005    1    3    3    0    0 -0.21179500187E+02 -0.19400175271E+02 -0.27011005243E+02  0.39440238754E+02  0.10000000000E+01 0.  0.
<mgrwt>
<rscale>  0 0.12500115E+03</rscale>
<asrwt>0</asrwt>
<pdfrwt beam="2">  1        4 0.91288207E-01 0.12500115E+03</pdfrwt>
<pdfrwt beam="1">  1       -4 0.10128069E-02 0.12500115E+03</pdfrwt>
<totfact> 0.48869117E+03</totfact>
</mgrwt>
</event>
<event>
 5    1  0.3245943E-002  0.1250007E+03  0.7818608E-02  0.1235068E+00
         -4   -1    0    0    0  501 -0.00000000000E+00  0.00000000000E+00  0.17833963695E+02  0.17879126406E+02  0.12700000000E+01 0.  1.
          4   -1    0    0  501    0  0.00000000000E+00 -0.00000000000E+00 -0.21871281095E+03  0.21871649817E+03  0.12700000000E+01 0.  1.
         25    2    1    2    0    0  0.00000000000E+00  0.00000000000E+00 -0.20087884725E+03  0.23659562458E+03  0.12500071318E+03 0.  0.
    9000005    1    3    3    0    0 -0.17192282725E+02  0.47665188412E+02 -0.31211442639E+02  0.59520575630E+02  0.10000000000E+01 0.  0.
    9000005    1    3    3    0    0  0.17192282725E+02 -0.47665188412E+02 -0.16966740461E+03  0.17707504895E+03  0.10000000000E+01 0.  0.
<mgrwt>
<rscale>  0 0.12500071E+03</rscale>
<asrwt>0</asrwt>
<pdfrwt beam="2">  1        4 0.33651881E-01 0.12500071E+03</pdfrwt>
<pdfrwt beam="1">  1       -4 0.27474446E-02 0.12500071E+03</pdfrwt>
<totfact> 0.84305675E+03</totfact>
</mgrwt>
</event>
<event>
 5    1  0.3245943E-002  0.1250014E+03  0.7818608E-02  0.1235067E+00
          4   -1    0    0  501    0  0.00000000000E+00  0.00000000000E+00  0.20819456113E+03  0.20819843463E+03  0.12700000000E+01 0.  1.
         -4   -1    0    0    0  501 -0.00000000000E+00 -0.00000000000E+00 -0.18737361192E+02  0.18780351553E+02  0.12700000000E+01 0.  1.
         25    2    1    2    0    0  0.00000000000E+00  0.00000000000E+00  0.18945719993E+03  0.22697878618E+03  0.12500135507E+03 0.  0.
    9000005    1    3    3    0    0 -0.21887035078E+01  0.27082434932E+02 -0.74595356320E+01  0.28193853528E+02  0.10000000000E+01 0.  0.
    9000005    1    3    3    0    0  0.21887035078E+01 -0.27082434932E+02  0.19691673557E+03  0.19878493266E+03  0.10000000000E+01 0.  0.
<mgrwt>
<rscale>  0 0.12500136E+03</rscale>
<asrwt>0</asrwt>
<pdfrwt beam="1">  1        4 0.32033538E-01 0.12500136E+03</pdfrwt>
<pdfrwt beam="2">  1       -4 0.28862758E-02 0.12500136E+03</pdfrwt>
<totfact> 0.85773081E+03</totfact>
</mgrwt>
</event>
<event>
 5    1  0.3245943E-002  0.1250047E+03  0.7818608E-02  0.1235062E+00
          4   -1    0    0  501    0  0.00000000000E+00  0.00000000000E+00  0.65342351909E+03  0.65342475328E+03  0.12700000000E+01 0.  1.
         -4   -1    0    0    0  501 -0.00000000000E+00 -0.00000000000E+00 -0.59098809283E+01  0.60447988045E+01  0.12700000000E+01 0.  1.
         25    2    1    2    0    0  0.00000000000E+00  0.00000000000E+00  0.64751363816E+03  0.65946955209E+03  0.12500471400E+03 0.  0.
    9000005    1    3    3    0    0  0.49387042762E+02  0.10554320879E+02  0.51795688602E+03  0.52041407500E+03  0.10000000000E+01 0.  0.
    9000005    1    3    3    0    0 -0.49387042762E+02 -0.10554320879E+02  0.12955675214E+03  0.13905547709E+03  0.10000000000E+01 0.  0.
<mgrwt>
<rscale>  0 0.12500471E+03</rscale>
<asrwt>0</asrwt>
<pdfrwt beam="1">  1        4 0.10053713E+00 0.12500471E+03</pdfrwt>
<pdfrwt beam="2">  1       -4 0.91968606E-03 0.12500471E+03</pdfrwt>
<totfact> 0.45309492E+03</totfact>
</mgrwt>
</event>
<event>
 5    1  0.3245943E-002  0.1249765E+03  0.7818608E-02  0.1235106E+00
         -4   -1    0    0    0  501 -0.00000000000E+00  0.00000000000E+00  0.78729390754E+01  0.79747143952E+01  0.12700000000E+01 0.  1.
          4   -1    0    0  501    0  0.00000000000E+00 -0.00000000000E+00 -0.49268686871E+03  0.49268850554E+03  0.12700000000E+01 0.  1.
         25    2    1    2    0    0  0.00000000000E+00  0.00000000000E+00 -0.48481392963E+03  0.50066321994E+03  0.12497645153E+03 0.  0.
    9000005    1    3    3    0    0 -0.56646226502E+02 -0.44880219432E+01 -0.13833871710E+03  0.14955780811E+03  0.10000000000E+01 0.  0.
    9000005    1    3    3    0    0  0.56646226502E+02  0.44880219432E+01 -0.34647521253E+03  0.35110541183E+03  0.10000000000E+01 0.  0.
<mgrwt>
<rscale>  0 0.12497645E+03</rscale>
<asrwt>0</asrwt>
<pdfrwt beam="2">  1        4 0.75805910E-01 0.12497645E+03</pdfrwt>
<pdfrwt beam="1">  1       -4 0.12191766E-02 0.12497645E+03</pdfrwt>
<totfact> 0.55841865E+03</totfact>
</mgrwt>
</event>
<event>
 5    1  0.3245943E-002  0.1249867E+03  0.7818608E-02  0.1235090E+00
         -4   -1    0    0    0  501 -0.00000000000E+00  0.00000000000E+00  0.43363090240E+03  0.43363276216E+03  0.12700000000E+01 0.  1.
          4   -1    0    0  501    0  0.00000000000E+00 -0.00000000000E+00 -0.89596571521E+01  0.90492185454E+01  0.12700000000E+01 0.  1.
         25    2    1    2    0    0  0.00000000000E+00  0.00000000000E+00  0.42467124525E+03  0.44268198070E+03  0.12498667728E+03 0.  0.
    9000005    1    3    3    0    0 -0.44613533399E+02  0.34480451832E+02  0.11695907800E+03  0.12984488765E+03  0.10000000000E+01 0.  0.
    9000005    1    3    3    0    0  0.44613533399E+02 -0.34480451832E+02  0.30771216725E+03  0.31283709306E+03  0.10000000000E+01 0.  0.
<mgrwt>
<rscale>  0 0.12498668E+03</rscale>
<asrwt>0</asrwt>
<pdfrwt beam="2">  1        4 0.13854415E-02 0.12498668E+03</pdfrwt>
<pdfrwt beam="1">  1       -4 0.66719466E-01 0.12498668E+03</pdfrwt>
<totfact> 0.60620833E+03</totfact>
</mgrwt>
</event>
<event>
 5    1  0.3245943E-002  0.1249995E+03  0.7818608E-02  0.1235070E+00
          4   -1    0    0  501    0  0.00000000000E+00  0.00000000000E+00  0.30381734933E+03  0.30382000371E+03  0.12700000000E+01 0.  1.
         -4   -1    0    0    0  501 -0.00000000000E+00 -0.00000000000E+00 -0.12823057270E+02  0.12885794416E+02  0.12700000000E+01 0.  1.
         25    2    1    2    0    0  0.00000000000E+00  0.00000000000E+00  0.29099429206E+03  0.31670579812E+03  0.12499953822E+03 0.  0.
    9000005    1    3    3    0    0 -0.59054909203E+02 -0.41503358518E+01  0.94791512590E+02  0.11176376178E+03  0.10000000000E+01 0.  0.
    9000005    1    3    3    0    0  0.59054909203E+02  0.41503358518E+01  0.19620277947E+03  0.20494203634E+03  0.10000000000E+01 0.  0.
<mgrwt>
<rscale>  0 0.12499954E+03</rscale>
<asrwt>0</asrwt>
<pdfrwt beam="1">  1        4 0.46746152E-01 0.12499954E+03</pdfrwt>
<pdfrwt beam="2">  1       -4 0.19778085E-02 0.12499954E+03</pdfrwt>
<totfact> 0.73550405E+03</totfact>
</mgrwt>
</event>
<event>
 5    1  0.3245943E-002  0.1250033E+03  0.7818608E-02  0.1235064E+00
          4   -1    0    0  501    0  0.00000000000E+00  0.00000000000E+00  0.81696721973E+02  0.81706592641E+02  0.12700000000E+01 0.  1.
         -4   -1    0    0    0  501 -0.00000000000E+00 -0.00000000000E+00 -0.47795369908E+02  0.47812239904E+02  0.12700000000E+01 0.  1.
         25    2    1    2    0    0  0.00000000000E+00  0.00000000000E+00  0.33901352065E+02  0.12951883255E+03  0.12500330520E+03 0.  0.
    9000005    1    3    3    0    0 -0.61239403180E+02 -0.10878116408E+02  0.10660233585E+02  0.63112902790E+02  0.10000000000E+01 0.  0.
    9000005    1    3    3    0    0  0.61239403180E+02  0.10878116408E+02  0.23241118480E+02  0.66405929755E+02  0.10000000000E+01 0.  0.
<mgrwt>
<rscale>  0 0.12500331E+03</rscale>
<asrwt>0</asrwt>
<pdfrwt beam="1">  1        4 0.12570783E-01 0.12500331E+03</pdfrwt>
<pdfrwt beam="2">  1       -4 0.73551909E-02 0.12500331E+03</pdfrwt>
<totfact> 0.10354039E+04</totfact>
</mgrwt>
</event>
<event>
 5    1  0.3245943E-002  0.1250006E+03  0.7818608E-02  0.1235068E+00
         -4   -1    0    0    0  501 -0.00000000000E+00  0.00000000000E+00  0.15697057020E+04  0.15697062157E+04  0.12700000000E+01 0.  1.
          4   -1    0    0  501    0  0.00000000000E+00 -0.00000000000E+00 -0.23259662118E+01  0.26500978885E+01  0.12700000000E+01 0.  1.
         25    2    1    2    0    0  0.00000000000E+00  0.00000000000E+00  0.15673797358E+04  0.15723563136E+04  0.12500056362E+03 0.  0.
    9000005    1    3    3    0    0  0.93830565756E+01  0.60116345000E+02  0.60435114150E+03  0.60740704550E+03  0.10000000000E+01 0.  0.
    9000005    1    3    3    0    0 -0.93830565756E+01 -0.60116345000E+02  0.96302859425E+03  0.96494926811E+03  0.10000000000E+01 0.  0.
<mgrwt>
<rscale>  0 0.12500056E+03</rscale>
<asrwt>0</asrwt>
<pdfrwt beam="2">  1        4 0.38281416E-03 0.12500056E+03</pdfrwt>
<pdfrwt beam="1">  1       -4 0.24151785E+00 0.12500056E+03</pdfrwt>
<totfact> 0.16550971E+03</totfact>
</mgrwt>
</event>
<event>
 5    1  0.3245943E-002  0.1249986E+03  0.7818608E-02  0.1235071E+00
         -4   -1    0    0    0  501 -0.00000000000E+00  0.00000000000E+00  0.45355419203E+03  0.45355597009E+03  0.12700000000E+01 0. -1.
          4   -1    0    0  501    0  0.00000000000E+00 -0.00000000000E+00 -0.85637159520E+01  0.86573743656E+01  0.12700000000E+01 0. -1.
         25    2    1    2    0    0  0.00000000000E+00  0.00000000000E+00  0.44499047608E+03  0.46221334446E+03  0.12499860798E+03 0.  0.
    9000005    1    3    3    0    0  0.44122751501E+02 -0.25148193486E+02  0.87848756892E+02  0.10147735177E+03  0.10000000000E+01 0.  0.
    9000005    1    3    3    0    0 -0.44122751501E+02  0.25148193486E+02  0.35714171918E+03  0.36073599268E+03  0.10000000000E+01 0.  0.
<mgrwt>
<rscale>  0 0.12499861E+03</rscale>
<asrwt>0</asrwt>
<pdfrwt beam="2">  1        4 0.13248358E-02 0.12499861E+03</pdfrwt>
<pdfrwt beam="1">  1       -4 0.69784923E-01 0.12499861E+03</pdfrwt>
<totfact> 0.58921963E+03</totfact>
</mgrwt>
</event>
<event>
 5    1  0.3245943E-002  0.1250011E+03  0.7818608E-02  0.1235068E+00
         -4   -1    0    0    0  501 -0.00000000000E+00  0.00000000000E+00  0.61981924168E+03  0.61982054279E+03  0.12700000000E+01 0. -1.
          4   -1    0    0  501    0  0.00000000000E+00 -0.00000000000E+00 -0.62370542475E+01  0.63650409022E+01  0.12700000000E+01 0. -1.
         25    2    1    2    0    0  0.00000000000E+00  0.00000000000E+00  0.61358218744E+03  0.62618558369E+03  0.12500113792E+03 0.  0.
    9000005    1    3    3    0    0  0.11695524392E+02 -0.21012843958E+02  0.59573613914E+03  0.59622216697E+03  0.10000000000E+01 0.  0.
    9000005    1    3    3    0    0 -0.11695524392E+02  0.21012843958E+02  0.17846048293E+02  0.29963416722E+02  0.10000000000E+01 0.  0.
<mgrwt>
<rscale>  0 0.12500114E+03</rscale>
<asrwt>0</asrwt>
<pdfrwt beam="2">  1        4 0.96949194E-03 0.12500114E+03</pdfrwt>
<pdfrwt beam="1">  1       -4 0.95366760E-01 0.12500114E+03</pdfrwt>
<totfact> 0.47254165E+03</totfact>
</mgrwt>
</event>
<event>
 5    1  0.3245943E-002  0.1249959E+03  0.7818608E-02  0.1235076E+00
          4   -1    0    0  501    0  0.00000000000E+00  0.00000000000E+00  0.13567760148E+03  0.13568354522E+03  0.12700000000E+01 0.  1.
         -4   -1    0    0    0  501 -0.00000000000E+00 -0.00000000000E+00 -0.28768224897E+02  0.28796243917E+02  0.12700000000E+01 0.  1.
         25    2    1    2    0    0  0.00000000000E+00  0.00000000000E+00  0.10690937658E+03  0.16447978913E+03  0.12499594486E+03 0.  0.
    9000005    1    3    3    0    0  0.54970920968E+01 -0.33068364480E+02  0.12285118594E+03  0.12734656901E+03  0.10000000000E+01 0.  0.
    9000005    1    3    3    0    0 -0.54970920968E+01  0.33068364480E+02 -0.15941809364E+02  0.37133220123E+02  0.10000000000E+01 0.  0.
<mgrwt>
<rscale>  0 0.12499594E+03</rscale>
<asrwt>0</asrwt>
<pdfrwt beam="1">  1        4 0.20876090E-01 0.12499594E+03</pdfrwt>
<pdfrwt beam="2">  1       -4 0.44284933E-02 0.12499594E+03</pdfrwt>
<totfact> 0.96494793E+03</totfact>
</mgrwt>
</event>
<event>
 5    1  0.3245943E-002  0.1250010E+03  0.7818608E-02  0.1235068E+00
          4   -1    0    0  501    0  0.00000000000E+00  0.00000000000E+00  0.48638780400E+02  0.48655357966E+02  0.12700000000E+01 0.  1.
         -4   -1    0    0    0  501 -0.00000000000E+00 -0.00000000000E+00 -0.80277416032E+02  0.80287461193E+02  0.12700000000E+01 0.  1.
         25    2    1    2    0    0  0.00000000000E+00  0.00000000000E+00 -0.31638635632E+02  0.12894281916E+03  0.12500098939E+03 0.  0.
    9000005    1    3    3    0    0 -0.59447170870E+02  0.11840271995E+02 -0.31502497161E+02  0.68319583523E+02  0.10000000000E+01 0.  0.
    9000005    1    3    3    0    0  0.59447170870E+02 -0.11840271995E+02 -0.13613847133E+00  0.60623235636E+02  0.10000000000E+01 0.  0.
<mgrwt>
<rscale>  0 0.12500099E+03</rscale>
<asrwt>0</asrwt>
<pdfrwt beam="1">  1        4 0.74849372E-02 0.12500099E+03</pdfrwt>
<pdfrwt beam="2">  1       -4 0.12352420E-01 0.12500099E+03</pdfrwt>
<totfact> 0.10366944E+04</totfact>
</mgrwt>
</event>
<event>
 5    1  0.3245943E-002  0.1250010E+03  0.7818608E-02  0.1235068E+00
          4   -1    0    0  501    0  0.00000000000E+00  0.00000000000E+00  0.12099003891E+03  0.12099670415E+03  0.12700000000E+01 0.  1.
         -4   -1    0    0    0  501 -0.00000000000E+00 -0.00000000000E+00 -0.32266187201E+02  0.32291171185E+02  0.12700000000E+01 0.  1.
         25    2    1    2    0    0  0.00000000000E+00  0.00000000000E+00  0.88723851707E+02  0.15328787534E+03  0.12500100345E+03 0.  0.
    9000005    1    3    3    0    0  0.19484842440E+02 -0.39021373956E+02 -0.10520495385E+02  0.44877695278E+02  0.10000000000E+01 0.  0.
    9000005    1    3    3    0    0 -0.19484842440E+02  0.39021373956E+02  0.99244347092E+02  0.10841018006E+03  0.10000000000E+01 0.  0.
<mgrwt>
<rscale>  0 0.12500100E+03</rscale>
<asrwt>0</asrwt>
<pdfrwt beam="1">  1        4 0.18616287E-01 0.12500100E+03</pdfrwt>
<pdfrwt beam="2">  1       -4 0.49664633E-02 0.12500100E+03</pdfrwt>
<totfact> 0.98650074E+03</totfact>
</mgrwt>
</event>
<event>
 4    1  0.3245943E-002  0.1250811E+03  0.7818608E-02  0.1234943E+00
         -4   -1    0    0    0  501 -0.00000000000E+00  0.00000000000E+00  0.12179550977E+03  0.12180213094E+03  0.12700000000E+01 0. -1.
          4   -1    0    0  501    0  0.00000000000E+00 -0.00000000000E+00 -0.32093760207E+02  0.32118878315E+02  0.12700000000E+01 0. -1.
    9000005    1    1    2    0    0  0.98775395561E+01  0.53174265505E+02  0.83476858149E+02  0.99470870843E+02  0.10000000000E+01 0.  0.
    9000005    1    1    2    0    0 -0.98775395561E+01 -0.53174265505E+02  0.62248914172E+01  0.54450138410E+02  0.10000000000E+01 0.  0.
<mgrwt>
<rscale>  0 0.12508107E+03</rscale>
<asrwt>0</asrwt>
<pdfrwt beam="2">  1        4 0.49399432E-02 0.12508107E+03</pdfrwt>
<pdfrwt beam="1">  1       -4 0.18740212E-01 0.12508107E+03</pdfrwt>
<totfact> 0.98348296E+03</totfact>
</mgrwt>
</event>
<event>
 5    1  0.3245943E-002  0.1249985E+03  0.7818608E-02  0.1235072E+00
          4   -1    0    0  501    0  0.00000000000E+00  0.00000000000E+00  0.72663814873E+03  0.72663925857E+03  0.12700000000E+01 0. -1.
         -4   -1    0    0    0  501 -0.00000000000E+00 -0.00000000000E+00 -0.52995163704E+01  0.54495663827E+01  0.12700000000E+01 0. -1.
         25    2    1    2    0    0  0.00000000000E+00  0.00000000000E+00  0.72133863236E+03  0.73208882495E+03  0.12499850031E+03 0.  0.
    9000005    1    3    3    0    0 -0.42280263126E+02  0.14658885058E+02  0.10520000505E+03  0.11432648260E+03  0.10000000000E+01 0.  0.
    9000005    1    3    3    0    0  0.42280263126E+02 -0.14658885058E+02  0.61613862732E+03  0.61776234236E+03  0.10000000000E+01 0.  0.
<mgrwt>
<rscale>  0 0.12499850E+03</rscale>
<asrwt>0</asrwt>
<pdfrwt beam="1">  1        4 0.11180206E+00 0.12499850E+03</pdfrwt>
<pdfrwt beam="2">  1       -4 0.82693829E-03 0.12499850E+03</pdfrwt>
<totfact> 0.41447205E+03</totfact>
</mgrwt>
</event>
<event>
 5    1  0.3245943E-002  0.1250321E+03  0.7818608E-02  0.1235019E+00
          4   -1    0    0  501    0  0.00000000000E+00  0.00000000000E+00  0.33096744809E+03  0.33096988473E+03  0.12700000000E+01 0.  1.
         -4   -1    0    0    0  501 -0.00000000000E+00 -0.00000000000E+00 -0.11771953198E+02  0.11840261066E+02  0.12700000000E+01 0.  1.
         25    2    1    2    0    0  0.00000000000E+00  0.00000000000E+00  0.31919549489E+03  0.34281014579E+03  0.12503212427E+03 0.  0.
    9000005    1    3    3    0    0 -0.30112955020E+02 -0.46697452210E+02  0.23810146644E+03  0.24450102336E+03  0.10000000000E+01 0.  0.
    9000005    1    3    3    0    0  0.30112955020E+02  0.46697452210E+02  0.81094028457E+02  0.98309122437E+02  0.10000000000E+01 0.  0.
<mgrwt>
<rscale>  0 0.12503212E+03</rscale>
<asrwt>0</asrwt>
<pdfrwt beam="1">  1        4 0.50923505E-01 0.12503212E+03</pdfrwt>
<pdfrwt beam="2">  1       -4 0.18165118E-02 0.12503212E+03</pdfrwt>
<totfact> 0.70472708E+03</totfact>
</mgrwt>
</event>
<event>
 5    1  0.3245943E-002  0.1249836E+03  0.7818608E-02  0.1235095E+00
          4   -1    0    0  501    0  0.00000000000E+00  0.00000000000E+00  0.13608358951E+03  0.13608951552E+03  0.12700000000E+01 0.  1.
         -4   -1    0    0    0  501 -0.00000000000E+00 -0.00000000000E+00 -0.28676650161E+02  0.28704758568E+02  0.12700000000E+01 0.  1.
         25    2    1    2    0    0  0.00000000000E+00  0.00000000000E+00  0.10740693935E+03  0.16479427409E+03  0.12498360753E+03 0.  0.
    9000005    1    3    3    0    0 -0.57409968114E+02 -0.23091100313E+02  0.42275392405E+02  0.74948730180E+02  0.10000000000E+01 0.  0.
    9000005    1    3    3    0    0  0.57409968114E+02  0.23091100313E+02  0.65131546946E+02  0.89845543908E+02  0.10000000000E+01 0.  0.
<mgrwt>
<rscale>  0 0.12498361E+03</rscale>
<asrwt>0</asrwt>
<pdfrwt beam="1">  1        4 0.20938555E-01 0.12498361E+03</pdfrwt>
<pdfrwt beam="2">  1       -4 0.44144104E-02 0.12498361E+03</pdfrwt>
<totfact> 0.96461886E+03</totfact>
</mgrwt>
</event>
<event>
 5    1  0.3245943E-002  0.1250069E+03  0.7818608E-02  0.1235058E+00
         -4   -1    0    0    0  501 -0.00000000000E+00  0.00000000000E+00  0.13339774031E+03  0.13340378563E+03  0.12700000000E+01 0.  1.
          4   -1    0    0  501    0  0.00000000000E+00 -0.00000000000E+00 -0.29265488469E+02  0.29293031856E+02  0.12700000000E+01 0.  1.
         25    2    1    2    0    0  0.00000000000E+00  0.00000000000E+00  0.10413225184E+03  0.16269681748E+03  0.12500691399E+03 0.  0.
    9000005    1    3    3    0    0  0.47213684214E+02 -0.81686453153E+01 -0.15354621855E+00  0.47925800147E+02  0.10000000000E+01 0.  0.
    9000005    1    3    3    0    0 -0.47213684214E+02  0.81686453153E+01  0.10428579806E+03  0.11477101734E+03  0.10000000000E+01 0.  0.
<mgrwt>
<rscale>  0 0.12500691E+03</rscale>
<asrwt>0</asrwt>
<pdfrwt beam="2">  1        4 0.45049666E-02 0.12500691E+03</pdfrwt>
<pdfrwt beam="1">  1       -4 0.20525313E-01 0.12500691E+03</pdfrwt>
<totfact> 0.96810324E+03</totfact>
</mgrwt>
</event>
<event>
 5    1  0.3245943E-002  0.1250063E+03  0.7818608E-02  0.1235059E+00
         -4   -1    0    0    0  501 -0.00000000000E+00  0.00000000000E+00  0.10371872622E+04  0.10371880398E+04  0.12700000000E+01 0. -1.
          4   -1    0    0  501    0  0.00000000000E+00 -0.00000000000E+00 -0.36587204632E+01  0.38728717288E+01  0.12700000000E+01 0. -1.
         25    2    1    2    0    0  0.00000000000E+00  0.00000000000E+00  0.10335285418E+04  0.10410609115E+04  0.12500629902E+03 0.  0.
    9000005    1    3    3    0    0  0.57112649679E+01 -0.42350329142E+02  0.13699390680E+03  0.14350783751E+03  0.10000000000E+01 0.  0.
    9000005    1    3    3    0    0 -0.57112649679E+01  0.42350329142E+02  0.89653463496E+03  0.89755307397E+03  0.10000000000E+01 0.  0.
<mgrwt>
<rscale>  0 0.12500630E+03</rscale>
<asrwt>0</asrwt>
<pdfrwt beam="2">  1        4 0.57941287E-03 0.12500630E+03</pdfrwt>
<pdfrwt beam="1">  1       -4 0.15958385E+00 0.12500630E+03</pdfrwt>
<totfact> 0.29271497E+03</totfact>
</mgrwt>
</event>
<event>
 5    1  0.3245943E-002  0.1249510E+03  0.7818608E-02  0.1235146E+00
          4   -1    0    0  501    0  0.00000000000E+00  0.00000000000E+00  0.16101312596E+02  0.16151320916E+02  0.12700000000E+01 0. -1.
         -4   -1    0    0    0  501 -0.00000000000E+00 -0.00000000000E+00 -0.24198666270E+03  0.24198999530E+03  0.12700000000E+01 0. -1.
         25    2    1    2    0    0  0.00000000000E+00  0.00000000000E+00 -0.22588535010E+03  0.25814131621E+03  0.12495098137E+03 0.  0.
    9000005    1    3    3    0    0  0.61656214083E+02  0.55019154923E+01 -0.95605120701E+02  0.11389951235E+03  0.10000000000E+01 0.  0.
    9000005    1    3    3    0    0 -0.61656214083E+02 -0.55019154923E+01 -0.13028022940E+03  0.14424180386E+03  0.10000000000E+01 0.  0.
<mgrwt>
<rscale>  0 0.12495098E+03</rscale>
<asrwt>0</asrwt>
<pdfrwt beam="1">  1        4 0.24812283E-02 0.12495098E+03</pdfrwt>
<pdfrwt beam="2">  1       -4 0.37232818E-01 0.12495098E+03</pdfrwt>
<totfact> 0.81256253E+03</totfact>
</mgrwt>
</event>
<event>
 5    1  0.3245943E-002  0.1249989E+03  0.7818608E-02  0.1235071E+00
          4   -1    0    0  501    0  0.00000000000E+00  0.00000000000E+00  0.14572310500E+02  0.14627547070E+02  0.12700000000E+01 0. -1.
         -4   -1    0    0    0  501 -0.00000000000E+00 -0.00000000000E+00 -0.26749118558E+03  0.26749420043E+03  0.12700000000E+01 0. -1.
         25    2    1    2    0    0  0.00000000000E+00  0.00000000000E+00 -0.25291887508E+03  0.28212174750E+03  0.12499889216E+03 0.  0.
    9000005    1    3    3    0    0  0.38802643511E+02 -0.33677975617E+02 -0.46174840702E+02  0.69086663684E+02  0.10000000000E+01 0.  0.
    9000005    1    3    3    0    0 -0.38802643511E+02  0.33677975617E+02 -0.20674403438E+03  0.21303508382E+03  0.10000000000E+01 0.  0.
<mgrwt>
<rscale>  0 0.12499889E+03</rscale>
<asrwt>0</asrwt>
<pdfrwt beam="1">  1        4 0.22463750E-02 0.12499889E+03</pdfrwt>
<pdfrwt beam="2">  1       -4 0.41156967E-01 0.12499889E+03</pdfrwt>
<totfact> 0.77899535E+03</totfact>
</mgrwt>
</event>
<event>
 5    1  0.3245943E-002  0.1249960E+03  0.7818608E-02  0.1235076E+00
         -4   -1    0    0    0  501 -0.00000000000E+00  0.00000000000E+00  0.10858682746E+03  0.10859425398E+03  0.12700000000E+01 0.  1.
          4   -1    0    0  501    0  0.00000000000E+00 -0.00000000000E+00 -0.35951337122E+02  0.35973761839E+02  0.12700000000E+01 0.  1.
         25    2    1    2    0    0  0.00000000000E+00  0.00000000000E+00  0.72635490337E+02  0.14456801582E+03  0.12499598690E+03 0.  0.
    9000005    1    3    3    0    0  0.20689899517E+02 -0.41553395071E+02 -0.12068873701E+02  0.47973058026E+02  0.10000000000E+01 0.  0.
    9000005    1    3    3    0    0 -0.20689899517E+02  0.41553395071E+02  0.84704364038E+02  0.96594957793E+02  0.10000000000E+01 0.  0.
<mgrwt>
<rscale>  0 0.12499599E+03</rscale>
<asrwt>0</asrwt>
<pdfrwt beam="2">  1        4 0.55332713E-02 0.12499599E+03</pdfrwt>
<pdfrwt beam="1">  1       -4 0.16707962E-01 0.12499599E+03</pdfrwt>
<totfact> 0.10040680E+04</totfact>
</mgrwt>
</event>
<event>
 5    1  0.3245943E-002  0.1249998E+03  0.7818608E-02  0.1235070E+00
         -4   -1    0    0    0  501 -0.00000000000E+00  0.00000000000E+00  0.65630845122E+01  0.66848319586E+01  0.12700000000E+01 0.  1.
          4   -1    0    0  501    0  0.00000000000E+00 -0.00000000000E+00 -0.58959106658E+03  0.58959243439E+03  0.12700000000E+01 0.  1.
         25    2    1    2    0    0  0.00000000000E+00  0.00000000000E+00 -0.58302798207E+03  0.59627726635E+03  0.12499980196E+03 0.  0.
    9000005    1    3    3    0    0  0.27708425211E+02  0.54827480183E+02 -0.34620088106E+03  0.35161038019E+03  0.10000000000E+01 0.  0.
    9000005    1    3    3    0    0 -0.27708425211E+02 -0.54827480183E+02 -0.23682710101E+03  0.24466688616E+03  0.10000000000E+01 0.  0.
<mgrwt>
<rscale>  0 0.12499980E+03</rscale>
<asrwt>0</asrwt>
<pdfrwt beam="2">  1        4 0.90715747E-01 0.12499980E+03</pdfrwt>
<pdfrwt beam="1">  1       -4 0.10191762E-02 0.12499980E+03</pdfrwt>
<totfact> 0.49103676E+03</totfact>
</mgrwt>
</event>
<event>
 5    1  0.3245943E-002  0.1250004E+03  0.7818608E-02  0.1235069E+00
          4   -1    0    0  501    0  0.00000000000E+00  0.00000000000E+00  0.47492869372E+02  0.47509846782E+02  0.12700000000E+01 0. -1.
         -4   -1    0    0    0  501 -0.00000000000E+00 -0.00000000000E+00 -0.82213152990E+02  0.82222961663E+02  0.12700000000E+01 0. -1.
         25    2    1    2    0    0  0.00000000000E+00  0.00000000000E+00 -0.34720283618E+02  0.12973280844E+03  0.12500041397E+03 0.  0.
    9000005    1    3    3    0    0 -0.24948768548E+02 -0.37001026657E+02  0.28042588930E+02  0.52715309159E+02  0.10000000000E+01 0.  0.
    9000005    1    3    3    0    0  0.24948768548E+02  0.37001026657E+02 -0.62762872548E+02  0.77017499286E+02  0.10000000000E+01 0.  0.
<mgrwt>
<rscale>  0 0.12500041E+03</rscale>
<asrwt>0</asrwt>
<pdfrwt beam="1">  1        4 0.73086558E-02 0.12500041E+03</pdfrwt>
<pdfrwt beam="2">  1       -4 0.12650238E-01 0.12500041E+03</pdfrwt>
<totfact> 0.10350130E+04</totfact>
</mgrwt>
</event>
<event>
 5    1  0.3245943E-002  0.1250014E+03  0.7818608E-02  0.1235067E+00
         -4   -1    0    0    0  501 -0.00000000000E+00  0.00000000000E+00  0.32965622402E+02  0.32990076695E+02  0.12700000000E+01 0.  1.
          4   -1    0    0  501    0  0.00000000000E+00 -0.00000000000E+00 -0.11842549721E+03  0.11843230678E+03  0.12700000000E+01 0.  1.
         25    2    1    2    0    0  0.00000000000E+00  0.00000000000E+00 -0.85459874805E+02  0.15142238347E+03  0.12500139205E+03 0.  0.
    9000005    1    3    3    0    0  0.15918161481E+02 -0.44067649794E+02  0.73625028793E+01  0.47439983894E+02  0.10000000000E+01 0.  0.
    9000005    1    3    3    0    0 -0.15918161481E+02  0.44067649794E+02 -0.92822377684E+02  0.10398239958E+03  0.10000000000E+01 0.  0.
<mgrwt>
<rscale>  0 0.12500139E+03</rscale>
<asrwt>0</asrwt>
<pdfrwt beam="2">  1        4 0.18221712E-01 0.12500139E+03</pdfrwt>
<pdfrwt beam="1">  1       -4 0.50740392E-02 0.12500139E+03</pdfrwt>
<totfact> 0.99017818E+03</totfact>
</mgrwt>
</event>
<event>
 4    1  0.3245943E-002  0.1241742E+03  0.7818608E-02  0.1236366E+00
         -4   -1    0    0    0  501 -0.00000000000E+00  0.00000000000E+00  0.55029031770E+02  0.55043684811E+02  0.12700000000E+01 0. -1.
          4   -1    0    0  501    0  0.00000000000E+00 -0.00000000000E+00 -0.70020668718E+02  0.70032185084E+02  0.12700000000E+01 0. -1.
    9000005    1    1    2    0    0 -0.27271810770E+02 -0.11839226172E+02  0.47396584208E+02  0.55958512611E+02  0.10000000000E+01 0.  0.
    9000005    1    1    2    0    0  0.27271810770E+02  0.11839226172E+02 -0.62388221155E+02  0.69117357284E+02  0.10000000000E+01 0.  0.
<mgrwt>
<rscale>  0 0.12417417E+03</rscale>
<asrwt>0</asrwt>
<pdfrwt beam="2">  1        4 0.10774424E-01 0.12417417E+03</pdfrwt>
<pdfrwt beam="1">  1       -4 0.84680179E-02 0.12417417E+03</pdfrwt>
<totfact> 0.10648449E+04</totfact>
</mgrwt>
</event>
<event>
 5    1  0.3245943E-002  0.1250007E+03  0.7818608E-02  0.1235068E+00
          4   -1    0    0  501    0  0.00000000000E+00  0.00000000000E+00  0.15772654972E+02  0.15823701997E+02  0.12700000000E+01 0. -1.
         -4   -1    0    0    0  501 -0.00000000000E+00 -0.00000000000E+00 -0.24720949706E+03  0.24721275926E+03  0.12700000000E+01 0. -1.
         25    2    1    2    0    0  0.00000000000E+00  0.00000000000E+00 -0.23143684209E+03  0.26303646125E+03  0.12500067228E+03 0.  0.
    9000005    1    3    3    0    0  0.38868036926E+02 -0.44674085989E+02 -0.73696317965E+02  0.94544410386E+02  0.10000000000E+01 0.  0.
    9000005    1    3    3    0    0 -0.38868036926E+02  0.44674085989E+02 -0.15774052413E+03  0.16849205087E+03  0.10000000000E+01 0.  0.
<mgrwt>
<rscale>  0 0.12500067E+03</rscale>
<asrwt>0</asrwt>
<pdfrwt beam="1">  1        4 0.24307401E-02 0.12500067E+03</pdfrwt>
<pdfrwt beam="2">  1       -4 0.38036405E-01 0.12500067E+03</pdfrwt>
<totfact> 0.80480613E+03</totfact>
</mgrwt>
</event>
<event>
 5    1  0.3245943E-002  0.1250000E+03  0.7818608E-02  0.1235069E+00
         -4   -1    0    0    0  501 -0.00000000000E+00  0.00000000000E+00  0.17001046787E+03  0.17001521133E+03  0.12700000000E+01 0. -1.
          4   -1    0    0  501    0  0.00000000000E+00 -0.00000000000E+00 -0.22953907869E+02  0.22989014473E+02  0.12700000000E+01 0. -1.
         25    2    1    2    0    0  0.00000000000E+00  0.00000000000E+00  0.14705656000E+03  0.19300422581E+03  0.12499999736E+03 0.  0.
    9000005    1    3    3    0    0  0.32093613238E+02  0.14686588919E+02 -0.60988778769E+01  0.35831441725E+02  0.10000000000E+01 0.  0.
    9000005    1    3    3    0    0 -0.32093613238E+02 -0.14686588919E+02  0.15315543788E+03  0.15717278408E+03  0.10000000000E+01 0.  0.
<mgrwt>
<rscale>  0 0.12500000E+03</rscale>
<asrwt>0</asrwt>
<pdfrwt beam="2">  1        4 0.35344358E-02 0.12500000E+03</pdfrwt>
<pdfrwt beam="1">  1       -4 0.26158522E-01 0.12500000E+03</pdfrwt>
<totfact> 0.91327206E+03</totfact>
</mgrwt>
</event>
<event>
 5    1  0.3245943E-002  0.1250003E+03  0.7818608E-02  0.1235069E+00
         -4   -1    0    0    0  501 -0.00000000000E+00  0.00000000000E+00  0.10606007865E+03  0.10606768209E+03  0.12700000000E+01 0. -1.
          4   -1    0    0  501    0  0.00000000000E+00 -0.00000000000E+00 -0.36810828438E+02  0.36832729878E+02  0.12700000000E+01 0. -1.
         25    2    1    2    0    0  0.00000000000E+00  0.00000000000E+00  0.69249250216E+02  0.14290041197E+03  0.12500027634E+03 0.  0.
    9000005    1    3    3    0    0 -0.78746334337E+01  0.61991142742E+02  0.33942869877E+02  0.71119828780E+02  0.10000000000E+01 0.  0.
    9000005    1    3    3    0    0  0.78746334337E+01 -0.61991142742E+02  0.35306380339E+02  0.71780583188E+02  0.10000000000E+01 0.  0.
<mgrwt>
<rscale>  0 0.12500028E+03</rscale>
<asrwt>0</asrwt>
<pdfrwt beam="2">  1        4 0.56654740E-02 0.12500028E+03</pdfrwt>
<pdfrwt beam="1">  1       -4 0.16319205E-01 0.12500028E+03</pdfrwt>
<totfact> 0.10073760E+04</totfact>
</mgrwt>
</event>
<event>
 5    1  0.3245943E-002  0.1249937E+03  0.7818608E-02  0.1235079E+00
          4   -1    0    0  501    0  0.00000000000E+00  0.00000000000E+00  0.12790018952E+04  0.12790025257E+04  0.12700000000E+01 0. -1.
         -4   -1    0    0    0  501 -0.00000000000E+00 -0.00000000000E+00 -0.29211345484E+01  0.31852671866E+01  0.12700000000E+01 0. -1.
         25    2    1    2    0    0  0.00000000000E+00  0.00000000000E+00  0.12760807606E+04  0.12821877929E+04  0.12499371424E+03 0.  0.
    9000005    1    3    3    0    0 -0.10273793649E+01 -0.49942976860E+02  0.25292034485E+03  0.25780817924E+03  0.10000000000E+01 0.  0.
    9000005    1    3    3    0    0  0.10273793649E+01  0.49942976860E+02  0.10231604158E+04  0.10243796137E+04  0.10000000000E+01 0.  0.
<mgrwt>
<rscale>  0 0.12499371E+03</rscale>
<asrwt>0</asrwt>
<pdfrwt beam="1">  1        4 0.19679050E+00 0.12499371E+03</pdfrwt>
<pdfrwt beam="2">  1       -4 0.46977026E-03 0.12499371E+03</pdfrwt>
<totfact> 0.22655870E+03</totfact>
</mgrwt>
</event>
<event>
 5    1  0.3245943E-002  0.1249991E+03  0.7818608E-02  0.1235071E+00
          4   -1    0    0  501    0  0.00000000000E+00  0.00000000000E+00  0.50901923660E+02  0.50917764408E+02  0.12700000000E+01 0. -1.
         -4   -1    0    0    0  501 -0.00000000000E+00 -0.00000000000E+00 -0.76706584986E+02  0.76717097704E+02  0.12700000000E+01 0. -1.
         25    2    1    2    0    0  0.00000000000E+00  0.00000000000E+00 -0.25804661325E+02  0.12763486211E+03  0.12499910992E+03 0.  0.
    9000005    1    3    3    0    0 -0.37353543051E+02 -0.28515983389E+02 -0.54962478518E+02  0.72320968826E+02  0.10000000000E+01 0.  0.
    9000005    1    3    3    0    0  0.37353543051E+02  0.28515983389E+02  0.29157817192E+02  0.55313893287E+02  0.10000000000E+01 0.  0.
<mgrwt>
<rscale>  0 0.12499911E+03</rscale>
<asrwt>0</asrwt>
<pdfrwt beam="1">  1        4 0.78330924E-02 0.12499911E+03</pdfrwt>
<pdfrwt beam="2">  1       -4 0.11803040E-01 0.12499911E+03</pdfrwt>
<totfact> 0.10395590E+04</totfact>
</mgrwt>
</event>
<event>
 5    1  0.3245943E-002  0.1249993E+03  0.7818608E-02  0.1235070E+00
          4   -1    0    0  501    0  0.00000000000E+00  0.00000000000E+00  0.24177518757E+02  0.24210851147E+02  0.12700000000E+01 0.  1.
         -4   -1    0    0    0  501 -0.00000000000E+00 -0.00000000000E+00 -0.16141655364E+03  0.16142154964E+03  0.12700000000E+01 0.  1.
         25    2    1    2    0    0  0.00000000000E+00  0.00000000000E+00 -0.13723903488E+03  0.18563240078E+03  0.12499934211E+03 0.  0.
    9000005    1    3    3    0    0 -0.11236540807E+02 -0.44988078032E+02 -0.64056327029E+01  0.46821139933E+02  0.10000000000E+01 0.  0.
    9000005    1    3    3    0    0  0.11236540807E+02  0.44988078032E+02 -0.13083340218E+03  0.13881126085E+03  0.10000000000E+01 0.  0.
<mgrwt>
<rscale>  0 0.12499934E+03</rscale>
<asrwt>0</asrwt>
<pdfrwt beam="1">  1        4 0.37225667E-02 0.12499934E+03</pdfrwt>
<pdfrwt beam="2">  1       -4 0.24836264E-01 0.12499934E+03</pdfrwt>
<totfact> 0.92614231E+03</totfact>
</mgrwt>
</event>
<event>
 5    1  0.3245943E-002  0.1250052E+03  0.7818608E-02  0.1235061E+00
         -4   -1    0    0    0  501 -0.00000000000E+00  0.00000000000E+00  0.16395884071E+03  0.16396375925E+03  0.12700000000E+01 0.  1.
          4   -1    0    0  501    0  0.00000000000E+00 -0.00000000000E+00 -0.23804352677E+02  0.23838206861E+02  0.12700000000E+01 0.  1.
         25    2    1    2    0    0  0.00000000000E+00  0.00000000000E+00  0.14015448804E+03  0.18780196611E+03  0.12500519173E+03 0.  0.
    9000005    1    3    3    0    0  0.57096712423E+02  0.22310426776E+02  0.88340867065E+02  0.10753091884E+03  0.10000000000E+01 0.  0.
    9000005    1    3    3    0    0 -0.57096712423E+02 -0.22310426776E+02  0.51813620973E+02  0.80271047276E+02  0.10000000000E+01 0.  0.
<mgrwt>
<rscale>  0 0.12500519E+03</rscale>
<asrwt>0</asrwt>
<pdfrwt beam="2">  1        4 0.36651905E-02 0.12500519E+03</pdfrwt>
<pdfrwt beam="1">  1       -4 0.25227420E-01 0.12500519E+03</pdfrwt>
<totfact> 0.92220449E+03</totfact>
</mgrwt>
</event>
<event>
 5    1  0.3245943E-002  0.1249915E+03  0.7818608E-02  0.1235083E+00
         -4   -1    0    0    0  501 -0.00000000000E+00  0.00000000000E+00  0.42966254175E+03  0.42966441869E+03  0.12700000000E+01 0. -1.
          4   -1    0    0  501    0  0.00000000000E+00 -0.00000000000E+00 -0.90439353591E+01  0.91326702984E+01  0.12700000000E+01 0. -1.
         25    2    1    2    0    0  0.00000000000E+00  0.00000000000E+00  0.42061860639E+03  0.43879708898E+03  0.12499149274E+03 0.  0.
    9000005    1    3    3    0    0 -0.57090380235E+02  0.44943220821E+01  0.29808928781E+03  0.30354198055E+03  0.10000000000E+01 0.  0.
    9000005    1    3    3    0    0  0.57090380235E+02 -0.44943220821E+01  0.12252931858E+03  0.13525510844E+03  0.10000000000E+01 0.  0.
<mgrwt>
<rscale>  0 0.12499149E+03</rscale>
<asrwt>0</asrwt>
<pdfrwt beam="2">  1        4 0.13983443E-02 0.12499149E+03</pdfrwt>
<pdfrwt beam="1">  1       -4 0.66108925E-01 0.12499149E+03</pdfrwt>
<totfact> 0.60958017E+03</totfact>
</mgrwt>
</event>
<event>
 5    1  0.3245943E-002  0.1250009E+03  0.7818608E-02  0.1235068E+00
         -4   -1    0    0    0  501 -0.00000000000E+00  0.00000000000E+00  0.25212003547E+02  0.25243970030E+02  0.12700000000E+01 0. -1.
          4   -1    0    0  501    0  0.00000000000E+00 -0.00000000000E+00 -0.15480570261E+03  0.15481091196E+03  0.12700000000E+01 0. -1.
         25    2    1    2    0    0  0.00000000000E+00  0.00000000000E+00 -0.12959369906E+03  0.18005488199E+03  0.12500093476E+03 0.  0.
    9000005    1    3    3    0    0  0.46798062385E+01 -0.58815452828E+02 -0.35131357718E+02  0.68675835437E+02  0.10000000000E+01 0.  0.
    9000005    1    3    3    0    0 -0.46798062385E+01  0.58815452828E+02 -0.94462341344E+02  0.11137904655E+03  0.10000000000E+01 0.  0.
<mgrwt>
<rscale>  0 0.12500093E+03</rscale>
<asrwt>0</asrwt>
<pdfrwt beam="2">  1        4 0.23819121E-01 0.12500093E+03</pdfrwt>
<pdfrwt beam="1">  1       -4 0.38816295E-02 0.12500093E+03</pdfrwt>
<totfact> 0.93605163E+03</totfact>
</mgrwt>
</event>
<event>
 5    1  0.3245943E-002  0.1250035E+03  0.7818608E-02  0.1235064E+00
         -4   -1    0    0    0  501 -0.00000000000E+00  0.00000000000E+00  0.19707957468E+03  0.19708366664E+03  0.12700000000E+01 0.  1.
          4   -1    0    0  501    0  0.00000000000E+00 -0.00000000000E+00 -0.19797130617E+02  0.19837824494E+02  0.12700000000E+01 0.  1.
         25    2    1    2    0    0  0.00000000000E+00  0.00000000000E+00  0.17728244407E+03  0.21692149114E+03  0.12500347332E+03 0.  0.
    9000005    1    3    3    0    0 -0.14516758142E+02 -0.54595968835E+02  0.13501077977E+03  0.14635698390E+03  0.10000000000E+01 0.  0.
    9000005    1    3    3    0    0  0.14516758142E+02  0.54595968835E+02  0.42271664292E+02  0.70564507240E+02  0.10000000000E+01 0.  0.
<mgrwt>
<rscale>  0 0.12500347E+03</rscale>
<asrwt>0</asrwt>
<pdfrwt beam="2">  1        4 0.30491575E-02 0.12500347E+03</pdfrwt>
<pdfrwt beam="1">  1       -4 0.30323379E-01 0.12500347E+03</pdfrwt>
<totfact> 0.87351060E+03</totfact>
</mgrwt>
</event>
<event>
 5    1  0.3245943E-002  0.1250000E+03  0.7818608E-02  0.1235069E+00
          4   -1    0    0  501    0  0.00000000000E+00  0.00000000000E+00  0.66150554572E+03  0.66150676483E+03  0.12700000000E+01 0. -1.
         -4   -1    0    0    0  501 -0.00000000000E+00 -0.00000000000E+00 -0.58355645010E+01  0.59721615053E+01  0.12700000000E+01 0. -1.
         25    2    1    2    0    0  0.00000000000E+00  0.00000000000E+00  0.65566998122E+03  0.66747892633E+03  0.12499997133E+03 0.  0.
    9000005    1    3    3    0    0  0.53583643374E+02  0.21644877814E+02  0.45482207530E+03  0.45847990987E+03  0.10000000000E+01 0.  0.
    9000005    1    3    3    0    0 -0.53583643374E+02 -0.21644877814E+02  0.20084790592E+03  0.20899901647E+03  0.10000000000E+01 0.  0.
<mgrwt>
<rscale>  0 0.12499997E+03</rscale>
<asrwt>0</asrwt>
<pdfrwt beam="1">  1        4 0.10178065E+00 0.12499997E+03</pdfrwt>
<pdfrwt beam="2">  1       -4 0.90838072E-03 0.12499997E+03</pdfrwt>
<totfact> 0.44859933E+03</totfact>
</mgrwt>
</event>
<event>
 5    1  0.3245943E-002  0.1249937E+03  0.7818608E-02  0.1235079E+00
          4   -1    0    0  501    0  0.00000000000E+00  0.00000000000E+00  0.15160364614E+03  0.15160896551E+03  0.12700000000E+01 0.  1.
         -4   -1    0    0    0  501 -0.00000000000E+00 -0.00000000000E+00 -0.25742189911E+02  0.25773498820E+02  0.12700000000E+01 0.  1.
         25    2    1    2    0    0  0.00000000000E+00  0.00000000000E+00  0.12586145623E+03  0.17738246433E+03  0.12499372979E+03 0.  0.
    9000005    1    3    3    0    0 -0.37281226253E+02 -0.14528500942E+02  0.13104739930E+03  0.13702331201E+03  0.10000000000E+01 0.  0.
    9000005    1    3    3    0    0  0.37281226253E+02  0.14528500942E+02 -0.51859430701E+01  0.40359152321E+02  0.10000000000E+01 0.  0.
<mgrwt>
<rscale>  0 0.12499373E+03</rscale>
<asrwt>0</asrwt>
<pdfrwt beam="1">  1        4 0.23326455E-01 0.12499373E+03</pdfrwt>
<pdfrwt beam="2">  1       -4 0.39631545E-02 0.12499373E+03</pdfrwt>
<totfact> 0.94103534E+03</totfact>
</mgrwt>
</event>
<event>
 5    1  0.3245943E-002  0.1250011E+03  0.7818608E-02  0.1235068E+00
         -4   -1    0    0    0  501 -0.00000000000E+00  0.00000000000E+00  0.20031871648E+02  0.20072089620E+02  0.12700000000E+01 0. -1.
          4   -1    0    0  501    0  0.00000000000E+00 -0.00000000000E+00 -0.19476725200E+03  0.19477139254E+03  0.12700000000E+01 0. -1.
         25    2    1    2    0    0  0.00000000000E+00  0.00000000000E+00 -0.17473538036E+03  0.21484348216E+03  0.12500107471E+03 0.  0.
    9000005    1    3    3    0    0  0.18447278123E+01 -0.26900343139E+02 -0.18426347885E+03  0.18622851855E+03  0.10000000000E+01 0.  0.
    9000005    1    3    3    0    0 -0.18447278123E+01  0.26900343139E+02  0.95280984966E+01  0.28614963614E+02  0.10000000000E+01 0.  0.
<mgrwt>
<rscale>  0 0.12500107E+03</rscale>
<asrwt>0</asrwt>
<pdfrwt beam="2">  1        4 0.29967604E-01 0.12500107E+03</pdfrwt>
<pdfrwt beam="1">  1       -4 0.30852387E-02 0.12500107E+03</pdfrwt>
<totfact> 0.87688830E+03</totfact>
</mgrwt>
</event>
<event>
 5    1  0.3245943E-002  0.1249612E+03  0.7818608E-02  0.1235130E+00
         -4   -1    0    0    0  501 -0.00000000000E+00  0.00000000000E+00  0.45004462889E+02  0.45022378657E+02  0.12700000000E+01 0.  1.
          4   -1    0    0  501    0  0.00000000000E+00 -0.00000000000E+00 -0.86703221613E+02  0.86712522383E+02  0.12700000000E+01 0.  1.
         25    2    1    2    0    0  0.00000000000E+00  0.00000000000E+00 -0.41698758724E+02  0.13173490104E+03  0.12496118467E+03 0.  0.
    9000005    1    3    3    0    0  0.35429818947E+02 -0.15817856698E+02 -0.72466198072E+02  0.82206000536E+02  0.10000000000E+01 0.  0.
    9000005    1    3    3    0    0 -0.35429818947E+02  0.15817856698E+02  0.30767439348E+02  0.49528900505E+02  0.10000000000E+01 0.  0.
<mgrwt>
<rscale>  0 0.12496118E+03</rscale>
<asrwt>0</asrwt>
<pdfrwt beam="2">  1        4 0.13341051E-01 0.12496118E+03</pdfrwt>
<pdfrwt beam="1">  1       -4 0.69258571E-02 0.12496118E+03</pdfrwt>
<totfact> 0.10316391E+04</totfact>
</mgrwt>
</event>
<event>
 5    1  0.3245943E-002  0.1250001E+03  0.7818608E-02  0.1235069E+00
          4   -1    0    0  501    0  0.00000000000E+00  0.00000000000E+00  0.16491328717E+03  0.16491817724E+03  0.12700000000E+01 0. -1.
         -4   -1    0    0    0  501 -0.00000000000E+00 -0.00000000000E+00 -0.23664462792E+02  0.23698516815E+02  0.12700000000E+01 0. -1.
         25    2    1    2    0    0  0.00000000000E+00  0.00000000000E+00  0.14124882437E+03  0.18861669406E+03  0.12500010756E+03 0.  0.
    9000005    1    3    3    0    0 -0.29532548399E+02  0.25978094197E+02 -0.26516736665E+01  0.39434301899E+02  0.10000000000E+01 0.  0.
    9000005    1    3    3    0    0  0.29532548399E+02 -0.25978094197E+02  0.14390049804E+03  0.14918239216E+03  0.10000000000E+01 0.  0.
<mgrwt>
<rscale>  0 0.12500011E+03</rscale>
<asrwt>0</asrwt>
<pdfrwt beam="1">  1        4 0.25374270E-01 0.12500011E+03</pdfrwt>
<pdfrwt beam="2">  1       -4 0.36436824E-02 0.12500011E+03</pdfrwt>
<totfact> 0.92088342E+03</totfact>
</mgrwt>
</event>
<event>
 5    1  0.3245943E-002  0.1250064E+03  0.7818608E-02  0.1235059E+00
         -4   -1    0    0    0  501 -0.00000000000E+00  0.00000000000E+00  0.14834949363E+04  0.14834954799E+04  0.12700000000E+01 0.  1.
          4   -1    0    0  501    0  0.00000000000E+00 -0.00000000000E+00 -0.24797153081E+01  0.27860165127E+01  0.12700000000E+01 0.  1.
         25    2    1    2    0    0  0.00000000000E+00  0.00000000000E+00  0.14810152210E+04  0.14862814964E+04  0.12500640709E+03 0.  0.
    9000005    1    3    3    0    0 -0.59986073386E+02 -0.89530558064E+01  0.56130728848E+03  0.56457537877E+03  0.10000000000E+01 0.  0.
    9000005    1    3    3    0    0  0.59986073386E+02  0.89530558064E+01  0.91970793249E+03  0.92170611763E+03  0.10000000000E+01 0.  0.
<mgrwt>
<rscale>  0 0.12500641E+03</rscale>
<asrwt>0</asrwt>
<pdfrwt beam="2">  1        4 0.40509817E-03 0.12500641E+03</pdfrwt>
<pdfrwt beam="1">  1       -4 0.22825356E+00 0.12500641E+03</pdfrwt>
<totfact> 0.18199089E+03</totfact>
</mgrwt>
</event>
<event>
 5    1  0.3245943E-002  0.1249889E+03  0.7818608E-02  0.1235087E+00
          4   -1    0    0  501    0  0.00000000000E+00  0.00000000000E+00  0.43101769376E+03  0.43101956479E+03  0.12700000000E+01 0.  1.
         -4   -1    0    0    0  501 -0.00000000000E+00 -0.00000000000E+00 -0.90148475952E+01  0.91038660560E+01  0.12700000000E+01 0.  1.
         25    2    1    2    0    0  0.00000000000E+00  0.00000000000E+00  0.42200284616E+03  0.44012343085E+03  0.12498892835E+03 0.  0.
    9000005    1    3    3    0    0 -0.60299407943E+02  0.37930156248E+01  0.15486430323E+03  0.16623585047E+03  0.10000000000E+01 0.  0.
    9000005    1    3    3    0    0  0.60299407943E+02 -0.37930156248E+01  0.26713854293E+03  0.27388758037E+03  0.10000000000E+01 0.  0.
<mgrwt>
<rscale>  0 0.12498893E+03</rscale>
<asrwt>0</asrwt>
<pdfrwt beam="1">  1        4 0.66317423E-01 0.12498893E+03</pdfrwt>
<pdfrwt beam="2">  1       -4 0.13938908E-02 0.12498893E+03</pdfrwt>
<totfact> 0.60843796E+03</totfact>
</mgrwt>
</event>
<event>
 5    1  0.3245943E-002  0.1249994E+03  0.7818608E-02  0.1235070E+00
         -4   -1    0    0    0  501 -0.00000000000E+00  0.00000000000E+00  0.40318913152E+01  0.42271796245E+01  0.12700000000E+01 0. -1.
          4   -1    0    0  501    0  0.00000000000E+00 -0.00000000000E+00 -0.94572510603E+03  0.94572595876E+03  0.12700000000E+01 0. -1.
         25    2    1    2    0    0  0.00000000000E+00  0.00000000000E+00 -0.94169321472E+03  0.94995313839E+03  0.12499941796E+03 0.  0.
    9000005    1    3    3    0    0 -0.52158211033E+02 -0.35481157665E+01 -0.73103322586E+03  0.73290084282E+03  0.10000000000E+01 0.  0.
    9000005    1    3    3    0    0  0.52158211033E+02  0.35481157665E+01 -0.21065998886E+03  0.21705229557E+03  0.10000000000E+01 0.  0.
<mgrwt>
<rscale>  0 0.12499942E+03</rscale>
<asrwt>0</asrwt>
<pdfrwt beam="2">  1        4 0.14551109E+00 0.12499942E+03</pdfrwt>
<pdfrwt beam="1">  1       -4 0.63537950E-03 0.12499942E+03</pdfrwt>
<totfact> 0.32318082E+03</totfact>
</mgrwt>
</event>
<event>
 5    1  0.3245943E-002  0.1250002E+03  0.7818608E-02  0.1235069E+00
         -4   -1    0    0    0  501 -0.00000000000E+00  0.00000000000E+00  0.38990398367E+03  0.38990605199E+03  0.12700000000E+01 0. -1.
          4   -1    0    0  501    0  0.00000000000E+00 -0.00000000000E+00 -0.99761688913E+01  0.10056681647E+02  0.12700000000E+01 0. -1.
         25    2    1    2    0    0  0.00000000000E+00  0.00000000000E+00  0.37992781478E+03  0.39996273364E+03  0.12500017544E+03 0.  0.
    9000005    1    3    3    0    0  0.34954618212E+02  0.91654136176E+01  0.35309924185E+03  0.35494493198E+03  0.10000000000E+01 0.  0.
    9000005    1    3    3    0    0 -0.34954618212E+02 -0.91654136176E+01  0.26828572925E+02  0.45017801660E+02  0.10000000000E+01 0.  0.
<mgrwt>
<rscale>  0 0.12500018E+03</rscale>
<asrwt>0</asrwt>
<pdfrwt beam="2">  1        4 0.15411480E-02 0.12500018E+03</pdfrwt>
<pdfrwt beam="1">  1       -4 0.59991567E-01 0.12500018E+03</pdfrwt>
<totfact> 0.64556170E+03</totfact>
</mgrwt>
</event>
<event>
 5    1  0.3245943E-002  0.1249982E+03  0.7818608E-02  0.1235072E+00
          4   -1    0    0  501    0  0.00000000000E+00  0.00000000000E+00  0.13966999022E+02  0.14024619841E+02  0.12700000000E+01 0. -1.
         -4   -1    0    0    0  501 -0.00000000000E+00 -0.00000000000E+00 -0.27903412833E+03  0.27903701846E+03  0.12700000000E+01 0. -1.
         25    2    1    2    0    0  0.00000000000E+00  0.00000000000E+00 -0.26506712931E+03  0.29306163831E+03  0.12499816321E+03 0.  0.
    9000005    1    3    3    0    0 -0.93927398152E+01 -0.28002046243E+02 -0.34184705648E+01  0.29749354548E+02  0.10000000000E+01 0.  0.
    9000005    1    3    3    0    0  0.93927398152E+01  0.28002046243E+02 -0.26164865874E+03  0.26331228376E+03  0.10000000000E+01 0.  0.
<mgrwt>
<rscale>  0 0.12499816E+03</rscale>
<asrwt>0</asrwt>
<pdfrwt beam="1">  1        4 0.21534240E-02 0.12499816E+03</pdfrwt>
<pdfrwt beam="2">  1       -4 0.42932978E-01 0.12499816E+03</pdfrwt>
<totfact> 0.76480620E+03</totfact>
</mgrwt>
</event>
<event>
 5    1  0.3245943E-002  0.1250036E+03  0.7818608E-02  0.1235064E+00
          4   -1    0    0  501    0  0.00000000000E+00  0.00000000000E+00  0.42876616581E+02  0.42895421078E+02  0.12700000000E+01 0. -1.
         -4   -1    0    0    0  501 -0.00000000000E+00 -0.00000000000E+00 -0.91066458692E+02  0.91075313882E+02  0.12700000000E+01 0. -1.
         25    2    1    2    0    0  0.00000000000E+00  0.00000000000E+00 -0.48189842111E+02  0.13397073496E+03  0.12500358772E+03 0.  0.
    9000005    1    3    3    0    0 -0.52038390465E+02  0.26771374948E+02 -0.59546635519E+00  0.58532513862E+02  0.10000000000E+01 0.  0.
    9000005    1    3    3    0    0  0.52038390465E+02 -0.26771374948E+02 -0.47594375756E+02  0.75438221098E+02  0.10000000000E+01 0.  0.
<mgrwt>
<rscale>  0 0.12500359E+03</rscale>
<asrwt>0</asrwt>
<pdfrwt beam="1">  1        4 0.65985302E-02 0.12500359E+03</pdfrwt>
<pdfrwt beam="2">  1       -4 0.14012352E-01 0.12500359E+03</pdfrwt>
<totfact> 0.10258981E+04</totfact>
</mgrwt>
</event>
<event>
 5    1  0.3245943E-002  0.1250045E+03  0.7818608E-02  0.1235062E+00
         -4   -1    0    0    0  501 -0.00000000000E+00  0.00000000000E+00  0.22576476516E+03  0.22576833721E+03  0.12700000000E+01 0.  1.
          4   -1    0    0  501    0  0.00000000000E+00 -0.00000000000E+00 -0.17276532709E+02  0.17323148745E+02  0.12700000000E+01 0.  1.
         25    2    1    2    0    0  0.00000000000E+00  0.00000000000E+00  0.20848823245E+03  0.24309148596E+03  0.12500450982E+03 0.  0.
    9000005    1    3    3    0    0  0.29466316643E+02  0.53242333901E+02  0.76569596107E+02  0.97810597502E+02  0.10000000000E+01 0.  0.
    9000005    1    3    3    0    0 -0.29466316643E+02 -0.53242333901E+02  0.13191863635E+03  0.14528088846E+03  0.10000000000E+01 0.  0.
<mgrwt>
<rscale>  0 0.12500451E+03</rscale>
<asrwt>0</asrwt>
<pdfrwt beam="2">  1        4 0.26617889E-02 0.12500451E+03</pdfrwt>
<pdfrwt beam="1">  1       -4 0.34736899E-01 0.12500451E+03</pdfrwt>
<totfact> 0.83330714E+03</totfact>
</mgrwt>
</event>
<event>
 5    1  0.3245943E-002  0.1249867E+03  0.7818608E-02  0.1235090E+00
         -4   -1    0    0    0  501 -0.00000000000E+00  0.00000000000E+00  0.32954028899E+02  0.32978491789E+02  0.12700000000E+01 0. -1.
          4   -1    0    0  501    0  0.00000000000E+00 -0.00000000000E+00 -0.11843929092E+03  0.11844609970E+03  0.12700000000E+01 0. -1.
         25    2    1    2    0    0  0.00000000000E+00  0.00000000000E+00 -0.85485262018E+02  0.15142459148E+03  0.12498670683E+03 0.  0.
    9000005    1    3    3    0    0  0.29818163253E+02 -0.52343827545E+02 -0.22636413115E+02  0.64361528420E+02  0.10000000000E+01 0.  0.
    9000005    1    3    3    0    0 -0.29818163253E+02  0.52343827545E+02 -0.62848848903E+02  0.87063063065E+02  0.10000000000E+01 0.  0.
<mgrwt>
<rscale>  0 0.12498671E+03</rscale>
<asrwt>0</asrwt>
<pdfrwt beam="2">  1        4 0.18223835E-01 0.12498671E+03</pdfrwt>
<pdfrwt beam="1">  1       -4 0.50722562E-02 0.12498671E+03</pdfrwt>
<totfact> 0.99050107E+03</totfact>
</mgrwt>
</event>
<event>
 5    1  0.3245943E-002  0.1249990E+03  0.7818608E-02  0.1235071E+00
          4   -1    0    0  501    0  0.00000000000E+00  0.00000000000E+00  0.29481754201E+03  0.29482027742E+03  0.12700000000E+01 0. -1.
         -4   -1    0    0    0  501 -0.00000000000E+00 -0.00000000000E+00 -0.13216279665E+02  0.13277158889E+02  0.12700000000E+01 0. -1.
         25    2    1    2    0    0  0.00000000000E+00  0.00000000000E+00  0.28160126235E+03  0.30809743631E+03  0.12499903721E+03 0.  0.
    9000005    1    3    3    0    0  0.26046541690E+02  0.54099665939E+02  0.98109521993E+02  0.11502901588E+03  0.10000000000E+01 0.  0.
    9000005    1    3    3    0    0 -0.26046541690E+02 -0.54099665939E+02  0.18349174036E+03  0.19306842043E+03  0.10000000000E+01 0.  0.
<mgrwt>
<rscale>  0 0.12499904E+03</rscale>
<asrwt>0</asrwt>
<pdfrwt beam="1">  1        4 0.45361440E-01 0.12499904E+03</pdfrwt>
<pdfrwt beam="2">  1       -4 0.20381672E-02 0.12499904E+03</pdfrwt>
<totfact> 0.74595800E+03</totfact>
</mgrwt>
</event>
<event>
 5    1  0.3245943E-002  0.1249924E+03  0.7818608E-02  0.1235081E+00
         -4   -1    0    0    0  501 -0.00000000000E+00  0.00000000000E+00  0.36531301292E+03  0.36531522047E+03  0.12700000000E+01 0. -1.
          4   -1    0    0  501    0  0.00000000000E+00 -0.00000000000E+00 -0.10651629123E+02  0.10727073364E+02  0.12700000000E+01 0. -1.
         25    2    1    2    0    0  0.00000000000E+00  0.00000000000E+00  0.35466138380E+03  0.37604229384E+03  0.12499243816E+03 0.  0.
    9000005    1    3    3    0    0 -0.13060745803E+02 -0.30034691596E+02  0.33743688688E+03  0.33902406759E+03  0.10000000000E+01 0.  0.
    9000005    1    3    3    0    0  0.13060745803E+02  0.30034691596E+02  0.17224496919E+02  0.37018226245E+02  0.10000000000E+01 0.  0.
<mgrwt>
<rscale>  0 0.12499244E+03</rscale>
<asrwt>0</asrwt>
<pdfrwt beam="2">  1        4 0.16446851E-02 0.12499244E+03</pdfrwt>
<pdfrwt beam="1">  1       -4 0.56207984E-01 0.12499244E+03</pdfrwt>
<totfact> 0.66962685E+03</totfact>
</mgrwt>
</event>
<event>
 5    1  0.3245943E-002  0.1250041E+03  0.7818608E-02  0.1235063E+00
         -4   -1    0    0    0  501 -0.00000000000E+00  0.00000000000E+00  0.25229989454E+02  0.25261933177E+02  0.12700000000E+01 0.  1.
          4   -1    0    0  501    0  0.00000000000E+00 -0.00000000000E+00 -0.15470324871E+03  0.15470846151E+03  0.12700000000E+01 0.  1.
         25    2    1    2    0    0  0.00000000000E+00  0.00000000000E+00 -0.12947325926E+03  0.17997039469E+03  0.12500407234E+03 0.  0.
    9000005    1    3    3    0    0 -0.51041962229E+01 -0.26446776287E+02  0.16451365096E+02  0.31577400282E+02  0.10000000000E+01 0.  0.
    9000005    1    3    3    0    0  0.51041962229E+01  0.26446776287E+02 -0.14592462436E+03  0.14839299441E+03  0.10000000000E+01 0.  0.
<mgrwt>
<rscale>  0 0.12500407E+03</rscale>
<asrwt>0</asrwt>
<pdfrwt beam="2">  1        4 0.23803357E-01 0.12500407E+03</pdfrwt>
<pdfrwt beam="1">  1       -4 0.38843951E-02 0.12500407E+03</pdfrwt>
<totfact> 0.93613785E+03</totfact>
</mgrwt>
</event>
<event>
 5    1  0.3245943E-002  0.1250005E+03  0.7818608E-02  0.1235068E+00
          4   -1    0    0  501    0  0.00000000000E+00  0.00000000000E+00  0.20839497321E+03  0.20839884298E+03  0.12700000000E+01 0.  1.
         -4   -1    0    0    0  501 -0.00000000000E+00 -0.00000000000E+00 -0.18719052447E+02  0.18762084759E+02  0.12700000000E+01 0.  1.
         25    2    1    2    0    0  0.00000000000E+00  0.00000000000E+00  0.18967592076E+03  0.22716092774E+03  0.12500052871E+03 0.  0.
    9000005    1    3    3    0    0  0.11722972213E+02  0.61381651391E+02  0.95536702467E+02  0.11416390289E+03  0.10000000000E+01 0.  0.
    9000005    1    3    3    0    0 -0.11722972213E+02 -0.61381651391E+02  0.94139218293E+02  0.11299702485E+03  0.10000000000E+01 0.  0.
<mgrwt>
<rscale>  0 0.12500053E+03</rscale>
<asrwt>0</asrwt>
<pdfrwt beam="1">  1        4 0.32064376E-01 0.12500053E+03</pdfrwt>
<pdfrwt beam="2">  1       -4 0.28834618E-02 0.12500053E+03</pdfrwt>
<totfact> 0.85746439E+03</totfact>
</mgrwt>
</event>
<event>
 5    1  0.3245943E-002  0.1250084E+03  0.7818608E-02  0.1235056E+00
         -4   -1    0    0    0  501 -0.00000000000E+00  0.00000000000E+00  0.13802269660E+02  0.13860575305E+02  0.12700000000E+01 0.  1.
          4   -1    0    0  501    0  0.00000000000E+00 -0.00000000000E+00 -0.28239668193E+03  0.28239953765E+03  0.12700000000E+01 0.  1.
         25    2    1    2    0    0  0.00000000000E+00  0.00000000000E+00 -0.26859441227E+03  0.29626011295E+03  0.12500838462E+03 0.  0.
    9000005    1    3    3    0    0 -0.14216915011E+02 -0.42771522526E+02 -0.31697095516E+02  0.55111066727E+02  0.10000000000E+01 0.  0.
    9000005    1    3    3    0    0  0.14216915011E+02  0.42771522526E+02 -0.23689731675E+03  0.24114904623E+03  0.10000000000E+01 0.  0.
<mgrwt>
<rscale>  0 0.12500838E+03</rscale>
<asrwt>0</asrwt>
<pdfrwt beam="2">  1        4 0.43450344E-01 0.12500838E+03</pdfrwt>
<pdfrwt beam="1">  1       -4 0.21281310E-02 0.12500838E+03</pdfrwt>
<totfact> 0.76056212E+03</totfact>
</mgrwt>
</event>
<event>
 4    1  0.3245943E-002  0.1243331E+03  0.7818608E-02  0.1236115E+00
         -4   -1    0    0    0  501 -0.00000000000E+00  0.00000000000E+00  0.77054020638E+02  0.77064485961E+02  0.12700000000E+01 0.  1.
          4   -1    0    0  501    0  0.00000000000E+00 -0.00000000000E+00 -0.50133576672E+02  0.50149660118E+02  0.12700000000E+01 0.  1.
    9000005    1    1    2    0    0 -0.29663693710E+01  0.45360812748E+02 -0.29916460003E+02  0.54427908829E+02  0.10000000000E+01 0.  0.
    9000005    1    1    2    0    0  0.29663693710E+01 -0.45360812748E+02  0.56836903968E+02  0.72786237251E+02  0.10000000000E+01 0.  0.
<mgrwt>
<rscale>  0 0.12433314E+03</rscale>
<asrwt>0</asrwt>
<pdfrwt beam="2">  1        4 0.77149003E-02 0.12433314E+03</pdfrwt>
<pdfrwt beam="1">  1       -4 0.11856507E-01 0.12433314E+03</pdfrwt>
<totfact> 0.10562694E+04</totfact>
</mgrwt>
</event>
<event>
 5    1  0.3245943E-002  0.1249993E+03  0.7818608E-02  0.1235070E+00
         -4   -1    0    0    0  501 -0.00000000000E+00  0.00000000000E+00  0.24663749250E+02  0.24696425390E+02  0.12700000000E+01 0.  1.
          4   -1    0    0  501    0  0.00000000000E+00 -0.00000000000E+00 -0.15823848404E+03  0.15824358037E+03  0.12700000000E+01 0.  1.
         25    2    1    2    0    0  0.00000000000E+00  0.00000000000E+00 -0.13357473479E+03  0.18294000576E+03  0.12499934374E+03 0.  0.
    9000005    1    3    3    0    0  0.49136471292E+02 -0.37348117932E+02 -0.52452693405E+02  0.81003455294E+02  0.10000000000E+01 0.  0.
    9000005    1    3    3    0    0 -0.49136471292E+02  0.37348117932E+02 -0.81122041381E+02  0.10193655047E+03  0.10000000000E+01 0.  0.
<mgrwt>
<rscale>  0 0.12499934E+03</rscale>
<asrwt>0</asrwt>
<pdfrwt beam="2">  1        4 0.24347287E-01 0.12499934E+03</pdfrwt>
<pdfrwt beam="1">  1       -4 0.37973286E-02 0.12499934E+03</pdfrwt>
<totfact> 0.93091823E+03</totfact>
</mgrwt>
</event>
<event>
 5    1  0.3245943E-002  0.1249971E+03  0.7818608E-02  0.1235074E+00
         -4   -1    0    0    0  501 -0.00000000000E+00  0.00000000000E+00  0.11977563591E+03  0.11978236873E+03  0.12700000000E+01 0.  1.
          4   -1    0    0  501    0  0.00000000000E+00 -0.00000000000E+00 -0.32591543894E+02  0.32616278656E+02  0.12700000000E+01 0.  1.
         25    2    1    2    0    0  0.00000000000E+00  0.00000000000E+00  0.87184092019E+02  0.15239864739E+03  0.12499712726E+03 0.  0.
    9000005    1    3    3    0    0 -0.16911252834E+02  0.29854666411E+02  0.10726949571E+03  0.11262786640E+03  0.10000000000E+01 0.  0.
    9000005    1    3    3    0    0  0.16911252834E+02 -0.29854666411E+02 -0.20085403692E+02  0.39770780988E+02  0.10000000000E+01 0.  0.
<mgrwt>
<rscale>  0 0.12499713E+03</rscale>
<asrwt>0</asrwt>
<pdfrwt beam="2">  1        4 0.50165043E-02 0.12499713E+03</pdfrwt>
<pdfrwt beam="1">  1       -4 0.18429441E-01 0.12499713E+03</pdfrwt>
<totfact> 0.98834083E+03</totfact>
</mgrwt>
</event>
<event>
 5    1  0.3245943E-002  0.1249985E+03  0.7818608E-02  0.1235072E+00
          4   -1    0    0  501    0  0.00000000000E+00  0.00000000000E+00  0.59066176121E+03  0.59066312654E+03  0.12700000000E+01 0.  1.
         -4   -1    0    0    0  501 -0.00000000000E+00 -0.00000000000E+00 -0.65508231393E+01  0.66727943024E+01  0.12700000000E+01 0.  1.
         25    2    1    2    0    0  0.00000000000E+00  0.00000000000E+00  0.58411093807E+03  0.59733592084E+03  0.12499845742E+03 0.  0.
    9000005    1    3    3    0    0 -0.23570972890E+02 -0.44617820065E+02  0.46821000000E+03  0.47092244025E+03  0.10000000000E+01 0.  0.
    9000005    1    3    3    0    0  0.23570972890E+02  0.44617820065E+02  0.11590093807E+03  0.12641348059E+03  0.10000000000E+01 0.  0.
<mgrwt>
<rscale>  0 0.12499846E+03</rscale>
<asrwt>0</asrwt>
<pdfrwt beam="1">  1        4 0.90880570E-01 0.12499846E+03</pdfrwt>
<pdfrwt beam="2">  1       -4 0.10173059E-02 0.12499846E+03</pdfrwt>
<totfact> 0.49037849E+03</totfact>
</mgrwt>
</event>
<event>
 5    1  0.3245943E-002  0.1249909E+03  0.7818608E-02  0.1235084E+00
         -4   -1    0    0    0  501 -0.00000000000E+00  0.00000000000E+00  0.52148162105E+02  0.52163624404E+02  0.12700000000E+01 0.  1.
          4   -1    0    0  501    0  0.00000000000E+00 -0.00000000000E+00 -0.74863861703E+02  0.74874633149E+02  0.12700000000E+01 0.  1.
         25    2    1    2    0    0  0.00000000000E+00  0.00000000000E+00 -0.22715699598E+02  0.12703825755E+03  0.12499086316E+03 0.  0.
    9000005    1    3    3    0    0  0.48270928985E+02 -0.44972288695E+01  0.28713470100E+02  0.56353979609E+02  0.10000000000E+01 0.  0.
    9000005    1    3    3    0    0 -0.48270928985E+02  0.44972288695E+01 -0.51429169698E+02  0.70684277943E+02  0.10000000000E+01 0.  0.
<mgrwt>
<rscale>  0 0.12499086E+03</rscale>
<asrwt>0</asrwt>
<pdfrwt beam="2">  1        4 0.11519535E-01 0.12499086E+03</pdfrwt>
<pdfrwt beam="1">  1       -4 0.80248121E-02 0.12499086E+03</pdfrwt>
<totfact> 0.10410462E+04</totfact>
</mgrwt>
</event>
<event>
 5    1  0.3245943E-002  0.1249962E+03  0.7818608E-02  0.1235075E+00
         -4   -1    0    0    0  501 -0.00000000000E+00  0.00000000000E+00  0.47396812845E+01  0.49068807484E+01  0.12700000000E+01 0. -1.
          4   -1    0    0  501    0  0.00000000000E+00 -0.00000000000E+00 -0.80965743543E+03  0.80965843146E+03  0.12700000000E+01 0. -1.
         25    2    1    2    0    0  0.00000000000E+00  0.00000000000E+00 -0.80491775414E+03  0.81456531221E+03  0.12499622765E+03 0.  0.
    9000005    1    3    3    0    0 -0.52910545736E+02  0.40067550349E+01 -0.61755348679E+03  0.61982972580E+03  0.10000000000E+01 0.  0.
    9000005    1    3    3    0    0  0.52910545736E+02 -0.40067550349E+01 -0.18736426735E+03  0.19473558641E+03  0.10000000000E+01 0.  0.
<mgrwt>
<rscale>  0 0.12499623E+03</rscale>
<asrwt>0</asrwt>
<pdfrwt beam="2">  1        4 0.12457551E+00 0.12499623E+03</pdfrwt>
<pdfrwt beam="1">  1       -4 0.74212049E-03 0.12499623E+03</pdfrwt>
<totfact> 0.37625838E+03</totfact>
</mgrwt>
</event>
<event>
 5    1  0.3245943E-002  0.1249985E+03  0.7818608E-02  0.1235072E+00
         -4   -1    0    0    0  501 -0.00000000000E+00  0.00000000000E+00  0.12041136130E+02  0.12107925474E+02  0.12700000000E+01 0.  1.
          4   -1    0    0  501    0  0.00000000000E+00 -0.00000000000E+00 -0.32343584455E+03  0.32343833792E+03  0.12700000000E+01 0.  1.
         25    2    1    2    0    0  0.00000000000E+00  0.00000000000E+00 -0.31139470842E+03  0.33554626340E+03  0.12499852179E+03 0.  0.
    9000005    1    3    3    0    0  0.11751561245E+02  0.55381232058E+02 -0.84675895601E+02  0.10186357225E+03  0.10000000000E+01 0.  0.
    9000005    1    3    3    0    0 -0.11751561245E+02 -0.55381232058E+02 -0.22671881282E+03  0.23368269115E+03  0.10000000000E+01 0.  0.
<mgrwt>
<rscale>  0 0.12499852E+03</rscale>
<asrwt>0</asrwt>
<pdfrwt beam="2">  1        4 0.49764683E-01 0.12499852E+03</pdfrwt>
<pdfrwt beam="1">  1       -4 0.18578122E-02 0.12499852E+03</pdfrwt>
<totfact> 0.71346810E+03</totfact>
</mgrwt>
</event>
<event>
 5    1  0.3245943E-002  0.1250290E+03  0.7818608E-02  0.1235024E+00
          4   -1    0    0  501    0  0.00000000000E+00  0.00000000000E+00  0.57211248951E+02  0.57225343219E+02  0.12700000000E+01 0. -1.
         -4   -1    0    0    0  501 -0.00000000000E+00 -0.00000000000E+00 -0.68280976059E+02  0.68292785795E+02  0.12700000000E+01 0. -1.
         25    2    1    2    0    0  0.00000000000E+00  0.00000000000E+00 -0.11069727108E+02  0.12551812901E+03  0.12502904404E+03 0.  0.
    9000005    1    3    3    0    0  0.33904959147E+02  0.28710135843E+02 -0.49675567354E+02  0.66651932806E+02  0.10000000000E+01 0.  0.
    9000005    1    3    3    0    0 -0.33904959147E+02 -0.28710135843E+02  0.38605840245E+02  0.58866196207E+02  0.10000000000E+01 0.  0.
<mgrwt>
<rscale>  0 0.12502904E+03</rscale>
<asrwt>0</asrwt>
<pdfrwt beam="1">  1        4 0.88037232E-02 0.12502904E+03</pdfrwt>
<pdfrwt beam="2">  1       -4 0.10506758E-01 0.12502904E+03</pdfrwt>
<totfact> 0.10434716E+04</totfact>
</mgrwt>
</event>
<event>
 5    1  0.3245943E-002  0.1250114E+03  0.7818608E-02  0.1235051E+00
         -4   -1    0    0    0  501 -0.00000000000E+00  0.00000000000E+00  0.47085935214E+01  0.48768589225E+01  0.12700000000E+01 0.  1.
          4   -1    0    0  501    0  0.00000000000E+00 -0.00000000000E+00 -0.81501741494E+03  0.81501840443E+03  0.12700000000E+01 0.  1.
         25    2    1    2    0    0  0.00000000000E+00  0.00000000000E+00 -0.81030882142E+03  0.81989526335E+03  0.12501142666E+03 0.  0.
    9000005    1    3    3    0    0 -0.15154960208E+02  0.58201454680E+02 -0.29368160123E+03  0.29977819308E+03  0.10000000000E+01 0.  0.
    9000005    1    3    3    0    0  0.15154960208E+02 -0.58201454680E+02 -0.51662722018E+03  0.52011707027E+03  0.10000000000E+01 0.  0.
<mgrwt>
<rscale>  0 0.12501143E+03</rscale>
<asrwt>0</asrwt>
<pdfrwt beam="2">  1        4 0.12540020E+00 0.12501143E+03</pdfrwt>
<pdfrwt beam="1">  1       -4 0.73741926E-03 0.12501143E+03</pdfrwt>
<totfact> 0.37382534E+03</totfact>
</mgrwt>
</event>
<event>
 5    1  0.3245943E-002  0.1250014E+03  0.7818608E-02  0.1235067E+00
          4   -1    0    0  501    0  0.00000000000E+00  0.00000000000E+00  0.20253731827E+02  0.20293510118E+02  0.12700000000E+01 0.  1.
         -4   -1    0    0    0  501 -0.00000000000E+00 -0.00000000000E+00 -0.19263899309E+03  0.19264317937E+03  0.12700000000E+01 0.  1.
         25    2    1    2    0    0  0.00000000000E+00  0.00000000000E+00 -0.17238526126E+03  0.21293668949E+03  0.12500142171E+03 0.  0.
    9000005    1    3    3    0    0 -0.12689970492E+02  0.19974928662E+02  0.12333959479E+02  0.26705049758E+02  0.10000000000E+01 0.  0.
    9000005    1    3    3    0    0  0.12689970492E+02 -0.19974928662E+02 -0.18471922074E+03  0.18623163973E+03  0.10000000000E+01 0.  0.
<mgrwt>
<rscale>  0 0.12500142E+03</rscale>
<asrwt>0</asrwt>
<pdfrwt beam="1">  1        4 0.31193408E-02 0.12500142E+03</pdfrwt>
<pdfrwt beam="2">  1       -4 0.29640149E-01 0.12500142E+03</pdfrwt>
<totfact> 0.87995720E+03</totfact>
</mgrwt>
</event>
<event>
 5    1  0.3245943E-002  0.1250008E+03  0.7818608E-02  0.1235068E+00
         -4   -1    0    0    0  501 -0.00000000000E+00  0.00000000000E+00  0.35665453824E+02  0.35688058178E+02  0.12700000000E+01 0.  1.
          4   -1    0    0  501    0  0.00000000000E+00 -0.00000000000E+00 -0.10946524173E+03  0.10947260866E+03  0.12700000000E+01 0.  1.
         25    2    1    2    0    0  0.00000000000E+00  0.00000000000E+00 -0.73799787902E+02  0.14516066684E+03  0.12500084200E+03 0.  0.
    9000005    1    3    3    0    0 -0.10912984127E+02  0.45955546031E+02  0.10617464599E+02  0.48422473998E+02  0.10000000000E+01 0.  0.
    9000005    1    3    3    0    0  0.10912984127E+02 -0.45955546031E+02 -0.84417252501E+02  0.96738192837E+02  0.10000000000E+01 0.  0.
<mgrwt>
<rscale>  0 0.12500084E+03</rscale>
<asrwt>0</asrwt>
<pdfrwt beam="2">  1        4 0.16843112E-01 0.12500084E+03</pdfrwt>
<pdfrwt beam="1">  1       -4 0.54892984E-02 0.12500084E+03</pdfrwt>
<totfact> 0.10027535E+04</totfact>
</mgrwt>
</event>
<event>
 5    1  0.3245943E-002  0.1249975E+03  0.7818608E-02  0.1235073E+00
          4   -1    0    0  501    0  0.00000000000E+00  0.00000000000E+00  0.13471584038E+02  0.13531314663E+02  0.12700000000E+01 0.  1.
         -4   -1    0    0    0  501 -0.00000000000E+00 -0.00000000000E+00 -0.28924821268E+03  0.28925100076E+03  0.12700000000E+01 0.  1.
         25    2    1    2    0    0  0.00000000000E+00  0.00000000000E+00 -0.27577662864E+03  0.30278231542E+03  0.12499752648E+03 0.  0.
    9000005    1    3    3    0    0 -0.22474043851E+02  0.31556472123E+02 -0.25666044518E+03  0.25956979351E+03  0.10000000000E+01 0.  0.
    9000005    1    3    3    0    0  0.22474043851E+02 -0.31556472123E+02 -0.19116183457E+02  0.43212521910E+02  0.10000000000E+01 0.  0.
<mgrwt>
<rscale>  0 0.12499753E+03</rscale>
<asrwt>0</asrwt>
<pdfrwt beam="1">  1        4 0.20773607E-02 0.12499753E+03</pdfrwt>
<pdfrwt beam="2">  1       -4 0.44504530E-01 0.12499753E+03</pdfrwt>
<totfact> 0.75255284E+03</totfact>
</mgrwt>
</event>
<event>
 5    1  0.3245943E-002  0.1250019E+03  0.7818608E-02  0.1235066E+00
          4   -1    0    0  501    0  0.00000000000E+00  0.00000000000E+00  0.84175952481E+02  0.84185532463E+02  0.12700000000E+01 0.  1.
         -4   -1    0    0    0  501 -0.00000000000E+00 -0.00000000000E+00 -0.46386301076E+02  0.46403683340E+02  0.12700000000E+01 0.  1.
         25    2    1    2    0    0  0.00000000000E+00  0.00000000000E+00  0.37789651404E+02  0.13058921580E+03  0.12500194211E+03 0.  0.
    9000005    1    3    3    0    0 -0.42091571586E+02 -0.19521616914E+02 -0.24840177634E+02  0.52638658327E+02  0.10000000000E+01 0.  0.
    9000005    1    3    3    0    0  0.42091571586E+02  0.19521616914E+02  0.62629829038E+02  0.77950557476E+02  0.10000000000E+01 0.  0.
<mgrwt>
<rscale>  0 0.12500194E+03</rscale>
<asrwt>0</asrwt>
<pdfrwt beam="1">  1        4 0.12952220E-01 0.12500194E+03</pdfrwt>
<pdfrwt beam="2">  1       -4 0.71384281E-02 0.12500194E+03</pdfrwt>
<totfact> 0.10331451E+04</totfact>
</mgrwt>
</event>
<event>
 5    1  0.3245943E-002  0.1250019E+03  0.7818608E-02  0.1235066E+00
          4   -1    0    0  501    0  0.00000000000E+00  0.00000000000E+00  0.17773296640E+03  0.17773750377E+03  0.12700000000E+01 0.  1.
         -4   -1    0    0    0  501 -0.00000000000E+00 -0.00000000000E+00 -0.21955691768E+02  0.21992391889E+02  0.12700000000E+01 0.  1.
         25    2    1    2    0    0  0.00000000000E+00  0.00000000000E+00  0.15577727463E+03  0.19972989566E+03  0.12500188769E+03 0.  0.
    9000005    1    3    3    0    0 -0.39723756670E-03  0.11753575214E+02  0.17595884135E+03  0.17635379321E+03  0.10000000000E+01 0.  0.
    9000005    1    3    3    0    0  0.39723756670E-03 -0.11753575214E+02 -0.20181566716E+02  0.23376102447E+02  0.10000000000E+01 0.  0.
<mgrwt>
<rscale>  0 0.12500189E+03</rscale>
<asrwt>0</asrwt>
<pdfrwt beam="1">  1        4 0.27346705E-01 0.12500189E+03</pdfrwt>
<pdfrwt beam="2">  1       -4 0.33809709E-02 0.12500189E+03</pdfrwt>
<totfact> 0.90177272E+03</totfact>
</mgrwt>
</event>
<event>
 5    1  0.3245943E-002  0.1250013E+03  0.7818608E-02  0.1235067E+00
         -4   -1    0    0    0  501 -0.00000000000E+00  0.00000000000E+00  0.53346927324E+02  0.53362042267E+02  0.12700000000E+01 0. -1.
          4   -1    0    0  501    0  0.00000000000E+00 -0.00000000000E+00 -0.73194080469E+02  0.73205097607E+02  0.12700000000E+01 0. -1.
         25    2    1    2    0    0  0.00000000000E+00  0.00000000000E+00 -0.19847153145E+02  0.12656713987E+03  0.12500132562E+03 0.  0.
    9000005    1    3    3    0    0 -0.15307495798E+01 -0.54570851457E+02 -0.40718561135E+02  0.68112570381E+02  0.10000000000E+01 0.  0.
    9000005    1    3    3    0    0  0.15307495798E+01  0.54570851457E+02  0.20871407990E+02  0.58454569492E+02  0.10000000000E+01 0.  0.
<mgrwt>
<rscale>  0 0.12500133E+03</rscale>
<asrwt>0</asrwt>
<pdfrwt beam="2">  1        4 0.11262638E-01 0.12500133E+03</pdfrwt>
<pdfrwt beam="1">  1       -4 0.82092297E-02 0.12500133E+03</pdfrwt>
<totfact> 0.10418253E+04</totfact>
</mgrwt>
</event>
<event>
 5    1  0.3245943E-002  0.1249966E+03  0.7818608E-02  0.1235075E+00
          4   -1    0    0  501    0  0.00000000000E+00  0.00000000000E+00  0.10832214908E+04  0.10832222353E+04  0.12700000000E+01 0.  1.
         -4   -1    0    0    0  501 -0.00000000000E+00 -0.00000000000E+00 -0.34933544389E+01  0.37170452291E+01  0.12700000000E+01 0.  1.
         25    2    1    2    0    0  0.00000000000E+00  0.00000000000E+00  0.10797281363E+04  0.10869392805E+04  0.12499660431E+03 0.  0.
    9000005    1    3    3    0    0 -0.97976606408E+01  0.26622731784E+02  0.55683794183E+02  0.62501591470E+02  0.10000000000E+01 0.  0.
    9000005    1    3    3    0    0  0.97976606408E+01 -0.26622731784E+02  0.10240443422E+04  0.10244376890E+04  0.10000000000E+01 0.  0.
<mgrwt>
<rscale>  0 0.12499660E+03</rscale>
<asrwt>0</asrwt>
<pdfrwt beam="1">  1        4 0.16666674E+00 0.12499660E+03</pdfrwt>
<pdfrwt beam="2">  1       -4 0.55470336E-03 0.12499660E+03</pdfrwt>
<totfact> 0.27870875E+03</totfact>
</mgrwt>
</event>
<event>
 5    1  0.3245943E-002  0.1249907E+03  0.7818608E-02  0.1235084E+00
          4   -1    0    0  501    0  0.00000000000E+00  0.00000000000E+00  0.12698632860E+02  0.12761981684E+02  0.12700000000E+01 0.  1.
         -4   -1    0    0    0  501 -0.00000000000E+00 -0.00000000000E+00 -0.30673614464E+03  0.30673877376E+03  0.12700000000E+01 0.  1.
         25    2    1    2    0    0  0.00000000000E+00  0.00000000000E+00 -0.29403751178E+03  0.31950075544E+03  0.12499069724E+03 0.  0.
    9000005    1    3    3    0    0 -0.57982033988E+02  0.21204925856E+02 -0.12235398458E+03  0.13705131407E+03  0.10000000000E+01 0.  0.
    9000005    1    3    3    0    0  0.57982033988E+02 -0.21204925856E+02 -0.17168352720E+03  0.18244944137E+03  0.10000000000E+01 0.  0.
<mgrwt>
<rscale>  0 0.12499070E+03</rscale>
<asrwt>0</asrwt>
<pdfrwt beam="1">  1        4 0.19587113E-02 0.12499070E+03</pdfrwt>
<pdfrwt beam="2">  1       -4 0.47195246E-01 0.12499070E+03</pdfrwt>
<totfact> 0.73230646E+03</totfact>
</mgrwt>
</event>
<event>
 5    1  0.3245943E-002  0.1249989E+03  0.7818608E-02  0.1235071E+00
          4   -1    0    0  501    0  0.00000000000E+00  0.00000000000E+00  0.26433563986E+02  0.26464054961E+02  0.12700000000E+01 0.  1.
         -4   -1    0    0    0  501 -0.00000000000E+00 -0.00000000000E+00 -0.14765510604E+03  0.14766056765E+03  0.12700000000E+01 0.  1.
         25    2    1    2    0    0  0.00000000000E+00  0.00000000000E+00 -0.12122154205E+03  0.17412462262E+03  0.12499888777E+03 0.  0.
    9000005    1    3    3    0    0 -0.51687395965E+02  0.63486292244E+01 -0.10873089809E+03  0.12056243277E+03  0.10000000000E+01 0.  0.
    9000005    1    3    3    0    0  0.51687395965E+02 -0.63486292244E+01 -0.12490643960E+02  0.53562189847E+02  0.10000000000E+01 0.  0.
<mgrwt>
<rscale>  0 0.12499889E+03</rscale>
<asrwt>0</asrwt>
<pdfrwt beam="1">  1        4 0.40694678E-02 0.12499889E+03</pdfrwt>
<pdfrwt beam="2">  1       -4 0.22718935E-01 0.12499889E+03</pdfrwt>
<totfact> 0.94687772E+03</totfact>
</mgrwt>
</event>
<event>
 5    1  0.3245943E-002  0.1249933E+03  0.7818608E-02  0.1235080E+00
         -4   -1    0    0    0  501 -0.00000000000E+00  0.00000000000E+00  0.83289511794E+02  0.83299193723E+02  0.12700000000E+01 0.  1.
          4   -1    0    0  501    0  0.00000000000E+00 -0.00000000000E+00 -0.46873615999E+02  0.46890817618E+02  0.12700000000E+01 0.  1.
         25    2    1    2    0    0  0.00000000000E+00  0.00000000000E+00  0.36415895794E+02  0.13019001134E+03  0.12499328616E+03 0.  0.
    9000005    1    3    3    0    0 -0.77801742233E+01 -0.41205001258E+02 -0.30048025370E+02  0.51597161436E+02  0.10000000000E+01 0.  0.
    9000005    1    3    3    0    0  0.77801742233E+01  0.41205001258E+02  0.66463921164E+02  0.78592849904E+02  0.10000000000E+01 0.  0.
<mgrwt>
<rscale>  0 0.12499329E+03</rscale>
<asrwt>0</asrwt>
<pdfrwt beam="2">  1        4 0.72133936E-02 0.12499329E+03</pdfrwt>
<pdfrwt beam="1">  1       -4 0.12815839E-01 0.12499329E+03</pdfrwt>
<totfact> 0.10342012E+04</totfact>
</mgrwt>
</event>
<event>
 5    1  0.3245943E-002  0.1250039E+03  0.7818608E-02  0.1235063E+00
         -4   -1    0    0    0  501 -0.00000000000E+00  0.00000000000E+00  0.22345679916E+02  0.22381740570E+02  0.12700000000E+01 0. -1.
          4   -1    0    0  501    0  0.00000000000E+00 -0.00000000000E+00 -0.17464160103E+03  0.17464621872E+03  0.12700000000E+01 0. -1.
         25    2    1    2    0    0  0.00000000000E+00  0.00000000000E+00 -0.15229592112E+03  0.19702795929E+03  0.12500387654E+03 0.  0.
    9000005    1    3    3    0    0 -0.69944227756E+01  0.49340033328E+02 -0.13558733747E+03  0.14445859933E+03  0.10000000000E+01 0.  0.
    9000005    1    3    3    0    0  0.69944227756E+01 -0.49340033328E+02 -0.16708583653E+02  0.52569359958E+02  0.10000000000E+01 0.  0.
<mgrwt>
<rscale>  0 0.12500388E+03</rscale>
<asrwt>0</asrwt>
<pdfrwt beam="2">  1        4 0.26871067E-01 0.12500388E+03</pdfrwt>
<pdfrwt beam="1">  1       -4 0.34409261E-02 0.12500388E+03</pdfrwt>
<totfact> 0.90630783E+03</totfact>
</mgrwt>
</event>
<event>
 4    1  0.3245943E-002  0.1252917E+03  0.7818608E-02  0.1234614E+00
         -4   -1    0    0    0  501 -0.00000000000E+00  0.00000000000E+00  0.11345251112E+02  0.11416112420E+02  0.12700000000E+01 0. -1.
          4   -1    0    0  501    0  0.00000000000E+00 -0.00000000000E+00 -0.34476712291E+03  0.34476946202E+03  0.12700000000E+01 0. -1.
    9000005    1    1    2    0    0  0.27476778266E+02 -0.41534577482E+02 -0.58704709031E+02  0.76989202704E+02  0.10000000000E+01 0.  0.
    9000005    1    1    2    0    0 -0.27476778266E+02  0.41534577482E+02 -0.27471716277E+03  0.27919637173E+03  0.10000000000E+01 0.  0.
<mgrwt>
<rscale>  0 0.12529173E+03</rscale>
<asrwt>0</asrwt>
<pdfrwt beam="2">  1        4 0.53046719E-01 0.12529173E+03</pdfrwt>
<pdfrwt beam="1">  1       -4 0.17510543E-02 0.12529173E+03</pdfrwt>
<totfact> 0.68605627E+03</totfact>
</mgrwt>
</event>
<event>
 5    1  0.3245943E-002  0.1250028E+03  0.7818608E-02  0.1235065E+00
         -4   -1    0    0    0  501 -0.00000000000E+00  0.00000000000E+00  0.48637534284E+02  0.48654112275E+02  0.12700000000E+01 0. -1.
          4   -1    0    0  501    0  0.00000000000E+00 -0.00000000000E+00 -0.80281847746E+02  0.80291892352E+02  0.12700000000E+01 0. -1.
         25    2    1    2    0    0  0.00000000000E+00  0.00000000000E+00 -0.31644313462E+02  0.12894600463E+03  0.12500283811E+03 0.  0.
    9000005    1    3    3    0    0 -0.39993454791E+02  0.10185010409E+02  0.32585941900E+02  0.52593293038E+02  0.10000000000E+01 0.  0.
    9000005    1    3    3    0    0  0.39993454791E+02 -0.10185010409E+02 -0.64230255361E+02  0.76352711588E+02  0.10000000000E+01 0.  0.
<mgrwt>
<rscale>  0 0.12500284E+03</rscale>
<asrwt>0</asrwt>
<pdfrwt beam="2">  1        4 0.12353101E-01 0.12500284E+03</pdfrwt>
<pdfrwt beam="1">  1       -4 0.74847455E-02 0.12500284E+03</pdfrwt>
<totfact> 0.10366443E+04</totfact>
</mgrwt>
</event>
<event>
 5    1  0.3245943E-002  0.1250003E+03  0.7818608E-02  0.1235069E+00
         -4   -1    0    0    0  501 -0.00000000000E+00  0.00000000000E+00  0.34194138057E+03  0.34194373900E+03  0.12700000000E+01 0. -1.
          4   -1    0    0  501    0  0.00000000000E+00 -0.00000000000E+00 -0.11386101208E+02  0.11456709856E+02  0.12700000000E+01 0. -1.
         25    2    1    2    0    0  0.00000000000E+00  0.00000000000E+00  0.33055527936E+03  0.35340044886E+03  0.12500033817E+03 0.  0.
    9000005    1    3    3    0    0 -0.47107242108E+02  0.40017357693E+02  0.13924440559E+03  0.15234987911E+03  0.10000000000E+01 0.  0.
    9000005    1    3    3    0    0  0.47107242108E+02 -0.40017357693E+02  0.19131087377E+03  0.20105056975E+03  0.10000000000E+01 0.  0.
<mgrwt>
<rscale>  0 0.12500034E+03</rscale>
<asrwt>0</asrwt>
<pdfrwt beam="2">  1        4 0.17573210E-02 0.12500034E+03</pdfrwt>
<pdfrwt beam="1">  1       -4 0.52611971E-01 0.12500034E+03</pdfrwt>
<totfact> 0.69351563E+03</totfact>
</mgrwt>
</event>
<event>
 5    1  0.3245943E-002  0.1250001E+03  0.7818608E-02  0.1235069E+00
          4   -1    0    0  501    0  0.00000000000E+00  0.00000000000E+00  0.14289329445E+02  0.14345655648E+02  0.12700000000E+01 0.  1.
         -4   -1    0    0    0  501 -0.00000000000E+00 -0.00000000000E+00 -0.27277301297E+03  0.27277596944E+03  0.12700000000E+01 0.  1.
         25    2    1    2    0    0  0.00000000000E+00  0.00000000000E+00 -0.25848368352E+03  0.28712162509E+03  0.12500005178E+03 0.  0.
    9000005    1    3    3    0    0  0.80593725520E+01 -0.47623388187E+02 -0.38161392428E+02  0.61564863845E+02  0.10000000000E+01 0.  0.
    9000005    1    3    3    0    0 -0.80593725520E+01  0.47623388187E+02 -0.22032229109E+03  0.22555676124E+03  0.10000000000E+01 0.  0.
<mgrwt>
<rscale>  0 0.12500005E+03</rscale>
<asrwt>0</asrwt>
<pdfrwt beam="1">  1        4 0.22029188E-02 0.12500005E+03</pdfrwt>
<pdfrwt beam="2">  1       -4 0.41969635E-01 0.12500005E+03</pdfrwt>
<totfact> 0.77243120E+03</totfact>
</mgrwt>
</event>
<event>
 5    1  0.3245943E-002  0.1249980E+03  0.7818608E-02  0.1235072E+00
          4   -1    0    0  501    0  0.00000000000E+00  0.00000000000E+00  0.58468563388E+02  0.58482354643E+02  0.12700000000E+01 0. -1.
         -4   -1    0    0    0  501 -0.00000000000E+00 -0.00000000000E+00 -0.66779532363E+02  0.66791607576E+02  0.12700000000E+01 0. -1.
         25    2    1    2    0    0  0.00000000000E+00  0.00000000000E+00 -0.83109689753E+01  0.12527396222E+03  0.12499797360E+03 0.  0.
    9000005    1    3    3    0    0  0.23078311821E+02  0.57845836109E+02  0.99142849856E+00  0.62295522810E+02  0.10000000000E+01 0.  0.
    9000005    1    3    3    0    0 -0.23078311821E+02 -0.57845836109E+02 -0.93023974739E+01  0.62978439410E+02  0.10000000000E+01 0.  0.
<mgrwt>
<rscale>  0 0.12499797E+03</rscale>
<asrwt>0</asrwt>
<pdfrwt beam="1">  1        4 0.89971534E-02 0.12499797E+03</pdfrwt>
<pdfrwt beam="2">  1       -4 0.10275764E-01 0.12499797E+03</pdfrwt>
<totfact> 0.10447393E+04</totfact>
</mgrwt>
</event>
<event>
 5    1  0.3245943E-002  0.1249992E+03  0.7818608E-02  0.1235071E+00
         -4   -1    0    0    0  501 -0.00000000000E+00  0.00000000000E+00  0.89014433006E+02  0.89023492312E+02  0.12700000000E+01 0. -1.
          4   -1    0    0  501    0  0.00000000000E+00 -0.00000000000E+00 -0.43862264595E+02  0.43880646707E+02  0.12700000000E+01 0. -1.
         25    2    1    2    0    0  0.00000000000E+00  0.00000000000E+00  0.45152168411E+02  0.13290413902E+03  0.12499916742E+03 0.  0.
    9000005    1    3    3    0    0 -0.60653417952E+02  0.12657622136E+02  0.13928766896E+02  0.63514274416E+02  0.10000000000E+01 0.  0.
    9000005    1    3    3    0    0  0.60653417952E+02 -0.12657622136E+02  0.31223401515E+02  0.69389864602E+02  0.10000000000E+01 0.  0.
<mgrwt>
<rscale>  0 0.12499917E+03</rscale>
<asrwt>0</asrwt>
<pdfrwt beam="2">  1        4 0.67501516E-02 0.12499917E+03</pdfrwt>
<pdfrwt beam="1">  1       -4 0.13696639E-01 0.12499917E+03</pdfrwt>
<totfact> 0.10282631E+04</totfact>
</mgrwt>
</event>
<event>
 5    1  0.3245943E-002  0.1249991E+03  0.7818608E-02  0.1235071E+00
         -4   -1    0    0    0  501 -0.00000000000E+00  0.00000000000E+00  0.50800717512E+03  0.50800876259E+03  0.12700000000E+01 0. -1.
          4   -1    0    0  501    0  0.00000000000E+00 -0.00000000000E+00 -0.76352028281E+01  0.77401047943E+01  0.12700000000E+01 0. -1.
         25    2    1    2    0    0  0.00000000000E+00  0.00000000000E+00  0.50037197229E+03  0.51574886739E+03  0.12499913423E+03 0.  0.
    9000005    1    3    3    0    0  0.24256962373E+02  0.76442000920E+01  0.14664281802E+02  0.29374737095E+02  0.10000000000E+01 0.  0.
    9000005    1    3    3    0    0 -0.24256962373E+02 -0.76442000920E+01  0.48570769049E+03  0.48637413029E+03  0.10000000000E+01 0.  0.
<mgrwt>
<rscale>  0 0.12499913E+03</rscale>
<asrwt>0</asrwt>
<pdfrwt beam="2">  1        4 0.11828383E-02 0.12499913E+03</pdfrwt>
<pdfrwt beam="1">  1       -4 0.78163128E-01 0.12499913E+03</pdfrwt>
<totfact> 0.54663868E+03</totfact>
</mgrwt>
</event>
<event>
 5    1  0.3245943E-002  0.1249988E+03  0.7818608E-02  0.1235071E+00
          4   -1    0    0  501    0  0.00000000000E+00  0.00000000000E+00  0.20773603281E+03  0.20773991487E+03  0.12700000000E+01 0. -1.
         -4   -1    0    0    0  501 -0.00000000000E+00 -0.00000000000E+00 -0.18778037063E+02  0.18820934512E+02  0.12700000000E+01 0. -1.
         25    2    1    2    0    0  0.00000000000E+00  0.00000000000E+00  0.18895799575E+03  0.22656084938E+03  0.12499877725E+03 0.  0.
    9000005    1    3    3    0    0 -0.43091052984E+02 -0.40675192383E+02  0.13044995079E+03  0.14328119131E+03  0.10000000000E+01 0.  0.
    9000005    1    3    3    0    0  0.43091052984E+02  0.40675192383E+02  0.58508044961E+02  0.83279658068E+02  0.10000000000E+01 0.  0.
<mgrwt>
<rscale>  0 0.12499878E+03</rscale>
<asrwt>0</asrwt>
<pdfrwt beam="1">  1        4 0.31962985E-01 0.12499878E+03</pdfrwt>
<pdfrwt beam="2">  1       -4 0.28925275E-02 0.12499878E+03</pdfrwt>
<totfact> 0.85842839E+03</totfact>
</mgrwt>
</event>
<event>
 5    1  0.3245943E-002  0.1250077E+03  0.7818608E-02  0.1235057E+00
          4   -1    0    0  501    0  0.00000000000E+00  0.00000000000E+00  0.10264674075E+03  0.10265459700E+03  0.12700000000E+01 0.  1.
         -4   -1    0    0    0  501 -0.00000000000E+00 -0.00000000000E+00 -0.38040078272E+02  0.38061272377E+02  0.12700000000E+01 0.  1.
         25    2    1    2    0    0  0.00000000000E+00  0.00000000000E+00  0.64606662474E+02  0.14071586938E+03  0.12500774000E+03 0.  0.
    9000005    1    3    3    0    0 -0.21835032554E+01 -0.62456615036E+02  0.31886204811E+02  0.70166420070E+02  0.10000000000E+01 0.  0.
    9000005    1    3    3    0    0  0.21835032554E+01  0.62456615036E+02  0.32720457663E+02  0.70549449309E+02  0.10000000000E+01 0.  0.
<mgrwt>
<rscale>  0 0.12500774E+03</rscale>
<asrwt>0</asrwt>
<pdfrwt beam="1">  1        4 0.15794041E-01 0.12500774E+03</pdfrwt>
<pdfrwt beam="2">  1       -4 0.58545544E-02 0.12500774E+03</pdfrwt>
<totfact> 0.10117006E+04</totfact>
</mgrwt>
</event>
<event>
 5    1  0.3245943E-002  0.1249990E+03  0.7818608E-02  0.1235071E+00
          4   -1    0    0  501    0  0.00000000000E+00  0.00000000000E+00  0.33988517072E+01  0.36283733170E+01  0.12700000000E+01 0. -1.
         -4   -1    0    0    0  501 -0.00000000000E+00 -0.00000000000E+00 -0.11114998815E+04  0.11115006070E+04  0.12700000000E+01 0. -1.
         25    2    1    2    0    0  0.00000000000E+00  0.00000000000E+00 -0.11081010298E+04  0.11151289803E+04  0.12499900251E+03 0.  0.
    9000005    1    3    3    0    0  0.48202134927E+02  0.29814809520E+02 -0.78886692443E+03  0.79090100085E+03  0.10000000000E+01 0.  0.
    9000005    1    3    3    0    0 -0.48202134927E+02 -0.29814809520E+02 -0.31923410532E+03  0.32422797948E+03  0.10000000000E+01 0.  0.
<mgrwt>
<rscale>  0 0.12499900E+03</rscale>
<asrwt>0</asrwt>
<pdfrwt beam="1">  1        4 0.54061247E-03 0.12499900E+03</pdfrwt>
<pdfrwt beam="2">  1       -4 0.17101741E+00 0.12499900E+03</pdfrwt>
<totfact> 0.27045422E+03</totfact>
</mgrwt>
</event>
<event>
 5    1  0.3245943E-002  0.1250034E+03  0.7818608E-02  0.1235064E+00
          4   -1    0    0  501    0  0.00000000000E+00  0.00000000000E+00  0.68222651684E+03  0.68222769892E+03  0.12700000000E+01 0.  1.
         -4   -1    0    0    0  501 -0.00000000000E+00 -0.00000000000E+00 -0.56544271970E+01  0.57952952407E+01  0.12700000000E+01 0.  1.
         25    2    1    2    0    0  0.00000000000E+00  0.00000000000E+00  0.67657208964E+03  0.68802299416E+03  0.12500339202E+03 0.  0.
    9000005    1    3    3    0    0  0.57442753373E+02 -0.30097840884E+01  0.20383279999E+03  0.21179598454E+03  0.10000000000E+01 0.  0.
    9000005    1    3    3    0    0 -0.57442753373E+02  0.30097840884E+01  0.47273928965E+03  0.47622700962E+03  0.10000000000E+01 0.  0.
<mgrwt>
<rscale>  0 0.12500339E+03</rscale>
<asrwt>0</asrwt>
<pdfrwt beam="1">  1        4 0.10496884E+00 0.12500339E+03</pdfrwt>
<pdfrwt beam="2">  1       -4 0.88083895E-03 0.12500339E+03</pdfrwt>
<totfact> 0.43723288E+03</totfact>
</mgrwt>
</event>
<event>
 5    1  0.3245943E-002  0.1250047E+03  0.7818608E-02  0.1235062E+00
          4   -1    0    0  501    0  0.00000000000E+00  0.00000000000E+00  0.12565206292E+01  0.17865452952E+01  0.12700000000E+01 0.  1.
         -4   -1    0    0    0  501 -0.00000000000E+00 -0.00000000000E+00 -0.25669752197E+04  0.25669755339E+04  0.12700000000E+01 0.  1.
         25    2    1    2    0    0  0.00000000000E+00  0.00000000000E+00 -0.25657186991E+04  0.25687620792E+04  0.12500470616E+03 0.  0.
    9000005    1    3    3    0    0  0.52410629956E+02 -0.15736807950E+02 -0.19031027627E+04  0.19038896099E+04  0.10000000000E+01 0.  0.
    9000005    1    3    3    0    0 -0.52410629956E+02  0.15736807950E+02 -0.66261593640E+03  0.66487246930E+03  0.10000000000E+01 0.  0.
<mgrwt>
<rscale>  0 0.12500471E+03</rscale>
<asrwt>0</asrwt>
<pdfrwt beam="1">  1        4 0.23410821E-03 0.12500471E+03</pdfrwt>
<pdfrwt beam="2">  1       -4 0.39495659E+00 0.12500471E+03</pdfrwt>
<totfact> 0.41510941E+02</totfact>
</mgrwt>
</event>
<event>
 5    1  0.3245943E-002  0.1249997E+03  0.7818608E-02  0.1235070E+00
         -4   -1    0    0    0  501 -0.00000000000E+00  0.00000000000E+00  0.12840168100E+03  0.12840796152E+03  0.12700000000E+01 0. -1.
          4   -1    0    0  501    0  0.00000000000E+00 -0.00000000000E+00 -0.30401695971E+02  0.30428210889E+02  0.12700000000E+01 0. -1.
         25    2    1    2    0    0  0.00000000000E+00  0.00000000000E+00  0.97999985026E+02  0.15883617241E+03  0.12499973041E+03 0.  0.
    9000005    1    3    3    0    0  0.47665630154E+02  0.39082708117E+02  0.62067921419E+02  0.87480839279E+02  0.10000000000E+01 0.  0.
    9000005    1    3    3    0    0 -0.47665630154E+02 -0.39082708117E+02  0.35932063607E+02  0.71355333135E+02  0.10000000000E+01 0.  0.
<mgrwt>
<rscale>  0 0.12499973E+03</rscale>
<asrwt>0</asrwt>
<pdfrwt beam="2">  1        4 0.46797067E-02 0.12499973E+03</pdfrwt>
<pdfrwt beam="1">  1       -4 0.19756628E-01 0.12499973E+03</pdfrwt>
<totfact> 0.97568223E+03</totfact>
</mgrwt>
</event>
<event>
 5    1  0.3245943E-002  0.1250031E+03  0.7818608E-02  0.1235064E+00
          4   -1    0    0  501    0  0.00000000000E+00  0.00000000000E+00  0.67492011644E+02  0.67503959408E+02  0.12700000000E+01 0. -1.
         -4   -1    0    0    0  501 -0.00000000000E+00 -0.00000000000E+00 -0.57856043267E+02  0.57869980495E+02  0.12700000000E+01 0. -1.
         25    2    1    2    0    0  0.00000000000E+00  0.00000000000E+00  0.96359683768E+01  0.12537393990E+03  0.12500309164E+03 0.  0.
    9000005    1    3    3    0    0  0.13308889027E+02  0.32070564949E+02  0.56931690297E+02  0.66692316074E+02  0.10000000000E+01 0.  0.
    9000005    1    3    3    0    0 -0.13308889027E+02 -0.32070564949E+02 -0.47295721920E+02  0.58681623829E+02  0.10000000000E+01 0.  0.
<mgrwt>
<rscale>  0 0.12500309E+03</rscale>
<asrwt>0</asrwt>
<pdfrwt beam="1">  1        4 0.10385378E-01 0.12500309E+03</pdfrwt>
<pdfrwt beam="2">  1       -4 0.89029209E-02 0.12500309E+03</pdfrwt>
<totfact> 0.10444016E+04</totfact>
</mgrwt>
</event>
<event>
 5    1  0.3245943E-002  0.1249994E+03  0.7818608E-02  0.1235070E+00
          4   -1    0    0  501    0  0.00000000000E+00  0.00000000000E+00  0.17081371173E+03  0.17081843289E+03  0.12700000000E+01 0. -1.
         -4   -1    0    0    0  501 -0.00000000000E+00 -0.00000000000E+00 -0.22845582338E+02  0.22880855150E+02  0.12700000000E+01 0. -1.
         25    2    1    2    0    0  0.00000000000E+00  0.00000000000E+00  0.14796812940E+03  0.19369928804E+03  0.12499938749E+03 0.  0.
    9000005    1    3    3    0    0  0.23178916513E+02 -0.56539716269E+02  0.94260179575E+02  0.11233869832E+03  0.10000000000E+01 0.  0.
    9000005    1    3    3    0    0 -0.23178916513E+02  0.56539716269E+02  0.53707949822E+02  0.81360589726E+02  0.10000000000E+01 0.  0.
<mgrwt>
<rscale>  0 0.12499939E+03</rscale>
<asrwt>0</asrwt>
<pdfrwt beam="1">  1        4 0.26282110E-01 0.12499939E+03</pdfrwt>
<pdfrwt beam="2">  1       -4 0.35177813E-02 0.12499939E+03</pdfrwt>
<totfact> 0.91208855E+03</totfact>
</mgrwt>
</event>
<event>
 5    1  0.3245943E-002  0.1249828E+03  0.7818608E-02  0.1235096E+00
          4   -1    0    0  501    0  0.00000000000E+00  0.00000000000E+00  0.74662584357E+03  0.74662692370E+03  0.12700000000E+01 0. -1.
         -4   -1    0    0    0  501 -0.00000000000E+00 -0.00000000000E+00 -0.51522423725E+01  0.53064584672E+01  0.12700000000E+01 0. -1.
         25    2    1    2    0    0  0.00000000000E+00  0.00000000000E+00  0.74147360120E+03  0.75193338217E+03  0.12498283857E+03 0.  0.
    9000005    1    3    3    0    0 -0.16128631638E+02  0.48219165970E+02  0.58923318796E+03  0.59142368106E+03  0.10000000000E+01 0.  0.
    9000005    1    3    3    0    0  0.16128631638E+02 -0.48219165970E+02  0.15224041325E+03  0.16050970111E+03  0.10000000000E+01 0.  0.
<mgrwt>
<rscale>  0 0.12498284E+03</rscale>
<asrwt>0</asrwt>
<pdfrwt beam="1">  1        4 0.11487736E+00 0.12498284E+03</pdfrwt>
<pdfrwt beam="2">  1       -4 0.80459924E-03 0.12498284E+03</pdfrwt>
<totfact> 0.40497054E+03</totfact>
</mgrwt>
</event>
<event>
 5    1  0.3245943E-002  0.1250114E+03  0.7818608E-02  0.1235051E+00
          4   -1    0    0  501    0  0.00000000000E+00  0.00000000000E+00  0.12330087056E+03  0.12330741090E+03  0.12700000000E+01 0.  1.
         -4   -1    0    0    0  501 -0.00000000000E+00 -0.00000000000E+00 -0.31666328342E+02  0.31691785223E+02  0.12700000000E+01 0.  1.
         25    2    1    2    0    0  0.00000000000E+00  0.00000000000E+00  0.91634542222E+02  0.15499919612E+03  0.12501144535E+03 0.  0.
    9000005    1    3    3    0    0 -0.56388319111E+02  0.10587280431E+02  0.15088442543E+02  0.59332909397E+02  0.10000000000E+01 0.  0.
    9000005    1    3    3    0    0  0.56388319111E+02 -0.10587280431E+02  0.76546099679E+02  0.95666286722E+02  0.10000000000E+01 0.  0.
<mgrwt>
<rscale>  0 0.12501145E+03</rscale>
<asrwt>0</asrwt>
<pdfrwt beam="1">  1        4 0.18971826E-01 0.12501145E+03</pdfrwt>
<pdfrwt beam="2">  1       -4 0.48742041E-02 0.12501145E+03</pdfrwt>
<totfact> 0.98290354E+03</totfact>
</mgrwt>
</event>
<event>
 5    1  0.3245943E-002  0.1249960E+03  0.7818608E-02  0.1235075E+00
         -4   -1    0    0    0  501 -0.00000000000E+00  0.00000000000E+00  0.28689340266E+02  0.28717436253E+02  0.12700000000E+01 0.  1.
          4   -1    0    0  501    0  0.00000000000E+00 -0.00000000000E+00 -0.13605049135E+03  0.13605641880E+03  0.12700000000E+01 0.  1.
         25    2    1    2    0    0  0.00000000000E+00  0.00000000000E+00 -0.10736115108E+03  0.16477385505E+03  0.12499602612E+03 0.  0.
    9000005    1    3    3    0    0  0.11948488428E+02  0.25687775375E+02 -0.12710476053E+03  0.13022767881E+03  0.10000000000E+01 0.  0.
    9000005    1    3    3    0    0 -0.11948488428E+02 -0.25687775375E+02  0.19743609441E+02  0.34546176245E+02  0.10000000000E+01 0.  0.
<mgrwt>
<rscale>  0 0.12499603E+03</rscale>
<asrwt>0</asrwt>
<pdfrwt beam="2">  1        4 0.20933462E-01 0.12499603E+03</pdfrwt>
<pdfrwt beam="1">  1       -4 0.44163619E-02 0.12499603E+03</pdfrwt>
<totfact> 0.96438847E+03</totfact>
</mgrwt>
</event>
<event>
 5    1  0.3245943E-002  0.1250009E+03  0.7818608E-02  0.1235068E+00
         -4   -1    0    0    0  501 -0.00000000000E+00  0.00000000000E+00  0.10798336875E+03  0.10799083677E+03  0.12700000000E+01 0.  1.
          4   -1    0    0  501    0  0.00000000000E+00 -0.00000000000E+00 -0.36155183141E+02  0.36177481504E+02  0.12700000000E+01 0.  1.
         25    2    1    2    0    0  0.00000000000E+00  0.00000000000E+00  0.71828185610E+02  0.14416831828E+03  0.12500086298E+03 0.  0.
    9000005    1    3    3    0    0  0.46503095202E+02 -0.41546771212E+02  0.40617660835E+02  0.74427591881E+02  0.10000000000E+01 0.  0.
    9000005    1    3    3    0    0 -0.46503095202E+02  0.41546771212E+02  0.31210524775E+02  0.69740726396E+02  0.10000000000E+01 0.  0.
<mgrwt>
<rscale>  0 0.12500086E+03</rscale>
<asrwt>0</asrwt>
<pdfrwt beam="2">  1        4 0.55646256E-02 0.12500086E+03</pdfrwt>
<pdfrwt beam="1">  1       -4 0.16615116E-01 0.12500086E+03</pdfrwt>
<totfact> 0.10047718E+04</totfact>
</mgrwt>
</event>
<event>
 5    1  0.3245943E-002  0.1249989E+03  0.7818608E-02  0.1235071E+00
         -4   -1    0    0    0  501 -0.00000000000E+00  0.00000000000E+00  0.67428244630E+02  0.67440203691E+02  0.12700000000E+01 0. -1.
          4   -1    0    0  501    0  0.00000000000E+00 -0.00000000000E+00 -0.57906867291E+02  0.57920792289E+02  0.12700000000E+01 0. -1.
         25    2    1    2    0    0  0.00000000000E+00  0.00000000000E+00  0.95213773397E+01  0.12536099598E+03  0.12499889074E+03 0.  0.
    9000005    1    3    3    0    0 -0.52754173009E+02 -0.10368681066E+02  0.36706824422E+02  0.65106860438E+02  0.10000000000E+01 0.  0.
    9000005    1    3    3    0    0  0.52754173009E+02  0.10368681066E+02 -0.27185447082E+02  0.60254135543E+02  0.10000000000E+01 0.  0.
<mgrwt>
<rscale>  0 0.12499889E+03</rscale>
<asrwt>0</asrwt>
<pdfrwt beam="2">  1        4 0.89107399E-02 0.12499889E+03</pdfrwt>
<pdfrwt beam="1">  1       -4 0.10375567E-01 0.12499889E+03</pdfrwt>
<totfact> 0.10445288E+04</totfact>
</mgrwt>
</event>
<event>
 5    1  0.3245943E-002  0.1249994E+03  0.7818608E-02  0.1235070E+00
         -4   -1    0    0    0  501 -0.00000000000E+00  0.00000000000E+00  0.17030369003E+03  0.17030842533E+03  0.12700000000E+01 0. -1.
          4   -1    0    0  501    0  0.00000000000E+00 -0.00000000000E+00 -0.22914093108E+02  0.22949260619E+02  0.12700000000E+01 0. -1.
         25    2    1    2    0    0  0.00000000000E+00  0.00000000000E+00  0.14738959692E+03  0.19325768595E+03  0.12499935959E+03 0.  0.
    9000005    1    3    3    0    0 -0.11024673182E+02 -0.39739504873E+02  0.14628499324E+03  0.15199036455E+03  0.10000000000E+01 0.  0.
    9000005    1    3    3    0    0  0.11024673182E+02  0.39739504873E+02  0.11046036769E+01  0.41267321400E+02  0.10000000000E+01 0.  0.
<mgrwt>
<rscale>  0 0.12499936E+03</rscale>
<asrwt>0</asrwt>
<pdfrwt beam="2">  1        4 0.35283146E-02 0.12499936E+03</pdfrwt>
<pdfrwt beam="1">  1       -4 0.26203637E-01 0.12499936E+03</pdfrwt>
<totfact> 0.91284867E+03</totfact>
</mgrwt>
</event>
<event>
 5    1  0.3245943E-002  0.1249990E+03  0.7818608E-02  0.1235071E+00
         -4   -1    0    0    0  501 -0.00000000000E+00  0.00000000000E+00  0.52569316906E+03  0.52569470313E+03  0.12700000000E+01 0.  1.
          4   -1    0    0  501    0  0.00000000000E+00 -0.00000000000E+00 -0.73747290090E+01  0.74832832337E+01  0.12700000000E+01 0.  1.
         25    2    1    2    0    0  0.00000000000E+00  0.00000000000E+00  0.51831844005E+03  0.53317798636E+03  0.12499903937E+03 0.  0.
    9000005    1    3    3    0    0  0.22951538934E+02  0.26594063075E+02  0.47961247362E+03  0.48089826594E+03  0.10000000000E+01 0.  0.
    9000005    1    3    3    0    0 -0.22951538934E+02 -0.26594063075E+02  0.38705966434E+02  0.52279720426E+02  0.10000000000E+01 0.  0.
<mgrwt>
<rscale>  0 0.12499904E+03</rscale>
<asrwt>0</asrwt>
<pdfrwt beam="2">  1        4 0.11430421E-02 0.12499904E+03</pdfrwt>
<pdfrwt beam="1">  1       -4 0.80884332E-01 0.12499904E+03</pdfrwt>
<totfact> 0.53380151E+03</totfact>
</mgrwt>
</event>
<event>
 5    1  0.3245943E-002  0.1250214E+03  0.7818608E-02  0.1235036E+00
          4   -1    0    0  501    0  0.00000000000E+00  0.00000000000E+00  0.37288775179E+03  0.37288991450E+03  0.12700000000E+01 0. -1.
         -4   -1    0    0    0  501 -0.00000000000E+00 -0.00000000000E+00 -0.10438581667E+02  0.10515554536E+02  0.12700000000E+01 0. -1.
         25    2    1    2    0    0  0.00000000000E+00  0.00000000000E+00  0.36244917012E+03  0.38340546903E+03  0.12502140922E+03 0.  0.
    9000005    1    3    3    0    0  0.37207416706E+02  0.16820162864E+02  0.36104352952E+02  0.54514530529E+02  0.10000000000E+01 0.  0.
    9000005    1    3    3    0    0 -0.37207416706E+02 -0.16820162864E+02  0.32634481717E+03  0.32889093851E+03  0.10000000000E+01 0.  0.
<mgrwt>
<rscale>  0 0.12502141E+03</rscale>
<asrwt>0</asrwt>
<pdfrwt beam="1">  1        4 0.57373423E-01 0.12502141E+03</pdfrwt>
<pdfrwt beam="2">  1       -4 0.16120233E-02 0.12502141E+03</pdfrwt>
<totfact> 0.66168102E+03</totfact>
</mgrwt>
</event>
<event>
 5    1  0.3245943E-002  0.1249978E+03  0.7818608E-02  0.1235073E+00
         -4   -1    0    0    0  501 -0.00000000000E+00  0.00000000000E+00  0.12710058512E+02  0.12773350672E+02  0.12700000000E+01 0. -1.
          4   -1    0    0  501    0  0.00000000000E+00 -0.00000000000E+00 -0.30649673329E+03  0.30649936447E+03  0.12700000000E+01 0. -1.
         25    2    1    2    0    0  0.00000000000E+00  0.00000000000E+00 -0.29378667478E+03  0.31927271514E+03  0.12499782540E+03 0.  0.
    9000005    1    3    3    0    0  0.36094070371E+02  0.34874039989E+02 -0.51797418569E+02  0.72131499024E+02  0.10000000000E+01 0.  0.
    9000005    1    3    3    0    0 -0.36094070371E+02 -0.34874039989E+02 -0.24198925621E+03  0.24714121611E+03  0.10000000000E+01 0.  0.
<mgrwt>
<rscale>  0 0.12499783E+03</rscale>
<asrwt>0</asrwt>
<pdfrwt beam="2">  1        4 0.47158409E-01 0.12499783E+03</pdfrwt>
<pdfrwt beam="1">  1       -4 0.19604649E-02 0.12499783E+03</pdfrwt>
<totfact> 0.73246243E+03</totfact>
</mgrwt>
</event>
<event>
 5    1  0.3245943E-002  0.1249991E+03  0.7818608E-02  0.1235071E+00
          4   -1    0    0  501    0  0.00000000000E+00  0.00000000000E+00  0.40048210825E+02  0.40068342744E+02  0.12700000000E+01 0. -1.
         -4   -1    0    0    0  501 -0.00000000000E+00 -0.00000000000E+00 -0.97488492356E+02  0.97496764263E+02  0.12700000000E+01 0. -1.
         25    2    1    2    0    0  0.00000000000E+00  0.00000000000E+00 -0.57440281531E+02  0.13756510701E+03  0.12499909089E+03 0.  0.
    9000005    1    3    3    0    0 -0.69293818540E+01  0.54413770173E+02 -0.61668410085E+02  0.82540096436E+02  0.10000000000E+01 0.  0.
    9000005    1    3    3    0    0  0.69293818540E+01 -0.54413770173E+02  0.42281285543E+01  0.55025010571E+02  0.10000000000E+01 0.  0.
<mgrwt>
<rscale>  0 0.12499909E+03</rscale>
<asrwt>0</asrwt>
<pdfrwt beam="1">  1        4 0.61634482E-02 0.12499909E+03</pdfrwt>
<pdfrwt beam="2">  1       -4 0.15000414E-01 0.12499909E+03</pdfrwt>
<totfact> 0.10184492E+04</totfact>
</mgrwt>
</event>
<event>
 5    1  0.3245943E-002  0.1250002E+03  0.7818608E-02  0.1235069E+00
         -4   -1    0    0    0  501 -0.00000000000E+00  0.00000000000E+00  0.18193826651E+04  0.18193831083E+04  0.12700000000E+01 0. -1.
          4   -1    0    0  501    0  0.00000000000E+00 -0.00000000000E+00 -0.19587370052E+01  0.23344272650E+01  0.12700000000E+01 0. -1.
         25    2    1    2    0    0  0.00000000000E+00  0.00000000000E+00  0.18174239280E+04  0.18217175356E+04  0.12500018069E+03 0.  0.
    9000005    1    3    3    0    0  0.20233295969E+02 -0.34615669292E+02  0.16072828611E+04  0.16077832026E+04  0.10000000000E+01 0.  0.
    9000005    1    3    3    0    0 -0.20233295969E+02  0.34615669292E+02  0.21014106691E+03  0.21393433299E+03  0.10000000000E+01 0.  0.
<mgrwt>
<rscale>  0 0.12500018E+03</rscale>
<asrwt>0</asrwt>
<pdfrwt beam="2">  1        4 0.33027895E-03 0.12500018E+03</pdfrwt>
<pdfrwt beam="1">  1       -4 0.27993273E+00 0.12500018E+03</pdfrwt>
<totfact> 0.12371941E+03</totfact>
</mgrwt>
</event>
<event>
 5    1  0.3245943E-002  0.1249965E+03  0.7818608E-02  0.1235075E+00
          4   -1    0    0  501    0  0.00000000000E+00  0.00000000000E+00  0.15342245500E+02  0.15394719776E+02  0.12700000000E+01 0.  1.
         -4   -1    0    0    0  501 -0.00000000000E+00 -0.00000000000E+00 -0.25410461809E+03  0.25410779176E+03  0.12700000000E+01 0.  1.
         25    2    1    2    0    0  0.00000000000E+00  0.00000000000E+00 -0.23876237259E+03  0.26950251154E+03  0.12499653260E+03 0.  0.
    9000005    1    3    3    0    0 -0.22320529518E+02 -0.52249342375E+02 -0.17547381144E+03  0.18444581404E+03  0.10000000000E+01 0.  0.
    9000005    1    3    3    0    0  0.22320529518E+02  0.52249342375E+02 -0.63288561151E+02  0.85056697498E+02  0.10000000000E+01 0.  0.
<mgrwt>
<rscale>  0 0.12499653E+03</rscale>
<asrwt>0</asrwt>
<pdfrwt beam="1">  1        4 0.23646263E-02 0.12499653E+03</pdfrwt>
<pdfrwt beam="2">  1       -4 0.39097296E-01 0.12499653E+03</pdfrwt>
<totfact> 0.79596881E+03</totfact>
</mgrwt>
</event>
<event>
 5    1  0.3245943E-002  0.1249952E+03  0.7818608E-02  0.1235077E+00
          4   -1    0    0  501    0  0.00000000000E+00  0.00000000000E+00  0.43233041009E+02  0.43251690544E+02  0.12700000000E+01 0.  1.
         -4   -1    0    0    0  501 -0.00000000000E+00 -0.00000000000E+00 -0.90303796537E+02  0.90312726507E+02  0.12700000000E+01 0.  1.
         25    2    1    2    0    0  0.00000000000E+00  0.00000000000E+00 -0.47070755528E+02  0.13356441705E+03  0.12499518981E+03 0.  0.
    9000005    1    3    3    0    0  0.35361741769E+01  0.17741328910E+02 -0.87449794729E+02  0.89306919538E+02  0.10000000000E+01 0.  0.
    9000005    1    3    3    0    0 -0.35361741769E+01 -0.17741328910E+02  0.40379039201E+02  0.44257497512E+02  0.10000000000E+01 0.  0.
<mgrwt>
<rscale>  0 0.12499519E+03</rscale>
<asrwt>0</asrwt>
<pdfrwt beam="1">  1        4 0.66533586E-02 0.12499519E+03</pdfrwt>
<pdfrwt beam="2">  1       -4 0.13895013E-01 0.12499519E+03</pdfrwt>
<totfact> 0.10269533E+04</totfact>
</mgrwt>
</event>
<event>
 5    1  0.3245943E-002  0.1250073E+03  0.7818608E-02  0.1235058E+00
          4   -1    0    0  501    0  0.00000000000E+00  0.00000000000E+00  0.46081654995E+03  0.46081829999E+03  0.12700000000E+01 0.  1.
         -4   -1    0    0    0  501 -0.00000000000E+00 -0.00000000000E+00 -0.84284499280E+01  0.85235947926E+01  0.12700000000E+01 0.  1.
         25    2    1    2    0    0  0.00000000000E+00  0.00000000000E+00  0.45238810002E+03  0.46934189479E+03  0.12500728442E+03 0.  0.
    9000005    1    3    3    0    0 -0.58916744503E+02 -0.49066631560E+00  0.14795207713E+03  0.15925526887E+03  0.10000000000E+01 0.  0.
    9000005    1    3    3    0    0  0.58916744503E+02  0.49066631560E+00  0.30443602289E+03  0.31008662591E+03  0.10000000000E+01 0.  0.
<mgrwt>
<rscale>  0 0.12500728E+03</rscale>
<asrwt>0</asrwt>
<pdfrwt beam="1">  1        4 0.70902335E-01 0.12500728E+03</pdfrwt>
<pdfrwt beam="2">  1       -4 0.13041376E-02 0.12500728E+03</pdfrwt>
<totfact> 0.58314710E+03</totfact>
</mgrwt>
</event>
<event>
 5    1  0.3245943E-002  0.1249795E+03  0.7818608E-02  0.1235101E+00
         -4   -1    0    0    0  501 -0.00000000000E+00  0.00000000000E+00  0.47687885181E+01  0.49350019180E+01  0.12700000000E+01 0. -1.
          4   -1    0    0  501    0  0.00000000000E+00 -0.00000000000E+00 -0.80466702248E+03  0.80466802470E+03  0.12700000000E+01 0. -1.
         25    2    1    2    0    0  0.00000000000E+00  0.00000000000E+00 -0.79989823396E+03  0.80960302662E+03  0.12497950234E+03 0.  0.
    9000005    1    3    3    0    0 -0.23216261787E+02  0.55104715254E+02 -0.28255012718E+03  0.28880979697E+03  0.10000000000E+01 0.  0.
    9000005    1    3    3    0    0  0.23216261787E+02 -0.55104715254E+02 -0.51734810678E+03  0.52079322965E+03  0.10000000000E+01 0.  0.
<mgrwt>
<rscale>  0 0.12497950E+03</rscale>
<asrwt>0</asrwt>
<pdfrwt beam="2">  1        4 0.12380768E+00 0.12497950E+03</pdfrwt>
<pdfrwt beam="1">  1       -4 0.74652315E-03 0.12497950E+03</pdfrwt>
<totfact> 0.37856578E+03</totfact>
</mgrwt>
</event>
<event>
 5    1  0.3245943E-002  0.1249990E+03  0.7818608E-02  0.1235071E+00
         -4   -1    0    0    0  501 -0.00000000000E+00  0.00000000000E+00  0.18590717795E+02  0.18634046478E+02  0.12700000000E+01 0.  1.
          4   -1    0    0  501    0  0.00000000000E+00 -0.00000000000E+00 -0.20982513402E+03  0.20982897743E+03  0.12700000000E+01 0.  1.
         25    2    1    2    0    0  0.00000000000E+00  0.00000000000E+00 -0.19123441623E+03  0.22846302391E+03  0.12499900536E+03 0.  0.
    9000005    1    3    3    0    0  0.94152349592E+01  0.40149105219E+02 -0.18143420901E+03  0.18606442298E+03  0.10000000000E+01 0.  0.
    9000005    1    3    3    0    0 -0.94152349592E+01 -0.40149105219E+02 -0.98002072220E+01  0.42398600930E+02  0.10000000000E+01 0.  0.
<mgrwt>
<rscale>  0 0.12499901E+03</rscale>
<asrwt>0</asrwt>
<pdfrwt beam="2">  1        4 0.32284417E-01 0.12499901E+03</pdfrwt>
<pdfrwt beam="1">  1       -4 0.28637392E-02 0.12499901E+03</pdfrwt>
<totfact> 0.85548060E+03</totfact>
</mgrwt>
</event>
<event>
 5    1  0.3245943E-002  0.1249964E+03  0.7818608E-02  0.1235075E+00
          4   -1    0    0  501    0  0.00000000000E+00  0.00000000000E+00  0.72075536270E+03  0.72075648160E+03  0.12700000000E+01 0.  1.
         -4   -1    0    0    0  501 -0.00000000000E+00 -0.00000000000E+00 -0.53438028509E+01  0.54926431624E+01  0.12700000000E+01 0.  1.
         25    2    1    2    0    0  0.00000000000E+00  0.00000000000E+00  0.71541155985E+03  0.72624912476E+03  0.12499636493E+03 0.  0.
    9000005    1    3    3    0    0 -0.41360320310E+00 -0.12821848225E+02  0.71305083717E+03  0.71316692804E+03  0.10000000000E+01 0.  0.
    9000005    1    3    3    0    0  0.41360320310E+00  0.12821848225E+02  0.23607226842E+01  0.13082196723E+02  0.10000000000E+01 0.  0.
<mgrwt>
<rscale>  0 0.12499636E+03</rscale>
<asrwt>0</asrwt>
<pdfrwt beam="1">  1        4 0.11089694E+00 0.12499636E+03</pdfrwt>
<pdfrwt beam="2">  1       -4 0.83365914E-03 0.12499636E+03</pdfrwt>
<totfact> 0.41740035E+03</totfact>
</mgrwt>
</event>
<event>
 5    1  0.3245943E-002  0.1250135E+03  0.7818608E-02  0.1235048E+00
         -4   -1    0    0    0  501 -0.00000000000E+00  0.00000000000E+00  0.18395066030E+02  0.18438854472E+02  0.12700000000E+01 0.  1.
          4   -1    0    0  501    0  0.00000000000E+00 -0.00000000000E+00 -0.21210069435E+03  0.21210449652E+03  0.12700000000E+01 0.  1.
         25    2    1    2    0    0  0.00000000000E+00  0.00000000000E+00 -0.19370562832E+03  0.23054335099E+03  0.12501346425E+03 0.  0.
    9000005    1    3    3    0    0  0.30987205143E+02  0.36023100908E+02 -0.17172207010E+03  0.17817783263E+03  0.10000000000E+01 0.  0.
    9000005    1    3    3    0    0 -0.30987205143E+02 -0.36023100908E+02 -0.21983558228E+02  0.52365518368E+02  0.10000000000E+01 0.  0.
<mgrwt>
<rscale>  0 0.12501346E+03</rscale>
<asrwt>0</asrwt>
<pdfrwt beam="2">  1        4 0.32634535E-01 0.12501346E+03</pdfrwt>
<pdfrwt beam="1">  1       -4 0.28336711E-02 0.12501346E+03</pdfrwt>
<totfact> 0.85200639E+03</totfact>
</mgrwt>
</event>
<event>
 5    1  0.3245943E-002  0.1250007E+03  0.7818608E-02  0.1235068E+00
         -4   -1    0    0    0  501 -0.00000000000E+00  0.00000000000E+00  0.13755483446E+02  0.13813986565E+02  0.12700000000E+01 0.  1.
          4   -1    0    0  501    0  0.00000000000E+00 -0.00000000000E+00 -0.28331834253E+03  0.28332118896E+03  0.12700000000E+01 0.  1.
         25    2    1    2    0    0  0.00000000000E+00  0.00000000000E+00 -0.26956285909E+03  0.29713517553E+03  0.12500071015E+03 0.  0.
    9000005    1    3    3    0    0 -0.33914643607E+02  0.35932698850E+02 -0.43831553492E+02  0.66057300726E+02  0.10000000000E+01 0.  0.
    9000005    1    3    3    0    0  0.33914643607E+02 -0.35932698850E+02 -0.22573130560E+03  0.23107787480E+03  0.10000000000E+01 0.  0.
<mgrwt>
<rscale>  0 0.12500071E+03</rscale>
<asrwt>0</asrwt>
<pdfrwt beam="2">  1        4 0.43592152E-01 0.12500071E+03</pdfrwt>
<pdfrwt beam="1">  1       -4 0.21209476E-02 0.12500071E+03</pdfrwt>
<totfact> 0.75958412E+03</totfact>
</mgrwt>
</event>
<event>
 5    1  0.3245943E-002  0.1250074E+03  0.7818608E-02  0.1235058E+00
         -4   -1    0    0    0  501 -0.00000000000E+00  0.00000000000E+00  0.12360387613E+03  0.12361040043E+03  0.12700000000E+01 0. -1.
          4   -1    0    0  501    0  0.00000000000E+00 -0.00000000000E+00 -0.31586583248E+02  0.31612104348E+02  0.12700000000E+01 0. -1.
         25    2    1    2    0    0  0.00000000000E+00  0.00000000000E+00  0.92017292882E+02  0.15522250478E+03  0.12500737498E+03 0.  0.
    9000005    1    3    3    0    0 -0.20535452590E+02 -0.57838725891E+02  0.60631710267E+02  0.86279935766E+02  0.10000000000E+01 0.  0.
    9000005    1    3    3    0    0  0.20535452590E+02  0.57838725891E+02  0.31385582615E+02  0.68942569011E+02  0.10000000000E+01 0.  0.
<mgrwt>
<rscale>  0 0.12500737E+03</rscale>
<asrwt>0</asrwt>
<pdfrwt beam="2">  1        4 0.48619394E-02 0.12500737E+03</pdfrwt>
<pdfrwt beam="1">  1       -4 0.19018446E-01 0.12500737E+03</pdfrwt>
<totfact> 0.98255539E+03</totfact>
</mgrwt>
</event>
<event>
 5    1  0.3245943E-002  0.1249984E+03  0.7818608E-02  0.1235072E+00
         -4   -1    0    0    0  501 -0.00000000000E+00  0.00000000000E+00  0.40212038906E+03  0.40212239455E+03  0.12700000000E+01 0.  1.
          4   -1    0    0  501    0  0.00000000000E+00 -0.00000000000E+00 -0.96703306648E+01  0.97533684010E+01  0.12700000000E+01 0.  1.
         25    2    1    2    0    0  0.00000000000E+00  0.00000000000E+00  0.39245005840E+03  0.41187576295E+03  0.12499838307E+03 0.  0.
    9000005    1    3    3    0    0  0.57441629281E+02  0.20604257007E+02  0.15188577297E+03  0.16368984150E+03  0.10000000000E+01 0.  0.
    9000005    1    3    3    0    0 -0.57441629281E+02 -0.20604257007E+02  0.24056428543E+03  0.24818592145E+03  0.10000000000E+01 0.  0.
<mgrwt>
<rscale>  0 0.12499838E+03</rscale>
<asrwt>0</asrwt>
<pdfrwt beam="2">  1        4 0.14942850E-02 0.12499838E+03</pdfrwt>
<pdfrwt beam="1">  1       -4 0.61871217E-01 0.12499838E+03</pdfrwt>
<totfact> 0.63416187E+03</totfact>
</mgrwt>
</event>
<event>
 5    1  0.3245943E-002  0.1249924E+03  0.7818608E-02  0.1235081E+00
          4   -1    0    0  501    0  0.00000000000E+00  0.00000000000E+00  0.93038021412E+01  0.93900816973E+01  0.12700000000E+01 0. -1.
         -4   -1    0    0    0  501 -0.00000000000E+00 -0.00000000000E+00 -0.41777936462E+03  0.41778129494E+03  0.12700000000E+01 0. -1.
         25    2    1    2    0    0  0.00000000000E+00  0.00000000000E+00 -0.40847556248E+03  0.42717137664E+03  0.12499239928E+03 0.  0.
    9000005    1    3    3    0    0 -0.51817864268E+02  0.83994195789E+01 -0.32008985531E+03  0.32436731768E+03  0.10000000000E+01 0.  0.
    9000005    1    3    3    0    0  0.51817864268E+02 -0.83994195789E+01 -0.88385707168E+02  0.10280405896E+03  0.10000000000E+01 0.  0.
<mgrwt>
<rscale>  0 0.12499240E+03</rscale>
<asrwt>0</asrwt>
<pdfrwt beam="1">  1        4 0.14381399E-02 0.12499240E+03</pdfrwt>
<pdfrwt beam="2">  1       -4 0.64280519E-01 0.12499240E+03</pdfrwt>
<totfact> 0.62003626E+03</totfact>
</mgrwt>
</event>
<event>
 5    1  0.3245943E-002  0.1249984E+03  0.7818608E-02  0.1235072E+00
         -4   -1    0    0    0  501 -0.00000000000E+00  0.00000000000E+00  0.10780222240E+02  0.10854772755E+02  0.12700000000E+01 0.  1.
          4   -1    0    0  501    0  0.00000000000E+00 -0.00000000000E+00 -0.36101985305E+03  0.36102208685E+03  0.12700000000E+01 0.  1.
         25    2    1    2    0    0  0.00000000000E+00  0.00000000000E+00 -0.35023963081E+03  0.37187685961E+03  0.12499839888E+03 0.  0.
    9000005    1    3    3    0    0  0.15414064537E+02  0.35532811266E+02 -0.29221570943E+02  0.48529107455E+02  0.10000000000E+01 0.  0.
    9000005    1    3    3    0    0 -0.15414064537E+02 -0.35532811266E+02 -0.32101805987E+03  0.32334775215E+03  0.10000000000E+01 0.  0.
<mgrwt>
<rscale>  0 0.12499840E+03</rscale>
<asrwt>0</asrwt>
<pdfrwt beam="2">  1        4 0.55547413E-01 0.12499840E+03</pdfrwt>
<pdfrwt beam="1">  1       -4 0.16644025E-02 0.12499840E+03</pdfrwt>
<totfact> 0.67385428E+03</totfact>
</mgrwt>
</event>
<event>
 5    1  0.3245943E-002  0.1249973E+03  0.7818608E-02  0.1235073E+00
         -4   -1    0    0    0  501 -0.00000000000E+00  0.00000000000E+00  0.79901756647E+02  0.79911849030E+02  0.12700000000E+01 0. -1.
          4   -1    0    0  501    0  0.00000000000E+00 -0.00000000000E+00 -0.48864653124E+02  0.48881154088E+02  0.12700000000E+01 0. -1.
         25    2    1    2    0    0  0.00000000000E+00  0.00000000000E+00  0.31037103523E+02  0.12879300312E+03  0.12499734340E+03 0.  0.
    9000005    1    3    3    0    0 -0.35366072153E+02  0.51299951668E+02  0.20421173534E+02  0.65577956885E+02  0.10000000000E+01 0.  0.
    9000005    1    3    3    0    0  0.35366072153E+02 -0.51299951668E+02  0.10615929988E+02  0.63215046233E+02  0.10000000000E+01 0.  0.
<mgrwt>
<rscale>  0 0.12499734E+03</rscale>
<asrwt>0</asrwt>
<pdfrwt beam="2">  1        4 0.75196846E-02 0.12499734E+03</pdfrwt>
<pdfrwt beam="1">  1       -4 0.12294624E-01 0.12499734E+03</pdfrwt>
<totfact> 0.10371019E+04</totfact>
</mgrwt>
</event>
<event>
 4    1  0.3245943E-002  0.1245454E+03  0.7818608E-02  0.1235781E+00
          4   -1    0    0  501    0  0.00000000000E+00  0.00000000000E+00  0.96174692398E+02  0.96183077295E+02  0.12700000000E+01 0. -1.
         -4   -1    0    0    0  501 -0.00000000000E+00 -0.00000000000E+00 -0.40301145103E+02  0.40321150736E+02  0.12700000000E+01 0. -1.
    9000005    1    1    2    0    0  0.10942697165E+02  0.59869344572E+02  0.42344610614E+02  0.74149491494E+02  0.10000000000E+01 0.  0.
    9000005    1    1    2    0    0 -0.10942697165E+02 -0.59869344572E+02  0.13528936681E+02  0.62354736536E+02  0.10000000000E+01 0.  0.
<mgrwt>
<rscale>  0 0.12454538E+03</rscale>
<asrwt>0</asrwt>
<pdfrwt beam="1">  1        4 0.14798290E-01 0.12454538E+03</pdfrwt>
<pdfrwt beam="2">  1       -4 0.62023601E-02 0.12454538E+03</pdfrwt>
<totfact> 0.10311798E+04</totfact>
</mgrwt>
</event>
<event>
 5    1  0.3245943E-002  0.1250218E+03  0.7818608E-02  0.1235035E+00
         -4   -1    0    0    0  501 -0.00000000000E+00  0.00000000000E+00  0.66102515139E+02  0.66114714003E+02  0.12700000000E+01 0. -1.
          4   -1    0    0  501    0  0.00000000000E+00 -0.00000000000E+00 -0.59090000850E+02  0.59103647099E+02  0.12700000000E+01 0. -1.
         25    2    1    2    0    0  0.00000000000E+00  0.00000000000E+00  0.70125142892E+01  0.12521836110E+03  0.12502184849E+03 0.  0.
    9000005    1    3    3    0    0 -0.16244116282E+02 -0.52250371215E+02 -0.26751210221E+02  0.60914693254E+02  0.10000000000E+01 0.  0.
    9000005    1    3    3    0    0  0.16244116282E+02  0.52250371215E+02  0.33763724510E+02  0.64303667848E+02  0.10000000000E+01 0.  0.
<mgrwt>
<rscale>  0 0.12502185E+03</rscale>
<asrwt>0</asrwt>
<pdfrwt beam="2">  1        4 0.90927575E-02 0.12502185E+03</pdfrwt>
<pdfrwt beam="1">  1       -4 0.10171606E-01 0.12502185E+03</pdfrwt>
<totfact> 0.10442964E+04</totfact>
</mgrwt>
</event>
<event>
 5    1  0.3245943E-002  0.1250003E+03  0.7818608E-02  0.1235069E+00
         -4   -1    0    0    0  501 -0.00000000000E+00  0.00000000000E+00  0.40801205438E+02  0.40820966001E+02  0.12700000000E+01 0.  1.
          4   -1    0    0  501    0  0.00000000000E+00 -0.00000000000E+00 -0.95691834255E+02  0.95700261457E+02  0.12700000000E+01 0.  1.
         25    2    1    2    0    0  0.00000000000E+00  0.00000000000E+00 -0.54890628816E+02  0.13652122746E+03  0.12500025766E+03 0.  0.
    9000005    1    3    3    0    0 -0.50137435130E+02  0.27203835801E+01  0.13187182870E+02  0.51923642787E+02  0.10000000000E+01 0.  0.
    9000005    1    3    3    0    0  0.50137435130E+02 -0.27203835801E+01 -0.68077811686E+02  0.84597584671E+02  0.10000000000E+01 0.  0.
<mgrwt>
<rscale>  0 0.12500026E+03</rscale>
<asrwt>0</asrwt>
<pdfrwt beam="2">  1        4 0.14723989E-01 0.12500026E+03</pdfrwt>
<pdfrwt beam="1">  1       -4 0.62792768E-02 0.12500026E+03</pdfrwt>
<totfact> 0.10206047E+04</totfact>
</mgrwt>
</event>
<event>
 5    1  0.3245943E-002  0.1250015E+03  0.7818608E-02  0.1235067E+00
          4   -1    0    0  501    0  0.00000000000E+00  0.00000000000E+00  0.76150280021E+03  0.76150385924E+03  0.12700000000E+01 0. -1.
         -4   -1    0    0    0  501 -0.00000000000E+00 -0.00000000000E+00 -0.50500992080E+01  0.52073411652E+01  0.12700000000E+01 0. -1.
         25    2    1    2    0    0  0.00000000000E+00  0.00000000000E+00  0.75645270101E+03  0.76671120040E+03  0.12500150385E+03 0.  0.
    9000005    1    3    3    0    0  0.16704612622E+02  0.54549722849E+02  0.22177373567E+03  0.22899630167E+03  0.10000000000E+01 0.  0.
    9000005    1    3    3    0    0 -0.16704612622E+02 -0.54549722849E+02  0.53467896534E+03  0.53771489873E+03  0.10000000000E+01 0.  0.
<mgrwt>
<rscale>  0 0.12500150E+03</rscale>
<asrwt>0</asrwt>
<pdfrwt beam="1">  1        4 0.11716651E+00 0.12500150E+03</pdfrwt>
<pdfrwt beam="2">  1       -4 0.78911497E-03 0.12500150E+03</pdfrwt>
<totfact> 0.39785984E+03</totfact>
</mgrwt>
</event>
<event>
 5    1  0.3245943E-002  0.1250000E+03  0.7818608E-02  0.1235069E+00
          4   -1    0    0  501    0  0.00000000000E+00  0.00000000000E+00  0.26025939500E+02  0.26056907469E+02  0.12700000000E+01 0. -1.
         -4   -1    0    0    0  501 -0.00000000000E+00 -0.00000000000E+00 -0.14996780568E+03  0.14997318307E+03  0.12700000000E+01 0. -1.
         25    2    1    2    0    0  0.00000000000E+00  0.00000000000E+00 -0.12394186618E+03  0.17603009054E+03  0.12500002633E+03 0.  0.
    9000005    1    3    3    0    0  0.35321660251E+01  0.62212019892E+02 -0.68641895982E+02  0.92712035356E+02  0.10000000000E+01 0.  0.
    9000005    1    3    3    0    0 -0.35321660251E+01 -0.62212019892E+02 -0.55299970200E+02  0.83318055186E+02  0.10000000000E+01 0.  0.
<mgrwt>
<rscale>  0 0.12500003E+03</rscale>
<asrwt>0</asrwt>
<pdfrwt beam="1">  1        4 0.40067866E-02 0.12500003E+03</pdfrwt>
<pdfrwt beam="2">  1       -4 0.23074765E-01 0.12500003E+03</pdfrwt>
<totfact> 0.94336464E+03</totfact>
</mgrwt>
</event>
<event>
 5    1  0.3245943E-002  0.1249962E+03  0.7818608E-02  0.1235075E+00
         -4   -1    0    0    0  501 -0.00000000000E+00  0.00000000000E+00  0.91994146321E+02  0.92002912222E+02  0.12700000000E+01 0.  1.
          4   -1    0    0  501    0  0.00000000000E+00 -0.00000000000E+00 -0.42439083462E+02  0.42458081741E+02  0.12700000000E+01 0.  1.
         25    2    1    2    0    0  0.00000000000E+00  0.00000000000E+00  0.49555062859E+02  0.13446099396E+03  0.12499621851E+03 0.  0.
    9000005    1    3    3    0    0 -0.18105927416E+02 -0.20762470075E+02 -0.35559830449E+02  0.44993402992E+02  0.10000000000E+01 0.  0.
    9000005    1    3    3    0    0  0.18105927416E+02  0.20762470075E+02  0.85114893308E+02  0.89467590971E+02  0.10000000000E+01 0.  0.
<mgrwt>
<rscale>  0 0.12499622E+03</rscale>
<asrwt>0</asrwt>
<pdfrwt beam="2">  1        4 0.65312255E-02 0.12499622E+03</pdfrwt>
<pdfrwt beam="1">  1       -4 0.14155081E-01 0.12499622E+03</pdfrwt>
<totfact> 0.10250318E+04</totfact>
</mgrwt>
</event>
<event>
 5    1  0.3245943E-002  0.1250154E+03  0.7818608E-02  0.1235045E+00
          4   -1    0    0  501    0  0.00000000000E+00  0.00000000000E+00  0.85545109132E+02  0.85554535803E+02  0.12700000000E+01 0.  1.
         -4   -1    0    0    0  501 -0.00000000000E+00 -0.00000000000E+00 -0.45653525998E+02  0.45671187154E+02  0.12700000000E+01 0.  1.
         25    2    1    2    0    0  0.00000000000E+00  0.00000000000E+00  0.39891583134E+02  0.13122572296E+03  0.12501540689E+03 0.  0.
    9000005    1    3    3    0    0  0.26961561540E+02 -0.53448746066E+02  0.10948560362E+01  0.59882325994E+02  0.10000000000E+01 0.  0.
    9000005    1    3    3    0    0 -0.26961561540E+02  0.53448746066E+02  0.38796727098E+02  0.71343396963E+02  0.10000000000E+01 0.  0.
<mgrwt>
<rscale>  0 0.12501541E+03</rscale>
<asrwt>0</asrwt>
<pdfrwt beam="1">  1        4 0.13162869E-01 0.12501541E+03</pdfrwt>
<pdfrwt beam="2">  1       -4 0.70257032E-02 0.12501541E+03</pdfrwt>
<totfact> 0.10314667E+04</totfact>
</mgrwt>
</event>
<event>
 5    1  0.3245943E-002  0.1249963E+03  0.7818608E-02  0.1235075E+00
         -4   -1    0    0    0  501 -0.00000000000E+00  0.00000000000E+00  0.38243436806E+02  0.38264518274E+02  0.12700000000E+01 0.  1.
          4   -1    0    0  501    0  0.00000000000E+00 -0.00000000000E+00 -0.10208254036E+03  0.10209044004E+03  0.12700000000E+01 0.  1.
         25    2    1    2    0    0  0.00000000000E+00  0.00000000000E+00 -0.63839103557E+02  0.14035495831E+03  0.12499633266E+03 0.  0.
    9000005    1    3    3    0    0  0.54738571957E+02 -0.17108025314E+02 -0.40500208788E+01  0.57501290935E+02  0.10000000000E+01 0.  0.
    9000005    1    3    3    0    0 -0.54738571957E+02  0.17108025314E+02 -0.59789082679E+02  0.82853667376E+02  0.10000000000E+01 0.  0.
<mgrwt>
<rscale>  0 0.12499633E+03</rscale>
<asrwt>0</asrwt>
<pdfrwt beam="2">  1        4 0.15707235E-01 0.12499633E+03</pdfrwt>
<pdfrwt beam="1">  1       -4 0.58858350E-02 0.12499633E+03</pdfrwt>
<totfact> 0.10127071E+04</totfact>
</mgrwt>
</event>
<event>
 5    1  0.3245943E-002  0.1250010E+03  0.7818608E-02  0.1235068E+00
         -4   -1    0    0    0  501 -0.00000000000E+00  0.00000000000E+00  0.98447424992E+01  0.99263213163E+01  0.12700000000E+01 0.  1.
          4   -1    0    0  501    0  0.00000000000E+00 -0.00000000000E+00 -0.39507201725E+03  0.39507405852E+03  0.12700000000E+01 0.  1.
         25    2    1    2    0    0  0.00000000000E+00  0.00000000000E+00 -0.38522727475E+03  0.40500037984E+03  0.12500101781E+03 0.  0.
    9000005    1    3    3    0    0  0.10481548990E+00  0.33051993764E+02 -0.20776676389E+02  0.39052727944E+02  0.10000000000E+01 0.  0.
    9000005    1    3    3    0    0 -0.10481548990E+00 -0.33051993764E+02 -0.36445059837E+03  0.36594765189E+03  0.10000000000E+01 0.  0.
<mgrwt>
<rscale>  0 0.12500102E+03</rscale>
<asrwt>0</asrwt>
<pdfrwt beam="2">  1        4 0.60786731E-01 0.12500102E+03</pdfrwt>
<pdfrwt beam="1">  1       -4 0.15210084E-02 0.12500102E+03</pdfrwt>
<totfact> 0.64067913E+03</totfact>
</mgrwt>
</event>
<event>
 5    1  0.3245943E-002  0.1249997E+03  0.7818608E-02  0.1235070E+00
          4   -1    0    0  501    0  0.00000000000E+00  0.00000000000E+00  0.45832272187E+03  0.45832448144E+03  0.12700000000E+01 0.  1.
         -4   -1    0    0    0  501 -0.00000000000E+00 -0.00000000000E+00 -0.84737905068E+01  0.85684319192E+01  0.12700000000E+01 0.  1.
         25    2    1    2    0    0  0.00000000000E+00  0.00000000000E+00  0.44984893137E+03  0.46689291336E+03  0.12499972597E+03 0.  0.
    9000005    1    3    3    0    0  0.34266443248E+02  0.51695106121E+02  0.25353185982E+03  0.26100953445E+03  0.10000000000E+01 0.  0.
    9000005    1    3    3    0    0 -0.34266443248E+02 -0.51695106121E+02  0.19631707155E+03  0.20588337891E+03  0.10000000000E+01 0.  0.
<mgrwt>
<rscale>  0 0.12499973E+03</rscale>
<asrwt>0</asrwt>
<pdfrwt beam="1">  1        4 0.70518619E-01 0.12499973E+03</pdfrwt>
<pdfrwt beam="2">  1       -4 0.13110753E-02 0.12499973E+03</pdfrwt>
<totfact> 0.58528139E+03</totfact>
</mgrwt>
</event>
<event>
 5    1  0.3245943E-002  0.1250040E+03  0.7818608E-02  0.1235063E+00
          4   -1    0    0  501    0  0.00000000000E+00  0.00000000000E+00  0.11029206378E+03  0.11029937549E+03  0.12700000000E+01 0. -1.
         -4   -1    0    0    0  501 -0.00000000000E+00 -0.00000000000E+00 -0.35399695157E+02  0.35422469101E+02  0.12700000000E+01 0. -1.
         25    2    1    2    0    0  0.00000000000E+00  0.00000000000E+00  0.74892368625E+02  0.14572184459E+03  0.12500395639E+03 0.  0.
    9000005    1    3    3    0    0 -0.40380038180E+02 -0.42952732422E+02  0.13272576169E+02  0.60437124221E+02  0.10000000000E+01 0.  0.
    9000005    1    3    3    0    0  0.40380038180E+02  0.42952732422E+02  0.61619792456E+02  0.85284720369E+02  0.10000000000E+01 0.  0.
<mgrwt>
<rscale>  0 0.12500396E+03</rscale>
<asrwt>0</asrwt>
<pdfrwt beam="1">  1        4 0.16970324E-01 0.12500396E+03</pdfrwt>
<pdfrwt beam="2">  1       -4 0.54484213E-02 0.12500396E+03</pdfrwt>
<totfact> 0.10015451E+04</totfact>
</mgrwt>
</event>
<event>
 5    1  0.3245943E-002  0.1249992E+03  0.7818608E-02  0.1235070E+00
          4   -1    0    0  501    0  0.00000000000E+00  0.00000000000E+00  0.19266855627E+03  0.19267274191E+03  0.12700000000E+01 0.  1.
         -4   -1    0    0    0  501 -0.00000000000E+00 -0.00000000000E+00 -0.20249907714E+02  0.20289693502E+02  0.12700000000E+01 0.  1.
         25    2    1    2    0    0  0.00000000000E+00  0.00000000000E+00  0.17241864856E+03  0.21296243541E+03  0.12499923411E+03 0.  0.
    9000005    1    3    3    0    0  0.56279397026E+02  0.17915213511E+02  0.51423725942E+02  0.78318101320E+02  0.10000000000E+01 0.  0.
    9000005    1    3    3    0    0 -0.56279397026E+02 -0.17915213511E+02  0.12099492261E+03  0.13464433409E+03  0.10000000000E+01 0.  0.
<mgrwt>
<rscale>  0 0.12499923E+03</rscale>
<asrwt>0</asrwt>
<pdfrwt beam="1">  1        4 0.29644699E-01 0.12499923E+03</pdfrwt>
<pdfrwt beam="2">  1       -4 0.31187528E-02 0.12499923E+03</pdfrwt>
<totfact> 0.87995856E+03</totfact>
</mgrwt>
</event>
<event>
 5    1  0.3245943E-002  0.1249944E+03  0.7818608E-02  0.1235078E+00
          4   -1    0    0  501    0  0.00000000000E+00  0.00000000000E+00  0.14700578493E+02  0.14755334901E+02  0.12700000000E+01 0.  1.
         -4   -1    0    0    0  501 -0.00000000000E+00 -0.00000000000E+00 -0.26514697002E+03  0.26515001152E+03  0.12700000000E+01 0.  1.
         25    2    1    2    0    0  0.00000000000E+00  0.00000000000E+00 -0.25044639153E+03  0.27990534643E+03  0.12499443159E+03 0.  0.
    9000005    1    3    3    0    0  0.45072132673E+02 -0.25054405854E+02 -0.46187359971E+02  0.69235053387E+02  0.10000000000E+01 0.  0.
    9000005    1    3    3    0    0 -0.45072132673E+02  0.25054405854E+02 -0.20425903156E+03  0.21067029304E+03  0.10000000000E+01 0.  0.
<mgrwt>
<rscale>  0 0.12499443E+03</rscale>
<asrwt>0</asrwt>
<pdfrwt beam="1">  1        4 0.22660736E-02 0.12499443E+03</pdfrwt>
<pdfrwt beam="2">  1       -4 0.40796284E-01 0.12499443E+03</pdfrwt>
<totfact> 0.78200338E+03</totfact>
</mgrwt>
</event>
<event>
 5    1  0.3245943E-002  0.1250178E+03  0.7818608E-02  0.1235042E+00
          4   -1    0    0  501    0  0.00000000000E+00  0.00000000000E+00  0.75082152402E+02  0.75092892536E+02  0.12700000000E+01 0.  1.
         -4   -1    0    0    0  501 -0.00000000000E+00 -0.00000000000E+00 -0.52018910828E+02  0.52034411534E+02  0.12700000000E+01 0.  1.
         25    2    1    2    0    0  0.00000000000E+00  0.00000000000E+00  0.23063241575E+02  0.12712730407E+03  0.12501775205E+03 0.  0.
    9000005    1    3    3    0    0  0.59933213358E+02  0.12239770365E+02 -0.15128373961E+01  0.61197146330E+02  0.10000000000E+01 0.  0.
    9000005    1    3    3    0    0 -0.59933213358E+02 -0.12239770365E+02  0.24576078971E+02  0.65930157739E+02  0.10000000000E+01 0.  0.
<mgrwt>
<rscale>  0 0.12501775E+03</rscale>
<asrwt>0</asrwt>
<pdfrwt beam="1">  1        4 0.11553119E-01 0.12501775E+03</pdfrwt>
<pdfrwt beam="2">  1       -4 0.80049279E-02 0.12501775E+03</pdfrwt>
<totfact> 0.10402212E+04</totfact>
</mgrwt>
</event>
<event>
 5    1  0.3245943E-002  0.1249985E+03  0.7818608E-02  0.1235072E+00
         -4   -1    0    0    0  501 -0.00000000000E+00  0.00000000000E+00  0.66992756923E+02  0.67004793710E+02  0.12700000000E+01 0. -1.
          4   -1    0    0  501    0  0.00000000000E+00 -0.00000000000E+00 -0.58282937028E+02  0.58296772197E+02  0.12700000000E+01 0. -1.
         25    2    1    2    0    0  0.00000000000E+00  0.00000000000E+00  0.87098198949E+01  0.12530156591E+03  0.12499848582E+03 0.  0.
    9000005    1    3    3    0    0 -0.13413023894E+02  0.22400442510E+02 -0.52558330737E+02  0.58694694517E+02  0.10000000000E+01 0.  0.
    9000005    1    3    3    0    0  0.13413023894E+02 -0.22400442510E+02  0.61268150632E+02  0.66606871391E+02  0.10000000000E+01 0.  0.
<mgrwt>
<rscale>  0 0.12499849E+03</rscale>
<asrwt>0</asrwt>
<pdfrwt beam="2">  1        4 0.89685959E-02 0.12499849E+03</pdfrwt>
<pdfrwt beam="1">  1       -4 0.10308568E-01 0.12499849E+03</pdfrwt>
<totfact> 0.10446674E+04</totfact>
</mgrwt>
</event>
<event>
 5    1  0.3245943E-002  0.1250008E+03  0.7818608E-02  0.1235068E+00
          4   -1    0    0  501    0  0.00000000000E+00  0.00000000000E+00  0.40262479230E+03  0.40262679527E+03  0.12700000000E+01 0.  1.
         -4   -1    0    0    0  501 -0.00000000000E+00 -0.00000000000E+00 -0.96584896618E+01  0.97416283314E+01  0.12700000000E+01 0.  1.
         25    2    1    2    0    0  0.00000000000E+00  0.00000000000E+00  0.39296630264E+03  0.41236842361E+03  0.12500080712E+03 0.  0.
    9000005    1    3    3    0    0 -0.58323228885E+02 -0.12568169314E+02  0.25782388876E+03  0.26463883979E+03  0.10000000000E+01 0.  0.
    9000005    1    3    3    0    0  0.58323228885E+02  0.12568169314E+02  0.13514241387E+03  0.14772958382E+03  0.10000000000E+01 0.  0.
<mgrwt>
<rscale>  0 0.12500081E+03</rscale>
<asrwt>0</asrwt>
<pdfrwt beam="1">  1        4 0.61948838E-01 0.12500081E+03</pdfrwt>
<pdfrwt beam="2">  1       -4 0.14924705E-02 0.12500081E+03</pdfrwt>
<totfact> 0.63366231E+03</totfact>
</mgrwt>
</event>
<event>
 5    1  0.3245943E-002  0.1249952E+03  0.7818608E-02  0.1235077E+00
         -4   -1    0    0    0  501 -0.00000000000E+00  0.00000000000E+00  0.25905195052E+02  0.25936307190E+02  0.12700000000E+01 0. -1.
          4   -1    0    0  501    0  0.00000000000E+00 -0.00000000000E+00 -0.15065428760E+03  0.15065964049E+03  0.12700000000E+01 0. -1.
         25    2    1    2    0    0  0.00000000000E+00  0.00000000000E+00 -0.12474909255E+03  0.17659594768E+03  0.12499517049E+03 0.  0.
    9000005    1    3    3    0    0 -0.57030943417E+02  0.22759519439E+02 -0.45994097601E+02  0.76726665809E+02  0.10000000000E+01 0.  0.
    9000005    1    3    3    0    0  0.57030943417E+02 -0.22759519439E+02 -0.78754994949E+02  0.99869281871E+02  0.10000000000E+01 0.  0.
<mgrwt>
<rscale>  0 0.12499517E+03</rscale>
<asrwt>0</asrwt>
<pdfrwt beam="2">  1        4 0.23180387E-01 0.12499517E+03</pdfrwt>
<pdfrwt beam="1">  1       -4 0.39882197E-02 0.12499517E+03</pdfrwt>
<totfact> 0.94243566E+03</totfact>
</mgrwt>
</event>
<event>
 5    1  0.3245943E-002  0.1249987E+03  0.7818608E-02  0.1235071E+00
         -4   -1    0    0    0  501 -0.00000000000E+00  0.00000000000E+00  0.78553177364E+02  0.78563442987E+02  0.12700000000E+01 0.  1.
          4   -1    0    0  501    0  0.00000000000E+00 -0.00000000000E+00 -0.49704809225E+02  0.49721031366E+02  0.12700000000E+01 0.  1.
         25    2    1    2    0    0  0.00000000000E+00  0.00000000000E+00  0.28848368138E+02  0.12828447435E+03  0.12499871206E+03 0.  0.
    9000005    1    3    3    0    0 -0.10321982284E+02 -0.72029195996E+01 -0.48395475546E+02  0.50015471829E+02  0.10000000000E+01 0.  0.
    9000005    1    3    3    0    0  0.10321982284E+02  0.72029195996E+01  0.77243843684E+02  0.78269002524E+02  0.10000000000E+01 0.  0.
<mgrwt>
<rscale>  0 0.12499871E+03</rscale>
<asrwt>0</asrwt>
<pdfrwt beam="2">  1        4 0.76489313E-02 0.12499871E+03</pdfrwt>
<pdfrwt beam="1">  1       -4 0.12087142E-01 0.12499871E+03</pdfrwt>
<totfact> 0.10381651E+04</totfact>
</mgrwt>
</event>
<event>
 5    1  0.3245943E-002  0.1250033E+03  0.7818608E-02  0.1235064E+00
         -4   -1    0    0    0  501 -0.00000000000E+00  0.00000000000E+00  0.39644478007E+02  0.39664814842E+02  0.12700000000E+01 0.  1.
          4   -1    0    0  501    0  0.00000000000E+00 -0.00000000000E+00 -0.98487588899E+02  0.98495776900E+02  0.12700000000E+01 0.  1.
         25    2    1    2    0    0  0.00000000000E+00  0.00000000000E+00 -0.58843110892E+02  0.13816059174E+03  0.12500334960E+03 0.  0.
    9000005    1    3    3    0    0  0.59763578849E+02 -0.53203092950E+01 -0.48738819287E+02  0.77307590528E+02  0.10000000000E+01 0.  0.
    9000005    1    3    3    0    0 -0.59763578849E+02  0.53203092950E+01 -0.10104291605E+02  0.60853001213E+02  0.10000000000E+01 0.  0.
<mgrwt>
<rscale>  0 0.12500335E+03</rscale>
<asrwt>0</asrwt>
<pdfrwt beam="2">  1        4 0.15154131E-01 0.12500335E+03</pdfrwt>
<pdfrwt beam="1">  1       -4 0.61013447E-02 0.12500335E+03</pdfrwt>
<totfact> 0.10171084E+04</totfact>
</mgrwt>
</event>
<event>
 5    1  0.3245943E-002  0.1250029E+03  0.7818608E-02  0.1235065E+00
          4   -1    0    0  501    0  0.00000000000E+00  0.00000000000E+00  0.46494861077E+02  0.46512202770E+02  0.12700000000E+01 0. -1.
         -4   -1    0    0    0  501 -0.00000000000E+00 -0.00000000000E+00 -0.83980769372E+02  0.83990371617E+02  0.12700000000E+01 0. -1.
         25    2    1    2    0    0  0.00000000000E+00  0.00000000000E+00 -0.37485908296E+02  0.13050257439E+03  0.12500291437E+03 0.  0.
    9000005    1    3    3    0    0  0.10875836372E+02 -0.44186398778E+02  0.25975081035E+02  0.52406359238E+02  0.10000000000E+01 0.  0.
    9000005    1    3    3    0    0 -0.10875836372E+02  0.44186398778E+02 -0.63460989331E+02  0.78096215149E+02  0.10000000000E+01 0.  0.
<mgrwt>
<rscale>  0 0.12500291E+03</rscale>
<asrwt>0</asrwt>
<pdfrwt beam="1">  1        4 0.71551282E-02 0.12500291E+03</pdfrwt>
<pdfrwt beam="2">  1       -4 0.12922191E-01 0.12500291E+03</pdfrwt>
<totfact> 0.10333086E+04</totfact>
</mgrwt>
</event>
<event>
 5    1  0.3245943E-002  0.1250000E+03  0.7818608E-02  0.1235069E+00
          4   -1    0    0  501    0  0.00000000000E+00  0.00000000000E+00  0.49319259827E+02  0.49335608742E+02  0.12700000000E+01 0. -1.
         -4   -1    0    0    0  501 -0.00000000000E+00 -0.00000000000E+00 -0.79168829450E+02  0.79179015253E+02  0.12700000000E+01 0. -1.
         25    2    1    2    0    0  0.00000000000E+00  0.00000000000E+00 -0.29849569622E+02  0.12851462399E+03  0.12500004710E+03 0.  0.
    9000005    1    3    3    0    0  0.19643405936E+02  0.52647866117E+02  0.13186106787E+02  0.57728109407E+02  0.10000000000E+01 0.  0.
    9000005    1    3    3    0    0 -0.19643405936E+02 -0.52647866117E+02 -0.43035676409E+02  0.70786514588E+02  0.10000000000E+01 0.  0.
<mgrwt>
<rscale>  0 0.12500005E+03</rscale>
<asrwt>0</asrwt>
<pdfrwt beam="1">  1        4 0.75896196E-02 0.12500005E+03</pdfrwt>
<pdfrwt beam="2">  1       -4 0.12181861E-01 0.12500005E+03</pdfrwt>
<totfact> 0.10376378E+04</totfact>
</mgrwt>
</event>
<event>
 5    1  0.3245943E-002  0.1249950E+03  0.7818608E-02  0.1235077E+00
          4   -1    0    0  501    0  0.00000000000E+00  0.00000000000E+00  0.63700931085E+02  0.63713589767E+02  0.12700000000E+01 0.  1.
         -4   -1    0    0    0  501 -0.00000000000E+00 -0.00000000000E+00 -0.61291432631E+02  0.61304588849E+02  0.12700000000E+01 0.  1.
         25    2    1    2    0    0  0.00000000000E+00  0.00000000000E+00  0.24094984539E+01  0.12501817862E+03  0.12499495710E+03 0.  0.
    9000005    1    3    3    0    0  0.26463339120E+02  0.11524038280E+02  0.56639075414E+02  0.63577485318E+02  0.10000000000E+01 0.  0.
    9000005    1    3    3    0    0 -0.26463339120E+02 -0.11524038280E+02 -0.54229576960E+02  0.61440693298E+02  0.10000000000E+01 0.  0.
<mgrwt>
<rscale>  0 0.12499496E+03</rscale>
<asrwt>0</asrwt>
<pdfrwt beam="1">  1        4 0.98021289E-02 0.12499496E+03</pdfrwt>
<pdfrwt beam="2">  1       -4 0.94314370E-02 0.12499496E+03</pdfrwt>
<totfact> 0.10453659E+04</totfact>
</mgrwt>
</event>
<event>
 5    1  0.3245943E-002  0.1250080E+03  0.7818608E-02  0.1235057E+00
         -4   -1    0    0    0  501 -0.00000000000E+00  0.00000000000E+00  0.66725099447E+02  0.66737184510E+02  0.12700000000E+01 0.  1.
          4   -1    0    0  501    0  0.00000000000E+00 -0.00000000000E+00 -0.58525667817E+02  0.58539445619E+02  0.12700000000E+01 0.  1.
         25    2    1    2    0    0  0.00000000000E+00  0.00000000000E+00  0.81994316306E+01  0.12527663013E+03  0.12500801325E+03 0.  0.
    9000005    1    3    3    0    0 -0.39126451685E+02  0.12031633128E+02 -0.43225814705E+02  0.59540830310E+02  0.10000000000E+01 0.  0.
    9000005    1    3    3    0    0  0.39126451685E+02 -0.12031633128E+02  0.51425246335E+02  0.65735799819E+02  0.10000000000E+01 0.  0.
<mgrwt>
<rscale>  0 0.12500801E+03</rscale>
<asrwt>0</asrwt>
<pdfrwt beam="2">  1        4 0.90059383E-02 0.12500801E+03</pdfrwt>
<pdfrwt beam="1">  1       -4 0.10267389E-01 0.12500801E+03</pdfrwt>
<totfact> 0.10444965E+04</totfact>
</mgrwt>
</event>
<event>
 5    1  0.3245943E-002  0.1250001E+03  0.7818608E-02  0.1235069E+00
          4   -1    0    0  501    0  0.00000000000E+00  0.00000000000E+00  0.37799852084E+02  0.37821180806E+02  0.12700000000E+01 0. -1.
         -4   -1    0    0    0  501 -0.00000000000E+00 -0.00000000000E+00 -0.10328606762E+03  0.10329387525E+03  0.12700000000E+01 0. -1.
         25    2    1    2    0    0  0.00000000000E+00  0.00000000000E+00 -0.65486215535E+02  0.14111505606E+03  0.12500005848E+03 0.  0.
    9000005    1    3    3    0    0 -0.44418001894E+01 -0.52771351634E+02  0.47109864879E+01  0.53176484802E+02  0.10000000000E+01 0.  0.
    9000005    1    3    3    0    0  0.44418001894E+01  0.52771351634E+02 -0.70197202023E+02  0.87938571253E+02  0.10000000000E+01 0.  0.
<mgrwt>
<rscale>  0 0.12500006E+03</rscale>
<asrwt>0</asrwt>
<pdfrwt beam="1">  1        4 0.58176032E-02 0.12500006E+03</pdfrwt>
<pdfrwt beam="2">  1       -4 0.15892405E-01 0.12500006E+03</pdfrwt>
<totfact> 0.10110514E+04</totfact>
</mgrwt>
</event>
<event>
 5    1  0.3245943E-002  0.1249999E+03  0.7818608E-02  0.1235069E+00
          4   -1    0    0  501    0  0.00000000000E+00  0.00000000000E+00  0.14390703205E+02  0.14446634167E+02  0.12700000000E+01 0.  1.
         -4   -1    0    0    0  501 -0.00000000000E+00 -0.00000000000E+00 -0.27085837118E+03  0.27086134855E+03  0.12700000000E+01 0.  1.
         25    2    1    2    0    0  0.00000000000E+00  0.00000000000E+00 -0.25646766798E+03  0.28530798272E+03  0.12499992114E+03 0.  0.
    9000005    1    3    3    0    0  0.75114066908E+01 -0.60545127728E+02 -0.97347823435E+02  0.11489008856E+03  0.10000000000E+01 0.  0.
    9000005    1    3    3    0    0 -0.75114066908E+01  0.60545127728E+02 -0.15911984454E+03  0.17041789416E+03  0.10000000000E+01 0.  0.
<mgrwt>
<rscale>  0 0.12499992E+03</rscale>
<asrwt>0</asrwt>
<pdfrwt beam="1">  1        4 0.22184860E-02 0.12499992E+03</pdfrwt>
<pdfrwt beam="2">  1       -4 0.41675046E-01 0.12499992E+03</pdfrwt>
<totfact> 0.77479666E+03</totfact>
</mgrwt>
</event>
<event>
 5    1  0.3245943E-002  0.1250049E+03  0.7818608E-02  0.1235062E+00
         -4   -1    0    0    0  501 -0.00000000000E+00  0.00000000000E+00  0.22769969916E+03  0.22770324085E+03  0.12700000000E+01 0.  1.
          4   -1    0    0  501    0  0.00000000000E+00 -0.00000000000E+00 -0.17129438132E+02  0.17176453380E+02  0.12700000000E+01 0.  1.
         25    2    1    2    0    0  0.00000000000E+00  0.00000000000E+00  0.21057026102E+03  0.24487969423E+03  0.12500491918E+03 0.  0.
    9000005    1    3    3    0    0 -0.25396496092E+02 -0.66706121087E+01 -0.58084547131E+01  0.26911284359E+02  0.10000000000E+01 0.  0.
    9000005    1    3    3    0    0  0.25396496092E+02  0.66706121087E+01  0.21637871574E+03  0.21796840988E+03  0.10000000000E+01 0.  0.
<mgrwt>
<rscale>  0 0.12500492E+03</rscale>
<asrwt>0</asrwt>
<pdfrwt beam="2">  1        4 0.26391874E-02 0.12500492E+03</pdfrwt>
<pdfrwt beam="1">  1       -4 0.35034609E-01 0.12500492E+03</pdfrwt>
<totfact> 0.83066844E+03</totfact>
</mgrwt>
</event>
<event>
 5    1  0.3245943E-002  0.1249995E+03  0.7818608E-02  0.1235070E+00
         -4   -1    0    0    0  501 -0.00000000000E+00  0.00000000000E+00  0.25906397229E+02  0.25937507926E+02  0.12700000000E+01 0. -1.
          4   -1    0    0  501    0  0.00000000000E+00 -0.00000000000E+00 -0.15065783543E+03  0.15066318820E+03  0.12700000000E+01 0. -1.
         25    2    1    2    0    0  0.00000000000E+00  0.00000000000E+00 -0.12475143821E+03  0.17660069612E+03  0.12499953815E+03 0.  0.
    9000005    1    3    3    0    0  0.20058439907E+01 -0.60081910172E+02 -0.86491443069E+02  0.10533579194E+03  0.10000000000E+01 0.  0.
    9000005    1    3    3    0    0 -0.20058439907E+01  0.60081910172E+02 -0.38259995136E+02  0.71264904181E+02  0.10000000000E+01 0.  0.
<mgrwt>
<rscale>  0 0.12499954E+03</rscale>
<asrwt>0</asrwt>
<pdfrwt beam="2">  1        4 0.23180933E-01 0.12499954E+03</pdfrwt>
<pdfrwt beam="1">  1       -4 0.39884045E-02 0.12499954E+03</pdfrwt>
<totfact> 0.94233468E+03</totfact>
</mgrwt>
</event>
<event>
 5    1  0.3245943E-002  0.1250023E+03  0.7818608E-02  0.1235066E+00
         -4   -1    0    0    0  501 -0.00000000000E+00  0.00000000000E+00  0.91417822535E+01  0.92295765217E+01  0.12700000000E+01 0.  1.
          4   -1    0    0  501    0  0.00000000000E+00 -0.00000000000E+00 -0.42518100644E+03  0.42518290315E+03  0.12700000000E+01 0.  1.
         25    2    1    2    0    0  0.00000000000E+00  0.00000000000E+00 -0.41603922418E+03  0.43441247967E+03  0.12500226574E+03 0.  0.
    9000005    1    3    3    0    0  0.60689000405E+02  0.14791430776E+02 -0.20156425774E+03  0.21102391143E+03  0.10000000000E+01 0.  0.
    9000005    1    3    3    0    0 -0.60689000405E+02 -0.14791430776E+02 -0.21447496644E+03  0.22338856825E+03  0.10000000000E+01 0.  0.
<mgrwt>
<rscale>  0 0.12500227E+03</rscale>
<asrwt>0</asrwt>
<pdfrwt beam="2">  1        4 0.65419347E-01 0.12500227E+03</pdfrwt>
<pdfrwt beam="1">  1       -4 0.14133277E-02 0.12500227E+03</pdfrwt>
<totfact> 0.61334997E+03</totfact>
</mgrwt>
</event>
<event>
 5    1  0.3245943E-002  0.1249983E+03  0.7818608E-02  0.1235072E+00
          4   -1    0    0  501    0  0.00000000000E+00  0.00000000000E+00  0.41394392746E+03  0.41394587567E+03  0.12700000000E+01 0.  1.
         -4   -1    0    0    0  501 -0.00000000000E+00 -0.00000000000E+00 -0.93917034414E+01  0.94771827845E+01  0.12700000000E+01 0.  1.
         25    2    1    2    0    0  0.00000000000E+00  0.00000000000E+00  0.40455222402E+03  0.42342305845E+03  0.12499833787E+03 0.  0.
    9000005    1    3    3    0    0 -0.52866425906E+02  0.20805627052E+02  0.29044127891E+03  0.29594741019E+03  0.10000000000E+01 0.  0.
    9000005    1    3    3    0    0  0.52866425906E+02 -0.20805627052E+02  0.11411094511E+03  0.12747564826E+03  0.10000000000E+01 0.  0.
<mgrwt>
<rscale>  0 0.12499834E+03</rscale>
<asrwt>0</asrwt>
<pdfrwt beam="1">  1        4 0.63690406E-01 0.12499834E+03</pdfrwt>
<pdfrwt beam="2">  1       -4 0.14516026E-02 0.12499834E+03</pdfrwt>
<totfact> 0.62338992E+03</totfact>
</mgrwt>
</event>
<event>
 5    1  0.3245943E-002  0.1249960E+03  0.7818608E-02  0.1235076E+00
          4   -1    0    0  501    0  0.00000000000E+00  0.00000000000E+00  0.92675798362E+02  0.92684499794E+02  0.12700000000E+01 0.  1.
         -4   -1    0    0    0  501 -0.00000000000E+00 -0.00000000000E+00 -0.42126666979E+02  0.42145806087E+02  0.12700000000E+01 0.  1.
         25    2    1    2    0    0  0.00000000000E+00  0.00000000000E+00  0.50549131383E+02  0.13483030588E+03  0.12499598674E+03 0.  0.
    9000005    1    3    3    0    0 -0.57772063000E+02  0.18257528570E+02  0.87721966495E+01  0.61228261830E+02  0.10000000000E+01 0.  0.
    9000005    1    3    3    0    0  0.57772063000E+02 -0.18257528570E+02  0.41776934734E+02  0.73602044051E+02  0.10000000000E+01 0.  0.
<mgrwt>
<rscale>  0 0.12499599E+03</rscale>
<asrwt>0</asrwt>
<pdfrwt beam="1">  1        4 0.14259957E-01 0.12499599E+03</pdfrwt>
<pdfrwt beam="2">  1       -4 0.64831673E-02 0.12499599E+03</pdfrwt>
<totfact> 0.10242576E+04</totfact>
</mgrwt>
</event>
<event>
 5    1  0.3245943E-002  0.1250000E+03  0.7818608E-02  0.1235069E+00
         -4   -1    0    0    0  501 -0.00000000000E+00  0.00000000000E+00  0.79446320706E+02  0.79456470937E+02  0.12700000000E+01 0. -1.
          4   -1    0    0  501    0  0.00000000000E+00 -0.00000000000E+00 -0.49146917196E+02  0.49163323422E+02  0.12700000000E+01 0. -1.
         25    2    1    2    0    0  0.00000000000E+00  0.00000000000E+00  0.30299403510E+02  0.12861979436E+03  0.12499999059E+03 0.  0.
    9000005    1    3    3    0    0 -0.43002822673E+02 -0.24118273975E+02 -0.24359026320E+02  0.55002691394E+02  0.10000000000E+01 0.  0.
    9000005    1    3    3    0    0  0.43002822673E+02  0.24118273975E+02  0.54658429830E+02  0.73617102964E+02  0.10000000000E+01 0.  0.
<mgrwt>
<rscale>  0 0.12499999E+03</rscale>
<asrwt>0</asrwt>
<pdfrwt beam="2">  1        4 0.75631071E-02 0.12499999E+03</pdfrwt>
<pdfrwt beam="1">  1       -4 0.12224554E-01 0.12499999E+03</pdfrwt>
<totfact> 0.10374126E+04</totfact>
</mgrwt>
</event>
<event>
 5    1  0.3245943E-002  0.1249992E+03  0.7818608E-02  0.1235070E+00
          4   -1    0    0  501    0  0.00000000000E+00  0.00000000000E+00  0.16248565394E+03  0.16249061707E+03  0.12700000000E+01 0.  1.
         -4   -1    0    0    0  501 -0.00000000000E+00 -0.00000000000E+00 -0.24018182807E+02  0.24051736015E+02  0.12700000000E+01 0.  1.
         25    2    1    2    0    0  0.00000000000E+00  0.00000000000E+00  0.13846747113E+03  0.18654235309E+03  0.12499923573E+03 0.  0.
    9000005    1    3    3    0    0 -0.21609538853E+02 -0.46422258038E+02  0.12269238089E+03  0.13295269286E+03  0.10000000000E+01 0.  0.
    9000005    1    3    3    0    0  0.21609538853E+02  0.46422258038E+02  0.15775090243E+02  0.53589660224E+02  0.10000000000E+01 0.  0.
<mgrwt>
<rscale>  0 0.12499924E+03</rscale>
<asrwt>0</asrwt>
<pdfrwt beam="1">  1        4 0.25000756E-01 0.12499924E+03</pdfrwt>
<pdfrwt beam="2">  1       -4 0.36980678E-02 0.12499924E+03</pdfrwt>
<totfact> 0.92454021E+03</totfact>
</mgrwt>
</event>
<event>
 5    1  0.3245943E-002  0.1250014E+03  0.7818608E-02  0.1235067E+00
          4   -1    0    0  501    0  0.00000000000E+00  0.00000000000E+00  0.18487701982E+03  0.18488138186E+03  0.12700000000E+01 0. -1.
         -4   -1    0    0    0  501 -0.00000000000E+00 -0.00000000000E+00 -0.21105700598E+02  0.21143876128E+02  0.12700000000E+01 0. -1.
         25    2    1    2    0    0  0.00000000000E+00  0.00000000000E+00  0.16377131922E+03  0.20602525799E+03  0.12500144771E+03 0.  0.
    9000005    1    3    3    0    0 -0.59856042506E+02 -0.12259448856E+02  0.60251063958E+02  0.85815095518E+02  0.10000000000E+01 0.  0.
    9000005    1    3    3    0    0  0.59856042506E+02  0.12259448856E+02  0.10352025527E+03  0.12021016247E+03  0.10000000000E+01 0.  0.
<mgrwt>
<rscale>  0 0.12500145E+03</rscale>
<asrwt>0</asrwt>
<pdfrwt beam="1">  1        4 0.28445891E-01 0.12500145E+03</pdfrwt>
<pdfrwt beam="2">  1       -4 0.32503029E-02 0.12500145E+03</pdfrwt>
<totfact> 0.89126264E+03</totfact>
</mgrwt>
</event>
<event>
 5    1  0.3245943E-002  0.1250391E+03  0.7818608E-02  0.1235008E+00
          4   -1    0    0  501    0  0.00000000000E+00  0.00000000000E+00  0.92320366712E+02  0.92329101641E+02  0.12700000000E+01 0.  1.
         -4   -1    0    0    0  501 -0.00000000000E+00 -0.00000000000E+00 -0.42318112539E+02  0.42337165102E+02  0.12700000000E+01 0.  1.
         25    2    1    2    0    0  0.00000000000E+00  0.00000000000E+00  0.50002254173E+02  0.13466626674E+03  0.12503910579E+03 0.  0.
    9000005    1    3    3    0    0 -0.12503289211E+02 -0.49271393771E+02  0.64184916610E+02  0.81882269176E+02  0.10000000000E+01 0.  0.
    9000005    1    3    3    0    0  0.12503289211E+02  0.49271393771E+02 -0.14182662437E+02  0.52783997566E+02  0.10000000000E+01 0.  0.
<mgrwt>
<rscale>  0 0.12503911E+03</rscale>
<asrwt>0</asrwt>
<pdfrwt beam="1">  1        4 0.14205271E-01 0.12503911E+03</pdfrwt>
<pdfrwt beam="2">  1       -4 0.65126164E-02 0.12503911E+03</pdfrwt>
<totfact> 0.10236079E+04</totfact>
</mgrwt>
</event>
<event>
 5    1  0.3245943E-002  0.1249964E+03  0.7818608E-02  0.1235075E+00
          4   -1    0    0  501    0  0.00000000000E+00  0.00000000000E+00  0.94207535269E+02  0.94216095236E+02  0.12700000000E+01 0. -1.
         -4   -1    0    0    0  501 -0.00000000000E+00 -0.00000000000E+00 -0.41441714511E+02  0.41461169805E+02  0.12700000000E+01 0. -1.
         25    2    1    2    0    0  0.00000000000E+00  0.00000000000E+00  0.52765820758E+02  0.13567726504E+03  0.12499635358E+03 0.  0.
    9000005    1    3    3    0    0  0.16189522246E+02  0.40493131263E+02  0.74964856176E+02  0.86732485099E+02  0.10000000000E+01 0.  0.
    9000005    1    3    3    0    0 -0.16189522246E+02 -0.40493131263E+02 -0.22199035418E+02  0.48944779942E+02  0.10000000000E+01 0.  0.
<mgrwt>
<rscale>  0 0.12499635E+03</rscale>
<asrwt>0</asrwt>
<pdfrwt beam="1">  1        4 0.14495622E-01 0.12499635E+03</pdfrwt>
<pdfrwt beam="2">  1       -4 0.63778035E-02 0.12499635E+03</pdfrwt>
<totfact> 0.10224656E+04</totfact>
</mgrwt>
</event>
<event>
 5    1  0.3245943E-002  0.1250052E+03  0.7818608E-02  0.1235061E+00
          4   -1    0    0  501    0  0.00000000000E+00  0.00000000000E+00  0.24938148570E+02  0.24970465636E+02  0.12700000000E+01 0.  1.
         -4   -1    0    0    0  501 -0.00000000000E+00 -0.00000000000E+00 -0.15651414491E+03  0.15651929739E+03  0.12700000000E+01 0.  1.
         25    2    1    2    0    0  0.00000000000E+00  0.00000000000E+00 -0.13157599634E+03  0.18148976303E+03  0.12500516498E+03 0.  0.
    9000005    1    3    3    0    0  0.52034591860E+02  0.34556669090E+02 -0.62953827791E+02  0.88690171733E+02  0.10000000000E+01 0.  0.
    9000005    1    3    3    0    0 -0.52034591860E+02 -0.34556669090E+02 -0.68622168549E+02  0.92799591297E+02  0.10000000000E+01 0.  0.
<mgrwt>
<rscale>  0 0.12500516E+03</rscale>
<asrwt>0</asrwt>
<pdfrwt beam="1">  1        4 0.38395206E-02 0.12500516E+03</pdfrwt>
<pdfrwt beam="2">  1       -4 0.24081981E-01 0.12500516E+03</pdfrwt>
<totfact> 0.93338718E+03</totfact>
</mgrwt>
</event>
<event>
 5    1  0.3245943E-002  0.1249989E+03  0.7818608E-02  0.1235071E+00
          4   -1    0    0  501    0  0.00000000000E+00  0.00000000000E+00  0.88312508409E+02  0.88321639712E+02  0.12700000000E+01 0.  1.
         -4   -1    0    0    0  501 -0.00000000000E+00 -0.00000000000E+00 -0.44210814828E+02  0.44229052078E+02  0.12700000000E+01 0.  1.
         25    2    1    2    0    0  0.00000000000E+00  0.00000000000E+00  0.44101693581E+02  0.13255069179E+03  0.12499890607E+03 0.  0.
    9000005    1    3    3    0    0 -0.24583640627E+02 -0.54688474988E+02  0.33804093088E+01  0.60063398589E+02  0.10000000000E+01 0.  0.
    9000005    1    3    3    0    0  0.24583640627E+02  0.54688474988E+02  0.40721284272E+02  0.72487293202E+02  0.10000000000E+01 0.  0.
<mgrwt>
<rscale>  0 0.12499891E+03</rscale>
<asrwt>0</asrwt>
<pdfrwt beam="1">  1        4 0.13588645E-01 0.12499891E+03</pdfrwt>
<pdfrwt beam="2">  1       -4 0.68037692E-02 0.12499891E+03</pdfrwt>
<totfact> 0.10290212E+04</totfact>
</mgrwt>
</event>
<event>
 5    1  0.3245943E-002  0.1249999E+03  0.7818608E-02  0.1235069E+00
          4   -1    0    0  501    0  0.00000000000E+00  0.00000000000E+00  0.16757722201E+02  0.16805777381E+02  0.12700000000E+01 0. -1.
         -4   -1    0    0    0  501 -0.00000000000E+00 -0.00000000000E+00 -0.23271775156E+03  0.23272121689E+03  0.12700000000E+01 0. -1.
         25    2    1    2    0    0  0.00000000000E+00  0.00000000000E+00 -0.21596002936E+03  0.24952699427E+03  0.12499994636E+03 0.  0.
    9000005    1    3    3    0    0 -0.53585166047E+02 -0.26362429076E+02 -0.14472878631E+03  0.15656873658E+03  0.10000000000E+01 0.  0.
    9000005    1    3    3    0    0  0.53585166047E+02  0.26362429076E+02 -0.71231243050E+02  0.92958257694E+02  0.10000000000E+01 0.  0.
<mgrwt>
<rscale>  0 0.12499995E+03</rscale>
<asrwt>0</asrwt>
<pdfrwt beam="1">  1        4 0.25820744E-02 0.12499995E+03</pdfrwt>
<pdfrwt beam="2">  1       -4 0.35806692E-01 0.12499995E+03</pdfrwt>
<totfact> 0.82398739E+03</totfact>
</mgrwt>
</event>
<event>
 5    1  0.3245943E-002  0.1250002E+03  0.7818608E-02  0.1235069E+00
         -4   -1    0    0    0  501 -0.00000000000E+00  0.00000000000E+00  0.14119519672E+03  0.14120090820E+03  0.12700000000E+01 0. -1.
          4   -1    0    0  501    0  0.00000000000E+00 -0.00000000000E+00 -0.27644833766E+02  0.27673990206E+02  0.12700000000E+01 0. -1.
         25    2    1    2    0    0  0.00000000000E+00  0.00000000000E+00  0.11355036296E+03  0.16887489841E+03  0.12500018554E+03 0.  0.
    9000005    1    3    3    0    0 -0.41931515370E+02  0.25866449512E+01 -0.57267854376E+01  0.42411540703E+02  0.10000000000E+01 0.  0.
    9000005    1    3    3    0    0  0.41931515370E+02 -0.25866449512E+01  0.11927714840E+03  0.12646335771E+03  0.10000000000E+01 0.  0.
<mgrwt>
<rscale>  0 0.12500019E+03</rscale>
<asrwt>0</asrwt>
<pdfrwt beam="2">  1        4 0.42557334E-02 0.12500019E+03</pdfrwt>
<pdfrwt beam="1">  1       -4 0.21725020E-01 0.12500019E+03</pdfrwt>
<totfact> 0.95658140E+03</totfact>
</mgrwt>
</event>
<event>
 5    1  0.3245943E-002  0.1249997E+03  0.7818608E-02  0.1235070E+00
          4   -1    0    0  501    0  0.00000000000E+00  0.00000000000E+00  0.97907141157E+02  0.97915377697E+02  0.12700000000E+01 0. -1.
         -4   -1    0    0    0  501 -0.00000000000E+00 -0.00000000000E+00 -0.39877272825E+02  0.39897490998E+02  0.12700000000E+01 0. -1.
         25    2    1    2    0    0  0.00000000000E+00  0.00000000000E+00  0.58029868333E+02  0.13781286870E+03  0.12499968464E+03 0.  0.
    9000005    1    3    3    0    0 -0.26612367280E+02 -0.46286125037E+02  0.64818488686E+02  0.83982497812E+02  0.10000000000E+01 0.  0.
    9000005    1    3    3    0    0  0.26612367280E+02  0.46286125037E+02 -0.67886203528E+01  0.53830370884E+02  0.10000000000E+01 0.  0.
<mgrwt>
<rscale>  0 0.12499968E+03</rscale>
<asrwt>0</asrwt>
<pdfrwt beam="1">  1        4 0.15064826E-01 0.12499968E+03</pdfrwt>
<pdfrwt beam="2">  1       -4 0.61371539E-02 0.12499968E+03</pdfrwt>
<totfact> 0.10179189E+04</totfact>
</mgrwt>
</event>
<event>
 5    1  0.3245943E-002  0.1250034E+03  0.7818608E-02  0.1235064E+00
         -4   -1    0    0    0  501 -0.00000000000E+00  0.00000000000E+00  0.23726270428E+03  0.23726610323E+03  0.12700000000E+01 0. -1.
          4   -1    0    0  501    0  0.00000000000E+00 -0.00000000000E+00 -0.16436707923E+02  0.16485698873E+02  0.12700000000E+01 0. -1.
         25    2    1    2    0    0  0.00000000000E+00  0.00000000000E+00  0.22082599635E+03  0.25375180210E+03  0.12500342557E+03 0.  0.
    9000005    1    3    3    0    0 -0.29654129446E+02  0.13506548864E+02  0.21632718430E+01  0.32672220624E+02  0.10000000000E+01 0.  0.
    9000005    1    3    3    0    0  0.29654129446E+02 -0.13506548864E+02  0.21866272451E+03  0.22107958148E+03  0.10000000000E+01 0.  0.
<mgrwt>
<rscale>  0 0.12500343E+03</rscale>
<asrwt>0</asrwt>
<pdfrwt beam="2">  1        4 0.25327544E-02 0.12500343E+03</pdfrwt>
<pdfrwt beam="1">  1       -4 0.36505983E-01 0.12500343E+03</pdfrwt>
<totfact> 0.81784743E+03</totfact>
</mgrwt>
</event>
<event>
 5    1  0.3245943E-002  0.1250020E+03  0.7818608E-02  0.1235066E+00
          4   -1    0    0  501    0  0.00000000000E+00  0.00000000000E+00  0.12302756406E+02  0.12368133051E+02  0.12700000000E+01 0. -1.
         -4   -1    0    0    0  501 -0.00000000000E+00 -0.00000000000E+00 -0.31661240054E+03  0.31661494765E+03  0.12700000000E+01 0. -1.
         25    2    1    2    0    0  0.00000000000E+00  0.00000000000E+00 -0.30430964414E+03  0.32898308070E+03  0.12500203148E+03 0.  0.
    9000005    1    3    3    0    0  0.61953296295E+02  0.11467376552E+01 -0.13079794193E+03  0.14473640711E+03  0.10000000000E+01 0.  0.
    9000005    1    3    3    0    0 -0.61953296295E+02 -0.11467376552E+01 -0.17351170221E+03  0.18424667360E+03  0.10000000000E+01 0.  0.
<mgrwt>
<rscale>  0 0.12500203E+03</rscale>
<asrwt>0</asrwt>
<pdfrwt beam="1">  1        4 0.18979569E-02 0.12500203E+03</pdfrwt>
<pdfrwt beam="2">  1       -4 0.48714819E-01 0.12500203E+03</pdfrwt>
<totfact> 0.72097051E+03</totfact>
</mgrwt>
</event>
<event>
 5    1  0.3245943E-002  0.1249997E+03  0.7818608E-02  0.1235070E+00
          4   -1    0    0  501    0  0.00000000000E+00  0.00000000000E+00  0.98333504107E+03  0.98333586119E+03  0.12700000000E+01 0. -1.
         -4   -1    0    0    0  501 -0.00000000000E+00 -0.00000000000E+00 -0.38700797456E+01  0.40731335894E+01  0.12700000000E+01 0. -1.
         25    2    1    2    0    0  0.00000000000E+00  0.00000000000E+00  0.97946496132E+03  0.98740899478E+03  0.12499965001E+03 0.  0.
    9000005    1    3    3    0    0 -0.27255819406E+02  0.17681987940E+02  0.91141687445E+03  0.91199630011E+03  0.10000000000E+01 0.  0.
    9000005    1    3    3    0    0  0.27255819406E+02 -0.17681987940E+02  0.68048086877E+02  0.75412694665E+02  0.10000000000E+01 0.  0.
<mgrwt>
<rscale>  0 0.12499965E+03</rscale>
<asrwt>0</asrwt>
<pdfrwt beam="1">  1        4 0.15129819E+00 0.12499965E+03</pdfrwt>
<pdfrwt beam="2">  1       -4 0.61107872E-03 0.12499965E+03</pdfrwt>
<totfact> 0.31024090E+03</totfact>
</mgrwt>
</event>
<event>
 5    1  0.3245943E-002  0.1249997E+03  0.7818608E-02  0.1235070E+00
         -4   -1    0    0    0  501 -0.00000000000E+00  0.00000000000E+00  0.11233112288E+03  0.11233830187E+03  0.12700000000E+01 0. -1.
          4   -1    0    0  501    0  0.00000000000E+00 -0.00000000000E+00 -0.34754348005E+02  0.34777544555E+02  0.12700000000E+01 0. -1.
         25    2    1    2    0    0  0.00000000000E+00  0.00000000000E+00  0.77576774876E+02  0.14711584643E+03  0.12499966508E+03 0.  0.
    9000005    1    3    3    0    0  0.15207003927E+02 -0.15383106608E+02  0.10779037602E+03  0.10994388614E+03  0.10000000000E+01 0.  0.
    9000005    1    3    3    0    0 -0.15207003927E+02  0.15383106608E+02 -0.30213601145E+02  0.37171960286E+02  0.10000000000E+01 0.  0.
<mgrwt>
<rscale>  0 0.12499967E+03</rscale>
<asrwt>0</asrwt>
<pdfrwt beam="2">  1        4 0.53491594E-02 0.12499967E+03</pdfrwt>
<pdfrwt beam="1">  1       -4 0.17284048E-01 0.12499967E+03</pdfrwt>
<totfact> 0.99882502E+03</totfact>
</mgrwt>
</event>
<event>
 5    1  0.3245943E-002  0.1250100E+03  0.7818608E-02  0.1235054E+00
          4   -1    0    0  501    0  0.00000000000E+00  0.00000000000E+00  0.37097252825E+02  0.37118985266E+02  0.12700000000E+01 0. -1.
         -4   -1    0    0    0  501 -0.00000000000E+00 -0.00000000000E+00 -0.10525805009E+03  0.10526571145E+03  0.12700000000E+01 0. -1.
         25    2    1    2    0    0  0.00000000000E+00  0.00000000000E+00 -0.68160797261E+02  0.14238469672E+03  0.12501002990E+03 0.  0.
    9000005    1    3    3    0    0 -0.57529134069E+01 -0.30821113838E+01 -0.10487442789E+03  0.10508206816E+03  0.10000000000E+01 0.  0.
    9000005    1    3    3    0    0  0.57529134069E+01  0.30821113838E+01  0.36713630632E+02  0.37302628559E+02  0.10000000000E+01 0.  0.
<mgrwt>
<rscale>  0 0.12501003E+03</rscale>
<asrwt>0</asrwt>
<pdfrwt beam="1">  1        4 0.57095308E-02 0.12501003E+03</pdfrwt>
<pdfrwt beam="2">  1       -4 0.16195807E-01 0.12501003E+03</pdfrwt>
<totfact> 0.10082121E+04</totfact>
</mgrwt>
</event>
<event>
 5    1  0.3245943E-002  0.1249988E+03  0.7818608E-02  0.1235071E+00
         -4   -1    0    0    0  501 -0.00000000000E+00  0.00000000000E+00  0.19220780937E+02  0.19262692435E+02  0.12700000000E+01 0. -1.
          4   -1    0    0  501    0  0.00000000000E+00 -0.00000000000E+00 -0.20296157727E+03  0.20296555065E+03  0.12700000000E+01 0. -1.
         25    2    1    2    0    0  0.00000000000E+00  0.00000000000E+00 -0.18374079634E+03  0.22222824308E+03  0.12499884713E+03 0.  0.
    9000005    1    3    3    0    0  0.40136748648E+02 -0.45094701120E+02 -0.12057510858E+03  0.13484749709E+03  0.10000000000E+01 0.  0.
    9000005    1    3    3    0    0 -0.40136748648E+02  0.45094701120E+02 -0.63165687755E+02  0.87380745995E+02  0.10000000000E+01 0.  0.
<mgrwt>
<rscale>  0 0.12499885E+03</rscale>
<asrwt>0</asrwt>
<pdfrwt beam="2">  1        4 0.31228386E-01 0.12499885E+03</pdfrwt>
<pdfrwt beam="1">  1       -4 0.29605730E-02 0.12499885E+03</pdfrwt>
<totfact> 0.86519211E+03</totfact>
</mgrwt>
</event>
<event>
 5    1  0.3245943E-002  0.1249966E+03  0.7818608E-02  0.1235075E+00
          4   -1    0    0  501    0  0.00000000000E+00  0.00000000000E+00  0.29875205489E+03  0.29875475427E+03  0.12700000000E+01 0.  1.
         -4   -1    0    0    0  501 -0.00000000000E+00 -0.00000000000E+00 -0.13040915546E+02  0.13102609598E+02  0.12700000000E+01 0.  1.
         25    2    1    2    0    0  0.00000000000E+00  0.00000000000E+00  0.28571113934E+03  0.31185736387E+03  0.12499664098E+03 0.  0.
    9000005    1    3    3    0    0  0.24711810051E+02  0.15694298091E+02  0.28059843008E+03  0.28212313537E+03  0.10000000000E+01 0.  0.
    9000005    1    3    3    0    0 -0.24711810051E+02 -0.15694298091E+02  0.51127092657E+01  0.29734228502E+02  0.10000000000E+01 0.  0.
<mgrwt>
<rscale>  0 0.12499664E+03</rscale>
<asrwt>0</asrwt>
<pdfrwt beam="1">  1        4 0.45966801E-01 0.12499664E+03</pdfrwt>
<pdfrwt beam="2">  1       -4 0.20112484E-02 0.12499664E+03</pdfrwt>
<totfact> 0.74140672E+03</totfact>
</mgrwt>
</event>
<event>
 5    1  0.3245943E-002  0.1250051E+03  0.7818608E-02  0.1235061E+00
          4   -1    0    0  501    0  0.00000000000E+00  0.00000000000E+00  0.91783910291E+02  0.91792696269E+02  0.12700000000E+01 0. -1.
         -4   -1    0    0    0  501 -0.00000000000E+00 -0.00000000000E+00 -0.42542385715E+02  0.42561337882E+02  0.12700000000E+01 0. -1.
         25    2    1    2    0    0  0.00000000000E+00  0.00000000000E+00  0.49241524576E+02  0.13435403415E+03  0.12500511489E+03 0.  0.
    9000005    1    3    3    0    0 -0.11668342237E+02  0.11054222174E+02  0.89529643745E+02  0.90966494642E+02  0.10000000000E+01 0.  0.
    9000005    1    3    3    0    0  0.11668342237E+02 -0.11054222174E+02 -0.40288119169E+02  0.43387539508E+02  0.10000000000E+01 0.  0.
<mgrwt>
<rscale>  0 0.12500511E+03</rscale>
<asrwt>0</asrwt>
<pdfrwt beam="1">  1        4 0.14122735E-01 0.12500511E+03</pdfrwt>
<pdfrwt beam="2">  1       -4 0.65471162E-02 0.12500511E+03</pdfrwt>
<totfact> 0.10250522E+04</totfact>
</mgrwt>
</event>
<event>
 5    1  0.3245943E-002  0.1249638E+03  0.7818608E-02  0.1235126E+00
         -4   -1    0    0    0  501 -0.00000000000E+00  0.00000000000E+00  0.16384902045E+02  0.16434047433E+02  0.12700000000E+01 0. -1.
          4   -1    0    0  501    0  0.00000000000E+00 -0.00000000000E+00 -0.23785982184E+03  0.23786321226E+03  0.12700000000E+01 0. -1.
         25    2    1    2    0    0  0.00000000000E+00  0.00000000000E+00 -0.22147491980E+03  0.25429725969E+03  0.12496381952E+03 0.  0.
    9000005    1    3    3    0    0 -0.14555005003E+02  0.48695012175E+02 -0.36805207785E+02  0.62758869505E+02  0.10000000000E+01 0.  0.
    9000005    1    3    3    0    0  0.14555005003E+02 -0.48695012175E+02 -0.18466971201E+03  0.19153839019E+03  0.10000000000E+01 0.  0.
<mgrwt>
<rscale>  0 0.12496382E+03</rscale>
<asrwt>0</asrwt>
<pdfrwt beam="2">  1        4 0.36597857E-01 0.12496382E+03</pdfrwt>
<pdfrwt beam="1">  1       -4 0.25247955E-02 0.12496382E+03</pdfrwt>
<totfact> 0.81778953E+03</totfact>
</mgrwt>
</event>
<event>
 5    1  0.3245943E-002  0.1249999E+03  0.7818608E-02  0.1235069E+00
          4   -1    0    0  501    0  0.00000000000E+00  0.00000000000E+00  0.30784975846E+02  0.30811160930E+02  0.12700000000E+01 0. -1.
         -4   -1    0    0    0  501 -0.00000000000E+00 -0.00000000000E+00 -0.12680476748E+03  0.12681112710E+03  0.12700000000E+01 0. -1.
         25    2    1    2    0    0  0.00000000000E+00  0.00000000000E+00 -0.96019791634E+02  0.15762228803E+03  0.12499994119E+03 0.  0.
    9000005    1    3    3    0    0  0.20290394206E+02 -0.57790834040E+02 -0.63646325404E+02  0.88336489253E+02  0.10000000000E+01 0.  0.
    9000005    1    3    3    0    0 -0.20290394206E+02  0.57790834040E+02 -0.32373466230E+02  0.69285798774E+02  0.10000000000E+01 0.  0.
<mgrwt>
<rscale>  0 0.12499994E+03</rscale>
<asrwt>0</asrwt>
<pdfrwt beam="1">  1        4 0.47386536E-02 0.12499994E+03</pdfrwt>
<pdfrwt beam="2">  1       -4 0.19510929E-01 0.12499994E+03</pdfrwt>
<totfact> 0.97803286E+03</totfact>
</mgrwt>
</event>
<event>
 5    1  0.3245943E-002  0.1250005E+03  0.7818608E-02  0.1235069E+00
          4   -1    0    0  501    0  0.00000000000E+00  0.00000000000E+00  0.84222797666E+02  0.84232372320E+02  0.12700000000E+01 0. -1.
         -4   -1    0    0    0  501 -0.00000000000E+00 -0.00000000000E+00 -0.46359409477E+02  0.46376801820E+02  0.12700000000E+01 0. -1.
         25    2    1    2    0    0  0.00000000000E+00  0.00000000000E+00  0.37863388189E+02  0.13060917414E+03  0.12500048082E+03 0.  0.
    9000005    1    3    3    0    0 -0.31110136480E+02  0.10736273461E+02 -0.36576069610E+02  0.49212976213E+02  0.10000000000E+01 0.  0.
    9000005    1    3    3    0    0  0.31110136480E+02 -0.10736273461E+02  0.74439457799E+02  0.81396197927E+02  0.10000000000E+01 0.  0.
<mgrwt>
<rscale>  0 0.12500048E+03</rscale>
<asrwt>0</asrwt>
<pdfrwt beam="1">  1        4 0.12959428E-01 0.12500048E+03</pdfrwt>
<pdfrwt beam="2">  1       -4 0.71342913E-02 0.12500048E+03</pdfrwt>
<totfact> 0.10331363E+04</totfact>
</mgrwt>
</event>
<event>
 5    1  0.3245943E-002  0.1250322E+03  0.7818608E-02  0.1235019E+00
          4   -1    0    0  501    0  0.00000000000E+00  0.00000000000E+00  0.40643749543E+03  0.40643947962E+03  0.12700000000E+01 0.  1.
         -4   -1    0    0    0  501 -0.00000000000E+00 -0.00000000000E+00 -0.95719502009E+01  0.96558340214E+01  0.12700000000E+01 0.  1.
         25    2    1    2    0    0  0.00000000000E+00  0.00000000000E+00  0.39686554523E+03  0.41609531364E+03  0.12503219202E+03 0.  0.
    9000005    1    3    3    0    0 -0.79258639664E+01 -0.53855341968E+02  0.30068372140E+03  0.30557309681E+03  0.10000000000E+01 0.  0.
    9000005    1    3    3    0    0  0.79258639664E+01  0.53855341968E+02  0.96181823832E+02  0.11052221683E+03  0.10000000000E+01 0.  0.
<mgrwt>
<rscale>  0 0.12503219E+03</rscale>
<asrwt>0</asrwt>
<pdfrwt beam="1">  1        4 0.62535439E-01 0.12503219E+03</pdfrwt>
<pdfrwt beam="2">  1       -4 0.14792132E-02 0.12503219E+03</pdfrwt>
<totfact> 0.62972185E+03</totfact>
</mgrwt>
</event>
<event>
 5    1  0.3245943E-002  0.1250012E+03  0.7818608E-02  0.1235067E+00
         -4   -1    0    0    0  501 -0.00000000000E+00  0.00000000000E+00  0.64221170883E+02  0.64233727041E+02  0.12700000000E+01 0.  1.
          4   -1    0    0  501    0  0.00000000000E+00 -0.00000000000E+00 -0.60800967801E+02  0.60814230123E+02  0.12700000000E+01 0.  1.
         25    2    1    2    0    0  0.00000000000E+00  0.00000000000E+00  0.34202030822E+01  0.12504795716E+03  0.12500117520E+03 0.  0.
    9000005    1    3    3    0    0 -0.43096505883E+02 -0.40822213332E+02  0.21251012055E+02  0.63058444589E+02  0.10000000000E+01 0.  0.
    9000005    1    3    3    0    0  0.43096505883E+02  0.40822213332E+02 -0.17830808972E+02  0.61989512575E+02  0.10000000000E+01 0.  0.
<mgrwt>
<rscale>  0 0.12500118E+03</rscale>
<asrwt>0</asrwt>
<pdfrwt beam="2">  1        4 0.93559811E-02 0.12500118E+03</pdfrwt>
<pdfrwt beam="1">  1       -4 0.98821662E-02 0.12500118E+03</pdfrwt>
<totfact> 0.10451543E+04</totfact>
</mgrwt>
</event>
<event>
 5    1  0.3245943E-002  0.1250003E+03  0.7818608E-02  0.1235069E+00
          4   -1    0    0  501    0  0.00000000000E+00  0.00000000000E+00  0.30542690827E+02  0.30569083450E+02  0.12700000000E+01 0.  1.
         -4   -1    0    0    0  501 -0.00000000000E+00 -0.00000000000E+00 -0.12781064698E+03  0.12781695655E+03  0.12700000000E+01 0.  1.
         25    2    1    2    0    0  0.00000000000E+00  0.00000000000E+00 -0.97267956155E+02  0.15838604000E+03  0.12500032949E+03 0.  0.
    9000005    1    3    3    0    0  0.62135891562E+02  0.56000381883E+01 -0.44058214172E+02  0.76382954145E+02  0.10000000000E+01 0.  0.
    9000005    1    3    3    0    0 -0.62135891562E+02 -0.56000381883E+01 -0.53209741982E+02  0.82003085855E+02  0.10000000000E+01 0.  0.
<mgrwt>
<rscale>  0 0.12500033E+03</rscale>
<asrwt>0</asrwt>
<pdfrwt beam="1">  1        4 0.47013912E-02 0.12500033E+03</pdfrwt>
<pdfrwt beam="2">  1       -4 0.19665692E-01 0.12500033E+03</pdfrwt>
<totfact> 0.97654126E+03</totfact>
</mgrwt>
</event>
<event>
 5    1  0.3245943E-002  0.1249994E+03  0.7818608E-02  0.1235070E+00
         -4   -1    0    0    0  501 -0.00000000000E+00  0.00000000000E+00  0.25033198634E+03  0.25033520784E+03  0.12700000000E+01 0. -1.
          4   -1    0    0  501    0  0.00000000000E+00 -0.00000000000E+00 -0.15574965543E+02  0.15626658366E+02  0.12700000000E+01 0. -1.
         25    2    1    2    0    0  0.00000000000E+00  0.00000000000E+00  0.23475702080E+03  0.26596186621E+03  0.12499942185E+03 0.  0.
    9000005    1    3    3    0    0 -0.52383175379E+01  0.10391402094E+02  0.24801668381E+03  0.24829155575E+03  0.10000000000E+01 0.  0.
    9000005    1    3    3    0    0  0.52383175379E+01 -0.10391402094E+02 -0.13259663019E+02  0.17670310453E+02  0.10000000000E+01 0.  0.
<mgrwt>
<rscale>  0 0.12499942E+03</rscale>
<asrwt>0</asrwt>
<pdfrwt beam="2">  1        4 0.24003727E-02 0.12499942E+03</pdfrwt>
<pdfrwt beam="1">  1       -4 0.38516838E-01 0.12499942E+03</pdfrwt>
<totfact> 0.80077639E+03</totfact>
</mgrwt>
</event>
<event>
 5    1  0.3245943E-002  0.1249897E+03  0.7818608E-02  0.1235085E+00
         -4   -1    0    0    0  501 -0.00000000000E+00  0.00000000000E+00  0.38723490998E+03  0.38723699256E+03  0.12700000000E+01 0. -1.
          4   -1    0    0  501    0  0.00000000000E+00 -0.00000000000E+00 -0.10043793584E+02  0.10123768546E+02  0.12700000000E+01 0. -1.
         25    2    1    2    0    0  0.00000000000E+00  0.00000000000E+00  0.37719111640E+03  0.39736076111E+03  0.12498974429E+03 0.  0.
    9000005    1    3    3    0    0 -0.12156114175E+02 -0.36827125522E+02  0.32830310958E+02  0.50821625354E+02  0.10000000000E+01 0.  0.
    9000005    1    3    3    0    0  0.12156114175E+02  0.36827125522E+02  0.34436080544E+03  0.34653913575E+03  0.10000000000E+01 0.  0.
<mgrwt>
<rscale>  0 0.12498974E+03</rscale>
<asrwt>0</asrwt>
<pdfrwt beam="2">  1        4 0.15515112E-02 0.12498974E+03</pdfrwt>
<pdfrwt beam="1">  1       -4 0.59580909E-01 0.12498974E+03</pdfrwt>
<totfact> 0.64824969E+03</totfact>
</mgrwt>
</event>
<event>
 5    1  0.3245943E-002  0.1249997E+03  0.7818608E-02  0.1235070E+00
          4   -1    0    0  501    0  0.00000000000E+00  0.00000000000E+00  0.59864954502E+02  0.59878424140E+02  0.12700000000E+01 0.  1.
         -4   -1    0    0    0  501 -0.00000000000E+00 -0.00000000000E+00 -0.65223728025E+02  0.65236091219E+02  0.12700000000E+01 0.  1.
         25    2    1    2    0    0  0.00000000000E+00  0.00000000000E+00 -0.53587735230E+01  0.12511451536E+03  0.12499970200E+03 0.  0.
    9000005    1    3    3    0    0  0.13314395668E+02  0.60716982492E+02 -0.91200683284E+01  0.62833118188E+02  0.10000000000E+01 0.  0.
    9000005    1    3    3    0    0 -0.13314395668E+02 -0.60716982492E+02  0.37612948054E+01  0.62281397171E+02  0.10000000000E+01 0.  0.
<mgrwt>
<rscale>  0 0.12499970E+03</rscale>
<asrwt>0</asrwt>
<pdfrwt beam="1">  1        4 0.92119801E-02 0.12499970E+03</pdfrwt>
<pdfrwt beam="2">  1       -4 0.10036407E-01 0.12499970E+03</pdfrwt>
<totfact> 0.10450446E+04</totfact>
</mgrwt>
</event>
<event>
 5    1  0.3245943E-002  0.1249986E+03  0.7818608E-02  0.1235071E+00
         -4   -1    0    0    0  501 -0.00000000000E+00  0.00000000000E+00  0.74170237536E+01  0.75249678645E+01  0.12700000000E+01 0.  1.
          4   -1    0    0  501    0  0.00000000000E+00 -0.00000000000E+00 -0.52273485710E+03  0.52273639985E+03  0.12700000000E+01 0.  1.
         25    2    1    2    0    0  0.00000000000E+00  0.00000000000E+00 -0.51531783335E+03  0.53026136772E+03  0.12499859489E+03 0.  0.
    9000005    1    3    3    0    0  0.36666922257E+02  0.48127252019E+02 -0.19133126390E+03  0.20067224054E+03  0.10000000000E+01 0.  0.
    9000005    1    3    3    0    0 -0.36666922257E+02 -0.48127252019E+02 -0.32398656944E+03  0.32958912718E+03  0.10000000000E+01 0.  0.
<mgrwt>
<rscale>  0 0.12499859E+03</rscale>
<asrwt>0</asrwt>
<pdfrwt beam="2">  1        4 0.80429141E-01 0.12499859E+03</pdfrwt>
<pdfrwt beam="1">  1       -4 0.11495031E-02 0.12499859E+03</pdfrwt>
<totfact> 0.53592260E+03</totfact>
</mgrwt>
</event>
<event>
 5    1  0.3245943E-002  0.1250000E+03  0.7818608E-02  0.1235069E+00
         -4   -1    0    0    0  501 -0.00000000000E+00  0.00000000000E+00  0.57031547380E+02  0.57045686047E+02  0.12700000000E+01 0.  1.
          4   -1    0    0  501    0  0.00000000000E+00 -0.00000000000E+00 -0.68464240101E+02  0.68476018229E+02  0.12700000000E+01 0.  1.
         25    2    1    2    0    0  0.00000000000E+00  0.00000000000E+00 -0.11432692721E+02  0.12552170428E+03  0.12499996713E+03 0.  0.
    9000005    1    3    3    0    0  0.24844148673E+02  0.47452937304E+02 -0.38041310315E+02  0.65705055152E+02  0.10000000000E+01 0.  0.
    9000005    1    3    3    0    0 -0.24844148673E+02 -0.47452937304E+02  0.26608617594E+02  0.59816649124E+02  0.10000000000E+01 0.  0.
<mgrwt>
<rscale>  0 0.12499997E+03</rscale>
<asrwt>0</asrwt>
<pdfrwt beam="2">  1        4 0.10534954E-01 0.12499997E+03</pdfrwt>
<pdfrwt beam="1">  1       -4 0.87760778E-02 0.12499997E+03</pdfrwt>
<totfact> 0.10441482E+04</totfact>
</mgrwt>
</event>
<event>
 5    1  0.3245943E-002  0.1249995E+03  0.7818608E-02  0.1235070E+00
          4   -1    0    0  501    0  0.00000000000E+00  0.00000000000E+00  0.72074629374E+03  0.72074741264E+03  0.12700000000E+01 0. -1.
         -4   -1    0    0    0  501 -0.00000000000E+00 -0.00000000000E+00 -0.53441468044E+01  0.54929777960E+01  0.12700000000E+01 0. -1.
         25    2    1    2    0    0  0.00000000000E+00  0.00000000000E+00  0.71540214693E+03  0.72624039044E+03  0.12499949149E+03 0.  0.
    9000005    1    3    3    0    0  0.13338453340E+02 -0.45118078375E+02  0.11873895317E+03  0.12772429031E+03  0.10000000000E+01 0.  0.
    9000005    1    3    3    0    0 -0.13338453340E+02  0.45118078375E+02  0.59666319376E+03  0.59851610013E+03  0.10000000000E+01 0.  0.
<mgrwt>
<rscale>  0 0.12499949E+03</rscale>
<asrwt>0</asrwt>
<pdfrwt beam="1">  1        4 0.11089553E+00 0.12499949E+03</pdfrwt>
<pdfrwt beam="2">  1       -4 0.83371141E-03 0.12499949E+03</pdfrwt>
<totfact> 0.41737622E+03</totfact>
</mgrwt>
</event>
<event>
 5    1  0.3245943E-002  0.1249808E+03  0.7818608E-02  0.1235099E+00
          4   -1    0    0  501    0  0.00000000000E+00  0.00000000000E+00  0.10189385604E+01  0.16282308773E+01  0.12700000000E+01 0.  1.
         -4   -1    0    0    0  501 -0.00000000000E+00 -0.00000000000E+00 -0.29497490569E+04  0.29497493303E+04  0.12700000000E+01 0.  1.
         25    2    1    2    0    0  0.00000000000E+00  0.00000000000E+00 -0.29487301184E+04  0.29513775612E+04  0.12498078970E+03 0.  0.
    9000005    1    3    3    0    0 -0.26434710006E+02 -0.53435597792E+02 -0.10326433045E+04  0.10343632589E+04  0.10000000000E+01 0.  0.
    9000005    1    3    3    0    0  0.26434710006E+02  0.53435597792E+02 -0.19160868139E+04  0.19170143023E+04  0.10000000000E+01 0.  0.
<mgrwt>
<rscale>  0 0.12498079E+03</rscale>
<asrwt>0</asrwt>
<pdfrwt beam="1">  1        4 0.20365181E-03 0.12498079E+03</pdfrwt>
<pdfrwt beam="2">  1       -4 0.45384917E+00 0.12498079E+03</pdfrwt>
<totfact> 0.20115984E+02</totfact>
</mgrwt>
</event>
<event>
 5    1  0.3245943E-002  0.1249917E+03  0.7818608E-02  0.1235082E+00
          4   -1    0    0  501    0  0.00000000000E+00  0.00000000000E+00  0.26789623805E+03  0.26789924835E+03  0.12700000000E+01 0. -1.
         -4   -1    0    0    0  501 -0.00000000000E+00 -0.00000000000E+00 -0.14548508339E+02  0.14603834938E+02  0.12700000000E+01 0. -1.
         25    2    1    2    0    0  0.00000000000E+00  0.00000000000E+00  0.25334772972E+03  0.28250308328E+03  0.12499167937E+03 0.  0.
    9000005    1    3    3    0    0  0.16445730727E+02 -0.60081849540E+02  0.11550044169E+03  0.13123125670E+03  0.10000000000E+01 0.  0.
    9000005    1    3    3    0    0 -0.16445730727E+02  0.60081849540E+02  0.13784728803E+03  0.15127182659E+03  0.10000000000E+01 0.  0.
<mgrwt>
<rscale>  0 0.12499168E+03</rscale>
<asrwt>0</asrwt>
<pdfrwt beam="1">  1        4 0.41219290E-01 0.12499168E+03</pdfrwt>
<pdfrwt beam="2">  1       -4 0.22427197E-02 0.12499168E+03</pdfrwt>
<totfact> 0.77861780E+03</totfact>
</mgrwt>
</event>
<event>
 5    1  0.3245943E-002  0.1249956E+03  0.7818608E-02  0.1235076E+00
          4   -1    0    0  501    0  0.00000000000E+00  0.00000000000E+00  0.12003601232E+03  0.12004273053E+03  0.12700000000E+01 0.  1.
         -4   -1    0    0    0  501 -0.00000000000E+00 -0.00000000000E+00 -0.32519986481E+02  0.32544775629E+02  0.12700000000E+01 0.  1.
         25    2    1    2    0    0  0.00000000000E+00  0.00000000000E+00  0.87516025835E+02  0.15258750616E+03  0.12499556895E+03 0.  0.
    9000005    1    3    3    0    0  0.36530993010E+01  0.62322691088E+02  0.40412618143E+02  0.74375013709E+02  0.10000000000E+01 0.  0.
    9000005    1    3    3    0    0 -0.36530993010E+01 -0.62322691088E+02  0.47103407691E+02  0.78212492449E+02  0.10000000000E+01 0.  0.
<mgrwt>
<rscale>  0 0.12499557E+03</rscale>
<asrwt>0</asrwt>
<pdfrwt beam="1">  1        4 0.18469503E-01 0.12499557E+03</pdfrwt>
<pdfrwt beam="2">  1       -4 0.50054984E-02 0.12499557E+03</pdfrwt>
<totfact> 0.98800245E+03</totfact>
</mgrwt>
</event>
<event>
 5    1  0.3245943E-002  0.1249983E+03  0.7818608E-02  0.1235072E+00
          4   -1    0    0  501    0  0.00000000000E+00  0.00000000000E+00  0.59594379548E+03  0.59594514871E+03  0.12700000000E+01 0. -1.
         -4   -1    0    0    0  501 -0.00000000000E+00 -0.00000000000E+00 -0.64916591932E+01  0.66147213910E+01  0.12700000000E+01 0. -1.
         25    2    1    2    0    0  0.00000000000E+00  0.00000000000E+00  0.58945213628E+03  0.60255987010E+03  0.12499830432E+03 0.  0.
    9000005    1    3    3    0    0 -0.47639008899E+02  0.40438520444E+02  0.29775541209E+03  0.30424338042E+03  0.10000000000E+01 0.  0.
    9000005    1    3    3    0    0  0.47639008899E+02 -0.40438520444E+02  0.29169672420E+03  0.29831648967E+03  0.10000000000E+01 0.  0.
<mgrwt>
<rscale>  0 0.12499830E+03</rscale>
<asrwt>0</asrwt>
<pdfrwt beam="1">  1        4 0.91693231E-01 0.12499830E+03</pdfrwt>
<pdfrwt beam="2">  1       -4 0.10082872E-02 0.12499830E+03</pdfrwt>
<totfact> 0.48708232E+03</totfact>
</mgrwt>
</event>
<event>
 5    1  0.3245943E-002  0.1250075E+03  0.7818608E-02  0.1235058E+00
          4   -1    0    0  501    0  0.00000000000E+00  0.00000000000E+00  0.27672478027E+02  0.27701605372E+02  0.12700000000E+01 0. -1.
         -4   -1    0    0    0  501 -0.00000000000E+00 -0.00000000000E+00 -0.14107072198E+03  0.14107643850E+03  0.12700000000E+01 0. -1.
         25    2    1    2    0    0  0.00000000000E+00  0.00000000000E+00 -0.11339824395E+03  0.16877804387E+03  0.12500746522E+03 0.  0.
    9000005    1    3    3    0    0 -0.26593853242E+02  0.25323906081E+02 -0.12497400006E+03  0.13026140618E+03  0.10000000000E+01 0.  0.
    9000005    1    3    3    0    0  0.26593853242E+02 -0.25323906081E+02  0.11575756108E+02  0.38516637690E+02  0.10000000000E+01 0.  0.
<mgrwt>
<rscale>  0 0.12500747E+03</rscale>
<asrwt>0</asrwt>
<pdfrwt beam="1">  1        4 0.42599847E-02 0.12500747E+03</pdfrwt>
<pdfrwt beam="2">  1       -4 0.21705868E-01 0.12500747E+03</pdfrwt>
<totfact> 0.95660600E+03</totfact>
</mgrwt>
</event>
<event>
 5    1  0.3245943E-002  0.1249988E+03  0.7818608E-02  0.1235071E+00
         -4   -1    0    0    0  501 -0.00000000000E+00  0.00000000000E+00  0.21611534598E+03  0.21611907752E+03  0.12700000000E+01 0.  1.
          4   -1    0    0  501    0  0.00000000000E+00 -0.00000000000E+00 -0.18048299197E+02  0.18092926903E+02  0.12700000000E+01 0.  1.
         25    2    1    2    0    0  0.00000000000E+00  0.00000000000E+00  0.19806704678E+03  0.23421200442E+03  0.12499883197E+03 0.  0.
    9000005    1    3    3    0    0  0.14116064816E+02  0.59682049356E+02  0.12151548579E+03  0.13611841752E+03  0.10000000000E+01 0.  0.
    9000005    1    3    3    0    0 -0.14116064816E+02 -0.59682049356E+02  0.76551560991E+02  0.98093586902E+02  0.10000000000E+01 0.  0.
<mgrwt>
<rscale>  0 0.12499883E+03</rscale>
<asrwt>0</asrwt>
<pdfrwt beam="2">  1        4 0.27803813E-02 0.12499883E+03</pdfrwt>
<pdfrwt beam="1">  1       -4 0.33252235E-01 0.12499883E+03</pdfrwt>
<totfact> 0.84669213E+03</totfact>
</mgrwt>
</event>
<event>
 4    1  0.3245943E-002  0.1247885E+03  0.7818608E-02  0.1235400E+00
         -4   -1    0    0    0  501 -0.00000000000E+00  0.00000000000E+00  0.11284489467E+03  0.11285204098E+03  0.12700000000E+01 0. -1.
          4   -1    0    0  501    0  0.00000000000E+00 -0.00000000000E+00 -0.34479104821E+02  0.34502486422E+02  0.12700000000E+01 0. -1.
    9000005    1    1    2    0    0 -0.37419838462E+02 -0.91599291335E+00  0.98117738830E+02  0.10501987444E+03  0.10000000000E+01 0.  0.
    9000005    1    1    2    0    0  0.37419838462E+02  0.91599291335E+00 -0.19751948977E+02  0.42334652968E+02  0.10000000000E+01 0.  0.
<mgrwt>
<rscale>  0 0.12478846E+03</rscale>
<asrwt>0</asrwt>
<pdfrwt beam="2">  1        4 0.53068259E-02 0.12478846E+03</pdfrwt>
<pdfrwt beam="1">  1       -4 0.17363102E-01 0.12478846E+03</pdfrwt>
<totfact> 0.10031059E+04</totfact>
</mgrwt>
</event>
<event>
 5    1  0.3245943E-002  0.1250012E+03  0.7818608E-02  0.1235067E+00
         -4   -1    0    0    0  501 -0.00000000000E+00  0.00000000000E+00  0.54396296456E+02  0.54411119894E+02  0.12700000000E+01 0. -1.
          4   -1    0    0  501    0  0.00000000000E+00 -0.00000000000E+00 -0.71782083250E+02  0.71793317068E+02  0.12700000000E+01 0. -1.
         25    2    1    2    0    0  0.00000000000E+00  0.00000000000E+00 -0.17385786793E+02  0.12620443696E+03  0.12500117730E+03 0.  0.
    9000005    1    3    3    0    0 -0.13688208967E+02  0.17407387149E+02  0.50307107776E+02  0.54974442106E+02  0.10000000000E+01 0.  0.
    9000005    1    3    3    0    0  0.13688208967E+02 -0.17407387149E+02 -0.67692894569E+02  0.71229994857E+02  0.10000000000E+01 0.  0.
<mgrwt>
<rscale>  0 0.12500118E+03</rscale>
<asrwt>0</asrwt>
<pdfrwt beam="2">  1        4 0.11045402E-01 0.12500118E+03</pdfrwt>
<pdfrwt beam="1">  1       -4 0.83706654E-02 0.12500118E+03</pdfrwt>
<totfact> 0.10426205E+04</totfact>
</mgrwt>
</event>
<event>
 5    1  0.3245943E-002  0.1250003E+03  0.7818608E-02  0.1235069E+00
         -4   -1    0    0    0  501 -0.00000000000E+00  0.00000000000E+00  0.43132056067E+01  0.44962920952E+01  0.12700000000E+01 0. -1.
          4   -1    0    0  501    0  0.00000000000E+00 -0.00000000000E+00 -0.88664746684E+03  0.88664837639E+03  0.12700000000E+01 0. -1.
         25    2    1    2    0    0  0.00000000000E+00  0.00000000000E+00 -0.88233426124E+03  0.89114466849E+03  0.12500028649E+03 0.  0.
    9000005    1    3    3    0    0  0.51792236127E+02 -0.34004877426E+02 -0.38303052921E+03  0.38801050723E+03  0.10000000000E+01 0.  0.
    9000005    1    3    3    0    0 -0.51792236127E+02  0.34004877426E+02 -0.49930373202E+03  0.50313416126E+03  0.10000000000E+01 0.  0.
<mgrwt>
<rscale>  0 0.12500029E+03</rscale>
<asrwt>0</asrwt>
<pdfrwt beam="2">  1        4 0.13642131E+00 0.12500029E+03</pdfrwt>
<pdfrwt beam="1">  1       -4 0.67772434E-03 0.12500029E+03</pdfrwt>
<totfact> 0.34499955E+03</totfact>
</mgrwt>
</event>
<event>
 5    1  0.3245943E-002  0.1249996E+03  0.7818608E-02  0.1235070E+00
         -4   -1    0    0    0  501 -0.00000000000E+00  0.00000000000E+00  0.24359881763E+02  0.24392964959E+02  0.12700000000E+01 0.  1.
          4   -1    0    0  501    0  0.00000000000E+00 -0.00000000000E+00 -0.16021045956E+03  0.16021549318E+03  0.12700000000E+01 0.  1.
         25    2    1    2    0    0  0.00000000000E+00  0.00000000000E+00 -0.13585057780E+03  0.18460845814E+03  0.12499961331E+03 0.  0.
    9000005    1    3    3    0    0 -0.48887035250E-01  0.52903971643E+01  0.24035776826E+02  0.24631468891E+02  0.10000000000E+01 0.  0.
    9000005    1    3    3    0    0  0.48887035250E-01 -0.52903971643E+01 -0.15988635463E+03  0.15997698925E+03  0.10000000000E+01 0.  0.
<mgrwt>
<rscale>  0 0.12499961E+03</rscale>
<asrwt>0</asrwt>
<pdfrwt beam="2">  1        4 0.24650694E-01 0.12499961E+03</pdfrwt>
<pdfrwt beam="1">  1       -4 0.37506063E-02 0.12499961E+03</pdfrwt>
<totfact> 0.92794786E+03</totfact>
</mgrwt>
</event>
<event>
 5    1  0.3245943E-002  0.1249991E+03  0.7818608E-02  0.1235071E+00
          4   -1    0    0  501    0  0.00000000000E+00  0.00000000000E+00  0.64148902816E+01  0.65393973212E+01  0.12700000000E+01 0.  1.
         -4   -1    0    0    0  501 -0.00000000000E+00 -0.00000000000E+00 -0.60294798102E+03  0.60294931853E+03  0.12700000000E+01 0.  1.
         25    2    1    2    0    0  0.00000000000E+00  0.00000000000E+00 -0.59653309074E+03  0.60948871585E+03  0.12499906561E+03 0.  0.
    9000005    1    3    3    0    0  0.32869479466E+02  0.47087048206E+02 -0.17807681501E+03  0.18710944613E+03  0.10000000000E+01 0.  0.
    9000005    1    3    3    0    0 -0.32869479466E+02 -0.47087048206E+02 -0.41845627573E+03  0.42237926972E+03  0.10000000000E+01 0.  0.
<mgrwt>
<rscale>  0 0.12499907E+03</rscale>
<asrwt>0</asrwt>
<pdfrwt beam="1">  1        4 0.99658702E-03 0.12499907E+03</pdfrwt>
<pdfrwt beam="2">  1       -4 0.92770864E-01 0.12499907E+03</pdfrwt>
<totfact> 0.48275087E+03</totfact>
</mgrwt>
</event>
<event>
 5    1  0.3245943E-002  0.1250110E+03  0.7818608E-02  0.1235052E+00
          4   -1    0    0  501    0  0.00000000000E+00  0.00000000000E+00  0.38150583232E+03  0.38150794617E+03  0.12700000000E+01 0. -1.
         -4   -1    0    0    0  501 -0.00000000000E+00 -0.00000000000E+00 -0.10199306661E+02  0.10278071626E+02  0.12700000000E+01 0. -1.
         25    2    1    2    0    0  0.00000000000E+00  0.00000000000E+00  0.37130652566E+03  0.39178601780E+03  0.12501099050E+03 0.  0.
    9000005    1    3    3    0    0  0.45390517196E+02  0.34561447488E+02  0.26562551664E+03  0.27168494215E+03  0.10000000000E+01 0.  0.
    9000005    1    3    3    0    0 -0.45390517196E+02 -0.34561447488E+02  0.10568100902E+03  0.12010107564E+03  0.10000000000E+01 0.  0.
<mgrwt>
<rscale>  0 0.12501099E+03</rscale>
<asrwt>0</asrwt>
<pdfrwt beam="1">  1        4 0.58699422E-01 0.12501099E+03</pdfrwt>
<pdfrwt beam="2">  1       -4 0.15753457E-02 0.12501099E+03</pdfrwt>
<totfact> 0.65343728E+03</totfact>
</mgrwt>
</event>
<event>
 5    1  0.3245943E-002  0.1249975E+03  0.7818608E-02  0.1235073E+00
          4   -1    0    0  501    0  0.00000000000E+00  0.00000000000E+00  0.42319772787E+01  0.44184309078E+01  0.12700000000E+01 0.  1.
         -4   -1    0    0    0  501 -0.00000000000E+00 -0.00000000000E+00 -0.90291309791E+03  0.90291399108E+03  0.12700000000E+01 0.  1.
         25    2    1    2    0    0  0.00000000000E+00  0.00000000000E+00 -0.89868112064E+03  0.90733242199E+03  0.12499746958E+03 0.  0.
    9000005    1    3    3    0    0  0.54126337652E+02 -0.19269161240E+02 -0.62775529339E+03  0.63037978186E+03  0.10000000000E+01 0.  0.
    9000005    1    3    3    0    0 -0.54126337652E+02  0.19269161240E+02 -0.27092582725E+03  0.27695264013E+03  0.10000000000E+01 0.  0.
<mgrwt>
<rscale>  0 0.12499747E+03</rscale>
<asrwt>0</asrwt>
<pdfrwt beam="1">  1        4 0.66548544E-03 0.12499747E+03</pdfrwt>
<pdfrwt beam="2">  1       -4 0.13892397E+00 0.12499747E+03</pdfrwt>
<totfact> 0.33882611E+03</totfact>
</mgrwt>
</event>
<event>
 5    1  0.3245943E-002  0.1249998E+03  0.7818608E-02  0.1235070E+00
          4   -1    0    0  501    0  0.00000000000E+00  0.00000000000E+00  0.11769496863E+02  0.11837818905E+02  0.12700000000E+01 0.  1.
         -4   -1    0    0    0  501 -0.00000000000E+00 -0.00000000000E+00 -0.33086473538E+03  0.33086717278E+03  0.12700000000E+01 0.  1.
         25    2    1    2    0    0  0.00000000000E+00  0.00000000000E+00 -0.31909523852E+03  0.34270499168E+03  0.12499976031E+03 0.  0.
    9000005    1    3    3    0    0 -0.33257284319E+02 -0.25928367175E+02 -0.33107299501E+02  0.53622947186E+02  0.10000000000E+01 0.  0.
    9000005    1    3    3    0    0  0.33257284319E+02  0.25928367175E+02 -0.28598793902E+03  0.28908204450E+03  0.10000000000E+01 0.  0.
<mgrwt>
<rscale>  0 0.12499976E+03</rscale>
<asrwt>0</asrwt>
<pdfrwt beam="1">  1        4 0.18161351E-02 0.12499976E+03</pdfrwt>
<pdfrwt beam="2">  1       -4 0.50907703E-01 0.12499976E+03</pdfrwt>
<totfact> 0.70535000E+03</totfact>
</mgrwt>
</event>
<event>
 5    1  0.3245943E-002  0.1249947E+03  0.7818608E-02  0.1235078E+00
         -4   -1    0    0    0  501 -0.00000000000E+00  0.00000000000E+00  0.13994264860E+02  0.14051773873E+02  0.12700000000E+01 0. -1.
          4   -1    0    0  501    0  0.00000000000E+00 -0.00000000000E+00 -0.27847709070E+03  0.27847998661E+03  0.12700000000E+01 0. -1.
         25    2    1    2    0    0  0.00000000000E+00  0.00000000000E+00 -0.26448282584E+03  0.29253176049E+03  0.12499466281E+03 0.  0.
    9000005    1    3    3    0    0  0.32592361657E+02 -0.28375911444E+02 -0.23788090854E+03  0.24177630371E+03  0.10000000000E+01 0.  0.
    9000005    1    3    3    0    0 -0.32592361657E+02  0.28375911444E+02 -0.26601917302E+02  0.50755456778E+02  0.10000000000E+01 0.  0.
<mgrwt>
<rscale>  0 0.12499466E+03</rscale>
<asrwt>0</asrwt>
<pdfrwt beam="2">  1        4 0.42847272E-01 0.12499466E+03</pdfrwt>
<pdfrwt beam="1">  1       -4 0.21576106E-02 0.12499466E+03</pdfrwt>
<totfact> 0.76554369E+03</totfact>
</mgrwt>
</event>
<event>
 5    1  0.3245943E-002  0.1249975E+03  0.7818608E-02  0.1235073E+00
          4   -1    0    0  501    0  0.00000000000E+00  0.00000000000E+00  0.40379402235E+02  0.40399369115E+02  0.12700000000E+01 0. -1.
         -4   -1    0    0    0  501 -0.00000000000E+00 -0.00000000000E+00 -0.96686737036E+02  0.96695077531E+02  0.12700000000E+01 0. -1.
         25    2    1    2    0    0  0.00000000000E+00  0.00000000000E+00 -0.56307334801E+02  0.13709444665E+03  0.12499748537E+03 0.  0.
    9000005    1    3    3    0    0 -0.55443506620E+01 -0.28832708301E+02  0.32348586955E+02  0.43697779923E+02  0.10000000000E+01 0.  0.
    9000005    1    3    3    0    0  0.55443506620E+01  0.28832708301E+02 -0.88655921757E+02  0.93396666722E+02  0.10000000000E+01 0.  0.
<mgrwt>
<rscale>  0 0.12499749E+03</rscale>
<asrwt>0</asrwt>
<pdfrwt beam="1">  1        4 0.62143933E-02 0.12499749E+03</pdfrwt>
<pdfrwt beam="2">  1       -4 0.14877060E-01 0.12499749E+03</pdfrwt>
<totfact> 0.10194689E+04</totfact>
</mgrwt>
</event>
<event>
 5    1  0.3245943E-002  0.1250038E+03  0.7818608E-02  0.1235063E+00
          4   -1    0    0  501    0  0.00000000000E+00  0.00000000000E+00  0.52599382115E+03  0.52599535434E+03  0.12700000000E+01 0.  1.
         -4   -1    0    0    0  501 -0.00000000000E+00 -0.00000000000E+00 -0.73710179728E+01  0.74796260572E+01  0.12700000000E+01 0.  1.
         25    2    1    2    0    0  0.00000000000E+00  0.00000000000E+00  0.51862280318E+03  0.53347498040E+03  0.12500377088E+03 0.  0.
    9000005    1    3    3    0    0  0.37061942538E+01 -0.48593799176E+02  0.92359121445E+02  0.10443323469E+03  0.10000000000E+01 0.  0.
    9000005    1    3    3    0    0 -0.37061942538E+01  0.48593799176E+02  0.42626368173E+03  0.42904174571E+03  0.10000000000E+01 0.  0.
<mgrwt>
<rscale>  0 0.12500377E+03</rscale>
<asrwt>0</asrwt>
<pdfrwt beam="1">  1        4 0.80930619E-01 0.12500377E+03</pdfrwt>
<pdfrwt beam="2">  1       -4 0.11424749E-02 0.12500377E+03</pdfrwt>
<totfact> 0.53353120E+03</totfact>
</mgrwt>
</event>
<event>
 5    1  0.3245943E-002  0.1249721E+03  0.7818608E-02  0.1235113E+00
         -4   -1    0    0    0  501 -0.00000000000E+00  0.00000000000E+00  0.72286102095E+02  0.72297257597E+02  0.12700000000E+01 0.  1.
          4   -1    0    0  501    0  0.00000000000E+00 -0.00000000000E+00 -0.53991803078E+02  0.54006737539E+02  0.12700000000E+01 0.  1.
         25    2    1    2    0    0  0.00000000000E+00  0.00000000000E+00  0.18294299017E+02  0.12630399514E+03  0.12497206812E+03 0.  0.
    9000005    1    3    3    0    0  0.31523777785E+02 -0.29434152409E+02  0.54832756271E+02  0.69769255795E+02  0.10000000000E+01 0.  0.
    9000005    1    3    3    0    0 -0.31523777785E+02  0.29434152409E+02 -0.36538457254E+02  0.56534739341E+02  0.10000000000E+01 0.  0.
<mgrwt>
<rscale>  0 0.12497207E+03</rscale>
<asrwt>0</asrwt>
<pdfrwt beam="2">  1        4 0.83084382E-02 0.12497207E+03</pdfrwt>
<pdfrwt beam="1">  1       -4 0.11122946E-01 0.12497207E+03</pdfrwt>
<totfact> 0.10430880E+04</totfact>
</mgrwt>
</event>
<event>
 5    1  0.3245943E-002  0.1249974E+03  0.7818608E-02  0.1235073E+00
         -4   -1    0    0    0  501 -0.00000000000E+00  0.00000000000E+00  0.23531963438E+03  0.23532306140E+03  0.12700000000E+01 0.  1.
          4   -1    0    0  501    0  0.00000000000E+00 -0.00000000000E+00 -0.16571219346E+02  0.16619813796E+02  0.12700000000E+01 0.  1.
         25    2    1    2    0    0  0.00000000000E+00  0.00000000000E+00  0.21874841504E+03  0.25194287519E+03  0.12499737309E+03 0.  0.
    9000005    1    3    3    0    0  0.98662613073E+00 -0.34660113584E+02  0.21416117200E+03  0.21695230927E+03  0.10000000000E+01 0.  0.
    9000005    1    3    3    0    0 -0.98662613073E+00  0.34660113584E+02  0.45872430312E+01  0.34990565920E+02  0.10000000000E+01 0.  0.
<mgrwt>
<rscale>  0 0.12499737E+03</rscale>
<asrwt>0</asrwt>
<pdfrwt beam="2">  1        4 0.25534201E-02 0.12499737E+03</pdfrwt>
<pdfrwt beam="1">  1       -4 0.36207021E-01 0.12499737E+03</pdfrwt>
<totfact> 0.82055032E+03</totfact>
</mgrwt>
</event>
<event>
 5    1  0.3245943E-002  0.1250019E+03  0.7818608E-02  0.1235066E+00
          4   -1    0    0  501    0  0.00000000000E+00  0.00000000000E+00  0.68265176638E+02  0.68276989106E+02  0.12700000000E+01 0. -1.
         -4   -1    0    0    0  501 -0.00000000000E+00 -0.00000000000E+00 -0.57199636275E+02  0.57213733404E+02  0.12700000000E+01 0. -1.
         25    2    1    2    0    0  0.00000000000E+00  0.00000000000E+00  0.11065540362E+02  0.12549072251E+03  0.12500190100E+03 0.  0.
    9000005    1    3    3    0    0  0.80119520707E+01 -0.19211742109E+01 -0.56656925824E+02  0.57261588610E+02  0.10000000000E+01 0.  0.
    9000005    1    3    3    0    0 -0.80119520707E+01  0.19211742109E+01  0.67722466187E+02  0.68229133900E+02  0.10000000000E+01 0.  0.
<mgrwt>
<rscale>  0 0.12500190E+03</rscale>
<asrwt>0</asrwt>
<pdfrwt beam="1">  1        4 0.10504328E-01 0.12500190E+03</pdfrwt>
<pdfrwt beam="2">  1       -4 0.88019371E-02 0.12500190E+03</pdfrwt>
<totfact> 0.10441711E+04</totfact>
</mgrwt>
</event>
<event>
 5    1  0.3245943E-002  0.1249928E+03  0.7818608E-02  0.1235080E+00
          4   -1    0    0  501    0  0.00000000000E+00  0.00000000000E+00  0.48418027258E+02  0.48434680380E+02  0.12700000000E+01 0.  1.
         -4   -1    0    0    0  501 -0.00000000000E+00 -0.00000000000E+00 -0.80632819819E+02  0.80642820709E+02  0.12700000000E+01 0.  1.
         25    2    1    2    0    0  0.00000000000E+00  0.00000000000E+00 -0.32214792561E+02  0.12907750109E+03  0.12499283351E+03 0.  0.
    9000005    1    3    3    0    0 -0.42611994551E+02  0.44674588305E+02 -0.26076960094E+02  0.67026925691E+02  0.10000000000E+01 0.  0.
    9000005    1    3    3    0    0  0.42611994551E+02 -0.44674588305E+02 -0.61378324673E+01  0.62050575398E+02  0.10000000000E+01 0.  0.
<mgrwt>
<rscale>  0 0.12499283E+03</rscale>
<asrwt>0</asrwt>
<pdfrwt beam="1">  1        4 0.74509776E-02 0.12499283E+03</pdfrwt>
<pdfrwt beam="2">  1       -4 0.12407100E-01 0.12499283E+03</pdfrwt>
<totfact> 0.10365959E+04</totfact>
</mgrwt>
</event>
<event>
 5    1  0.3245943E-002  0.1249985E+03  0.7818608E-02  0.1235072E+00
         -4   -1    0    0    0  501 -0.00000000000E+00  0.00000000000E+00  0.25001796857E+03  0.25002119412E+03  0.12700000000E+01 0. -1.
          4   -1    0    0  501    0  0.00000000000E+00 -0.00000000000E+00 -0.15594362372E+02  0.15645991109E+02  0.12700000000E+01 0. -1.
         25    2    1    2    0    0  0.00000000000E+00  0.00000000000E+00  0.23442360620E+03  0.26566718523E+03  0.12499850465E+03 0.  0.
    9000005    1    3    3    0    0  0.21151363993E+02  0.40874452107E+02  0.20705850050E+03  0.21211394029E+03  0.10000000000E+01 0.  0.
    9000005    1    3    3    0    0 -0.21151363993E+02 -0.40874452107E+02  0.27365105695E+02  0.53553244939E+02  0.10000000000E+01 0.  0.
<mgrwt>
<rscale>  0 0.12499850E+03</rscale>
<asrwt>0</asrwt>
<pdfrwt beam="2">  1        4 0.24033523E-02 0.12499850E+03</pdfrwt>
<pdfrwt beam="1">  1       -4 0.38468521E-01 0.12499850E+03</pdfrwt>
<totfact> 0.80119938E+03</totfact>
</mgrwt>
</event>
<event>
 5    1  0.3245943E-002  0.1249984E+03  0.7818608E-02  0.1235072E+00
         -4   -1    0    0    0  501 -0.00000000000E+00  0.00000000000E+00  0.13671388300E+03  0.13671978168E+03  0.12700000000E+01 0. -1.
          4   -1    0    0  501    0  0.00000000000E+00 -0.00000000000E+00 -0.28551082534E+02  0.28579314440E+02  0.12700000000E+01 0. -1.
         25    2    1    2    0    0  0.00000000000E+00  0.00000000000E+00  0.10816280046E+03  0.16529909612E+03  0.12499839909E+03 0.  0.
    9000005    1    3    3    0    0 -0.47109758911E+02 -0.36962598884E+02  0.77722107957E+02  0.98118750329E+02  0.10000000000E+01 0.  0.
    9000005    1    3    3    0    0  0.47109758911E+02  0.36962598884E+02  0.30440692504E+02  0.67180345794E+02  0.10000000000E+01 0.  0.
<mgrwt>
<rscale>  0 0.12499840E+03</rscale>
<asrwt>0</asrwt>
<pdfrwt beam="2">  1        4 0.43950996E-02 0.12499840E+03</pdfrwt>
<pdfrwt beam="1">  1       -4 0.21035531E-01 0.12499840E+03</pdfrwt>
<totfact> 0.96334242E+03</totfact>
</mgrwt>
</event>
<event>
 5    1  0.3245943E-002  0.1249988E+03  0.7818608E-02  0.1235071E+00
         -4   -1    0    0    0  501 -0.00000000000E+00  0.00000000000E+00  0.12910274513E+02  0.12972589872E+02  0.12700000000E+01 0.  1.
          4   -1    0    0  501    0  0.00000000000E+00 -0.00000000000E+00 -0.30177105011E+03  0.30177372249E+03  0.12700000000E+01 0.  1.
         25    2    1    2    0    0  0.00000000000E+00  0.00000000000E+00 -0.28886077560E+03  0.31474631236E+03  0.12499877386E+03 0.  0.
    9000005    1    3    3    0    0 -0.60319522599E+02 -0.14868226019E+02 -0.16144585378E+03  0.17298922699E+03  0.10000000000E+01 0.  0.
    9000005    1    3    3    0    0  0.60319522599E+02  0.14868226019E+02 -0.12741492182E+03  0.14175708537E+03  0.10000000000E+01 0.  0.
<mgrwt>
<rscale>  0 0.12499877E+03</rscale>
<asrwt>0</asrwt>
<pdfrwt beam="2">  1        4 0.46431309E-01 0.12499877E+03</pdfrwt>
<pdfrwt beam="1">  1       -4 0.19911954E-02 0.12499877E+03</pdfrwt>
<totfact> 0.73787378E+03</totfact>
</mgrwt>
</event>
<event>
 5    1  0.3245943E-002  0.1250002E+03  0.7818608E-02  0.1235069E+00
          4   -1    0    0  501    0  0.00000000000E+00  0.00000000000E+00  0.73192432159E+02  0.73203449545E+02  0.12700000000E+01 0. -1.
         -4   -1    0    0    0  501 -0.00000000000E+00 -0.00000000000E+00 -0.53347162892E+02  0.53362277768E+02  0.12700000000E+01 0. -1.
         25    2    1    2    0    0  0.00000000000E+00  0.00000000000E+00  0.19845269267E+02  0.12656572731E+03  0.12500019447E+03 0.  0.
    9000005    1    3    3    0    0  0.67439794640E+01  0.25774600511E+02 -0.47313658919E+02  0.54308319904E+02  0.10000000000E+01 0.  0.
    9000005    1    3    3    0    0 -0.67439794640E+01 -0.25774600511E+02  0.67158928186E+02  0.72257407410E+02  0.10000000000E+01 0.  0.
<mgrwt>
<rscale>  0 0.12500019E+03</rscale>
<asrwt>0</asrwt>
<pdfrwt beam="1">  1        4 0.11262384E-01 0.12500019E+03</pdfrwt>
<pdfrwt beam="2">  1       -4 0.82092660E-02 0.12500019E+03</pdfrwt>
<totfact> 0.10418549E+04</totfact>
</mgrwt>
</event>
<event>
 5    1  0.3245943E-002  0.1249998E+03  0.7818608E-02  0.1235070E+00
         -4   -1    0    0    0  501 -0.00000000000E+00  0.00000000000E+00  0.11290269276E+04  0.11290276418E+04  0.12700000000E+01 0.  1.
          4   -1    0    0  501    0  0.00000000000E+00 -0.00000000000E+00 -0.33425416476E+01  0.35756796089E+01  0.12700000000E+01 0.  1.
         25    2    1    2    0    0  0.00000000000E+00  0.00000000000E+00  0.11256843859E+04  0.11326033215E+04  0.12499978835E+03 0.  0.
    9000005    1    3    3    0    0  0.38819063328E+02  0.40394518638E+02  0.31196975584E+03  0.31696177273E+03  0.10000000000E+01 0.  0.
    9000005    1    3    3    0    0 -0.38819063328E+02 -0.40394518638E+02  0.81371463008E+03  0.81564154873E+03  0.10000000000E+01 0.  0.
<mgrwt>
<rscale>  0 0.12499979E+03</rscale>
<asrwt>0</asrwt>
<pdfrwt beam="2">  1        4 0.53222521E-03 0.12499979E+03</pdfrwt>
<pdfrwt beam="1">  1       -4 0.17371464E+00 0.12499979E+03</pdfrwt>
<totfact> 0.26547984E+03</totfact>
</mgrwt>
</event>
<event>
 5    1  0.3245943E-002  0.1249919E+03  0.7818608E-02  0.1235082E+00
          4   -1    0    0  501    0  0.00000000000E+00  0.00000000000E+00  0.18044894792E+02  0.18089530897E+02  0.12700000000E+01 0.  1.
         -4   -1    0    0    0  501 -0.00000000000E+00 -0.00000000000E+00 -0.21613196497E+03  0.21613569623E+03  0.12700000000E+01 0.  1.
         25    2    1    2    0    0  0.00000000000E+00  0.00000000000E+00 -0.19808707018E+03  0.23422522712E+03  0.12499187833E+03 0.  0.
    9000005    1    3    3    0    0 -0.13989410700E+02 -0.60661297724E+02 -0.10917759156E+03  0.12568310607E+03  0.10000000000E+01 0.  0.
    9000005    1    3    3    0    0  0.13989410700E+02  0.60661297724E+02 -0.88909478618E+02  0.10854212105E+03  0.10000000000E+01 0.  0.
<mgrwt>
<rscale>  0 0.12499188E+03</rscale>
<asrwt>0</asrwt>
<pdfrwt beam="1">  1        4 0.27798584E-02 0.12499188E+03</pdfrwt>
<pdfrwt beam="2">  1       -4 0.33254790E-01 0.12499188E+03</pdfrwt>
<totfact> 0.84680343E+03</totfact>
</mgrwt>
</event>
<event>
 5    1  0.3245943E-002  0.1250004E+03  0.7818608E-02  0.1235069E+00
          4   -1    0    0  501    0  0.00000000000E+00  0.00000000000E+00  0.83717869228E+01  0.84675684987E+01  0.12700000000E+01 0.  1.
         -4   -1    0    0    0  501 -0.00000000000E+00 -0.00000000000E+00 -0.46384892269E+03  0.46385066129E+03  0.12700000000E+01 0.  1.
         25    2    1    2    0    0  0.00000000000E+00  0.00000000000E+00 -0.45547713576E+03  0.47231822979E+03  0.12500035594E+03 0.  0.
    9000005    1    3    3    0    0 -0.36191056044E+02  0.38853832338E+02 -0.10322683989E+03  0.11608700745E+03  0.10000000000E+01 0.  0.
    9000005    1    3    3    0    0  0.36191056044E+02 -0.38853832338E+02 -0.35225029587E+03  0.35623122233E+03  0.10000000000E+01 0.  0.
<mgrwt>
<rscale>  0 0.12500036E+03</rscale>
<asrwt>0</asrwt>
<pdfrwt beam="1">  1        4 0.12954691E-02 0.12500036E+03</pdfrwt>
<pdfrwt beam="2">  1       -4 0.71368854E-01 0.12500036E+03</pdfrwt>
<totfact> 0.58077527E+03</totfact>
</mgrwt>
</event>
<event>
 5    1  0.3245943E-002  0.1250003E+03  0.7818608E-02  0.1235069E+00
          4   -1    0    0  501    0  0.00000000000E+00  0.00000000000E+00  0.13894054473E+03  0.13894634889E+03  0.12700000000E+01 0.  1.
         -4   -1    0    0    0  501 -0.00000000000E+00 -0.00000000000E+00 -0.28093947520E+02  0.28122638341E+02  0.12700000000E+01 0.  1.
         25    2    1    2    0    0  0.00000000000E+00  0.00000000000E+00  0.11084659721E+03  0.16706898723E+03  0.12500031352E+03 0.  0.
    9000005    1    3    3    0    0  0.52913437808E+02 -0.19461607531E+02  0.91452728921E+02  0.10743922792E+03  0.10000000000E+01 0.  0.
    9000005    1    3    3    0    0 -0.52913437808E+02  0.19461607531E+02  0.19393868286E+02  0.59629759311E+02  0.10000000000E+01 0.  0.
<mgrwt>
<rscale>  0 0.12500031E+03</rscale>
<asrwt>0</asrwt>
<pdfrwt beam="1">  1        4 0.21378122E-01 0.12500031E+03</pdfrwt>
<pdfrwt beam="2">  1       -4 0.43247992E-02 0.12500031E+03</pdfrwt>
<totfact> 0.95996311E+03</totfact>
</mgrwt>
</event>
<event>
 5    1  0.3245943E-002  0.1249848E+03  0.7818608E-02  0.1235093E+00
          4   -1    0    0  501    0  0.00000000000E+00  0.00000000000E+00  0.17199887760E+04  0.17199892449E+04  0.12700000000E+01 0.  1.
         -4   -1    0    0    0  501 -0.00000000000E+00 -0.00000000000E+00 -0.20924438417E+01  0.24476971280E+01  0.12700000000E+01 0.  1.
         25    2    1    2    0    0  0.00000000000E+00  0.00000000000E+00  0.17178963321E+04  0.17224369420E+04  0.12498484354E+03 0.  0.
    9000005    1    3    3    0    0 -0.15045012594E+02 -0.28651066271E+02  0.12232363769E+03  0.12653579865E+03  0.10000000000E+01 0.  0.
    9000005    1    3    3    0    0  0.15045012594E+02  0.28651066271E+02  0.15955726945E+04  0.15959011433E+04  0.10000000000E+01 0.  0.
<mgrwt>
<rscale>  0 0.12498484E+03</rscale>
<asrwt>0</asrwt>
<pdfrwt beam="1">  1        4 0.26464070E+00 0.12498484E+03</pdfrwt>
<pdfrwt beam="2">  1       -4 0.34927810E-03 0.12498484E+03</pdfrwt>
<totfact> 0.13941637E+03</totfact>
</mgrwt>
</event>
<event>
 5    1  0.3245943E-002  0.1249986E+03  0.7818608E-02  0.1235072E+00
          4   -1    0    0  501    0  0.00000000000E+00  0.00000000000E+00  0.62672861191E+02  0.62685727481E+02  0.12700000000E+01 0.  1.
         -4   -1    0    0    0  501 -0.00000000000E+00 -0.00000000000E+00 -0.62300443997E+02  0.62313387183E+02  0.12700000000E+01 0.  1.
         25    2    1    2    0    0  0.00000000000E+00  0.00000000000E+00  0.37241719407E+00  0.12499911466E+03  0.12499855988E+03 0.  0.
    9000005    1    3    3    0    0  0.19388833089E+02  0.50846196101E+02  0.30909259637E+02  0.62591092320E+02  0.10000000000E+01 0.  0.
    9000005    1    3    3    0    0 -0.19388833089E+02 -0.50846196101E+02 -0.30536842443E+02  0.62408022344E+02  0.10000000000E+01 0.  0.
<mgrwt>
<rscale>  0 0.12499856E+03</rscale>
<asrwt>0</asrwt>
<pdfrwt beam="1">  1        4 0.96439640E-02 0.12499856E+03</pdfrwt>
<pdfrwt beam="2">  1       -4 0.95866690E-02 0.12499856E+03</pdfrwt>
<totfact> 0.10453222E+04</totfact>
</mgrwt>
</event>
<event>
 5    1  0.3245943E-002  0.1249984E+03  0.7818608E-02  0.1235072E+00
          4   -1    0    0  501    0  0.00000000000E+00  0.00000000000E+00  0.45848015147E+03  0.45848191043E+03  0.12700000000E+01 0. -1.
         -4   -1    0    0    0  501 -0.00000000000E+00 -0.00000000000E+00 -0.84706649294E+01  0.85653408774E+01  0.12700000000E+01 0. -1.
         25    2    1    2    0    0  0.00000000000E+00  0.00000000000E+00  0.45000948654E+03  0.46704725131E+03  0.12499838790E+03 0.  0.
    9000005    1    3    3    0    0  0.57459975066E+02  0.17656208327E+02  0.16118303809E+03  0.17203012002E+03  0.10000000000E+01 0.  0.
    9000005    1    3    3    0    0 -0.57459975066E+02 -0.17656208327E+02  0.28882644846E+03  0.29501713129E+03  0.10000000000E+01 0.  0.
<mgrwt>
<rscale>  0 0.12499839E+03</rscale>
<asrwt>0</asrwt>
<pdfrwt beam="1">  1        4 0.70542829E-01 0.12499839E+03</pdfrwt>
<pdfrwt beam="2">  1       -4 0.13105972E-02 0.12499839E+03</pdfrwt>
<totfact> 0.58516998E+03</totfact>
</mgrwt>
</event>
<event>
 5    1  0.3245943E-002  0.1249998E+03  0.7818608E-02  0.1235070E+00
         -4   -1    0    0    0  501 -0.00000000000E+00  0.00000000000E+00  0.13886721103E+03  0.13887301826E+03  0.12700000000E+01 0.  1.
          4   -1    0    0  501    0  0.00000000000E+00 -0.00000000000E+00 -0.28108551821E+02  0.28137227750E+02  0.12700000000E+01 0.  1.
         25    2    1    2    0    0  0.00000000000E+00  0.00000000000E+00  0.11075865921E+03  0.16701024601E+03  0.12499976672E+03 0.  0.
    9000005    1    3    3    0    0  0.42588299137E+02  0.42910715136E+02  0.34247950077E+02  0.69491112966E+02  0.10000000000E+01 0.  0.
    9000005    1    3    3    0    0 -0.42588299137E+02 -0.42910715136E+02  0.76510709133E+02  0.97519133040E+02  0.10000000000E+01 0.  0.
<mgrwt>
<rscale>  0 0.12499977E+03</rscale>
<asrwt>0</asrwt>
<pdfrwt beam="2">  1        4 0.43270450E-02 0.12499977E+03</pdfrwt>
<pdfrwt beam="1">  1       -4 0.21366839E-01 0.12499977E+03</pdfrwt>
<totfact> 0.96008535E+03</totfact>
</mgrwt>
</event>
<event>
 5    1  0.3245943E-002  0.1250001E+03  0.7818608E-02  0.1235069E+00
         -4   -1    0    0    0  501 -0.00000000000E+00  0.00000000000E+00  0.26153974097E+03  0.26154282442E+03  0.12700000000E+01 0. -1.
          4   -1    0    0  501    0  0.00000000000E+00 -0.00000000000E+00 -0.14905449178E+02  0.14959455712E+02  0.12700000000E+01 0. -1.
         25    2    1    2    0    0  0.00000000000E+00  0.00000000000E+00  0.24663429179E+03  0.27650228013E+03  0.12500014812E+03 0.  0.
    9000005    1    3    3    0    0  0.44139240041E+02 -0.35644855723E+02  0.65362716294E+02  0.86556992394E+02  0.10000000000E+01 0.  0.
    9000005    1    3    3    0    0 -0.44139240041E+02  0.35644855723E+02  0.18127157550E+03  0.18994528774E+03  0.10000000000E+01 0.  0.
<mgrwt>
<rscale>  0 0.12500015E+03</rscale>
<asrwt>0</asrwt>
<pdfrwt beam="2">  1        4 0.22975378E-02 0.12500015E+03</pdfrwt>
<pdfrwt beam="1">  1       -4 0.40241271E-01 0.12500015E+03</pdfrwt>
<totfact> 0.78643918E+03</totfact>
</mgrwt>
</event>
<event>
 5    1  0.3245943E-002  0.1250115E+03  0.7818608E-02  0.1235051E+00
         -4   -1    0    0    0  501 -0.00000000000E+00  0.00000000000E+00  0.24411242626E+03  0.24411572984E+03  0.12700000000E+01 0.  1.
          4   -1    0    0  501    0  0.00000000000E+00 -0.00000000000E+00 -0.15976187398E+02  0.16026586155E+02  0.12700000000E+01 0.  1.
         25    2    1    2    0    0  0.00000000000E+00  0.00000000000E+00  0.22813623886E+03  0.26014231599E+03  0.12501152382E+03 0.  0.
    9000005    1    3    3    0    0  0.24895448727E+02 -0.23163306743E+02  0.22318690240E+03  0.22576473496E+03  0.10000000000E+01 0.  0.
    9000005    1    3    3    0    0 -0.24895448727E+02  0.23163306743E+02  0.49493364608E+01  0.34377581037E+02  0.10000000000E+01 0.  0.
<mgrwt>
<rscale>  0 0.12501152E+03</rscale>
<asrwt>0</asrwt>
<pdfrwt beam="2">  1        4 0.24620062E-02 0.12501152E+03</pdfrwt>
<pdfrwt beam="1">  1       -4 0.37559884E-01 0.12501152E+03</pdfrwt>
<totfact> 0.80865351E+03</totfact>
</mgrwt>
</event>
<event>
 5    1  0.3245943E-002  0.1249965E+03  0.7818608E-02  0.1235075E+00
         -4   -1    0    0    0  501 -0.00000000000E+00  0.00000000000E+00  0.22688075098E+02  0.22723592402E+02  0.12700000000E+01 0.  1.
          4   -1    0    0  501    0  0.00000000000E+00 -0.00000000000E+00 -0.17198981397E+03  0.17199450285E+03  0.12700000000E+01 0.  1.
         25    2    1    2    0    0  0.00000000000E+00  0.00000000000E+00 -0.14930173888E+03  0.19471809525E+03  0.12499650950E+03 0.  0.
    9000005    1    3    3    0    0  0.40675541120E+02  0.46100136717E+02 -0.57212712090E+02  0.83988193667E+02  0.10000000000E+01 0.  0.
    9000005    1    3    3    0    0 -0.40675541120E+02 -0.46100136717E+02 -0.92089026787E+02  0.11072990159E+03  0.10000000000E+01 0.  0.
<mgrwt>
<rscale>  0 0.12499651E+03</rscale>
<asrwt>0</asrwt>
<pdfrwt beam="2">  1        4 0.26463063E-01 0.12499651E+03</pdfrwt>
<pdfrwt beam="1">  1       -4 0.34935660E-02 0.12499651E+03</pdfrwt>
<totfact> 0.91039916E+03</totfact>
</mgrwt>
</event>
<event>
 5    1  0.3245943E-002  0.1249990E+03  0.7818608E-02  0.1235071E+00
          4   -1    0    0  501    0  0.00000000000E+00  0.00000000000E+00  0.81571434851E+01  0.82554157882E+01  0.12700000000E+01 0. -1.
         -4   -1    0    0    0  501 -0.00000000000E+00 -0.00000000000E+00 -0.47590040017E+03  0.47590209474E+03  0.12700000000E+01 0. -1.
         25    2    1    2    0    0  0.00000000000E+00  0.00000000000E+00 -0.46774325668E+03  0.48415751053E+03  0.12499896332E+03 0.  0.
    9000005    1    3    3    0    0 -0.24423381343E+02 -0.43247714111E+02 -0.38076691195E+03  0.38399389001E+03  0.10000000000E+01 0.  0.
    9000005    1    3    3    0    0  0.24423381343E+02  0.43247714111E+02 -0.86976344737E+02  0.10016362052E+03  0.10000000000E+01 0.  0.
<mgrwt>
<rscale>  0 0.12499896E+03</rscale>
<asrwt>0</asrwt>
<pdfrwt beam="1">  1        4 0.12626353E-02 0.12499896E+03</pdfrwt>
<pdfrwt beam="2">  1       -4 0.73223114E-01 0.12499896E+03</pdfrwt>
<totfact> 0.57116158E+03</totfact>
</mgrwt>
</event>
<event>
 5    1  0.3245943E-002  0.1250019E+03  0.7818608E-02  0.1235066E+00
         -4   -1    0    0    0  501 -0.00000000000E+00  0.00000000000E+00  0.71391278927E+02  0.71402574231E+02  0.12700000000E+01 0. -1.
          4   -1    0    0  501    0  0.00000000000E+00 -0.00000000000E+00 -0.54694769630E+02  0.54709512197E+02  0.12700000000E+01 0. -1.
         25    2    1    2    0    0  0.00000000000E+00  0.00000000000E+00  0.16696509298E+02  0.12611208643E+03  0.12500193967E+03 0.  0.
    9000005    1    3    3    0    0 -0.14263768939E+02  0.58808842119E+02  0.24089263088E+02  0.65140061497E+02  0.10000000000E+01 0.  0.
    9000005    1    3    3    0    0  0.14263768939E+02 -0.58808842119E+02 -0.73927537903E+01  0.60972024932E+02  0.10000000000E+01 0.  0.
<mgrwt>
<rscale>  0 0.12500194E+03</rscale>
<asrwt>0</asrwt>
<pdfrwt beam="2">  1        4 0.84165829E-02 0.12500194E+03</pdfrwt>
<pdfrwt beam="1">  1       -4 0.10985277E-01 0.12500194E+03</pdfrwt>
<totfact> 0.10428046E+04</totfact>
</mgrwt>
</event>
<event>
 5    1  0.3245943E-002  0.1250013E+03  0.7818608E-02  0.1235067E+00
          4   -1    0    0  501    0  0.00000000000E+00  0.00000000000E+00  0.82488275515E+03  0.82488373280E+03  0.12700000000E+01 0.  1.
         -4   -1    0    0    0  501 -0.00000000000E+00 -0.00000000000E+00 -0.46494708486E+01  0.48198007399E+01  0.12700000000E+01 0.  1.
         25    2    1    2    0    0  0.00000000000E+00  0.00000000000E+00  0.82023328430E+03  0.82970353354E+03  0.12500125159E+03 0.  0.
    9000005    1    3    3    0    0  0.51631567256E+02 -0.35120694691E+02  0.42643788136E+03  0.43098671510E+03  0.10000000000E+01 0.  0.
    9000005    1    3    3    0    0 -0.51631567256E+02  0.35120694691E+02  0.39379540294E+03  0.39871681845E+03  0.10000000000E+01 0.  0.
<mgrwt>
<rscale>  0 0.12500125E+03</rscale>
<asrwt>0</asrwt>
<pdfrwt beam="1">  1        4 0.12691812E+00 0.12500125E+03</pdfrwt>
<pdfrwt beam="2">  1       -4 0.72848125E-03 0.12500125E+03</pdfrwt>
<totfact> 0.36971578E+03</totfact>
</mgrwt>
</event>
<event>
 5    1  0.3245943E-002  0.1250004E+03  0.7818608E-02  0.1235069E+00
         -4   -1    0    0    0  501 -0.00000000000E+00  0.00000000000E+00  0.88263479665E+02  0.88272616040E+02  0.12700000000E+01 0. -1.
          4   -1    0    0  501    0  0.00000000000E+00 -0.00000000000E+00 -0.44236403745E+02  0.44254630450E+02  0.12700000000E+01 0. -1.
         25    2    1    2    0    0  0.00000000000E+00  0.00000000000E+00  0.44027075919E+02  0.13252724649E+03  0.12500035059E+03 0.  0.
    9000005    1    3    3    0    0  0.32139544439E+02  0.52439547796E+01  0.78562095767E+02  0.85049704701E+02  0.10000000000E+01 0.  0.
    9000005    1    3    3    0    0 -0.32139544439E+02 -0.52439547796E+01 -0.34535019847E+02  0.47477541789E+02  0.10000000000E+01 0.  0.
<mgrwt>
<rscale>  0 0.12500035E+03</rscale>
<asrwt>0</asrwt>
<pdfrwt beam="2">  1        4 0.68077055E-02 0.12500035E+03</pdfrwt>
<pdfrwt beam="1">  1       -4 0.13581102E-01 0.12500035E+03</pdfrwt>
<totfact> 0.10290376E+04</totfact>
</mgrwt>
</event>
<event>
 5    1  0.3245943E-002  0.1250002E+03  0.7818608E-02  0.1235069E+00
         -4   -1    0    0    0  501 -0.00000000000E+00  0.00000000000E+00  0.37552941808E+01  0.39642318782E+01  0.12700000000E+01 0. -1.
          4   -1    0    0  501    0  0.00000000000E+00 -0.00000000000E+00 -0.10118385032E+04  0.10118393003E+04  0.12700000000E+01 0. -1.
         25    2    1    2    0    0  0.00000000000E+00  0.00000000000E+00 -0.10080832091E+04  0.10158035321E+04  0.12500023802E+03 0.  0.
    9000005    1    3    3    0    0 -0.56698362338E+02  0.25998614436E+02 -0.53512726533E+03  0.53875116923E+03  0.10000000000E+01 0.  0.
    9000005    1    3    3    0    0  0.56698362338E+02 -0.25998614436E+02 -0.47295594373E+03  0.47705236291E+03  0.10000000000E+01 0.  0.
<mgrwt>
<rscale>  0 0.12500024E+03</rscale>
<asrwt>0</asrwt>
<pdfrwt beam="2">  1        4 0.15568338E+00 0.12500024E+03</pdfrwt>
<pdfrwt beam="1">  1       -4 0.59387181E-03 0.12500024E+03</pdfrwt>
<totfact> 0.30086853E+03</totfact>
</mgrwt>
</event>
<event>
 5    1  0.3245943E-002  0.1250033E+03  0.7818608E-02  0.1235064E+00
          4   -1    0    0  501    0  0.00000000000E+00  0.00000000000E+00  0.44160882850E+02  0.44179140712E+02  0.12700000000E+01 0. -1.
         -4   -1    0    0    0  501 -0.00000000000E+00 -0.00000000000E+00 -0.88418591768E+02  0.88427712117E+02  0.12700000000E+01 0. -1.
         25    2    1    2    0    0  0.00000000000E+00  0.00000000000E+00 -0.44257708918E+02  0.13260685283E+03  0.12500333043E+03 0.  0.
    9000005    1    3    3    0    0 -0.57918368970E+02  0.18852791257E+02 -0.72965054246E+01  0.61353110710E+02  0.10000000000E+01 0.  0.
    9000005    1    3    3    0    0  0.57918368970E+02 -0.18852791257E+02 -0.36961203494E+02  0.71253742120E+02  0.10000000000E+01 0.  0.
<mgrwt>
<rscale>  0 0.12500333E+03</rscale>
<asrwt>0</asrwt>
<pdfrwt beam="1">  1        4 0.67960880E-02 0.12500333E+03</pdfrwt>
<pdfrwt beam="2">  1       -4 0.13604966E-01 0.12500333E+03</pdfrwt>
<totfact> 0.10287990E+04</totfact>
</mgrwt>
</event>
<event>
 5    1  0.3245943E-002  0.1250227E+03  0.7818608E-02  0.1235034E+00
         -4   -1    0    0    0  501 -0.00000000000E+00  0.00000000000E+00  0.18742611535E+03  0.18743041806E+03  0.12700000000E+01 0. -1.
          4   -1    0    0  501    0  0.00000000000E+00 -0.00000000000E+00 -0.20825238879E+02  0.20863927587E+02  0.12700000000E+01 0. -1.
         25    2    1    2    0    0  0.00000000000E+00  0.00000000000E+00  0.16660087647E+03  0.20829434565E+03  0.12502272749E+03 0.  0.
    9000005    1    3    3    0    0 -0.88358475433E+01 -0.40085252883E+02  0.47699769764E+01  0.41335848616E+02  0.10000000000E+01 0.  0.
    9000005    1    3    3    0    0  0.88358475433E+01  0.40085252883E+02  0.16183089950E+03  0.16695849704E+03  0.10000000000E+01 0.  0.
<mgrwt>
<rscale>  0 0.12502273E+03</rscale>
<asrwt>0</asrwt>
<pdfrwt beam="2">  1        4 0.32071899E-02 0.12502273E+03</pdfrwt>
<pdfrwt beam="1">  1       -4 0.28838095E-01 0.12502273E+03</pdfrwt>
<totfact> 0.88710106E+03</totfact>
</mgrwt>
</event>
<event>
 5    1  0.3245943E-002  0.1250038E+03  0.7818608E-02  0.1235063E+00
          4   -1    0    0  501    0  0.00000000000E+00  0.00000000000E+00  0.12528564772E+03  0.12529208444E+03  0.12700000000E+01 0. -1.
         -4   -1    0    0    0  501 -0.00000000000E+00 -0.00000000000E+00 -0.31160457952E+02  0.31186327770E+02  0.12700000000E+01 0. -1.
         25    2    1    2    0    0  0.00000000000E+00  0.00000000000E+00  0.94125189765E+02  0.15647841221E+03  0.12500376850E+03 0.  0.
    9000005    1    3    3    0    0 -0.11600840407E+02  0.35084858494E+02 -0.16025099487E+02  0.40290577152E+02  0.10000000000E+01 0.  0.
    9000005    1    3    3    0    0  0.11600840407E+02 -0.35084858494E+02  0.11015028925E+03  0.11618783506E+03  0.10000000000E+01 0.  0.
<mgrwt>
<rscale>  0 0.12500377E+03</rscale>
<asrwt>0</asrwt>
<pdfrwt beam="1">  1        4 0.19277200E-01 0.12500377E+03</pdfrwt>
<pdfrwt beam="2">  1       -4 0.47964018E-02 0.12500377E+03</pdfrwt>
<totfact> 0.98017741E+03</totfact>
</mgrwt>
</event>
<event>
 5    1  0.3245943E-002  0.1249989E+03  0.7818608E-02  0.1235071E+00
         -4   -1    0    0    0  501 -0.00000000000E+00  0.00000000000E+00  0.13951388229E+03  0.13951966260E+03  0.12700000000E+01 0. -1.
          4   -1    0    0  501    0  0.00000000000E+00 -0.00000000000E+00 -0.27977732372E+02  0.28006542248E+02  0.12700000000E+01 0. -1.
         25    2    1    2    0    0  0.00000000000E+00  0.00000000000E+00  0.11153614992E+03  0.16752620484E+03  0.12499886628E+03 0.  0.
    9000005    1    3    3    0    0 -0.16094101451E+02  0.35606193321E+02  0.12112856400E+03  0.12727902467E+03  0.10000000000E+01 0.  0.
    9000005    1    3    3    0    0  0.16094101451E+02 -0.35606193321E+02 -0.95924140806E+01  0.40247180177E+02  0.10000000000E+01 0.  0.
<mgrwt>
<rscale>  0 0.12499887E+03</rscale>
<asrwt>0</asrwt>
<pdfrwt beam="2">  1        4 0.43069273E-02 0.12499887E+03</pdfrwt>
<pdfrwt beam="1">  1       -4 0.21466335E-01 0.12499887E+03</pdfrwt>
<totfact> 0.95913539E+03</totfact>
</mgrwt>
</event>
<event>
 5    1  0.3245943E-002  0.1250026E+03  0.7818608E-02  0.1235065E+00
         -4   -1    0    0    0  501 -0.00000000000E+00  0.00000000000E+00  0.11596209079E+02  0.11665546065E+02  0.12700000000E+01 0.  1.
          4   -1    0    0  501    0  0.00000000000E+00 -0.00000000000E+00 -0.33579501273E+03  0.33579741433E+03  0.12700000000E+01 0.  1.
         25    2    1    2    0    0  0.00000000000E+00  0.00000000000E+00 -0.32419880365E+03  0.34746296040E+03  0.12500257822E+03 0.  0.
    9000005    1    3    3    0    0 -0.22596352606E+02 -0.20819509852E+01 -0.24659602565E+00  0.22715423848E+02  0.10000000000E+01 0.  0.
    9000005    1    3    3    0    0  0.22596352606E+02  0.20819509852E+01 -0.32395220762E+03  0.32474753655E+03  0.10000000000E+01 0.  0.
<mgrwt>
<rscale>  0 0.12500258E+03</rscale>
<asrwt>0</asrwt>
<pdfrwt beam="2">  1        4 0.51666282E-01 0.12500258E+03</pdfrwt>
<pdfrwt beam="1">  1       -4 0.17895508E-02 0.12500258E+03</pdfrwt>
<totfact> 0.70000574E+03</totfact>
</mgrwt>
</event>
<event>
 5    1  0.3245943E-002  0.1250007E+03  0.7818608E-02  0.1235068E+00
         -4   -1    0    0    0  501 -0.00000000000E+00  0.00000000000E+00  0.82017530190E+02  0.82027362255E+02  0.12700000000E+01 0. -1.
          4   -1    0    0  501    0  0.00000000000E+00 -0.00000000000E+00 -0.47606395299E+02  0.47623332238E+02  0.12700000000E+01 0. -1.
         25    2    1    2    0    0  0.00000000000E+00  0.00000000000E+00  0.34411134891E+02  0.12965069449E+03  0.12500070551E+03 0.  0.
    9000005    1    3    3    0    0  0.40180765648E+02 -0.30088962134E+02 -0.21400762753E+02  0.54578679141E+02  0.10000000000E+01 0.  0.
    9000005    1    3    3    0    0 -0.40180765648E+02  0.30088962134E+02  0.55811897644E+02  0.75072015352E+02  0.10000000000E+01 0.  0.
<mgrwt>
<rscale>  0 0.12500071E+03</rscale>
<asrwt>0</asrwt>
<pdfrwt beam="2">  1        4 0.73261201E-02 0.12500071E+03</pdfrwt>
<pdfrwt beam="1">  1       -4 0.12620140E-01 0.12500071E+03</pdfrwt>
<totfact> 0.10351821E+04</totfact>
</mgrwt>
</event>
<event>
 5    1  0.3245943E-002  0.1250087E+03  0.7818608E-02  0.1235056E+00
         -4   -1    0    0    0  501 -0.00000000000E+00  0.00000000000E+00  0.57929340962E+03  0.57929480175E+03  0.12700000000E+01 0.  1.
          4   -1    0    0  501    0  0.00000000000E+00 -0.00000000000E+00 -0.66828613464E+01  0.68024654189E+01  0.12700000000E+01 0.  1.
         25    2    1    2    0    0  0.00000000000E+00  0.00000000000E+00  0.57261054827E+03  0.58609726716E+03  0.12500866603E+03 0.  0.
    9000005    1    3    3    0    0  0.26409379698E+02  0.55360767835E+02  0.23013735276E+03  0.23817319557E+03  0.10000000000E+01 0.  0.
    9000005    1    3    3    0    0 -0.26409379698E+02 -0.55360767835E+02  0.34247319551E+03  0.34792407160E+03  0.10000000000E+01 0.  0.
<mgrwt>
<rscale>  0 0.12500867E+03</rscale>
<asrwt>0</asrwt>
<pdfrwt beam="2">  1        4 0.10374394E-02 0.12500867E+03</pdfrwt>
<pdfrwt beam="1">  1       -4 0.89131417E-01 0.12500867E+03</pdfrwt>
<totfact> 0.49747641E+03</totfact>
</mgrwt>
</event>
<event>
 5    1  0.3245943E-002  0.1249997E+03  0.7818608E-02  0.1235070E+00
          4   -1    0    0  501    0  0.00000000000E+00  0.00000000000E+00  0.34044081436E+01  0.36335787880E+01  0.12700000000E+01 0. -1.
         -4   -1    0    0    0  501 -0.00000000000E+00 -0.00000000000E+00 -0.11098126658E+04  0.11098133925E+04  0.12700000000E+01 0. -1.
         25    2    1    2    0    0  0.00000000000E+00  0.00000000000E+00 -0.11064082577E+04  0.11134469713E+04  0.12499970063E+03 0.  0.
    9000005    1    3    3    0    0 -0.36816162045E+02 -0.20036520325E+02 -0.14033538349E+03  0.14646471177E+03  0.10000000000E+01 0.  0.
    9000005    1    3    3    0    0  0.36816162045E+02  0.20036520325E+02 -0.96607287419E+03  0.96698225950E+03  0.10000000000E+01 0.  0.
<mgrwt>
<rscale>  0 0.12499970E+03</rscale>
<asrwt>0</asrwt>
<pdfrwt beam="1">  1        4 0.54144039E-03 0.12499970E+03</pdfrwt>
<pdfrwt beam="2">  1       -4 0.17075782E+00 0.12499970E+03</pdfrwt>
<totfact> 0.27093367E+03</totfact>
</mgrwt>
</event>
<event>
 5    1  0.3245943E-002  0.1250010E+03  0.7818608E-02  0.1235068E+00
          4   -1    0    0  501    0  0.00000000000E+00  0.00000000000E+00  0.40185261477E+02  0.40205324772E+02  0.12700000000E+01 0. -1.
         -4   -1    0    0    0  501 -0.00000000000E+00 -0.00000000000E+00 -0.97159041970E+02  0.97167341924E+02  0.12700000000E+01 0. -1.
         25    2    1    2    0    0  0.00000000000E+00  0.00000000000E+00 -0.56973780493E+02  0.13737266670E+03  0.12500095156E+03 0.  0.
    9000005    1    3    3    0    0  0.40930091153E+02  0.19740979997E+01 -0.80338620276E+02  0.90191259735E+02  0.10000000000E+01 0.  0.
    9000005    1    3    3    0    0 -0.40930091153E+02 -0.19740979997E+01  0.23364839783E+02  0.47181406961E+02  0.10000000000E+01 0.  0.
<mgrwt>
<rscale>  0 0.12500095E+03</rscale>
<asrwt>0</asrwt>
<pdfrwt beam="1">  1        4 0.61845297E-02 0.12500095E+03</pdfrwt>
<pdfrwt beam="2">  1       -4 0.14949727E-01 0.12500095E+03</pdfrwt>
<totfact> 0.10188081E+04</totfact>
</mgrwt>
</event>
<event>
 5    1  0.3245943E-002  0.1249894E+03  0.7818608E-02  0.1235086E+00
          4   -1    0    0  501    0  0.00000000000E+00  0.00000000000E+00  0.61595837748E+02  0.61608928962E+02  0.12700000000E+01 0.  1.
         -4   -1    0    0    0  501 -0.00000000000E+00 -0.00000000000E+00 -0.63380517802E+02  0.63393240466E+02  0.12700000000E+01 0.  1.
         25    2    1    2    0    0  0.00000000000E+00  0.00000000000E+00 -0.17846800542E+01  0.12500216943E+03  0.12498942867E+03 0.  0.
    9000005    1    3    3    0    0 -0.16085715966E+02 -0.42923956167E+02 -0.43362808825E+02  0.63107443779E+02  0.10000000000E+01 0.  0.
    9000005    1    3    3    0    0  0.16085715966E+02  0.42923956167E+02  0.41578128771E+02  0.61894725649E+02  0.10000000000E+01 0.  0.
<mgrwt>
<rscale>  0 0.12498943E+03</rscale>
<asrwt>0</asrwt>
<pdfrwt beam="1">  1        4 0.94782684E-02 0.12498943E+03</pdfrwt>
<pdfrwt beam="2">  1       -4 0.97528346E-02 0.12498943E+03</pdfrwt>
<totfact> 0.10455313E+04</totfact>
</mgrwt>
</event>
<event>
 5    1  0.3245943E-002  0.1250292E+03  0.7818608E-02  0.1235024E+00
          4   -1    0    0  501    0  0.00000000000E+00  0.00000000000E+00  0.31411537059E+02  0.31437200264E+02  0.12700000000E+01 0.  1.
         -4   -1    0    0    0  501 -0.00000000000E+00 -0.00000000000E+00 -0.12433549997E+03  0.12434198588E+03  0.12700000000E+01 0.  1.
         25    2    1    2    0    0  0.00000000000E+00  0.00000000000E+00 -0.92923962913E+02  0.15577918615E+03  0.12502916441E+03 0.  0.
    9000005    1    3    3    0    0  0.28442585312E+02 -0.46246692139E+02 -0.78712130185E+01  0.54869783920E+02  0.10000000000E+01 0.  0.
    9000005    1    3    3    0    0 -0.28442585312E+02  0.46246692139E+02 -0.85052749895E+02  0.10090940223E+03  0.10000000000E+01 0.  0.
<mgrwt>
<rscale>  0 0.12502916E+03</rscale>
<asrwt>0</asrwt>
<pdfrwt beam="1">  1        4 0.48350172E-02 0.12502916E+03</pdfrwt>
<pdfrwt beam="2">  1       -4 0.19131011E-01 0.12502916E+03</pdfrwt>
<totfact> 0.98098400E+03</totfact>
</mgrwt>
</event>
<event>
 5    1  0.3245943E-002  0.1249911E+03  0.7818608E-02  0.1235083E+00
          4   -1    0    0  501    0  0.00000000000E+00  0.00000000000E+00  0.36732799131E+03  0.36733018676E+03  0.12700000000E+01 0. -1.
         -4   -1    0    0    0  501 -0.00000000000E+00 -0.00000000000E+00 -0.10592562716E+02  0.10668424668E+02  0.12700000000E+01 0. -1.
         25    2    1    2    0    0  0.00000000000E+00  0.00000000000E+00  0.35673542860E+03  0.37799861142E+03  0.12499113657E+03 0.  0.
    9000005    1    3    3    0    0  0.19241869441E+02  0.57095277016E+02  0.22847976348E+03  0.23629245124E+03  0.10000000000E+01 0.  0.
    9000005    1    3    3    0    0 -0.19241869441E+02 -0.57095277016E+02  0.12825566512E+03  0.14170616018E+03  0.10000000000E+01 0.  0.
<mgrwt>
<rscale>  0 0.12499114E+03</rscale>
<asrwt>0</asrwt>
<pdfrwt beam="1">  1        4 0.56518005E-01 0.12499114E+03</pdfrwt>
<pdfrwt beam="2">  1       -4 0.16356294E-02 0.12499114E+03</pdfrwt>
<totfact> 0.66763426E+03</totfact>
</mgrwt>
</event>
<event>
 5    1  0.3245943E-002  0.1250009E+03  0.7818608E-02  0.1235068E+00
          4   -1    0    0  501    0  0.00000000000E+00  0.00000000000E+00  0.23821539059E+02  0.23855368854E+02  0.12700000000E+01 0.  1.
         -4   -1    0    0    0  501 -0.00000000000E+00 -0.00000000000E+00 -0.16382940432E+03  0.16383432675E+03  0.12700000000E+01 0.  1.
         25    2    1    2    0    0  0.00000000000E+00  0.00000000000E+00 -0.14000786527E+03  0.18768969560E+03  0.12500087799E+03 0.  0.
    9000005    1    3    3    0    0  0.37209549672E+02 -0.11980617118E+02  0.32046455224E+01  0.39234621525E+02  0.10000000000E+01 0.  0.
    9000005    1    3    3    0    0 -0.37209549672E+02  0.11980617118E+02 -0.14321251079E+03  0.14845507408E+03  0.10000000000E+01 0.  0.
<mgrwt>
<rscale>  0 0.12500088E+03</rscale>
<asrwt>0</asrwt>
<pdfrwt beam="1">  1        4 0.36678332E-02 0.12500088E+03</pdfrwt>
<pdfrwt beam="2">  1       -4 0.25207504E-01 0.12500088E+03</pdfrwt>
<totfact> 0.92249046E+03</totfact>
</mgrwt>
</event>
<event>
 4    1  0.3245943E-002  0.1247954E+03  0.7818608E-02  0.1235389E+00
          4   -1    0    0  501    0  0.00000000000E+00  0.00000000000E+00  0.27237545999E+02  0.27267137951E+02  0.12700000000E+01 0. -1.
         -4   -1    0    0    0  501 -0.00000000000E+00 -0.00000000000E+00 -0.14283510922E+03  0.14284075513E+03  0.12700000000E+01 0. -1.
    9000005    1    1    2    0    0  0.57122306344E+02  0.10373490093E+02 -0.88939064754E+02  0.10621546224E+03  0.10000000000E+01 0.  0.
    9000005    1    1    2    0    0 -0.57122306344E+02 -0.10373490093E+02 -0.26658498469E+02  0.63892430846E+02  0.10000000000E+01 0.  0.
<mgrwt>
<rscale>  0 0.12479543E+03</rscale>
<asrwt>0</asrwt>
<pdfrwt beam="1">  1        4 0.41931024E-02 0.12479543E+03</pdfrwt>
<pdfrwt beam="2">  1       -4 0.21977342E-01 0.12479543E+03</pdfrwt>
<totfact> 0.95868026E+03</totfact>
</mgrwt>
</event>
<event>
 5    1  0.3245943E-002  0.1249911E+03  0.7818608E-02  0.1235083E+00
          4   -1    0    0  501    0  0.00000000000E+00  0.00000000000E+00  0.38581845038E+02  0.38602741697E+02  0.12700000000E+01 0.  1.
         -4   -1    0    0    0  501 -0.00000000000E+00 -0.00000000000E+00 -0.10117913296E+03  0.10118710316E+03  0.12700000000E+01 0.  1.
         25    2    1    2    0    0  0.00000000000E+00  0.00000000000E+00 -0.62597287923E+02  0.13978984486E+03  0.12499112077E+03 0.  0.
    9000005    1    3    3    0    0 -0.57148662827E+02 -0.22940161514E+02 -0.43159698222E+02  0.75206251228E+02  0.10000000000E+01 0.  0.
    9000005    1    3    3    0    0  0.57148662827E+02  0.22940161514E+02 -0.19437589701E+02  0.64583593633E+02  0.10000000000E+01 0.  0.
<mgrwt>
<rscale>  0 0.12499112E+03</rscale>
<asrwt>0</asrwt>
<pdfrwt beam="1">  1        4 0.59378890E-02 0.12499112E+03</pdfrwt>
<pdfrwt beam="2">  1       -4 0.15568241E-01 0.12499112E+03</pdfrwt>
<totfact> 0.10139972E+04</totfact>
</mgrwt>
</event>
<event>
 5    1  0.3245943E-002  0.1250175E+03  0.7818608E-02  0.1235042E+00
         -4   -1    0    0    0  501 -0.00000000000E+00  0.00000000000E+00  0.13685052318E+03  0.13685641598E+03  0.12700000000E+01 0.  1.
          4   -1    0    0  501    0  0.00000000000E+00 -0.00000000000E+00 -0.28531288746E+02  0.28559540219E+02  0.12700000000E+01 0.  1.
         25    2    1    2    0    0  0.00000000000E+00  0.00000000000E+00  0.10831923443E+03  0.16541595619E+03  0.12501752684E+03 0.  0.
    9000005    1    3    3    0    0 -0.10550795335E+02  0.55953180418E+02  0.88261480142E+02  0.10503888117E+03  0.10000000000E+01 0.  0.
    9000005    1    3    3    0    0  0.10550795335E+02 -0.55953180418E+02  0.20057754289E+02  0.60377075022E+02  0.10000000000E+01 0.  0.
<mgrwt>
<rscale>  0 0.12501753E+03</rscale>
<asrwt>0</asrwt>
<pdfrwt beam="2">  1        4 0.43920555E-02 0.12501753E+03</pdfrwt>
<pdfrwt beam="1">  1       -4 0.21056553E-01 0.12501753E+03</pdfrwt>
<totfact> 0.96270766E+03</totfact>
</mgrwt>
</event>
<event>
 5    1  0.3245943E-002  0.1249997E+03  0.7818608E-02  0.1235070E+00
          4   -1    0    0  501    0  0.00000000000E+00  0.00000000000E+00  0.56908601453E+02  0.56922770658E+02  0.12700000000E+01 0. -1.
         -4   -1    0    0    0  501 -0.00000000000E+00 -0.00000000000E+00 -0.68611871667E+02  0.68623624457E+02  0.12700000000E+01 0. -1.
         25    2    1    2    0    0  0.00000000000E+00  0.00000000000E+00 -0.11703270214E+02  0.12554639511E+03  0.12499972317E+03 0.  0.
    9000005    1    3    3    0    0 -0.61416534270E+02  0.76978344596E+01  0.27874568088E+01  0.61967872745E+02  0.10000000000E+01 0.  0.
    9000005    1    3    3    0    0  0.61416534270E+02 -0.76978344596E+01 -0.14490727023E+02  0.63578522370E+02  0.10000000000E+01 0.  0.
<mgrwt>
<rscale>  0 0.12499972E+03</rscale>
<asrwt>0</asrwt>
<pdfrwt beam="1">  1        4 0.87571635E-02 0.12499972E+03</pdfrwt>
<pdfrwt beam="2">  1       -4 0.10557667E-01 0.12499972E+03</pdfrwt>
<totfact> 0.10440995E+04</totfact>
</mgrwt>
</event>
<event>
 5    1  0.3245943E-002  0.1249402E+03  0.7818608E-02  0.1235163E+00
         -4   -1    0    0    0  501 -0.00000000000E+00  0.00000000000E+00  0.74240175638E+02  0.74251037561E+02  0.12700000000E+01 0. -1.
          4   -1    0    0  501    0  0.00000000000E+00 -0.00000000000E+00 -0.52543671739E+02  0.52559017684E+02  0.12700000000E+01 0. -1.
         25    2    1    2    0    0  0.00000000000E+00  0.00000000000E+00  0.21696503899E+02  0.12681005524E+03  0.12494019301E+03 0.  0.
    9000005    1    3    3    0    0 -0.48894662862E+02  0.51373182971E+00 -0.28599353913E+02  0.56655758940E+02  0.10000000000E+01 0.  0.
    9000005    1    3    3    0    0  0.48894662862E+02 -0.51373182971E+00  0.50295857812E+02  0.70154296304E+02  0.10000000000E+01 0.  0.
<mgrwt>
<rscale>  0 0.12494019E+03</rscale>
<asrwt>0</asrwt>
<pdfrwt beam="2">  1        4 0.80856579E-02 0.12494019E+03</pdfrwt>
<pdfrwt beam="1">  1       -4 0.11423581E-01 0.12494019E+03</pdfrwt>
<totfact> 0.10427346E+04</totfact>
</mgrwt>
</event>
<event>
 5    1  0.3245943E-002  0.1250006E+03  0.7818608E-02  0.1235068E+00
          4   -1    0    0  501    0  0.00000000000E+00  0.00000000000E+00  0.79297786685E+02  0.79307955926E+02  0.12700000000E+01 0. -1.
         -4   -1    0    0    0  501 -0.00000000000E+00 -0.00000000000E+00 -0.49239447978E+02  0.49255823383E+02  0.12700000000E+01 0. -1.
         25    2    1    2    0    0  0.00000000000E+00  0.00000000000E+00  0.30058338707E+02  0.12856377931E+03  0.12500056650E+03 0.  0.
    9000005    1    3    3    0    0  0.78862864013E+01  0.25633211844E+02  0.73083096455E+02  0.77854955206E+02  0.10000000000E+01 0.  0.
    9000005    1    3    3    0    0 -0.78862864013E+01 -0.25633211844E+02 -0.43024757748E+02  0.50708824103E+02  0.10000000000E+01 0.  0.
<mgrwt>
<rscale>  0 0.12500057E+03</rscale>
<asrwt>0</asrwt>
<pdfrwt beam="1">  1        4 0.12201701E-01 0.12500057E+03</pdfrwt>
<pdfrwt beam="2">  1       -4 0.75773417E-02 0.12500057E+03</pdfrwt>
<totfact> 0.10375197E+04</totfact>
</mgrwt>
</event>
<event>
 5    1  0.3245943E-002  0.1250009E+03  0.7818608E-02  0.1235068E+00
         -4   -1    0    0    0  501 -0.00000000000E+00  0.00000000000E+00  0.64529538306E+02  0.64542034474E+02  0.12700000000E+01 0.  1.
          4   -1    0    0  501    0  0.00000000000E+00 -0.00000000000E+00 -0.60510130870E+02  0.60523456923E+02  0.12700000000E+01 0.  1.
         25    2    1    2    0    0  0.00000000000E+00  0.00000000000E+00  0.40194074362E+01  0.12506549140E+03  0.12500088601E+03 0.  0.
    9000005    1    3    3    0    0 -0.22571160535E+02 -0.57315435352E+02 -0.85213697254E+01  0.62194293625E+02  0.10000000000E+01 0.  0.
    9000005    1    3    3    0    0  0.22571160535E+02  0.57315435352E+02  0.12540777162E+02  0.62871197772E+02  0.10000000000E+01 0.  0.
<mgrwt>
<rscale>  0 0.12500089E+03</rscale>
<asrwt>0</asrwt>
<pdfrwt beam="2">  1        4 0.93112372E-02 0.12500089E+03</pdfrwt>
<pdfrwt beam="1">  1       -4 0.99296076E-02 0.12500089E+03</pdfrwt>
<totfact> 0.10451231E+04</totfact>
</mgrwt>
</event>
<event>
 5    1  0.3245943E-002  0.1250007E+03  0.7818608E-02  0.1235068E+00
          4   -1    0    0  501    0  0.00000000000E+00  0.00000000000E+00  0.32927072641E+02  0.32951555543E+02  0.12700000000E+01 0.  1.
         -4   -1    0    0    0  501 -0.00000000000E+00 -0.00000000000E+00 -0.11856271876E+03  0.11856952045E+03  0.12700000000E+01 0.  1.
         25    2    1    2    0    0  0.00000000000E+00  0.00000000000E+00 -0.85635646123E+02  0.15152107600E+03  0.12500069034E+03 0.  0.
    9000005    1    3    3    0    0 -0.33324397205E+02 -0.35124343576E+02  0.50749715723E+01  0.48692815663E+02  0.10000000000E+01 0.  0.
    9000005    1    3    3    0    0  0.33324397205E+02  0.35124343576E+02 -0.90710617696E+02  0.10282826033E+03  0.10000000000E+01 0.  0.
<mgrwt>
<rscale>  0 0.12500069E+03</rscale>
<asrwt>0</asrwt>
<pdfrwt beam="1">  1        4 0.50681100E-02 0.12500069E+03</pdfrwt>
<pdfrwt beam="2">  1       -4 0.18242825E-01 0.12500069E+03</pdfrwt>
<totfact> 0.98999817E+03</totfact>
</mgrwt>
</event>
<event>
 5    1  0.3245943E-002  0.1250007E+03  0.7818608E-02  0.1235068E+00
         -4   -1    0    0    0  501 -0.00000000000E+00  0.00000000000E+00  0.63503817077E+01  0.64761290779E+01  0.12700000000E+01 0. -1.
          4   -1    0    0  501    0  0.00000000000E+00 -0.00000000000E+00 -0.60897048714E+03  0.60897181142E+03  0.12700000000E+01 0. -1.
         25    2    1    2    0    0  0.00000000000E+00  0.00000000000E+00 -0.60262010543E+03  0.61544794050E+03  0.12500070398E+03 0.  0.
    9000005    1    3    3    0    0 -0.34595336324E+02  0.52037880754E+02 -0.29777443874E+03  0.30426204938E+03  0.10000000000E+01 0.  0.
    9000005    1    3    3    0    0  0.34595336324E+02 -0.52037880754E+02 -0.30484566669E+03  0.31118589112E+03  0.10000000000E+01 0.  0.
<mgrwt>
<rscale>  0 0.12500070E+03</rscale>
<asrwt>0</asrwt>
<pdfrwt beam="2">  1        4 0.93697496E-01 0.12500070E+03</pdfrwt>
<pdfrwt beam="1">  1       -4 0.98675702E-03 0.12500070E+03</pdfrwt>
<totfact> 0.47906067E+03</totfact>
</mgrwt>
</event>
<event>
 5    1  0.3245943E-002  0.1250002E+03  0.7818608E-02  0.1235069E+00
         -4   -1    0    0    0  501 -0.00000000000E+00  0.00000000000E+00  0.13624049738E+02  0.13683114824E+02  0.12700000000E+01 0. -1.
          4   -1    0    0  501    0  0.00000000000E+00 -0.00000000000E+00 -0.28603748135E+03  0.28604030072E+03  0.12700000000E+01 0. -1.
         25    2    1    2    0    0  0.00000000000E+00  0.00000000000E+00 -0.27241343161E+03  0.29972341554E+03  0.12500019241E+03 0.  0.
    9000005    1    3    3    0    0  0.26443237838E+02 -0.52438170038E+02 -0.84989725026E+02  0.10331147015E+03  0.10000000000E+01 0.  0.
    9000005    1    3    3    0    0 -0.26443237838E+02  0.52438170038E+02 -0.18742370658E+03  0.19641194539E+03  0.10000000000E+01 0.  0.
<mgrwt>
<rscale>  0 0.12500019E+03</rscale>
<asrwt>0</asrwt>
<pdfrwt beam="2">  1        4 0.44010522E-01 0.12500019E+03</pdfrwt>
<pdfrwt beam="1">  1       -4 0.21007682E-02 0.12500019E+03</pdfrwt>
<totfact> 0.75633225E+03</totfact>
</mgrwt>
</event>
<event>
 5    1  0.3245943E-002  0.1250003E+03  0.7818608E-02  0.1235069E+00
         -4   -1    0    0    0  501 -0.00000000000E+00  0.00000000000E+00  0.13628503973E+03  0.13629095698E+03  0.12700000000E+01 0.  1.
          4   -1    0    0  501    0  0.00000000000E+00 -0.00000000000E+00 -0.28641896738E+02  0.28670039218E+02  0.12700000000E+01 0.  1.
         25    2    1    2    0    0  0.00000000000E+00  0.00000000000E+00  0.10764314299E+03  0.16496099619E+03  0.12500033613E+03 0.  0.
    9000005    1    3    3    0    0 -0.13619755341E+02  0.41689057814E+02 -0.49273007343E+01  0.44144689029E+02  0.10000000000E+01 0.  0.
    9000005    1    3    3    0    0  0.13619755341E+02 -0.41689057814E+02  0.11257044372E+03  0.12081630717E+03  0.10000000000E+01 0.  0.
<mgrwt>
<rscale>  0 0.12500034E+03</rscale>
<asrwt>0</asrwt>
<pdfrwt beam="2">  1        4 0.44090656E-02 0.12500034E+03</pdfrwt>
<pdfrwt beam="1">  1       -4 0.20969549E-01 0.12500034E+03</pdfrwt>
<totfact> 0.96394051E+03</totfact>
</mgrwt>
</event>
<event>
 5    1  0.3245943E-002  0.1249557E+03  0.7818608E-02  0.1235139E+00
         -4   -1    0    0    0  501 -0.00000000000E+00  0.00000000000E+00  0.90496093979E+02  0.90505004974E+02  0.12700000000E+01 0. -1.
          4   -1    0    0  501    0  0.00000000000E+00 -0.00000000000E+00 -0.43113875984E+02  0.43132577043E+02  0.12700000000E+01 0. -1.
         25    2    1    2    0    0  0.00000000000E+00  0.00000000000E+00  0.47382217995E+02  0.13363758202E+03  0.12495570713E+03 0.  0.
    9000005    1    3    3    0    0 -0.16135936082E+02 -0.14933530755E+02  0.86226897585E+02  0.88991329022E+02  0.10000000000E+01 0.  0.
    9000005    1    3    3    0    0  0.16135936082E+02  0.14933530755E+02 -0.38844679590E+02  0.44646252995E+02  0.10000000000E+01 0.  0.
<mgrwt>
<rscale>  0 0.12495571E+03</rscale>
<asrwt>0</asrwt>
<pdfrwt beam="2">  1        4 0.66350281E-02 0.12495571E+03</pdfrwt>
<pdfrwt beam="1">  1       -4 0.13924600E-01 0.12495571E+03</pdfrwt>
<totfact> 0.10277131E+04</totfact>
</mgrwt>
</event>
<event>
 5    1  0.3245943E-002  0.1250034E+03  0.7818608E-02  0.1235064E+00
         -4   -1    0    0    0  501 -0.00000000000E+00  0.00000000000E+00  0.33675819059E+01  0.35990982055E+01  0.12700000000E+01 0. -1.
          4   -1    0    0  501    0  0.00000000000E+00 -0.00000000000E+00 -0.11212376717E+04  0.11212383909E+04  0.12700000000E+01 0. -1.
         25    2    1    2    0    0  0.00000000000E+00  0.00000000000E+00 -0.11178700898E+04  0.11248374891E+04  0.12500335736E+03 0.  0.
    9000005    1    3    3    0    0 -0.52838631369E+02  0.15517838903E+02 -0.82476837877E+03  0.82660546993E+03  0.10000000000E+01 0.  0.
    9000005    1    3    3    0    0  0.52838631369E+02 -0.15517838903E+02 -0.29310171099E+03  0.29823201920E+03  0.10000000000E+01 0.  0.
<mgrwt>
<rscale>  0 0.12500336E+03</rscale>
<asrwt>0</asrwt>
<pdfrwt beam="2">  1        4 0.17251568E+00 0.12500336E+03</pdfrwt>
<pdfrwt beam="1">  1       -4 0.53595469E-03 0.12500336E+03</pdfrwt>
<totfact> 0.26765695E+03</totfact>
</mgrwt>
</event>
<event>
 5    1  0.3245943E-002  0.1250040E+03  0.7818608E-02  0.1235063E+00
         -4   -1    0    0    0  501 -0.00000000000E+00  0.00000000000E+00  0.20815340021E+03  0.20815727448E+03  0.12700000000E+01 0. -1.
          4   -1    0    0  501    0  0.00000000000E+00 -0.00000000000E+00 -0.18741860576E+02  0.18784840639E+02  0.12700000000E+01 0. -1.
         25    2    1    2    0    0  0.00000000000E+00  0.00000000000E+00  0.18941153963E+03  0.22694211512E+03  0.12500396901E+03 0.  0.
    9000005    1    3    3    0    0 -0.14645308453E+02  0.11965466760E+02  0.20284252807E+03  0.20372468837E+03  0.10000000000E+01 0.  0.
    9000005    1    3    3    0    0  0.14645308453E+02 -0.11965466760E+02 -0.13430988441E+02  0.23217426752E+02  0.10000000000E+01 0.  0.
<mgrwt>
<rscale>  0 0.12500397E+03</rscale>
<asrwt>0</asrwt>
<pdfrwt beam="2">  1        4 0.28869673E-02 0.12500397E+03</pdfrwt>
<pdfrwt beam="1">  1       -4 0.32027205E-01 0.12500397E+03</pdfrwt>
<totfact> 0.85773761E+03</totfact>
</mgrwt>
</event>
<event>
 5    1  0.3245943E-002  0.1250150E+03  0.7818608E-02  0.1235046E+00
          4   -1    0    0  501    0  0.00000000000E+00  0.00000000000E+00  0.40469076928E+03  0.40469276203E+03  0.12700000000E+01 0. -1.
         -4   -1    0    0    0  501 -0.00000000000E+00 -0.00000000000E+00 -0.96109651272E+01  0.96945113686E+01  0.12700000000E+01 0. -1.
         25    2    1    2    0    0  0.00000000000E+00  0.00000000000E+00  0.39507980415E+03  0.41438727340E+03  0.12501504192E+03 0.  0.
    9000005    1    3    3    0    0 -0.44715478995E+02  0.41015641956E+02  0.14788207432E+03  0.15984950688E+03  0.10000000000E+01 0.  0.
    9000005    1    3    3    0    0  0.44715478995E+02 -0.41015641956E+02  0.24719772984E+03  0.25453776652E+03  0.10000000000E+01 0.  0.
<mgrwt>
<rscale>  0 0.12501504E+03</rscale>
<asrwt>0</asrwt>
<pdfrwt beam="1">  1        4 0.62266684E-01 0.12501504E+03</pdfrwt>
<pdfrwt beam="2">  1       -4 0.14851903E-02 0.12501504E+03</pdfrwt>
<totfact> 0.63156192E+03</totfact>
</mgrwt>
</event>
<event>
 5    1  0.3245943E-002  0.1249996E+03  0.7818608E-02  0.1235070E+00
         -4   -1    0    0    0  501 -0.00000000000E+00  0.00000000000E+00  0.40146783493E+02  0.40166866007E+02  0.12700000000E+01 0. -1.
          4   -1    0    0  501    0  0.00000000000E+00 -0.00000000000E+00 -0.97250058252E+02  0.97258350438E+02  0.12700000000E+01 0. -1.
         25    2    1    2    0    0  0.00000000000E+00  0.00000000000E+00 -0.57103274759E+02  0.13742521645E+03  0.12499962451E+03 0.  0.
    9000005    1    3    3    0    0 -0.71795350648E+01  0.58615230589E+02 -0.60759812515E+01  0.59373466540E+02  0.10000000000E+01 0.  0.
    9000005    1    3    3    0    0  0.71795350648E+01 -0.58615230589E+02 -0.51027293507E+02  0.78051749906E+02  0.10000000000E+01 0.  0.
<mgrwt>
<rscale>  0 0.12499962E+03</rscale>
<asrwt>0</asrwt>
<pdfrwt beam="2">  1        4 0.14963730E-01 0.12499962E+03</pdfrwt>
<pdfrwt beam="1">  1       -4 0.61786109E-02 0.12499962E+03</pdfrwt>
<totfact> 0.10187289E+04</totfact>
</mgrwt>
</event>
<event>
 5    1  0.3245943E-002  0.1249987E+03  0.7818608E-02  0.1235071E+00
          4   -1    0    0  501    0  0.00000000000E+00  0.00000000000E+00  0.53106599425E+01  0.54604037419E+01  0.12700000000E+01 0.  1.
         -4   -1    0    0    0  501 -0.00000000000E+00 -0.00000000000E+00 -0.72515781319E+03  0.72515892529E+03  0.12700000000E+01 0.  1.
         25    2    1    2    0    0  0.00000000000E+00  0.00000000000E+00 -0.71984715325E+03  0.73061932903E+03  0.12499871967E+03 0.  0.
    9000005    1    3    3    0    0  0.20120139211E+02  0.13929848222E+02 -0.23832228530E+02  0.34173612482E+02  0.10000000000E+01 0.  0.
    9000005    1    3    3    0    0 -0.20120139211E+02 -0.13929848222E+02 -0.69601492472E+03  0.69644571655E+03  0.10000000000E+01 0.  0.
<mgrwt>
<rscale>  0 0.12499872E+03</rscale>
<asrwt>0</asrwt>
<pdfrwt beam="1">  1        4 0.82862948E-03 0.12499872E+03</pdfrwt>
<pdfrwt beam="2">  1       -4 0.11157427E+00 0.12499872E+03</pdfrwt>
<totfact> 0.41519896E+03</totfact>
</mgrwt>
</event>
<event>
 5    1  0.3245943E-002  0.1249988E+03  0.7818608E-02  0.1235071E+00
         -4   -1    0    0    0  501 -0.00000000000E+00  0.00000000000E+00  0.19948779885E+02  0.19989165038E+02  0.12700000000E+01 0. -1.
          4   -1    0    0  501    0  0.00000000000E+00 -0.00000000000E+00 -0.19556968655E+03  0.19557381010E+03  0.12700000000E+01 0. -1.
         25    2    1    2    0    0  0.00000000000E+00  0.00000000000E+00 -0.17562090667E+03  0.21556297514E+03  0.12499877357E+03 0.  0.
    9000005    1    3    3    0    0  0.57269224597E+02 -0.22900317790E+02 -0.10514035997E+03  0.12190030326E+03  0.10000000000E+01 0.  0.
    9000005    1    3    3    0    0 -0.57269224597E+02  0.22900317790E+02 -0.70480546701E+02  0.93662671882E+02  0.10000000000E+01 0.  0.
<mgrwt>
<rscale>  0 0.12499877E+03</rscale>
<asrwt>0</asrwt>
<pdfrwt beam="2">  1        4 0.30091067E-01 0.12499877E+03</pdfrwt>
<pdfrwt beam="1">  1       -4 0.30724669E-02 0.12499877E+03</pdfrwt>
<totfact> 0.87577757E+03</totfact>
</mgrwt>
</event>
<event>
 5    1  0.3245943E-002  0.1249897E+03  0.7818608E-02  0.1235085E+00
          4   -1    0    0  501    0  0.00000000000E+00  0.00000000000E+00  0.14221796246E+04  0.14221801917E+04  0.12700000000E+01 0.  1.
         -4   -1    0    0    0  501 -0.00000000000E+00 -0.00000000000E+00 -0.25987863762E+01  0.28925059428E+01  0.12700000000E+01 0.  1.
         25    2    1    2    0    0  0.00000000000E+00  0.00000000000E+00  0.14195808383E+04  0.14250726976E+04  0.12498974829E+03 0.  0.
    9000005    1    3    3    0    0  0.58363094540E+02 -0.18897733307E+02  0.84528830262E+03  0.84751205872E+03  0.10000000000E+01 0.  0.
    9000005    1    3    3    0    0 -0.58363094540E+02  0.18897733307E+02  0.57429253566E+03  0.57756063893E+03  0.10000000000E+01 0.  0.
<mgrwt>
<rscale>  0 0.12498975E+03</rscale>
<asrwt>0</asrwt>
<pdfrwt beam="1">  1        4 0.21882000E+00 0.12498975E+03</pdfrwt>
<pdfrwt beam="2">  1       -4 0.42244975E-03 0.12498975E+03</pdfrwt>
<totfact> 0.19453479E+03</totfact>
</mgrwt>
</event>
<event>
 5    1  0.3245943E-002  0.1249981E+03  0.7818608E-02  0.1235072E+00
         -4   -1    0    0    0  501 -0.00000000000E+00  0.00000000000E+00  0.63616666134E+03  0.63616792901E+03  0.12700000000E+01 0. -1.
          4   -1    0    0  501    0  0.00000000000E+00 -0.00000000000E+00 -0.60731454261E+01  0.62045141121E+01  0.12700000000E+01 0. -1.
         25    2    1    2    0    0  0.00000000000E+00  0.00000000000E+00  0.63009351591E+03  0.64237244312E+03  0.12499806753E+03 0.  0.
    9000005    1    3    3    0    0  0.27276631408E+02 -0.75342855426E+01  0.60137809622E+03  0.60204434612E+03  0.10000000000E+01 0.  0.
    9000005    1    3    3    0    0 -0.27276631408E+02  0.75342855426E+01  0.28715419689E+02  0.40328096999E+02  0.10000000000E+01 0.  0.
<mgrwt>
<rscale>  0 0.12499807E+03</rscale>
<asrwt>0</asrwt>
<pdfrwt beam="2">  1        4 0.94453227E-03 0.12499807E+03</pdfrwt>
<pdfrwt beam="1">  1       -4 0.97882059E-01 0.12499807E+03</pdfrwt>
<totfact> 0.46299556E+03</totfact>
</mgrwt>
</event>
<event>
 5    1  0.3245943E-002  0.1250009E+03  0.7818608E-02  0.1235068E+00
         -4   -1    0    0    0  501 -0.00000000000E+00  0.00000000000E+00  0.43511342941E+03  0.43511528283E+03  0.12700000000E+01 0.  1.
          4   -1    0    0  501    0  0.00000000000E+00 -0.00000000000E+00 -0.89308793664E+01  0.90207264816E+01  0.12700000000E+01 0.  1.
         25    2    1    2    0    0  0.00000000000E+00  0.00000000000E+00  0.42618255004E+03  0.44413600931E+03  0.12500091522E+03 0.  0.
    9000005    1    3    3    0    0 -0.27409088443E+01  0.33776877972E+02  0.39964960676E+03  0.40108502621E+03  0.10000000000E+01 0.  0.
    9000005    1    3    3    0    0  0.27409088443E+01 -0.33776877972E+02  0.26532943287E+02  0.43050983105E+02  0.10000000000E+01 0.  0.
<mgrwt>
<rscale>  0 0.12500092E+03</rscale>
<asrwt>0</asrwt>
<pdfrwt beam="2">  1        4 0.13810349E-02 0.12500092E+03</pdfrwt>
<pdfrwt beam="1">  1       -4 0.66947600E-01 0.12500092E+03</pdfrwt>
<totfact> 0.60473948E+03</totfact>
</mgrwt>
</event>
<event>
 5    1  0.3245943E-002  0.1249992E+03  0.7818608E-02  0.1235071E+00
          4   -1    0    0  501    0  0.00000000000E+00  0.00000000000E+00  0.19767541086E+03  0.19767949049E+03  0.12700000000E+01 0.  1.
         -4   -1    0    0    0  501 -0.00000000000E+00 -0.00000000000E+00 -0.19735986817E+02  0.19776806508E+02  0.12700000000E+01 0.  1.
         25    2    1    2    0    0  0.00000000000E+00  0.00000000000E+00  0.17793942405E+03  0.21745629700E+03  0.12499920989E+03 0.  0.
    9000005    1    3    3    0    0  0.56014821266E+02 -0.26795572397E+02  0.76725447200E+02  0.98708951719E+02  0.10000000000E+01 0.  0.
    9000005    1    3    3    0    0 -0.56014821266E+02  0.26795572397E+02  0.10121397685E+03  0.11874734528E+03  0.10000000000E+01 0.  0.
<mgrwt>
<rscale>  0 0.12499921E+03</rscale>
<asrwt>0</asrwt>
<pdfrwt beam="1">  1        4 0.30415055E-01 0.12499921E+03</pdfrwt>
<pdfrwt beam="2">  1       -4 0.30397595E-02 0.12499921E+03</pdfrwt>
<totfact> 0.87274004E+03</totfact>
</mgrwt>
</event>
<event>
 5    1  0.3245943E-002  0.1249970E+03  0.7818608E-02  0.1235074E+00
          4   -1    0    0  501    0  0.00000000000E+00  0.00000000000E+00  0.68416789458E+02  0.68428575754E+02  0.12700000000E+01 0.  1.
         -4   -1    0    0    0  501 -0.00000000000E+00 -0.00000000000E+00 -0.57068436009E+02  0.57082565539E+02  0.12700000000E+01 0.  1.
         25    2    1    2    0    0  0.00000000000E+00  0.00000000000E+00  0.11348353448E+02  0.12551114129E+03  0.12499704582E+03 0.  0.
    9000005    1    3    3    0    0  0.60218491374E+02 -0.16283215257E+02  0.19636348340E+01  0.62420074208E+02  0.10000000000E+01 0.  0.
    9000005    1    3    3    0    0 -0.60218491374E+02  0.16283215257E+02  0.93847186145E+01  0.63091067085E+02  0.10000000000E+01 0.  0.
<mgrwt>
<rscale>  0 0.12499705E+03</rscale>
<asrwt>0</asrwt>
<pdfrwt beam="1">  1        4 0.10527653E-01 0.12499705E+03</pdfrwt>
<pdfrwt beam="2">  1       -4 0.87817529E-02 0.12499705E+03</pdfrwt>
<totfact> 0.10442404E+04</totfact>
</mgrwt>
</event>
<event>
 5    1  0.3245943E-002  0.1249996E+03  0.7818608E-02  0.1235070E+00
         -4   -1    0    0    0  501 -0.00000000000E+00  0.00000000000E+00  0.56622391291E+03  0.56622533717E+03  0.12700000000E+01 0.  1.
          4   -1    0    0  501    0  0.00000000000E+00 -0.00000000000E+00 -0.68388346205E+01  0.69557572533E+01  0.12700000000E+01 0.  1.
         25    2    1    2    0    0  0.00000000000E+00  0.00000000000E+00  0.55938507829E+03  0.57318109442E+03  0.12499960476E+03 0.  0.
    9000005    1    3    3    0    0  0.89726895666E+01 -0.52572289551E+02  0.13033938243E+03  0.14083220299E+03  0.10000000000E+01 0.  0.
    9000005    1    3    3    0    0 -0.89726895666E+01  0.52572289551E+02  0.42904569586E+03  0.43234889144E+03  0.10000000000E+01 0.  0.
<mgrwt>
<rscale>  0 0.12499960E+03</rscale>
<asrwt>0</asrwt>
<pdfrwt beam="2">  1        4 0.10612319E-02 0.12499960E+03</pdfrwt>
<pdfrwt beam="1">  1       -4 0.87120483E-01 0.12499960E+03</pdfrwt>
<totfact> 0.50605906E+03</totfact>
</mgrwt>
</event>
<event>
 5    1  0.3245943E-002  0.1249992E+03  0.7818608E-02  0.1235071E+00
          4   -1    0    0  501    0  0.00000000000E+00  0.00000000000E+00  0.59148180993E+03  0.59148317336E+03  0.12700000000E+01 0. -1.
         -4   -1    0    0    0  501 -0.00000000000E+00 -0.00000000000E+00 -0.65416488913E+01  0.66637879781E+01  0.12700000000E+01 0. -1.
         25    2    1    2    0    0  0.00000000000E+00  0.00000000000E+00  0.58494016103E+03  0.59814696134E+03  0.12499918149E+03 0.  0.
    9000005    1    3    3    0    0  0.28246876676E+02  0.55263282337E+02  0.32739960944E+03  0.33323178221E+03  0.10000000000E+01 0.  0.
    9000005    1    3    3    0    0 -0.28246876676E+02 -0.55263282337E+02  0.25754055160E+03  0.26491517913E+03  0.10000000000E+01 0.  0.
<mgrwt>
<rscale>  0 0.12499918E+03</rscale>
<asrwt>0</asrwt>
<pdfrwt beam="1">  1        4 0.91006701E-01 0.12499918E+03</pdfrwt>
<pdfrwt beam="2">  1       -4 0.10159077E-02 0.12499918E+03</pdfrwt>
<totfact> 0.48985668E+03</totfact>
</mgrwt>
</event>
<event>
 5    1  0.3245943E-002  0.1249940E+03  0.7818608E-02  0.1235079E+00
          4   -1    0    0  501    0  0.00000000000E+00  0.00000000000E+00  0.18670279150E+02  0.18713423619E+02  0.12700000000E+01 0. -1.
         -4   -1    0    0    0  501 -0.00000000000E+00 -0.00000000000E+00 -0.20891631166E+03  0.20892017179E+03  0.12700000000E+01 0. -1.
         25    2    1    2    0    0  0.00000000000E+00  0.00000000000E+00 -0.19024603251E+03  0.22763359541E+03  0.12499400334E+03 0.  0.
    9000005    1    3    3    0    0 -0.86815141395E+01 -0.60511712473E+02 -0.71529435455E+02  0.94098332454E+02  0.10000000000E+01 0.  0.
    9000005    1    3    3    0    0  0.86815141395E+01  0.60511712473E+02 -0.11871659706E+03  0.13353526295E+03  0.10000000000E+01 0.  0.
<mgrwt>
<rscale>  0 0.12499400E+03</rscale>
<asrwt>0</asrwt>
<pdfrwt beam="1">  1        4 0.28759665E-02 0.12499400E+03</pdfrwt>
<pdfrwt beam="2">  1       -4 0.32144585E-01 0.12499400E+03</pdfrwt>
<totfact> 0.85685757E+03</totfact>
</mgrwt>
</event>
<event>
 5    1  0.3245943E-002  0.1250014E+03  0.7818608E-02  0.1235067E+00
          4   -1    0    0  501    0  0.00000000000E+00  0.00000000000E+00  0.39073343663E+01  0.41085474137E+01  0.12700000000E+01 0. -1.
         -4   -1    0    0    0  501 -0.00000000000E+00 -0.00000000000E+00 -0.97444843808E+03  0.97444926568E+03  0.12700000000E+01 0. -1.
         25    2    1    2    0    0  0.00000000000E+00  0.00000000000E+00 -0.97054110372E+03  0.97855781309E+03  0.12500143824E+03 0.  0.
    9000005    1    3    3    0    0 -0.59218510154E+02 -0.11203442821E+02 -0.35592678759E+03  0.36099477448E+03  0.10000000000E+01 0.  0.
    9000005    1    3    3    0    0  0.59218510154E+02  0.11203442821E+02 -0.61461431612E+03  0.61756303861E+03  0.10000000000E+01 0.  0.
<mgrwt>
<rscale>  0 0.12500144E+03</rscale>
<asrwt>0</asrwt>
<pdfrwt beam="1">  1        4 0.61667073E-03 0.12500144E+03</pdfrwt>
<pdfrwt beam="2">  1       -4 0.14993050E+00 0.12500144E+03</pdfrwt>
<totfact> 0.31322315E+03</totfact>
</mgrwt>
</event>
<event>
 5    1  0.3245943E-002  0.1249946E+03  0.7818608E-02  0.1235078E+00
          4   -1    0    0  501    0  0.00000000000E+00  0.00000000000E+00  0.26972718994E+02  0.27002601169E+02  0.12700000000E+01 0.  1.
         -4   -1    0    0    0  501 -0.00000000000E+00 -0.00000000000E+00 -0.14469689643E+03  0.14470246969E+03  0.12700000000E+01 0.  1.
         25    2    1    2    0    0  0.00000000000E+00  0.00000000000E+00 -0.11772417743E+03  0.17170507086E+03  0.12499459751E+03 0.  0.
    9000005    1    3    3    0    0 -0.29540754529E+02  0.24106487365E+02 -0.12687249295E+03  0.13248172847E+03  0.10000000000E+01 0.  0.
    9000005    1    3    3    0    0  0.29540754529E+02 -0.24106487365E+02  0.91483155215E+01  0.39223342388E+02  0.10000000000E+01 0.  0.
<mgrwt>
<rscale>  0 0.12499460E+03</rscale>
<asrwt>0</asrwt>
<pdfrwt beam="1">  1        4 0.41523765E-02 0.12499460E+03</pdfrwt>
<pdfrwt beam="2">  1       -4 0.22263788E-01 0.12499460E+03</pdfrwt>
<totfact> 0.95143321E+03</totfact>
</mgrwt>
</event>
<event>
 5    1  0.3245943E-002  0.1249889E+03  0.7818608E-02  0.1235087E+00
         -4   -1    0    0    0  501 -0.00000000000E+00  0.00000000000E+00  0.43120827601E+02  0.43139525647E+02  0.12700000000E+01 0. -1.
          4   -1    0    0  501    0  0.00000000000E+00 -0.00000000000E+00 -0.90529602019E+02  0.90538509716E+02  0.12700000000E+01 0. -1.
         25    2    1    2    0    0  0.00000000000E+00  0.00000000000E+00 -0.47408774417E+02  0.13367803536E+03  0.12498890049E+03 0.  0.
    9000005    1    3    3    0    0 -0.51476739722E+02 -0.33389666397E+02 -0.11057270852E+02  0.62353731189E+02  0.10000000000E+01 0.  0.
    9000005    1    3    3    0    0  0.51476739722E+02  0.33389666397E+02 -0.36351503565E+02  0.71324304174E+02  0.10000000000E+01 0.  0.
<mgrwt>
<rscale>  0 0.12498890E+03</rscale>
<asrwt>0</asrwt>
<pdfrwt beam="2">  1        4 0.13929755E-01 0.12498890E+03</pdfrwt>
<pdfrwt beam="1">  1       -4 0.66360970E-02 0.12498890E+03</pdfrwt>
<totfact> 0.10268581E+04</totfact>
</mgrwt>
</event>
<event>
 5    1  0.3245943E-002  0.1250026E+03  0.7818608E-02  0.1235065E+00
          4   -1    0    0  501    0  0.00000000000E+00  0.00000000000E+00  0.99413095119E+01  0.10022102315E+02  0.12700000000E+01 0. -1.
         -4   -1    0    0    0  501 -0.00000000000E+00 -0.00000000000E+00 -0.39127558188E+03  0.39127764296E+03  0.12700000000E+01 0. -1.
         25    2    1    2    0    0  0.00000000000E+00  0.00000000000E+00 -0.38133427237E+03  0.40129974527E+03  0.12500263305E+03 0.  0.
    9000005    1    3    3    0    0 -0.39834666964E+02 -0.45112404513E+02 -0.24471949341E+03  0.25201301591E+03  0.10000000000E+01 0.  0.
    9000005    1    3    3    0    0  0.39834666964E+02  0.45112404513E+02 -0.13661477896E+03  0.14928672936E+03  0.10000000000E+01 0.  0.
<mgrwt>
<rscale>  0 0.12500263E+03</rscale>
<asrwt>0</asrwt>
<pdfrwt beam="1">  1        4 0.15358059E-02 0.12500263E+03</pdfrwt>
<pdfrwt beam="2">  1       -4 0.60202605E-01 0.12500263E+03</pdfrwt>
<totfact> 0.64422834E+03</totfact>
</mgrwt>
</event>
<event>
 5    1  0.3245943E-002  0.1249957E+03  0.7818608E-02  0.1235076E+00
         -4   -1    0    0    0  501 -0.00000000000E+00  0.00000000000E+00  0.76151577244E+02  0.76162166571E+02  0.12700000000E+01 0.  1.
          4   -1    0    0  501    0  0.00000000000E+00 -0.00000000000E+00 -0.51270163197E+02  0.51285890206E+02  0.12700000000E+01 0.  1.
         25    2    1    2    0    0  0.00000000000E+00  0.00000000000E+00  0.24881414047E+02  0.12744805678E+03  0.12499568957E+03 0.  0.
    9000005    1    3    3    0    0  0.37975004778E+02  0.25342122881E+02  0.55947010015E+02  0.72217671726E+02  0.10000000000E+01 0.  0.
    9000005    1    3    3    0    0 -0.37975004778E+02 -0.25342122881E+02 -0.31065595968E+02  0.55230385050E+02  0.10000000000E+01 0.  0.
<mgrwt>
<rscale>  0 0.12499569E+03</rscale>
<asrwt>0</asrwt>
<pdfrwt beam="2">  1        4 0.78897418E-02 0.12499569E+03</pdfrwt>
<pdfrwt beam="1">  1       -4 0.11717652E-01 0.12499569E+03</pdfrwt>
<totfact> 0.10400438E+04</totfact>
</mgrwt>
</event>
<event>
 5    1  0.3245943E-002  0.1250063E+03  0.7818608E-02  0.1235059E+00
         -4   -1    0    0    0  501 -0.00000000000E+00  0.00000000000E+00  0.79550146090E+02  0.79560283074E+02  0.12700000000E+01 0.  1.
          4   -1    0    0  501    0  0.00000000000E+00 -0.00000000000E+00 -0.49087715449E+02  0.49104141455E+02  0.12700000000E+01 0.  1.
         25    2    1    2    0    0  0.00000000000E+00  0.00000000000E+00  0.30462430640E+02  0.12866442453E+03  0.12500629768E+03 0.  0.
    9000005    1    3    3    0    0 -0.13800003373E+02  0.60871618515E+02  0.12000970292E+02  0.63567423431E+02  0.10000000000E+01 0.  0.
    9000005    1    3    3    0    0  0.13800003373E+02 -0.60871618515E+02  0.18461460348E+02  0.65097001098E+02  0.10000000000E+01 0.  0.
<mgrwt>
<rscale>  0 0.12500630E+03</rscale>
<asrwt>0</asrwt>
<pdfrwt beam="2">  1        4 0.75539996E-02 0.12500630E+03</pdfrwt>
<pdfrwt beam="1">  1       -4 0.12240527E-01 0.12500630E+03</pdfrwt>
<totfact> 0.10371689E+04</totfact>
</mgrwt>
</event>
<event>
 5    1  0.3245943E-002  0.1249987E+03  0.7818608E-02  0.1235071E+00
          4   -1    0    0  501    0  0.00000000000E+00  0.00000000000E+00  0.37099356313E+02  0.37121087523E+02  0.12700000000E+01 0.  1.
         -4   -1    0    0    0  501 -0.00000000000E+00 -0.00000000000E+00 -0.10523293232E+03  0.10524059552E+03  0.12700000000E+01 0.  1.
         25    2    1    2    0    0  0.00000000000E+00  0.00000000000E+00 -0.68133576010E+02  0.14236168304E+03  0.12499865847E+03 0.  0.
    9000005    1    3    3    0    0 -0.16887733681E+02 -0.29907555200E+02 -0.93524959846E+02  0.99637219557E+02  0.10000000000E+01 0.  0.
    9000005    1    3    3    0    0  0.16887733681E+02  0.29907555200E+02  0.25391383837E+02  0.42724463484E+02  0.10000000000E+01 0.  0.
<mgrwt>
<rscale>  0 0.12499866E+03</rscale>
<asrwt>0</asrwt>
<pdfrwt beam="1">  1        4 0.57098544E-02 0.12499866E+03</pdfrwt>
<pdfrwt beam="2">  1       -4 0.16191943E-01 0.12499866E+03</pdfrwt>
<totfact> 0.10085176E+04</totfact>
</mgrwt>
</event>
<event>
 5    1  0.3245943E-002  0.1249954E+03  0.7818608E-02  0.1235077E+00
          4   -1    0    0  501    0  0.00000000000E+00  0.00000000000E+00  0.17392778094E+03  0.17393241758E+03  0.12700000000E+01 0. -1.
         -4   -1    0    0    0  501 -0.00000000000E+00 -0.00000000000E+00 -0.22434470020E+02  0.22470388182E+02  0.12700000000E+01 0. -1.
         25    2    1    2    0    0  0.00000000000E+00  0.00000000000E+00  0.15149331092E+03  0.19640280576E+03  0.12499535533E+03 0.  0.
    9000005    1    3    3    0    0  0.42515970998E+02  0.19906317585E+02  0.14055299841E+03  0.14818911779E+03  0.10000000000E+01 0.  0.
    9000005    1    3    3    0    0 -0.42515970998E+02 -0.19906317585E+02  0.10940312516E+02  0.48213687970E+02  0.10000000000E+01 0.  0.
<mgrwt>
<rscale>  0 0.12499536E+03</rscale>
<asrwt>0</asrwt>
<pdfrwt beam="1">  1        4 0.26761239E-01 0.12499536E+03</pdfrwt>
<pdfrwt beam="2">  1       -4 0.34545766E-02 0.12499536E+03</pdfrwt>
<totfact> 0.90754464E+03</totfact>
</mgrwt>
</event>
<event>
 5    1  0.3245943E-002  0.1250160E+03  0.7818608E-02  0.1235044E+00
         -4   -1    0    0    0  501 -0.00000000000E+00  0.00000000000E+00  0.36590852057E+02  0.36612885085E+02  0.12700000000E+01 0.  1.
          4   -1    0    0  501    0  0.00000000000E+00 -0.00000000000E+00 -0.10672421171E+03  0.10673176783E+03  0.12700000000E+01 0.  1.
         25    2    1    2    0    0  0.00000000000E+00  0.00000000000E+00 -0.70133359650E+02  0.14334465292E+03  0.12501600451E+03 0.  0.
    9000005    1    3    3    0    0 -0.10580055517E+02 -0.60054482179E+02 -0.50778671160E+02  0.79359636147E+02  0.10000000000E+01 0.  0.
    9000005    1    3    3    0    0  0.10580055517E+02  0.60054482179E+02 -0.19354688490E+02  0.63985016770E+02  0.10000000000E+01 0.  0.
<mgrwt>
<rscale>  0 0.12501600E+03</rscale>
<asrwt>0</asrwt>
<pdfrwt beam="2">  1        4 0.16421385E-01 0.12501600E+03</pdfrwt>
<pdfrwt beam="1">  1       -4 0.56316380E-02 0.12501600E+03</pdfrwt>
<totfact> 0.10061103E+04</totfact>
</mgrwt>
</event>
<event>
 5    1  0.3245943E-002  0.1249979E+03  0.7818608E-02  0.1235073E+00
          4   -1    0    0  501    0  0.00000000000E+00  0.00000000000E+00  0.10695216295E+04  0.10695223836E+04  0.12700000000E+01 0. -1.
         -4   -1    0    0    0  501 -0.00000000000E+00 -0.00000000000E+00 -0.35410271473E+01  0.37618842696E+01  0.12700000000E+01 0. -1.
         25    2    1    2    0    0  0.00000000000E+00  0.00000000000E+00  0.10659806024E+04  0.10732842678E+04  0.12499789963E+03 0.  0.
    9000005    1    3    3    0    0  0.27135947839E+02 -0.41710762697E+02  0.20840876830E+03  0.21426936807E+03  0.10000000000E+01 0.  0.
    9000005    1    3    3    0    0 -0.27135947839E+02  0.41710762697E+02  0.85757183409E+03  0.85901489976E+03  0.10000000000E+01 0.  0.
<mgrwt>
<rscale>  0 0.12499790E+03</rscale>
<asrwt>0</asrwt>
<pdfrwt beam="1">  1        4 0.16455861E+00 0.12499790E+03</pdfrwt>
<pdfrwt beam="2">  1       -4 0.56182120E-03 0.12499790E+03</pdfrwt>
<totfact> 0.28280079E+03</totfact>
</mgrwt>
</event>
<event>
 5    1  0.3245943E-002  0.1250101E+03  0.7818608E-02  0.1235054E+00
          4   -1    0    0  501    0  0.00000000000E+00  0.00000000000E+00  0.57232276280E+02  0.57246365371E+02  0.12700000000E+01 0.  1.
         -4   -1    0    0    0  501 -0.00000000000E+00 -0.00000000000E+00 -0.68235186488E+02  0.68247004147E+02  0.12700000000E+01 0.  1.
         25    2    1    2    0    0  0.00000000000E+00  0.00000000000E+00 -0.11002910208E+02  0.12549336952E+03  0.12501008663E+03 0.  0.
    9000005    1    3    3    0    0  0.43744940454E+00 -0.49469859931E+02  0.32835475002E+02  0.59385409169E+02  0.10000000000E+01 0.  0.
    9000005    1    3    3    0    0 -0.43744940454E+00  0.49469859931E+02 -0.43838385210E+02  0.66107960348E+02  0.10000000000E+01 0.  0.
<mgrwt>
<rscale>  0 0.12501009E+03</rscale>
<asrwt>0</asrwt>
<pdfrwt beam="1">  1        4 0.88069584E-02 0.12501009E+03</pdfrwt>
<pdfrwt beam="2">  1       -4 0.10499714E-01 0.12501009E+03</pdfrwt>
<totfact> 0.10439725E+04</totfact>
</mgrwt>
</event>
<event>
 5    1  0.3245943E-002  0.1250035E+03  0.7818608E-02  0.1235064E+00
          4   -1    0    0  501    0  0.00000000000E+00  0.00000000000E+00  0.22861741979E+03  0.22862094727E+03  0.12700000000E+01 0.  1.
         -4   -1    0    0    0  501 -0.00000000000E+00 -0.00000000000E+00 -0.17060110588E+02  0.17107316367E+02  0.12700000000E+01 0.  1.
         25    2    1    2    0    0  0.00000000000E+00  0.00000000000E+00  0.21155730920E+03  0.24572826364E+03  0.12500353784E+03 0.  0.
    9000005    1    3    3    0    0  0.30065290458E+02 -0.40105244067E+02  0.32407240747E+02  0.59695741429E+02  0.10000000000E+01 0.  0.
    9000005    1    3    3    0    0 -0.30065290458E+02  0.40105244067E+02  0.17915006845E+03  0.18603252221E+03  0.10000000000E+01 0.  0.
<mgrwt>
<rscale>  0 0.12500354E+03</rscale>
<asrwt>0</asrwt>
<pdfrwt beam="1">  1        4 0.35175809E-01 0.12500354E+03</pdfrwt>
<pdfrwt beam="2">  1       -4 0.26285353E-02 0.12500354E+03</pdfrwt>
<totfact> 0.82945037E+03</totfact>
</mgrwt>
</event>
<event>
 5    1  0.3245943E-002  0.1249989E+03  0.7818608E-02  0.1235071E+00
          4   -1    0    0  501    0  0.00000000000E+00  0.00000000000E+00  0.35945381079E+03  0.35945605433E+03  0.12700000000E+01 0. -1.
         -4   -1    0    0    0  501 -0.00000000000E+00 -0.00000000000E+00 -0.10827592179E+02  0.10901818765E+02  0.12700000000E+01 0. -1.
         25    2    1    2    0    0  0.00000000000E+00  0.00000000000E+00  0.34862621861E+03  0.37035787309E+03  0.12499885542E+03 0.  0.
    9000005    1    3    3    0    0 -0.31058589765E+02  0.51548410837E+02  0.22418338278E+03  0.23212294969E+03  0.10000000000E+01 0.  0.
    9000005    1    3    3    0    0  0.31058589765E+02 -0.51548410837E+02  0.12444283583E+03  0.13823492340E+03  0.10000000000E+01 0.  0.
<mgrwt>
<rscale>  0 0.12499886E+03</rscale>
<asrwt>0</asrwt>
<pdfrwt beam="1">  1        4 0.55306458E-01 0.12499886E+03</pdfrwt>
<pdfrwt beam="2">  1       -4 0.16716661E-02 0.12499886E+03</pdfrwt>
<totfact> 0.67543228E+03</totfact>
</mgrwt>
</event>
<event>
 5    1  0.3245943E-002  0.1250031E+03  0.7818608E-02  0.1235064E+00
         -4   -1    0    0    0  501 -0.00000000000E+00  0.00000000000E+00  0.37577174776E+02  0.37598629817E+02  0.12700000000E+01 0. -1.
          4   -1    0    0  501    0  0.00000000000E+00 -0.00000000000E+00 -0.10390291062E+03  0.10391067191E+03  0.12700000000E+01 0. -1.
         25    2    1    2    0    0  0.00000000000E+00  0.00000000000E+00 -0.66325735847E+02  0.14150930172E+03  0.12500311692E+03 0.  0.
    9000005    1    3    3    0    0 -0.25393027894E+02 -0.57098776875E+02 -0.33850182504E+02  0.71076796789E+02  0.10000000000E+01 0.  0.
    9000005    1    3    3    0    0  0.25393027894E+02  0.57098776875E+02 -0.32475553343E+02  0.70432504934E+02  0.10000000000E+01 0.  0.
<mgrwt>
<rscale>  0 0.12500312E+03</rscale>
<asrwt>0</asrwt>
<pdfrwt beam="2">  1        4 0.15987310E-01 0.12500312E+03</pdfrwt>
<pdfrwt beam="1">  1       -4 0.57833513E-02 0.12500312E+03</pdfrwt>
<totfact> 0.10101691E+04</totfact>
</mgrwt>
</event>
<event>
 5    1  0.3245943E-002  0.1250050E+03  0.7818608E-02  0.1235061E+00
         -4   -1    0    0    0  501 -0.00000000000E+00  0.00000000000E+00  0.13440120293E+02  0.13499990129E+02  0.12700000000E+01 0.  1.
          4   -1    0    0  501    0  0.00000000000E+00 -0.00000000000E+00 -0.28995715408E+03  0.28995993534E+03  0.12700000000E+01 0.  1.
         25    2    1    2    0    0  0.00000000000E+00  0.00000000000E+00 -0.27651703379E+03  0.30345992547E+03  0.12500502546E+03 0.  0.
    9000005    1    3    3    0    0  0.20920228048E+01 -0.59016098198E+02 -0.88609412730E+02  0.10648898737E+03  0.10000000000E+01 0.  0.
    9000005    1    3    3    0    0 -0.20920228048E+01  0.59016098198E+02 -0.18790762106E+03  0.19697093810E+03  0.10000000000E+01 0.  0.
<mgrwt>
<rscale>  0 0.12500503E+03</rscale>
<asrwt>0</asrwt>
<pdfrwt beam="2">  1        4 0.44613608E-01 0.12500503E+03</pdfrwt>
<pdfrwt beam="1">  1       -4 0.20725303E-02 0.12500503E+03</pdfrwt>
<totfact> 0.75158490E+03</totfact>
</mgrwt>
</event>
<event>
 5    1  0.3245943E-002  0.1250007E+03  0.7818608E-02  0.1235068E+00
          4   -1    0    0  501    0  0.00000000000E+00  0.00000000000E+00  0.54421377245E+03  0.54421525431E+03  0.12700000000E+01 0.  1.
         -4   -1    0    0    0  501 -0.00000000000E+00 -0.00000000000E+00 -0.71201899644E+01  0.72325655980E+01  0.12700000000E+01 0.  1.
         25    2    1    2    0    0  0.00000000000E+00  0.00000000000E+00  0.53709358249E+03  0.55144781991E+03  0.12500072694E+03 0.  0.
    9000005    1    3    3    0    0 -0.28973127368E+02 -0.43888847596E+02  0.11962015843E+03  0.13067385108E+03  0.10000000000E+01 0.  0.
    9000005    1    3    3    0    0  0.28973127368E+02  0.43888847596E+02  0.41747342405E+03  0.42077396883E+03  0.10000000000E+01 0.  0.
<mgrwt>
<rscale>  0 0.12500073E+03</rscale>
<asrwt>0</asrwt>
<pdfrwt beam="1">  1        4 0.83733975E-01 0.12500073E+03</pdfrwt>
<pdfrwt beam="2">  1       -4 0.11041718E-02 0.12500073E+03</pdfrwt>
<totfact> 0.52082323E+03</totfact>
</mgrwt>
</event>
<event>
 5    1  0.3245943E-002  0.1249985E+03  0.7818608E-02  0.1235072E+00
         -4   -1    0    0    0  501 -0.00000000000E+00  0.00000000000E+00  0.30644697057E+02  0.30671001902E+02  0.12700000000E+01 0.  1.
          4   -1    0    0  501    0  0.00000000000E+00 -0.00000000000E+00 -0.12738173483E+03  0.12738806564E+03  0.12700000000E+01 0.  1.
         25    2    1    2    0    0  0.00000000000E+00  0.00000000000E+00 -0.96737037768E+02  0.15805906754E+03  0.12499845741E+03 0.  0.
    9000005    1    3    3    0    0  0.40125559370E+02 -0.43525068403E+01  0.11958947050E+02  0.42107258817E+02  0.10000000000E+01 0.  0.
    9000005    1    3    3    0    0 -0.40125559370E+02  0.43525068403E+01 -0.10869598482E+03  0.11595180872E+03  0.10000000000E+01 0.  0.
<mgrwt>
<rscale>  0 0.12499846E+03</rscale>
<asrwt>0</asrwt>
<pdfrwt beam="2">  1        4 0.19599700E-01 0.12499846E+03</pdfrwt>
<pdfrwt beam="1">  1       -4 0.47170793E-02 0.12499846E+03</pdfrwt>
<totfact> 0.97721681E+03</totfact>
</mgrwt>
</event>
<event>
 5    1  0.3245943E-002  0.1249998E+03  0.7818608E-02  0.1235070E+00
         -4   -1    0    0    0  501 -0.00000000000E+00  0.00000000000E+00  0.74359232042E+03  0.74359340495E+03  0.12700000000E+01 0. -1.
          4   -1    0    0  501    0  0.00000000000E+00 -0.00000000000E+00 -0.51753332613E+01  0.53288811551E+01  0.12700000000E+01 0. -1.
         25    2    1    2    0    0  0.00000000000E+00  0.00000000000E+00  0.73841698715E+03  0.74892228610E+03  0.12499977481E+03 0.  0.
    9000005    1    3    3    0    0  0.28916296335E+02 -0.43353659789E+02  0.57585009723E+03  0.57820413912E+03  0.10000000000E+01 0.  0.
    9000005    1    3    3    0    0 -0.28916296335E+02  0.43353659789E+02  0.16256688992E+03  0.17071814698E+03  0.10000000000E+01 0.  0.
<mgrwt>
<rscale>  0 0.12499977E+03</rscale>
<asrwt>0</asrwt>
<pdfrwt beam="2">  1        4 0.80809989E-03 0.12499977E+03</pdfrwt>
<pdfrwt beam="1">  1       -4 0.11441072E+00 0.12499977E+03</pdfrwt>
<totfact> 0.40625933E+03</totfact>
</mgrwt>
</event>
<event>
 5    1  0.3245943E-002  0.1249993E+03  0.7818608E-02  0.1235070E+00
          4   -1    0    0  501    0  0.00000000000E+00  0.00000000000E+00  0.27262445421E+03  0.27262741229E+03  0.12700000000E+01 0.  1.
         -4   -1    0    0    0  501 -0.00000000000E+00 -0.00000000000E+00 -0.14296984847E+02  0.14353281008E+02  0.12700000000E+01 0.  1.
         25    2    1    2    0    0  0.00000000000E+00  0.00000000000E+00  0.25832746936E+03  0.28698069330E+03  0.12499934760E+03 0.  0.
    9000005    1    3    3    0    0 -0.38710814344E+02  0.23482138434E+02  0.30274585189E+02  0.54474659072E+02  0.10000000000E+01 0.  0.
    9000005    1    3    3    0    0  0.38710814344E+02 -0.23482138434E+02  0.22805288418E+03  0.23250603423E+03  0.10000000000E+01 0.  0.
<mgrwt>
<rscale>  0 0.12499935E+03</rscale>
<asrwt>0</asrwt>
<pdfrwt beam="1">  1        4 0.41946783E-01 0.12499935E+03</pdfrwt>
<pdfrwt beam="2">  1       -4 0.22040941E-02 0.12499935E+03</pdfrwt>
<totfact> 0.77262645E+03</totfact>
</mgrwt>
</event>
<event>
 5    1  0.3245943E-002  0.1250001E+03  0.7818608E-02  0.1235069E+00
          4   -1    0    0  501    0  0.00000000000E+00  0.00000000000E+00  0.45348597971E+02  0.45366377835E+02  0.12700000000E+01 0.  1.
         -4   -1    0    0    0  501 -0.00000000000E+00 -0.00000000000E+00 -0.86099127770E+02  0.86108493790E+02  0.12700000000E+01 0.  1.
         25    2    1    2    0    0  0.00000000000E+00  0.00000000000E+00 -0.40750529799E+02  0.13147487163E+03  0.12500014476E+03 0.  0.
    9000005    1    3    3    0    0  0.53904536150E+02 -0.29574602796E+02 -0.86203767939E+01  0.62094017781E+02  0.10000000000E+01 0.  0.
    9000005    1    3    3    0    0 -0.53904536150E+02  0.29574602796E+02 -0.32130153005E+02  0.69380853845E+02  0.10000000000E+01 0.  0.
<mgrwt>
<rscale>  0 0.12500014E+03</rscale>
<asrwt>0</asrwt>
<pdfrwt beam="1">  1        4 0.69787955E-02 0.12500014E+03</pdfrwt>
<pdfrwt beam="2">  1       -4 0.13248108E-01 0.12500014E+03</pdfrwt>
<totfact> 0.10312886E+04</totfact>
</mgrwt>
</event>
<event>
 5    1  0.3245943E-002  0.1249963E+03  0.7818608E-02  0.1235075E+00
         -4   -1    0    0    0  501 -0.00000000000E+00  0.00000000000E+00  0.76345515792E+03  0.76345621424E+03  0.12700000000E+01 0. -1.
          4   -1    0    0  501    0  0.00000000000E+00 -0.00000000000E+00 -0.50363531961E+01  0.51940113127E+01  0.12700000000E+01 0. -1.
         25    2    1    2    0    0  0.00000000000E+00  0.00000000000E+00  0.75841880473E+03  0.76865022555E+03  0.12499634345E+03 0.  0.
    9000005    1    3    3    0    0 -0.59002493401E+02 -0.17017622511E+02  0.30799123478E+03  0.31405492259E+03  0.10000000000E+01 0.  0.
    9000005    1    3    3    0    0  0.59002493401E+02  0.17017622511E+02  0.45042756995E+03  0.45459530296E+03  0.10000000000E+01 0.  0.
<mgrwt>
<rscale>  0 0.12499634E+03</rscale>
<asrwt>0</asrwt>
<pdfrwt beam="2">  1        4 0.78703278E-03 0.12499634E+03</pdfrwt>
<pdfrwt beam="1">  1       -4 0.11746679E+00 0.12499634E+03</pdfrwt>
<totfact> 0.39700771E+03</totfact>
</mgrwt>
</event>
<event>
 5    1  0.3245943E-002  0.1249997E+03  0.7818608E-02  0.1235070E+00
          4   -1    0    0  501    0  0.00000000000E+00  0.00000000000E+00  0.72248440280E+03  0.72248551902E+03  0.12700000000E+01 0.  1.
         -4   -1    0    0    0  501 -0.00000000000E+00 -0.00000000000E+00 -0.53309528158E+01  0.54801421446E+01  0.12700000000E+01 0.  1.
         25    2    1    2    0    0  0.00000000000E+00  0.00000000000E+00  0.71715344999E+03  0.72796566116E+03  0.12499973202E+03 0.  0.
    9000005    1    3    3    0    0  0.71993465378E+01 -0.38423472500E+01 -0.22431477793E+01  0.85220851275E+01  0.10000000000E+01 0.  0.
    9000005    1    3    3    0    0 -0.71993465378E+01  0.38423472500E+01  0.71939659776E+03  0.71944357604E+03  0.10000000000E+01 0.  0.
<mgrwt>
<rscale>  0 0.12499973E+03</rscale>
<asrwt>0</asrwt>
<pdfrwt beam="1">  1        4 0.11116301E+00 0.12499973E+03</pdfrwt>
<pdfrwt beam="2">  1       -4 0.83170851E-03 0.12499973E+03</pdfrwt>
<totfact> 0.41651097E+03</totfact>
</mgrwt>
</event>
<event>
 5    1  0.3245943E-002  0.1249962E+03  0.7818608E-02  0.1235075E+00
         -4   -1    0    0    0  501 -0.00000000000E+00  0.00000000000E+00  0.81350872734E+02  0.81360785361E+02  0.12700000000E+01 0. -1.
          4   -1    0    0  501    0  0.00000000000E+00 -0.00000000000E+00 -0.47993118697E+02  0.48009919207E+02  0.12700000000E+01 0. -1.
         25    2    1    2    0    0  0.00000000000E+00  0.00000000000E+00  0.33357754037E+02  0.12937070457E+03  0.12499615773E+03 0.  0.
    9000005    1    3    3    0    0  0.48223156889E+02 -0.65025291661E+01 -0.23901129477E+02  0.54221948842E+02  0.10000000000E+01 0.  0.
    9000005    1    3    3    0    0 -0.48223156889E+02  0.65025291661E+01  0.57258883514E+02  0.75148755727E+02  0.10000000000E+01 0.  0.
<mgrwt>
<rscale>  0 0.12499616E+03</rscale>
<asrwt>0</asrwt>
<pdfrwt beam="2">  1        4 0.73856116E-02 0.12499616E+03</pdfrwt>
<pdfrwt beam="1">  1       -4 0.12517574E-01 0.12499616E+03</pdfrwt>
<totfact> 0.10358886E+04</totfact>
</mgrwt>
</event>
<event>
 5    1  0.3245943E-002  0.1250004E+03  0.7818608E-02  0.1235069E+00
          4   -1    0    0  501    0  0.00000000000E+00  0.00000000000E+00  0.10265202841E+03  0.10265988426E+03  0.12700000000E+01 0.  1.
         -4   -1    0    0    0  501 -0.00000000000E+00 -0.00000000000E+00 -0.38033634176E+02  0.38054831870E+02  0.12700000000E+01 0.  1.
         25    2    1    2    0    0  0.00000000000E+00  0.00000000000E+00  0.64618394229E+02  0.14071471613E+03  0.12500037785E+03 0.  0.
    9000005    1    3    3    0    0 -0.19052380527E+02 -0.35790678662E+02  0.85840526295E+02  0.94939780058E+02  0.10000000000E+01 0.  0.
    9000005    1    3    3    0    0  0.19052380527E+02  0.35790678662E+02 -0.21222132066E+02  0.45774936070E+02  0.10000000000E+01 0.  0.
<mgrwt>
<rscale>  0 0.12500038E+03</rscale>
<asrwt>0</asrwt>
<pdfrwt beam="1">  1        4 0.15794855E-01 0.12500038E+03</pdfrwt>
<pdfrwt beam="2">  1       -4 0.58535632E-02 0.12500038E+03</pdfrwt>
<totfact> 0.10118708E+04</totfact>
</mgrwt>
</event>
<event>
 5    1  0.3245943E-002  0.1250041E+03  0.7818608E-02  0.1235063E+00
          4   -1    0    0  501    0  0.00000000000E+00  0.00000000000E+00  0.29277442394E+02  0.29304974546E+02  0.12700000000E+01 0.  1.
         -4   -1    0    0    0  501 -0.00000000000E+00 -0.00000000000E+00 -0.13333732280E+03  0.13334337085E+03  0.12700000000E+01 0.  1.
         25    2    1    2    0    0  0.00000000000E+00  0.00000000000E+00 -0.10405988040E+03  0.16264834540E+03  0.12500410214E+03 0.  0.
    9000005    1    3    3    0    0  0.14678587347E+02  0.28218441326E+02 -0.12202332832E+03  0.12610485325E+03  0.10000000000E+01 0.  0.
    9000005    1    3    3    0    0 -0.14678587347E+02 -0.28218441326E+02  0.17963447922E+02  0.36543492151E+02  0.10000000000E+01 0.  0.
<mgrwt>
<rscale>  0 0.12500410E+03</rscale>
<asrwt>0</asrwt>
<pdfrwt beam="1">  1        4 0.45068051E-02 0.12500410E+03</pdfrwt>
<pdfrwt beam="2">  1       -4 0.20516017E-01 0.12500410E+03</pdfrwt>
<totfact> 0.96825696E+03</totfact>
</mgrwt>
</event>
<event>
 5    1  0.3245943E-002  0.1250017E+03  0.7818608E-02  0.1235067E+00
          4   -1    0    0  501    0  0.00000000000E+00  0.00000000000E+00  0.21554406251E+02  0.21591788459E+02  0.12700000000E+01 0.  1.
         -4   -1    0    0    0  501 -0.00000000000E+00 -0.00000000000E+00 -0.18103584530E+03  0.18104029989E+03  0.12700000000E+01 0.  1.
         25    2    1    2    0    0  0.00000000000E+00  0.00000000000E+00 -0.15948143905E+03  0.20263208835E+03  0.12500173530E+03 0.  0.
    9000005    1    3    3    0    0 -0.22173348939E+02  0.40944492795E+02 -0.14730595333E+03  0.15449321273E+03  0.10000000000E+01 0.  0.
    9000005    1    3    3    0    0  0.22173348939E+02 -0.40944492795E+02 -0.12175485723E+02  0.48138875620E+02  0.10000000000E+01 0.  0.
<mgrwt>
<rscale>  0 0.12500174E+03</rscale>
<asrwt>0</asrwt>
<pdfrwt beam="1">  1        4 0.33192808E-02 0.12500174E+03</pdfrwt>
<pdfrwt beam="2">  1       -4 0.27854886E-01 0.12500174E+03</pdfrwt>
<totfact> 0.89689993E+03</totfact>
</mgrwt>
</event>
<event>
 5    1  0.3245943E-002  0.1249993E+03  0.7818608E-02  0.1235070E+00
         -4   -1    0    0    0  501 -0.00000000000E+00  0.00000000000E+00  0.46098352627E+02  0.46115843426E+02  0.12700000000E+01 0. -1.
          4   -1    0    0  501    0  0.00000000000E+00 -0.00000000000E+00 -0.84698036586E+02  0.84707557523E+02  0.12700000000E+01 0. -1.
         25    2    1    2    0    0  0.00000000000E+00  0.00000000000E+00 -0.38599683960E+02  0.13082340095E+03  0.12499930653E+03 0.  0.
    9000005    1    3    3    0    0 -0.80900281177E+01  0.37319643421E+02 -0.71071851438E+02  0.80687126649E+02  0.10000000000E+01 0.  0.
    9000005    1    3    3    0    0  0.80900281177E+01 -0.37319643421E+02  0.32472167479E+02  0.50136274301E+02  0.10000000000E+01 0.  0.
<mgrwt>
<rscale>  0 0.12499931E+03</rscale>
<asrwt>0</asrwt>
<pdfrwt beam="2">  1        4 0.13032545E-01 0.12499931E+03</pdfrwt>
<pdfrwt beam="1">  1       -4 0.70941321E-02 0.12499931E+03</pdfrwt>
<totfact> 0.10327038E+04</totfact>
</mgrwt>
</event>
<event>
 5    1  0.3245943E-002  0.1250009E+03  0.7818608E-02  0.1235068E+00
          4   -1    0    0  501    0  0.00000000000E+00  0.00000000000E+00  0.27648124825E+03  0.27648416507E+03  0.12700000000E+01 0. -1.
         -4   -1    0    0    0  501 -0.00000000000E+00 -0.00000000000E+00 -0.14097113677E+02  0.14154204818E+02  0.12700000000E+01 0. -1.
         25    2    1    2    0    0  0.00000000000E+00  0.00000000000E+00  0.26238413458E+03  0.29063836989E+03  0.12500091190E+03 0.  0.
    9000005    1    3    3    0    0  0.45900074738E+02  0.18243316375E+02  0.22020602180E+03  0.22567970110E+03  0.10000000000E+01 0.  0.
    9000005    1    3    3    0    0 -0.45900074738E+02 -0.18243316375E+02  0.42178112780E+02  0.64958668790E+02  0.10000000000E+01 0.  0.
<mgrwt>
<rscale>  0 0.12500091E+03</rscale>
<asrwt>0</asrwt>
<pdfrwt beam="1">  1        4 0.42540192E-01 0.12500091E+03</pdfrwt>
<pdfrwt beam="2">  1       -4 0.21734028E-02 0.12500091E+03</pdfrwt>
<totfact> 0.76786797E+03</totfact>
</mgrwt>
</event>
<event>
 5    1  0.3245943E-002  0.1250112E+03  0.7818608E-02  0.1235052E+00
         -4   -1    0    0    0  501 -0.00000000000E+00  0.00000000000E+00  0.35557707277E+02  0.35580380082E+02  0.12700000000E+01 0.  1.
          4   -1    0    0  501    0  0.00000000000E+00 -0.00000000000E+00 -0.10981491605E+03  0.10982225952E+03  0.12700000000E+01 0.  1.
         25    2    1    2    0    0  0.00000000000E+00  0.00000000000E+00 -0.74257208770E+02  0.14540263960E+03  0.12501117770E+03 0.  0.
    9000005    1    3    3    0    0  0.15185608268E+01 -0.62468343160E+02 -0.38479380114E+02  0.73391161717E+02  0.10000000000E+01 0.  0.
    9000005    1    3    3    0    0 -0.15185608268E+01  0.62468343160E+02 -0.35777828656E+02  0.72011477887E+02  0.10000000000E+01 0.  0.
<mgrwt>
<rscale>  0 0.12501118E+03</rscale>
<asrwt>0</asrwt>
<pdfrwt beam="2">  1        4 0.16896911E-01 0.12501118E+03</pdfrwt>
<pdfrwt beam="1">  1       -4 0.54727255E-02 0.12501118E+03</pdfrwt>
<totfact> 0.10020292E+04</totfact>
</mgrwt>
</event>
<event>
 5    1  0.3245943E-002  0.1250022E+03  0.7818608E-02  0.1235066E+00
         -4   -1    0    0    0  501 -0.00000000000E+00  0.00000000000E+00  0.76287254549E+01  0.77337152822E+01  0.12700000000E+01 0. -1.
          4   -1    0    0  501    0  0.00000000000E+00 -0.00000000000E+00 -0.50845732895E+03  0.50845891502E+03  0.12700000000E+01 0. -1.
         25    2    1    2    0    0  0.00000000000E+00  0.00000000000E+00 -0.50082860350E+03  0.51619263030E+03  0.12500216598E+03 0.  0.
    9000005    1    3    3    0    0 -0.61838522053E+02  0.62990672791E+01 -0.22374665057E+03  0.23222240353E+03  0.10000000000E+01 0.  0.
    9000005    1    3    3    0    0  0.61838522053E+02 -0.62990672791E+01 -0.27708195292E+03  0.28397022677E+03  0.10000000000E+01 0.  0.
<mgrwt>
<rscale>  0 0.12500217E+03</rscale>
<asrwt>0</asrwt>
<pdfrwt beam="2">  1        4 0.78232376E-01 0.12500217E+03</pdfrwt>
<pdfrwt beam="1">  1       -4 0.11818486E-02 0.12500217E+03</pdfrwt>
<totfact> 0.54626958E+03</totfact>
</mgrwt>
</event>
<event>
 5    1  0.3245943E-002  0.1249966E+03  0.7818608E-02  0.1235075E+00
          4   -1    0    0  501    0  0.00000000000E+00  0.00000000000E+00  0.35234463732E+02  0.35257344405E+02  0.12700000000E+01 0. -1.
         -4   -1    0    0    0  501 -0.00000000000E+00 -0.00000000000E+00 -0.11079588799E+03  0.11080316645E+03  0.12700000000E+01 0. -1.
         25    2    1    2    0    0  0.00000000000E+00  0.00000000000E+00 -0.75561424262E+02  0.14606051086E+03  0.12499657594E+03 0.  0.
    9000005    1    3    3    0    0 -0.32217417758E+02 -0.31961155734E+02 -0.87980121650E+02  0.98999895396E+02  0.10000000000E+01 0.  0.
    9000005    1    3    3    0    0  0.32217417758E+02  0.31961155734E+02  0.12418697389E+02  0.47060615462E+02  0.10000000000E+01 0.  0.
<mgrwt>
<rscale>  0 0.12499658E+03</rscale>
<asrwt>0</asrwt>
<pdfrwt beam="1">  1        4 0.54230067E-02 0.12499658E+03</pdfrwt>
<pdfrwt beam="2">  1       -4 0.17047841E-01 0.12499658E+03</pdfrwt>
<totfact> 0.10010257E+04</totfact>
</mgrwt>
</event>
<event>
 5    1  0.3245943E-002  0.1249922E+03  0.7818608E-02  0.1235082E+00
          4   -1    0    0  501    0  0.00000000000E+00  0.00000000000E+00  0.10641623138E+04  0.10641630716E+04  0.12700000000E+01 0.  1.
         -4   -1    0    0    0  501 -0.00000000000E+00 -0.00000000000E+00 -0.35596238564E+01  0.37793943958E+01  0.12700000000E+01 0.  1.
         25    2    1    2    0    0  0.00000000000E+00  0.00000000000E+00  0.10606026899E+04  0.10679424660E+04  0.12499217902E+03 0.  0.
    9000005    1    3    3    0    0  0.56323507612E+02 -0.26672608830E+02  0.49115154920E+03  0.49509050673E+03  0.10000000000E+01 0.  0.
    9000005    1    3    3    0    0 -0.56323507612E+02  0.26672608830E+02  0.56945114075E+03  0.57285195930E+03  0.10000000000E+01 0.  0.
<mgrwt>
<rscale>  0 0.12499218E+03</rscale>
<asrwt>0</asrwt>
<pdfrwt beam="1">  1        4 0.16373400E+00 0.12499218E+03</pdfrwt>
<pdfrwt beam="2">  1       -4 0.56459899E-03 0.12499218E+03</pdfrwt>
<totfact> 0.28445985E+03</totfact>
</mgrwt>
</event>
<event>
 5    1  0.3245943E-002  0.1249976E+03  0.7818608E-02  0.1235073E+00
          4   -1    0    0  501    0  0.00000000000E+00  0.00000000000E+00  0.24542832074E+02  0.24575668988E+02  0.12700000000E+01 0. -1.
         -4   -1    0    0    0  501 -0.00000000000E+00 -0.00000000000E+00 -0.15901253822E+03  0.15901760975E+03  0.12700000000E+01 0. -1.
         25    2    1    2    0    0  0.00000000000E+00  0.00000000000E+00 -0.13446970614E+03  0.18359327874E+03  0.12499756048E+03 0.  0.
    9000005    1    3    3    0    0 -0.27413036141E+02 -0.49987982674E+02 -0.29649578807E+02  0.64267958469E+02  0.10000000000E+01 0.  0.
    9000005    1    3    3    0    0  0.27413036141E+02  0.49987982674E+02 -0.10482012733E+03  0.11932532027E+03  0.10000000000E+01 0.  0.
<mgrwt>
<rscale>  0 0.12499756E+03</rscale>
<asrwt>0</asrwt>
<pdfrwt beam="1">  1        4 0.37787365E-02 0.12499756E+03</pdfrwt>
<pdfrwt beam="2">  1       -4 0.24466383E-01 0.12499756E+03</pdfrwt>
<totfact> 0.92979255E+03</totfact>
</mgrwt>
</event>
<event>
 5    1  0.3245943E-002  0.1249983E+03  0.7818608E-02  0.1235072E+00
         -4   -1    0    0    0  501 -0.00000000000E+00  0.00000000000E+00  0.18565047706E+03  0.18565482092E+03  0.12700000000E+01 0. -1.
          4   -1    0    0  501    0  0.00000000000E+00 -0.00000000000E+00 -0.21016536140E+02  0.21054873339E+02  0.12700000000E+01 0. -1.
         25    2    1    2    0    0  0.00000000000E+00  0.00000000000E+00  0.16463394092E+03  0.20670969426E+03  0.12499825279E+03 0.  0.
    9000005    1    3    3    0    0 -0.53997409601E+02 -0.31409171973E+02  0.79508369175E+02  0.10111793657E+03  0.10000000000E+01 0.  0.
    9000005    1    3    3    0    0  0.53997409601E+02  0.31409171973E+02  0.85125571745E+02  0.10559175769E+03  0.10000000000E+01 0.  0.
<mgrwt>
<rscale>  0 0.12499825E+03</rscale>
<asrwt>0</asrwt>
<pdfrwt beam="2">  1        4 0.32365965E-02 0.12499825E+03</pdfrwt>
<pdfrwt beam="1">  1       -4 0.28564894E-01 0.12499825E+03</pdfrwt>
<totfact> 0.89019544E+03</totfact>
</mgrwt>
</event>
<event>
 5    1  0.3245943E-002  0.1250011E+03  0.7818608E-02  0.1235067E+00
         -4   -1    0    0    0  501 -0.00000000000E+00  0.00000000000E+00  0.20144036818E+03  0.20144437156E+03  0.12700000000E+01 0.  1.
          4   -1    0    0  501    0  0.00000000000E+00 -0.00000000000E+00 -0.19366954668E+02  0.19408550516E+02  0.12700000000E+01 0.  1.
         25    2    1    2    0    0  0.00000000000E+00  0.00000000000E+00  0.18207341351E+03  0.22085292207E+03  0.12500114112E+03 0.  0.
    9000005    1    3    3    0    0 -0.26797396657E+02  0.55846684917E+02  0.10564561063E+03  0.12247019118E+03  0.10000000000E+01 0.  0.
    9000005    1    3    3    0    0  0.26797396657E+02 -0.55846684917E+02  0.76427802885E+02  0.98382730891E+02  0.10000000000E+01 0.  0.
<mgrwt>
<rscale>  0 0.12500114E+03</rscale>
<asrwt>0</asrwt>
<pdfrwt beam="2">  1        4 0.29830392E-02 0.12500114E+03</pdfrwt>
<pdfrwt beam="1">  1       -4 0.30994333E-01 0.12500114E+03</pdfrwt>
<totfact> 0.86731355E+03</totfact>
</mgrwt>
</event>
<event>
 5    1  0.3245943E-002  0.1249988E+03  0.7818608E-02  0.1235071E+00
          4   -1    0    0  501    0  0.00000000000E+00  0.00000000000E+00  0.22840499882E+03  0.22840852958E+03  0.12700000000E+01 0.  1.
         -4   -1    0    0    0  501 -0.00000000000E+00 -0.00000000000E+00 -0.17074726197E+02  0.17121891680E+02  0.12700000000E+01 0.  1.
         25    2    1    2    0    0  0.00000000000E+00  0.00000000000E+00  0.21133027262E+03  0.24553042126E+03  0.12499881455E+03 0.  0.
    9000005    1    3    3    0    0 -0.50080748935E+02  0.26744955492E+02  0.54375631890E+02  0.78619866456E+02  0.10000000000E+01 0.  0.
    9000005    1    3    3    0    0  0.50080748935E+02 -0.26744955492E+02  0.15695464073E+03  0.16691055481E+03  0.10000000000E+01 0.  0.
<mgrwt>
<rscale>  0 0.12499881E+03</rscale>
<asrwt>0</asrwt>
<pdfrwt beam="1">  1        4 0.35143130E-01 0.12499881E+03</pdfrwt>
<pdfrwt beam="2">  1       -4 0.26307807E-02 0.12499881E+03</pdfrwt>
<totfact> 0.82982734E+03</totfact>
</mgrwt>
</event>
<event>
 5    1  0.3245943E-002  0.1249934E+03  0.7818608E-02  0.1235080E+00
          4   -1    0    0  501    0  0.00000000000E+00  0.00000000000E+00  0.20749683098E+03  0.20750071750E+03  0.12700000000E+01 0. -1.
         -4   -1    0    0    0  501 -0.00000000000E+00 -0.00000000000E+00 -0.18798113143E+02  0.18840964884E+02  0.12700000000E+01 0. -1.
         25    2    1    2    0    0  0.00000000000E+00  0.00000000000E+00  0.18869871783E+03  0.22634168239E+03  0.12499340413E+03 0.  0.
    9000005    1    3    3    0    0 -0.12620276739E+02 -0.44682507242E+02  0.18617728656E+02  0.50034164915E+02  0.10000000000E+01 0.  0.
    9000005    1    3    3    0    0  0.12620276739E+02  0.44682507242E+02  0.17008098918E+03  0.17630751747E+03  0.10000000000E+01 0.  0.
<mgrwt>
<rscale>  0 0.12499340E+03</rscale>
<asrwt>0</asrwt>
<pdfrwt beam="1">  1        4 0.31926183E-01 0.12499340E+03</pdfrwt>
<pdfrwt beam="2">  1       -4 0.28956128E-02 0.12499340E+03</pdfrwt>
<totfact> 0.85887163E+03</totfact>
</mgrwt>
</event>
<event>
 5    1  0.3245943E-002  0.1249986E+03  0.7818608E-02  0.1235071E+00
         -4   -1    0    0    0  501 -0.00000000000E+00  0.00000000000E+00  0.98727762293E+02  0.98735930377E+02  0.12700000000E+01 0. -1.
          4   -1    0    0  501    0  0.00000000000E+00 -0.00000000000E+00 -0.39545009020E+02  0.39565396982E+02  0.12700000000E+01 0. -1.
         25    2    1    2    0    0  0.00000000000E+00  0.00000000000E+00  0.59182753273E+02  0.13830132736E+03  0.12499863545E+03 0.  0.
    9000005    1    3    3    0    0 -0.28432830818E+02  0.75041548240E+01  0.90599593459E+02  0.95257674456E+02  0.10000000000E+01 0.  0.
    9000005    1    3    3    0    0  0.28432830818E+02 -0.75041548240E+01 -0.31416840186E+02  0.43043652903E+02  0.10000000000E+01 0.  0.
<mgrwt>
<rscale>  0 0.12499864E+03</rscale>
<asrwt>0</asrwt>
<pdfrwt beam="2">  1        4 0.60860442E-02 0.12499864E+03</pdfrwt>
<pdfrwt beam="1">  1       -4 0.15191083E-01 0.12499864E+03</pdfrwt>
<totfact> 0.10169226E+04</totfact>
</mgrwt>
</event>
<event>
 5    1  0.3245943E-002  0.1250008E+03  0.7818608E-02  0.1235068E+00
         -4   -1    0    0    0  501 -0.00000000000E+00  0.00000000000E+00  0.74848425506E+02  0.74859199172E+02  0.12700000000E+01 0.  1.
          4   -1    0    0  501    0  0.00000000000E+00 -0.00000000000E+00 -0.52167210424E+02  0.52182667079E+02  0.12700000000E+01 0.  1.
         25    2    1    2    0    0  0.00000000000E+00  0.00000000000E+00  0.22681215081E+02  0.12704186625E+03  0.12500079305E+03 0.  0.
    9000005    1    3    3    0    0  0.13692772158E+02 -0.38183706698E+02 -0.36973088356E+02  0.54895325203E+02  0.10000000000E+01 0.  0.
    9000005    1    3    3    0    0 -0.13692772158E+02  0.38183706698E+02  0.59654303437E+02  0.72146541048E+02  0.10000000000E+01 0.  0.
<mgrwt>
<rscale>  0 0.12500079E+03</rscale>
<asrwt>0</asrwt>
<pdfrwt beam="2">  1        4 0.80277423E-02 0.12500079E+03</pdfrwt>
<pdfrwt beam="1">  1       -4 0.11517160E-01 0.12500079E+03</pdfrwt>
<totfact> 0.10408050E+04</totfact>
</mgrwt>
</event>
<event>
 5    1  0.3245943E-002  0.1250084E+03  0.7818608E-02  0.1235056E+00
          4   -1    0    0  501    0  0.00000000000E+00  0.00000000000E+00  0.38825960772E+02  0.38846726115E+02  0.12700000000E+01 0.  1.
         -4   -1    0    0    0  501 -0.00000000000E+00 -0.00000000000E+00 -0.10057114658E+03  0.10057916496E+03  0.12700000000E+01 0.  1.
         25    2    1    2    0    0  0.00000000000E+00  0.00000000000E+00 -0.61745185807E+02  0.13942589108E+03  0.12500844424E+03 0.  0.
    9000005    1    3    3    0    0 -0.38437340888E+02  0.46981741544E+02 -0.47455613884E+02  0.77056787515E+02  0.10000000000E+01 0.  0.
    9000005    1    3    3    0    0  0.38437340888E+02 -0.46981741544E+02 -0.14289571923E+02  0.62369103560E+02  0.10000000000E+01 0.  0.
<mgrwt>
<rscale>  0 0.12500844E+03</rscale>
<asrwt>0</asrwt>
<pdfrwt beam="1">  1        4 0.59754389E-02 0.12500844E+03</pdfrwt>
<pdfrwt beam="2">  1       -4 0.15474698E-01 0.12500844E+03</pdfrwt>
<totfact> 0.10143568E+04</totfact>
</mgrwt>
</event>
<event>
 5    1  0.3245943E-002  0.1250001E+03  0.7818608E-02  0.1235069E+00
          4   -1    0    0  501    0  0.00000000000E+00  0.00000000000E+00  0.29321053704E+02  0.29348544944E+02  0.12700000000E+01 0. -1.
         -4   -1    0    0    0  501 -0.00000000000E+00 -0.00000000000E+00 -0.13313057241E+03  0.13313662986E+03  0.12700000000E+01 0. -1.
         25    2    1    2    0    0  0.00000000000E+00  0.00000000000E+00 -0.10380951870E+03  0.16248517480E+03  0.12500006343E+03 0.  0.
    9000005    1    3    3    0    0 -0.32212444666E+02 -0.53287311891E+02 -0.45017260066E+02  0.76842259883E+02  0.10000000000E+01 0.  0.
    9000005    1    3    3    0    0  0.32212444666E+02  0.53287311891E+02 -0.58792258637E+02  0.85642914918E+02  0.10000000000E+01 0.  0.
<mgrwt>
<rscale>  0 0.12500006E+03</rscale>
<asrwt>0</asrwt>
<pdfrwt beam="1">  1        4 0.45135121E-02 0.12500006E+03</pdfrwt>
<pdfrwt beam="2">  1       -4 0.20484207E-01 0.12500006E+03</pdfrwt>
<totfact> 0.96865653E+03</totfact>
</mgrwt>
</event>
<event>
 5    1  0.3245943E-002  0.1249971E+03  0.7818608E-02  0.1235074E+00
          4   -1    0    0  501    0  0.00000000000E+00  0.00000000000E+00  0.10294181385E+03  0.10294964759E+03  0.12700000000E+01 0. -1.
         -4   -1    0    0    0  501 -0.00000000000E+00 -0.00000000000E+00 -0.37924516407E+02  0.37945775058E+02  0.12700000000E+01 0. -1.
         25    2    1    2    0    0  0.00000000000E+00  0.00000000000E+00  0.65017297444E+02  0.14089542265E+03  0.12499708459E+03 0.  0.
    9000005    1    3    3    0    0  0.59088735520E+01 -0.56734803065E+02  0.37417806409E+01  0.57173014507E+02  0.10000000000E+01 0.  0.
    9000005    1    3    3    0    0 -0.59088735520E+01  0.56734803065E+02  0.61275516803E+02  0.83722408141E+02  0.10000000000E+01 0.  0.
<mgrwt>
<rscale>  0 0.12499708E+03</rscale>
<asrwt>0</asrwt>
<pdfrwt beam="1">  1        4 0.15839440E-01 0.12499708E+03</pdfrwt>
<pdfrwt beam="2">  1       -4 0.58367789E-02 0.12499708E+03</pdfrwt>
<totfact> 0.10115726E+04</totfact>
</mgrwt>
</event>
<event>
 5    1  0.3245943E-002  0.1249960E+03  0.7818608E-02  0.1235076E+00
          4   -1    0    0  501    0  0.00000000000E+00  0.00000000000E+00  0.34274047153E+02  0.34297568547E+02  0.12700000000E+01 0.  1.
         -4   -1    0    0    0  501 -0.00000000000E+00 -0.00000000000E+00 -0.11389755224E+03  0.11390463251E+03  0.12700000000E+01 0.  1.
         25    2    1    2    0    0  0.00000000000E+00  0.00000000000E+00 -0.79623505089E+02  0.14820220105E+03  0.12499595927E+03 0.  0.
    9000005    1    3    3    0    0 -0.55332834250E+02  0.28788810683E+02 -0.35300134318E+02  0.71677176629E+02  0.10000000000E+01 0.  0.
    9000005    1    3    3    0    0  0.55332834250E+02 -0.28788810683E+02 -0.44323370771E+02  0.76525024424E+02  0.10000000000E+01 0.  0.
<mgrwt>
<rscale>  0 0.12499596E+03</rscale>
<asrwt>0</asrwt>
<pdfrwt beam="1">  1        4 0.52752844E-02 0.12499596E+03</pdfrwt>
<pdfrwt beam="2">  1       -4 0.17525054E-01 0.12499596E+03</pdfrwt>
<totfact> 0.99672342E+03</totfact>
</mgrwt>
</event>
<event>
 5    1  0.3245943E-002  0.1250000E+03  0.7818608E-02  0.1235069E+00
          4   -1    0    0  501    0  0.00000000000E+00  0.00000000000E+00  0.64746281497E+03  0.64746406052E+03  0.12700000000E+01 0. -1.
         -4   -1    0    0    0  501 -0.00000000000E+00 -0.00000000000E+00 -0.59650675634E+01  0.60987647140E+01  0.12700000000E+01 0. -1.
         25    2    1    2    0    0  0.00000000000E+00  0.00000000000E+00  0.64149774740E+03  0.65356282523E+03  0.12500002642E+03 0.  0.
    9000005    1    3    3    0    0 -0.42281613988E+02  0.30402191678E+02  0.14014039369E+03  0.14950705028E+03  0.10000000000E+01 0.  0.
    9000005    1    3    3    0    0  0.42281613988E+02 -0.30402191678E+02  0.50135735371E+03  0.50405577495E+03  0.10000000000E+01 0.  0.
<mgrwt>
<rscale>  0 0.12500003E+03</rscale>
<asrwt>0</asrwt>
<pdfrwt beam="1">  1        4 0.99619992E-01 0.12500003E+03</pdfrwt>
<pdfrwt beam="2">  1       -4 0.92808340E-03 0.12500003E+03</pdfrwt>
<totfact> 0.45651962E+03</totfact>
</mgrwt>
</event>
<event>
 5    1  0.3245943E-002  0.1250021E+03  0.7818608E-02  0.1235066E+00
         -4   -1    0    0    0  501 -0.00000000000E+00  0.00000000000E+00  0.70432709915E+02  0.70444158920E+02  0.12700000000E+01 0. -1.
          4   -1    0    0  501    0  0.00000000000E+00 -0.00000000000E+00 -0.55439332546E+02  0.55453877170E+02  0.12700000000E+01 0. -1.
         25    2    1    2    0    0  0.00000000000E+00  0.00000000000E+00  0.14993377369E+02  0.12589803609E+03  0.12500205649E+03 0.  0.
    9000005    1    3    3    0    0 -0.31870754317E+02  0.45361970168E+02 -0.21553164442E+02  0.59489429445E+02  0.10000000000E+01 0.  0.
    9000005    1    3    3    0    0  0.31870754317E+02 -0.45361970168E+02  0.36546541810E+02  0.66408606645E+02  0.10000000000E+01 0.  0.
<mgrwt>
<rscale>  0 0.12500206E+03</rscale>
<asrwt>0</asrwt>
<pdfrwt beam="2">  1        4 0.85311276E-02 0.12500206E+03</pdfrwt>
<pdfrwt beam="1">  1       -4 0.10837801E-01 0.12500206E+03</pdfrwt>
<totfact> 0.10432709E+04</totfact>
</mgrwt>
</event>
<event>
 5    1  0.3245943E-002  0.1249983E+03  0.7818608E-02  0.1235072E+00
          4   -1    0    0  501    0  0.00000000000E+00  0.00000000000E+00  0.88347363901E+01  0.89255513602E+01  0.12700000000E+01 0. -1.
         -4   -1    0    0    0  501 -0.00000000000E+00 -0.00000000000E+00 -0.43978195795E+03  0.43978379169E+03  0.12700000000E+01 0. -1.
         25    2    1    2    0    0  0.00000000000E+00  0.00000000000E+00 -0.43094722156E+03  0.44870934305E+03  0.12499826709E+03 0.  0.
    9000005    1    3    3    0    0 -0.44723414953E+02  0.32661713656E+02 -0.31940033937E+03  0.32416746933E+03  0.10000000000E+01 0.  0.
    9000005    1    3    3    0    0  0.44723414953E+02 -0.32661713656E+02 -0.11154688219E+03  0.12454187372E+03  0.10000000000E+01 0.  0.
<mgrwt>
<rscale>  0 0.12499827E+03</rscale>
<asrwt>0</asrwt>
<pdfrwt beam="1">  1        4 0.13663174E-02 0.12499827E+03</pdfrwt>
<pdfrwt beam="2">  1       -4 0.67665873E-01 0.12499827E+03</pdfrwt>
<totfact> 0.60078068E+03</totfact>
</mgrwt>
</event>
<event>
 5    1  0.3245943E-002  0.1250002E+03  0.7818608E-02  0.1235069E+00
         -4   -1    0    0    0  501 -0.00000000000E+00  0.00000000000E+00  0.11218250999E+03  0.11218969849E+03  0.12700000000E+01 0.  1.
          4   -1    0    0  501    0  0.00000000000E+00 -0.00000000000E+00 -0.34800737974E+02  0.34823903623E+02  0.12700000000E+01 0.  1.
         25    2    1    2    0    0  0.00000000000E+00  0.00000000000E+00  0.77381772013E+02  0.14701360211E+03  0.12500024226E+03 0.  0.
    9000005    1    3    3    0    0  0.54744036989E+02 -0.19296219345E+01  0.33170087358E+01  0.54887481028E+02  0.10000000000E+01 0.  0.
    9000005    1    3    3    0    0 -0.54744036989E+02  0.19296219345E+01  0.74064763278E+02  0.92126121084E+02  0.10000000000E+01 0.  0.
<mgrwt>
<rscale>  0 0.12500024E+03</rscale>
<asrwt>0</asrwt>
<pdfrwt beam="2">  1        4 0.53562947E-02 0.12500024E+03</pdfrwt>
<pdfrwt beam="1">  1       -4 0.17261182E-01 0.12500024E+03</pdfrwt>
<totfact> 0.99901813E+03</totfact>
</mgrwt>
</event>
<event>
 5    1  0.3245943E-002  0.1250173E+03  0.7818608E-02  0.1235042E+00
         -4   -1    0    0    0  501 -0.00000000000E+00  0.00000000000E+00  0.33373888126E+02  0.33398043485E+02  0.12700000000E+01 0. -1.
          4   -1    0    0  501    0  0.00000000000E+00 -0.00000000000E+00 -0.11700754081E+03  0.11701443290E+03  0.12700000000E+01 0. -1.
         25    2    1    2    0    0  0.00000000000E+00  0.00000000000E+00 -0.83633652685E+02  0.15041247638E+03  0.12501729956E+03 0.  0.
    9000005    1    3    3    0    0  0.20628217857E+02 -0.39008312268E+02 -0.95070386260E+02  0.10481674552E+03  0.10000000000E+01 0.  0.
    9000005    1    3    3    0    0 -0.20628217857E+02  0.39008312268E+02  0.11436733575E+02  0.45595730862E+02  0.10000000000E+01 0.  0.
<mgrwt>
<rscale>  0 0.12501730E+03</rscale>
<asrwt>0</asrwt>
<pdfrwt beam="2">  1        4 0.18003548E-01 0.12501730E+03</pdfrwt>
<pdfrwt beam="1">  1       -4 0.51368327E-02 0.12501730E+03</pdfrwt>
<totfact> 0.99182922E+03</totfact>
</mgrwt>
</event>
<event>
 5    1  0.3245943E-002  0.1250036E+03  0.7818608E-02  0.1235064E+00
          4   -1    0    0  501    0  0.00000000000E+00  0.00000000000E+00  0.17766495654E+04  0.17766500193E+04  0.12700000000E+01 0.  1.
         -4   -1    0    0    0  501 -0.00000000000E+00 -0.00000000000E+00 -0.20149091912E+01  0.23817554553E+01  0.12700000000E+01 0.  1.
         25    2    1    2    0    0  0.00000000000E+00  0.00000000000E+00  0.17746346562E+04  0.17790317747E+04  0.12500357046E+03 0.  0.
    9000005    1    3    3    0    0  0.72591952360E+00  0.62476902899E+02  0.86941231586E+03  0.87165512981E+03  0.10000000000E+01 0.  0.
    9000005    1    3    3    0    0 -0.72591952360E+00 -0.62476902899E+02  0.90522234031E+03  0.90737664492E+03  0.10000000000E+01 0.  0.
<mgrwt>
<rscale>  0 0.12500357E+03</rscale>
<asrwt>0</asrwt>
<pdfrwt beam="1">  1        4 0.27335905E+00 0.12500357E+03</pdfrwt>
<pdfrwt beam="2">  1       -4 0.33823977E-03 0.12500357E+03</pdfrwt>
<totfact> 0.13028289E+03</totfact>
</mgrwt>
</event>
<event>
 5    1  0.3245943E-002  0.1250009E+03  0.7818608E-02  0.1235068E+00
          4   -1    0    0  501    0  0.00000000000E+00  0.00000000000E+00  0.24798525978E+03  0.24798851177E+03  0.12700000000E+01 0.  1.
         -4   -1    0    0    0  501 -0.00000000000E+00 -0.00000000000E+00 -0.15723220526E+02  0.15774427524E+02  0.12700000000E+01 0.  1.
         25    2    1    2    0    0  0.00000000000E+00  0.00000000000E+00  0.23226203926E+03  0.26376293929E+03  0.12500093306E+03 0.  0.
    9000005    1    3    3    0    0  0.11934706270E+02 -0.18873155482E+02  0.23928994121E+03  0.24033166495E+03  0.10000000000E+01 0.  0.
    9000005    1    3    3    0    0 -0.11934706270E+02  0.18873155482E+02 -0.70279019544E+01  0.23431274346E+02  0.10000000000E+01 0.  0.
<mgrwt>
<rscale>  0 0.12500093E+03</rscale>
<asrwt>0</asrwt>
<pdfrwt beam="1">  1        4 0.38155763E-01 0.12500093E+03</pdfrwt>
<pdfrwt beam="2">  1       -4 0.24231464E-02 0.12500093E+03</pdfrwt>
<totfact> 0.80379202E+03</totfact>
</mgrwt>
</event>
<event>
 5    1  0.3245943E-002  0.1250041E+03  0.7818608E-02  0.1235063E+00
         -4   -1    0    0    0  501 -0.00000000000E+00  0.00000000000E+00  0.17112867565E+02  0.17159928214E+02  0.12700000000E+01 0.  1.
          4   -1    0    0  501    0  0.00000000000E+00 -0.00000000000E+00 -0.22791665060E+03  0.22792018892E+03  0.12700000000E+01 0.  1.
         25    2    1    2    0    0  0.00000000000E+00  0.00000000000E+00 -0.21080378303E+03  0.24508011714E+03  0.12500411544E+03 0.  0.
    9000005    1    3    3    0    0 -0.23009131579E+02  0.54965651900E+02 -0.14233491469E+03  0.15430771518E+03  0.10000000000E+01 0.  0.
    9000005    1    3    3    0    0  0.23009131579E+02 -0.54965651900E+02 -0.68468868338E+02  0.90772401953E+02  0.10000000000E+01 0.  0.
<mgrwt>
<rscale>  0 0.12500412E+03</rscale>
<asrwt>0</asrwt>
<pdfrwt beam="2">  1        4 0.35067990E-01 0.12500412E+03</pdfrwt>
<pdfrwt beam="1">  1       -4 0.26366413E-02 0.12500412E+03</pdfrwt>
<totfact> 0.83038929E+03</totfact>
</mgrwt>
</event>
<event>
 5    1  0.3245943E-002  0.1250116E+03  0.7818608E-02  0.1235051E+00
         -4   -1    0    0    0  501 -0.00000000000E+00  0.00000000000E+00  0.11413539621E+03  0.11414246173E+03  0.12700000000E+01 0.  1.
          4   -1    0    0  501    0  0.00000000000E+00 -0.00000000000E+00 -0.34211125409E+02  0.34234690034E+02  0.12700000000E+01 0.  1.
         25    2    1    2    0    0  0.00000000000E+00  0.00000000000E+00  0.79924270804E+02  0.14837715176E+03  0.12501155987E+03 0.  0.
    9000005    1    3    3    0    0  0.50286867580E+02  0.92766654908E+01  0.82610726914E+02  0.97161503565E+02  0.10000000000E+01 0.  0.
    9000005    1    3    3    0    0 -0.50286867580E+02 -0.92766654908E+01 -0.26864561099E+01  0.51215648195E+02  0.10000000000E+01 0.  0.
<mgrwt>
<rscale>  0 0.12501156E+03</rscale>
<asrwt>0</asrwt>
<pdfrwt beam="2">  1        4 0.52656063E-02 0.12501156E+03</pdfrwt>
<pdfrwt beam="1">  1       -4 0.17561648E-01 0.12501156E+03</pdfrwt>
<totfact> 0.99602257E+03</totfact>
</mgrwt>
</event>
<event>
 5    1  0.3245943E-002  0.1250033E+03  0.7818608E-02  0.1235064E+00
          4   -1    0    0  501    0  0.00000000000E+00  0.00000000000E+00  0.14206139438E+02  0.14262794177E+02  0.12700000000E+01 0.  1.
         -4   -1    0    0    0  501 -0.00000000000E+00 -0.00000000000E+00 -0.27437830663E+03  0.27438124581E+03  0.12700000000E+01 0.  1.
         25    2    1    2    0    0  0.00000000000E+00  0.00000000000E+00 -0.26017216720E+03  0.28864403999E+03  0.12500330090E+03 0.  0.
    9000005    1    3    3    0    0  0.36962904088E+02  0.50349465977E+02 -0.13477945369E+03  0.14855243566E+03  0.10000000000E+01 0.  0.
    9000005    1    3    3    0    0 -0.36962904088E+02 -0.50349465977E+02 -0.12539271350E+03  0.14009160433E+03  0.10000000000E+01 0.  0.
<mgrwt>
<rscale>  0 0.12500330E+03</rscale>
<asrwt>0</asrwt>
<pdfrwt beam="1">  1        4 0.21901443E-02 0.12500330E+03</pdfrwt>
<pdfrwt beam="2">  1       -4 0.42216628E-01 0.12500330E+03</pdfrwt>
<totfact> 0.77040105E+03</totfact>
</mgrwt>
</event>
<event>
 5    1  0.3245943E-002  0.1249961E+03  0.7818608E-02  0.1235075E+00
          4   -1    0    0  501    0  0.00000000000E+00  0.00000000000E+00  0.77557031668E+01  0.78589968579E+01  0.12700000000E+01 0. -1.
         -4   -1    0    0    0  501 -0.00000000000E+00 -0.00000000000E+00 -0.50019473551E+03  0.50019634778E+03  0.12700000000E+01 0. -1.
         25    2    1    2    0    0  0.00000000000E+00  0.00000000000E+00 -0.49243903234E+03  0.50805534463E+03  0.12499613050E+03 0.  0.
    9000005    1    3    3    0    0 -0.47163578771E+02 -0.31078768104E+02 -0.13755670010E+03  0.14870487124E+03  0.10000000000E+01 0.  0.
    9000005    1    3    3    0    0  0.47163578771E+02  0.31078768104E+02 -0.35488233224E+03  0.35935047339E+03  0.10000000000E+01 0.  0.
<mgrwt>
<rscale>  0 0.12499613E+03</rscale>
<asrwt>0</asrwt>
<pdfrwt beam="1">  1        4 0.12012552E-02 0.12499613E+03</pdfrwt>
<pdfrwt beam="2">  1       -4 0.76961081E-01 0.12499613E+03</pdfrwt>
<totfact> 0.55249453E+03</totfact>
</mgrwt>
</event>
<event>
 5    1  0.3245943E-002  0.1249960E+03  0.7818608E-02  0.1235076E+00
         -4   -1    0    0    0  501 -0.00000000000E+00  0.00000000000E+00  0.40090588278E+01  0.42054075527E+01  0.12700000000E+01 0. -1.
          4   -1    0    0  501    0  0.00000000000E+00 -0.00000000000E+00 -0.95080768051E+03  0.95080852868E+03  0.12700000000E+01 0. -1.
         25    2    1    2    0    0  0.00000000000E+00  0.00000000000E+00 -0.94679862168E+03  0.95501393623E+03  0.12499595348E+03 0.  0.
    9000005    1    3    3    0    0  0.32392341954E+02  0.89934557830E+01 -0.87586938332E+03  0.87651487307E+03  0.10000000000E+01 0.  0.
    9000005    1    3    3    0    0 -0.32392341954E+02 -0.89934557830E+01 -0.70929238355E+02  0.78499063165E+02  0.10000000000E+01 0.  0.
<mgrwt>
<rscale>  0 0.12499595E+03</rscale>
<asrwt>0</asrwt>
<pdfrwt beam="2">  1        4 0.14629310E+00 0.12499595E+03</pdfrwt>
<pdfrwt beam="1">  1       -4 0.63194803E-03 0.12499595E+03</pdfrwt>
<totfact> 0.32141497E+03</totfact>
</mgrwt>
</event>
<event>
 5    1  0.3245943E-002  0.1250027E+03  0.7818608E-02  0.1235065E+00
         -4   -1    0    0    0  501 -0.00000000000E+00  0.00000000000E+00  0.29717114588E+02  0.29744239769E+02  0.12700000000E+01 0.  1.
          4   -1    0    0  501    0  0.00000000000E+00 -0.00000000000E+00 -0.13136325876E+03  0.13136939770E+03  0.12700000000E+01 0.  1.
         25    2    1    2    0    0  0.00000000000E+00  0.00000000000E+00 -0.10164614418E+03  0.16111363747E+03  0.12500266219E+03 0.  0.
    9000005    1    3    3    0    0  0.74031241348E+01  0.53888843233E+02 -0.11168167090E+02  0.55538649859E+02  0.10000000000E+01 0.  0.
    9000005    1    3    3    0    0 -0.74031241348E+01 -0.53888843233E+02 -0.90477977086E+02  0.10557498761E+03  0.10000000000E+01 0.  0.
<mgrwt>
<rscale>  0 0.12500266E+03</rscale>
<asrwt>0</asrwt>
<pdfrwt beam="2">  1        4 0.20212291E-01 0.12500266E+03</pdfrwt>
<pdfrwt beam="1">  1       -4 0.45744226E-02 0.12500266E+03</pdfrwt>
<totfact> 0.97122702E+03</totfact>
</mgrwt>
</event>
<event>
 5    1  0.3245943E-002  0.1249957E+03  0.7818608E-02  0.1235076E+00
          4   -1    0    0  501    0  0.00000000000E+00  0.00000000000E+00  0.90123153119E+01  0.91013585405E+01  0.12700000000E+01 0. -1.
         -4   -1    0    0    0  501 -0.00000000000E+00 -0.00000000000E+00 -0.43118431390E+03  0.43118618421E+03  0.12700000000E+01 0. -1.
         25    2    1    2    0    0  0.00000000000E+00  0.00000000000E+00 -0.42217199859E+03  0.44028754275E+03  0.12499569556E+03 0.  0.
    9000005    1    3    3    0    0  0.26269782486E+02  0.41353792609E+02 -0.74447666094E+02  0.89127395462E+02  0.10000000000E+01 0.  0.
    9000005    1    3    3    0    0 -0.26269782486E+02 -0.41353792609E+02 -0.34772433249E+03  0.35116014729E+03  0.10000000000E+01 0.  0.
<mgrwt>
<rscale>  0 0.12499570E+03</rscale>
<asrwt>0</asrwt>
<pdfrwt beam="1">  1        4 0.13935037E-02 0.12499570E+03</pdfrwt>
<pdfrwt beam="2">  1       -4 0.66343025E-01 0.12499570E+03</pdfrwt>
<totfact> 0.60820208E+03</totfact>
</mgrwt>
</event>
<event>
 5    1  0.3245943E-002  0.1249998E+03  0.7818608E-02  0.1235070E+00
         -4   -1    0    0    0  501 -0.00000000000E+00  0.00000000000E+00  0.19917639532E+02  0.19958087697E+02  0.12700000000E+01 0. -1.
          4   -1    0    0  501    0  0.00000000000E+00 -0.00000000000E+00 -0.19587808111E+03  0.19588219817E+03  0.12700000000E+01 0. -1.
         25    2    1    2    0    0  0.00000000000E+00  0.00000000000E+00 -0.17596044158E+03  0.21584028587E+03  0.12499980801E+03 0.  0.
    9000005    1    3    3    0    0 -0.17186735020E+02 -0.29235546777E+02 -0.17861497405E+03  0.18180871819E+03  0.10000000000E+01 0.  0.
    9000005    1    3    3    0    0  0.17186735020E+02  0.29235546777E+02  0.26545324666E+01  0.34031567678E+02  0.10000000000E+01 0.  0.
<mgrwt>
<rscale>  0 0.12499981E+03</rscale>
<asrwt>0</asrwt>
<pdfrwt beam="2">  1        4 0.30138516E-01 0.12499981E+03</pdfrwt>
<pdfrwt beam="1">  1       -4 0.30676804E-02 0.12499981E+03</pdfrwt>
<totfact> 0.87531256E+03</totfact>
</mgrwt>
</event>
<event>
 5    1  0.3245943E-002  0.1249988E+03  0.7818608E-02  0.1235071E+00
          4   -1    0    0  501    0  0.00000000000E+00  0.00000000000E+00  0.26947046736E+03  0.26947346006E+03  0.12700000000E+01 0. -1.
         -4   -1    0    0    0  501 -0.00000000000E+00 -0.00000000000E+00 -0.14464850356E+02  0.14520495715E+02  0.12700000000E+01 0. -1.
         25    2    1    2    0    0  0.00000000000E+00  0.00000000000E+00  0.25500561700E+03  0.28399395578E+03  0.12499880886E+03 0.  0.
    9000005    1    3    3    0    0  0.24413380556E+02 -0.15156403891E+02  0.25358086533E+03  0.25520576990E+03  0.10000000000E+01 0.  0.
    9000005    1    3    3    0    0 -0.24413380556E+02  0.15156403891E+02  0.14247516779E+01  0.28788185883E+02  0.10000000000E+01 0.  0.
<mgrwt>
<rscale>  0 0.12499881E+03</rscale>
<asrwt>0</asrwt>
<pdfrwt beam="1">  1        4 0.41461502E-01 0.12499881E+03</pdfrwt>
<pdfrwt beam="2">  1       -4 0.22298724E-02 0.12499881E+03</pdfrwt>
<totfact> 0.77653556E+03</totfact>
</mgrwt>
</event>
<event>
 5    1  0.3245943E-002  0.1249976E+03  0.7818608E-02  0.1235073E+00
         -4   -1    0    0    0  501 -0.00000000000E+00  0.00000000000E+00  0.31167505110E+02  0.31193369084E+02  0.12700000000E+01 0.  1.
          4   -1    0    0  501    0  0.00000000000E+00 -0.00000000000E+00 -0.12524492300E+03  0.12525136181E+03  0.12700000000E+01 0.  1.
         25    2    1    2    0    0  0.00000000000E+00  0.00000000000E+00 -0.94077417887E+02  0.15644473090E+03  0.12499757306E+03 0.  0.
    9000005    1    3    3    0    0 -0.17334432095E+02  0.19819705732E+02 -0.11796924984E+03  0.12087616464E+03  0.10000000000E+01 0.  0.
    9000005    1    3    3    0    0  0.17334432095E+02 -0.19819705732E+02  0.23891831953E+02  0.35568566255E+02  0.10000000000E+01 0.  0.
<mgrwt>
<rscale>  0 0.12499757E+03</rscale>
<asrwt>0</asrwt>
<pdfrwt beam="2">  1        4 0.19270934E-01 0.12499757E+03</pdfrwt>
<pdfrwt beam="1">  1       -4 0.47974857E-02 0.12499757E+03</pdfrwt>
<totfact> 0.98037975E+03</totfact>
</mgrwt>
</event>
<event>
 5    1  0.3245943E-002  0.1250021E+03  0.7818608E-02  0.1235066E+00
          4   -1    0    0  501    0  0.00000000000E+00  0.00000000000E+00  0.44847954777E+03  0.44848134596E+03  0.12700000000E+01 0.  1.
         -4   -1    0    0    0  501 -0.00000000000E+00 -0.00000000000E+00 -0.86621542301E+01  0.87547596144E+01  0.12700000000E+01 0.  1.
         25    2    1    2    0    0  0.00000000000E+00  0.00000000000E+00  0.43981739354E+03  0.45723610557E+03  0.12500206628E+03 0.  0.
    9000005    1    3    3    0    0 -0.55570470409E+02  0.19214096667E+02  0.14247665564E+03  0.15413583651E+03  0.10000000000E+01 0.  0.
    9000005    1    3    3    0    0  0.55570470409E+02 -0.19214096667E+02  0.29734073790E+03  0.30310026906E+03  0.10000000000E+01 0.  0.
<mgrwt>
<rscale>  0 0.12500207E+03</rscale>
<asrwt>0</asrwt>
<pdfrwt beam="1">  1        4 0.69004141E-01 0.12500207E+03</pdfrwt>
<pdfrwt beam="2">  1       -4 0.13399004E-02 0.12500207E+03</pdfrwt>
<totfact> 0.59339302E+03</totfact>
</mgrwt>
</event>
<event>
 5    1  0.3245943E-002  0.1250015E+03  0.7818608E-02  0.1235067E+00
          4   -1    0    0  501    0  0.00000000000E+00  0.00000000000E+00  0.11589162949E+03  0.11589858793E+03  0.12700000000E+01 0. -1.
         -4   -1    0    0    0  501 -0.00000000000E+00 -0.00000000000E+00 -0.33686924754E+02  0.33710855809E+02  0.12700000000E+01 0. -1.
         25    2    1    2    0    0  0.00000000000E+00  0.00000000000E+00  0.82204704732E+02  0.14960944374E+03  0.12500148870E+03 0.  0.
    9000005    1    3    3    0    0 -0.16561570851E+02 -0.55987465250E+02  0.67770107420E+02  0.89457639998E+02  0.10000000000E+01 0.  0.
    9000005    1    3    3    0    0  0.16561570851E+02  0.55987465250E+02  0.14434597311E+02  0.60151803745E+02  0.10000000000E+01 0.  0.
<mgrwt>
<rscale>  0 0.12500149E+03</rscale>
<asrwt>0</asrwt>
<pdfrwt beam="1">  1        4 0.17831858E-01 0.12500149E+03</pdfrwt>
<pdfrwt beam="2">  1       -4 0.51849798E-02 0.12500149E+03</pdfrwt>
<totfact> 0.99378276E+03</totfact>
</mgrwt>
</event>
<event>
 5    1  0.3245943E-002  0.1249969E+03  0.7818608E-02  0.1235074E+00
         -4   -1    0    0    0  501 -0.00000000000E+00  0.00000000000E+00  0.15251279445E+03  0.15251808211E+03  0.12700000000E+01 0. -1.
          4   -1    0    0  501    0  0.00000000000E+00 -0.00000000000E+00 -0.25589854773E+02  0.25621349834E+02  0.12700000000E+01 0. -1.
         25    2    1    2    0    0  0.00000000000E+00  0.00000000000E+00  0.12692293967E+03  0.17813943194E+03  0.12499689835E+03 0.  0.
    9000005    1    3    3    0    0 -0.32168234858E+02 -0.40595557869E+02  0.11328596327E+03  0.12456927441E+03  0.10000000000E+01 0.  0.
    9000005    1    3    3    0    0  0.32168234858E+02  0.40595557869E+02  0.13636976400E+02  0.53570157531E+02  0.10000000000E+01 0.  0.
<mgrwt>
<rscale>  0 0.12499690E+03</rscale>
<asrwt>0</asrwt>
<pdfrwt beam="2">  1        4 0.39397302E-02 0.12499690E+03</pdfrwt>
<pdfrwt beam="1">  1       -4 0.23466336E-01 0.12499690E+03</pdfrwt>
<totfact> 0.93959523E+03</totfact>
</mgrwt>
</event>
<event>
 5    1  0.3245943E-002  0.1249991E+03  0.7818608E-02  0.1235071E+00
         -4   -1    0    0    0  501 -0.00000000000E+00  0.00000000000E+00  0.18072582798E+03  0.18073029021E+03  0.12700000000E+01 0.  1.
          4   -1    0    0  501    0  0.00000000000E+00 -0.00000000000E+00 -0.21590524150E+02  0.21627843931E+02  0.12700000000E+01 0.  1.
         25    2    1    2    0    0  0.00000000000E+00  0.00000000000E+00  0.15913530383E+03  0.20235813414E+03  0.12499907811E+03 0.  0.
    9000005    1    3    3    0    0 -0.82343173225E+01 -0.51586617975E+02  0.13508850760E+03  0.14484090590E+03  0.10000000000E+01 0.  0.
    9000005    1    3    3    0    0  0.82343173225E+01  0.51586617975E+02  0.24046796233E+02  0.57517228244E+02  0.10000000000E+01 0.  0.
<mgrwt>
<rscale>  0 0.12499908E+03</rscale>
<asrwt>0</asrwt>
<pdfrwt beam="2">  1        4 0.33248330E-02 0.12499908E+03</pdfrwt>
<pdfrwt beam="1">  1       -4 0.27807188E-01 0.12499908E+03</pdfrwt>
<totfact> 0.89741156E+03</totfact>
</mgrwt>
</event>
<event>
 5    1  0.3245943E-002  0.1249966E+03  0.7818608E-02  0.1235075E+00
         -4   -1    0    0    0  501 -0.00000000000E+00  0.00000000000E+00  0.81621507510E+03  0.81621606314E+03  0.12700000000E+01 0.  1.
          4   -1    0    0  501    0  0.00000000000E+00 -0.00000000000E+00 -0.47002829906E+01  0.48688356095E+01  0.12700000000E+01 0.  1.
         25    2    1    2    0    0  0.00000000000E+00  0.00000000000E+00  0.81151479211E+03  0.82108489875E+03  0.12499661249E+03 0.  0.
    9000005    1    3    3    0    0 -0.39675295165E+02 -0.47496859540E+02  0.34888551745E+03  0.35433343760E+03  0.10000000000E+01 0.  0.
    9000005    1    3    3    0    0  0.39675295165E+02  0.47496859540E+02  0.46262927466E+03  0.46675146115E+03  0.10000000000E+01 0.  0.
<mgrwt>
<rscale>  0 0.12499661E+03</rscale>
<asrwt>0</asrwt>
<pdfrwt beam="2">  1        4 0.73616392E-03 0.12499661E+03</pdfrwt>
<pdfrwt beam="1">  1       -4 0.12558427E+00 0.12499661E+03</pdfrwt>
<totfact> 0.37343450E+03</totfact>
</mgrwt>
</event>
<event>
 5    1  0.3245943E-002  0.1250023E+03  0.7818608E-02  0.1235066E+00
         -4   -1    0    0    0  501 -0.00000000000E+00  0.00000000000E+00  0.25251961624E+02  0.25283877588E+02  0.12700000000E+01 0. -1.
          4   -1    0    0  501    0  0.00000000000E+00 -0.00000000000E+00 -0.15456439437E+03  0.15456961185E+03  0.12700000000E+01 0. -1.
         25    2    1    2    0    0  0.00000000000E+00  0.00000000000E+00 -0.12931243275E+03  0.17985348944E+03  0.12500228958E+03 0.  0.
    9000005    1    3    3    0    0 -0.26516213362E+02  0.30577050521E+01 -0.14595721294E+03  0.14838115494E+03  0.10000000000E+01 0.  0.
    9000005    1    3    3    0    0  0.26516213362E+02 -0.30577050521E+01  0.16644780193E+02  0.31472334501E+02  0.10000000000E+01 0.  0.
<mgrwt>
<rscale>  0 0.12500229E+03</rscale>
<asrwt>0</asrwt>
<pdfrwt beam="2">  1        4 0.23781993E-01 0.12500229E+03</pdfrwt>
<pdfrwt beam="1">  1       -4 0.38877737E-02 0.12500229E+03</pdfrwt>
<totfact> 0.93638575E+03</totfact>
</mgrwt>
</event>
<event>
 5    1  0.3245943E-002  0.1250011E+03  0.7818608E-02  0.1235068E+00
          4   -1    0    0  501    0  0.00000000000E+00  0.00000000000E+00  0.15851364822E+04  0.15851369910E+04  0.12700000000E+01 0. -1.
         -4   -1    0    0    0  501 -0.00000000000E+00 -0.00000000000E+00 -0.23001770686E+01  0.26274920641E+01  0.12700000000E+01 0. -1.
         25    2    1    2    0    0  0.00000000000E+00  0.00000000000E+00  0.15828363052E+04  0.15877644831E+04  0.12500113881E+03 0.  0.
    9000005    1    3    3    0    0  0.35577752702E+02 -0.51336691655E+02  0.76573378407E+03  0.76827759336E+03  0.10000000000E+01 0.  0.
    9000005    1    3    3    0    0 -0.35577752702E+02  0.51336691655E+02  0.81710252109E+03  0.81948688969E+03  0.10000000000E+01 0.  0.
<mgrwt>
<rscale>  0 0.12500114E+03</rscale>
<asrwt>0</asrwt>
<pdfrwt beam="1">  1        4 0.24389300E+00 0.12500114E+03</pdfrwt>
<pdfrwt beam="2">  1       -4 0.37908963E-03 0.12500114E+03</pdfrwt>
<totfact> 0.16267738E+03</totfact>
</mgrwt>
</event>
<event>
 5    1  0.3245943E-002  0.1249984E+03  0.7818608E-02  0.1235072E+00
         -4   -1    0    0    0  501 -0.00000000000E+00  0.00000000000E+00  0.17161795130E+02  0.17208721977E+02  0.12700000000E+01 0. -1.
          4   -1    0    0  501    0  0.00000000000E+00 -0.00000000000E+00 -0.22724776098E+03  0.22725130972E+03  0.12700000000E+01 0. -1.
         25    2    1    2    0    0  0.00000000000E+00  0.00000000000E+00 -0.21008596585E+03  0.24446003170E+03  0.12499837620E+03 0.  0.
    9000005    1    3    3    0    0 -0.32065741115E+02  0.30152900608E+02 -0.18289428582E+02  0.47675070699E+02  0.10000000000E+01 0.  0.
    9000005    1    3    3    0    0  0.32065741115E+02 -0.30152900608E+02 -0.19179653727E+03  0.19678496100E+03  0.10000000000E+01 0.  0.
<mgrwt>
<rscale>  0 0.12499838E+03</rscale>
<asrwt>0</asrwt>
<pdfrwt beam="2">  1        4 0.34965075E-01 0.12499838E+03</pdfrwt>
<pdfrwt beam="1">  1       -4 0.26441591E-02 0.12499838E+03</pdfrwt>
<totfact> 0.83140586E+03</totfact>
</mgrwt>
</event>
<event>
 5    1  0.3245943E-002  0.1250009E+03  0.7818608E-02  0.1235068E+00
          4   -1    0    0  501    0  0.00000000000E+00  0.00000000000E+00  0.85231641975E+02  0.85241103312E+02  0.12700000000E+01 0.  1.
         -4   -1    0    0    0  501 -0.00000000000E+00 -0.00000000000E+00 -0.45810838091E+02  0.45828438622E+02  0.12700000000E+01 0.  1.
         25    2    1    2    0    0  0.00000000000E+00  0.00000000000E+00  0.39420803885E+02  0.13106954193E+03  0.12500090017E+03 0.  0.
    9000005    1    3    3    0    0  0.19750008869E+02  0.11340905946E+02 -0.41309617437E+02  0.47182237026E+02  0.10000000000E+01 0.  0.
    9000005    1    3    3    0    0 -0.19750008869E+02 -0.11340905946E+02  0.80730421321E+02  0.83887304908E+02  0.10000000000E+01 0.  0.
<mgrwt>
<rscale>  0 0.12500090E+03</rscale>
<asrwt>0</asrwt>
<pdfrwt beam="1">  1        4 0.13114642E-01 0.12500090E+03</pdfrwt>
<pdfrwt beam="2">  1       -4 0.70499029E-02 0.12500090E+03</pdfrwt>
<totfact> 0.10321389E+04</totfact>
</mgrwt>
</event>
<event>
 4    1  0.3245943E-002  0.1242957E+03  0.7818608E-02  0.1236174E+00
          4   -1    0    0  501    0  0.00000000000E+00  0.00000000000E+00  0.38895164297E+02  0.38915892714E+02  0.12700000000E+01 0.  1.
         -4   -1    0    0    0  501 -0.00000000000E+00 -0.00000000000E+00 -0.99250415241E+02  0.99258540315E+02  0.12700000000E+01 0.  1.
    9000005    1    1    2    0    0 -0.21815537986E+01  0.58271048942E+02 -0.54048032082E+02  0.79513923898E+02  0.10000000000E+01 0.  0.
    9000005    1    1    2    0    0  0.21815537986E+01 -0.58271048942E+02 -0.63072188621E+01  0.58660509131E+02  0.10000000000E+01 0.  0.
<mgrwt>
<rscale>  0 0.12429569E+03</rscale>
<asrwt>0</asrwt>
<pdfrwt beam="1">  1        4 0.59860910E-02 0.12429569E+03</pdfrwt>
<pdfrwt beam="2">  1       -4 0.15271514E-01 0.12429569E+03</pdfrwt>
<totfact> 0.10334690E+04</totfact>
</mgrwt>
</event>
<event>
 5    1  0.3245943E-002  0.1249996E+03  0.7818608E-02  0.1235070E+00
          4   -1    0    0  501    0  0.00000000000E+00  0.00000000000E+00  0.34419375598E+02  0.34442797745E+02  0.12700000000E+01 0. -1.
         -4   -1    0    0    0  501 -0.00000000000E+00 -0.00000000000E+00 -0.11342361328E+03  0.11343072313E+03  0.12700000000E+01 0. -1.
         25    2    1    2    0    0  0.00000000000E+00  0.00000000000E+00 -0.79004237686E+02  0.14787352088E+03  0.12499963442E+03 0.  0.
    9000005    1    3    3    0    0 -0.49037216006E+02 -0.10657503103E+02  0.45553264155E+01  0.50398233349E+02  0.10000000000E+01 0.  0.
    9000005    1    3    3    0    0  0.49037216006E+02  0.10657503103E+02 -0.83559564102E+02  0.97475287529E+02  0.10000000000E+01 0.  0.
<mgrwt>
<rscale>  0 0.12499963E+03</rscale>
<asrwt>0</asrwt>
<pdfrwt beam="1">  1        4 0.52976372E-02 0.12499963E+03</pdfrwt>
<pdfrwt beam="2">  1       -4 0.17452135E-01 0.12499963E+03</pdfrwt>
<totfact> 0.99730101E+03</totfact>
</mgrwt>
</event>
<event>
 5    1  0.3245943E-002  0.1249979E+03  0.7818608E-02  0.1235073E+00
         -4   -1    0    0    0  501 -0.00000000000E+00  0.00000000000E+00  0.27962906360E+03  0.27963194758E+03  0.12700000000E+01 0. -1.
          4   -1    0    0  501    0  0.00000000000E+00 -0.00000000000E+00 -0.13937100401E+02  0.13994844322E+02  0.12700000000E+01 0. -1.
         25    2    1    2    0    0  0.00000000000E+00  0.00000000000E+00  0.26569196320E+03  0.29362679191E+03  0.12499789445E+03 0.  0.
    9000005    1    3    3    0    0  0.41051414720E+02  0.15033145750E+02  0.23773865048E+03  0.24172687077E+03  0.10000000000E+01 0.  0.
    9000005    1    3    3    0    0 -0.41051414720E+02 -0.15033145750E+02  0.27953312720E+02  0.51899921134E+02  0.10000000000E+01 0.  0.
<mgrwt>
<rscale>  0 0.12499789E+03</rscale>
<asrwt>0</asrwt>
<pdfrwt beam="2">  1        4 0.21488330E-02 0.12499789E+03</pdfrwt>
<pdfrwt beam="1">  1       -4 0.43024519E-01 0.12499789E+03</pdfrwt>
<totfact> 0.76408872E+03</totfact>
</mgrwt>
</event>
<event>
 5    1  0.3245943E-002  0.1250040E+03  0.7818608E-02  0.1235063E+00
          4   -1    0    0  501    0  0.00000000000E+00  0.00000000000E+00  0.17932695598E+03  0.17933145301E+03  0.12700000000E+01 0. -1.
         -4   -1    0    0    0  501 -0.00000000000E+00 -0.00000000000E+00 -0.21760939002E+02  0.21797967021E+02  0.12700000000E+01 0. -1.
         25    2    1    2    0    0  0.00000000000E+00  0.00000000000E+00  0.15756601697E+03  0.20112942003E+03  0.12500397553E+03 0.  0.
    9000005    1    3    3    0    0 -0.75895951521E+01  0.62025114578E+02  0.80205555686E+02  0.10167914219E+03  0.10000000000E+01 0.  0.
    9000005    1    3    3    0    0  0.75895951521E+01 -0.62025114578E+02  0.77360461287E+02  0.99450277845E+02  0.10000000000E+01 0.  0.
<mgrwt>
<rscale>  0 0.12500398E+03</rscale>
<asrwt>0</asrwt>
<pdfrwt beam="1">  1        4 0.27591956E-01 0.12500398E+03</pdfrwt>
<pdfrwt beam="2">  1       -4 0.33510310E-02 0.12500398E+03</pdfrwt>
<totfact> 0.89937369E+03</totfact>
</mgrwt>
</event>
<event>
 5    1  0.3245943E-002  0.1249994E+03  0.7818608E-02  0.1235070E+00
         -4   -1    0    0    0  501 -0.00000000000E+00  0.00000000000E+00  0.36331562121E+03  0.36331784090E+03  0.12700000000E+01 0.  1.
          4   -1    0    0  501    0  0.00000000000E+00 -0.00000000000E+00 -0.10711795432E+02  0.10786818872E+02  0.12700000000E+01 0.  1.
         25    2    1    2    0    0  0.00000000000E+00  0.00000000000E+00  0.35260382578E+03  0.37410465977E+03  0.12499935403E+03 0.  0.
    9000005    1    3    3    0    0 -0.13737272063E+02 -0.80747791050E+00  0.35873942526E+03  0.35900465165E+03  0.10000000000E+01 0.  0.
    9000005    1    3    3    0    0  0.13737272063E+02  0.80747791050E+00 -0.61355994864E+01  0.15100008125E+02  0.10000000000E+01 0.  0.
<mgrwt>
<rscale>  0 0.12499935E+03</rscale>
<asrwt>0</asrwt>
<pdfrwt beam="2">  1        4 0.16539102E-02 0.12499935E+03</pdfrwt>
<pdfrwt beam="1">  1       -4 0.55900655E-01 0.12499935E+03</pdfrwt>
<totfact> 0.67152643E+03</totfact>
</mgrwt>
</event>
<event>
 5    1  0.3245943E-002  0.1249975E+03  0.7818608E-02  0.1235073E+00
          4   -1    0    0  501    0  0.00000000000E+00  0.00000000000E+00  0.20847343678E+02  0.20885991440E+02  0.12700000000E+01 0. -1.
         -4   -1    0    0    0  501 -0.00000000000E+00 -0.00000000000E+00 -0.18715229892E+03  0.18715660793E+03  0.12700000000E+01 0. -1.
         25    2    1    2    0    0  0.00000000000E+00  0.00000000000E+00 -0.16630495524E+03  0.20804259937E+03  0.12499754003E+03 0.  0.
    9000005    1    3    3    0    0 -0.59134011043E+02  0.11841501176E+02 -0.11040167545E+03  0.12580374539E+03  0.10000000000E+01 0.  0.
    9000005    1    3    3    0    0  0.59134011043E+02 -0.11841501176E+02 -0.55903279792E+02  0.82238853978E+02  0.10000000000E+01 0.  0.
<mgrwt>
<rscale>  0 0.12499754E+03</rscale>
<asrwt>0</asrwt>
<pdfrwt beam="1">  1        4 0.32105881E-02 0.12499754E+03</pdfrwt>
<pdfrwt beam="2">  1       -4 0.28795965E-01 0.12499754E+03</pdfrwt>
<totfact> 0.88801436E+03</totfact>
</mgrwt>
</event>
<event>
 5    1  0.3245943E-002  0.1249881E+03  0.7818608E-02  0.1235088E+00
         -4   -1    0    0    0  501 -0.00000000000E+00  0.00000000000E+00  0.46913617070E+03  0.46913788971E+03  0.12700000000E+01 0. -1.
          4   -1    0    0  501    0  0.00000000000E+00 -0.00000000000E+00 -0.82747124424E+01  0.83716047449E+01  0.12700000000E+01 0. -1.
         25    2    1    2    0    0  0.00000000000E+00  0.00000000000E+00  0.46086145826E+03  0.47750949445E+03  0.12498813378E+03 0.  0.
    9000005    1    3    3    0    0  0.33095681065E+02  0.20415824450E+01  0.28091115191E+02  0.43469563107E+02  0.10000000000E+01 0.  0.
    9000005    1    3    3    0    0 -0.33095681065E+02 -0.20415824450E+01  0.43277034307E+03  0.43403993135E+03  0.10000000000E+01 0.  0.
<mgrwt>
<rscale>  0 0.12498813E+03</rscale>
<asrwt>0</asrwt>
<pdfrwt beam="2">  1        4 0.12806177E-02 0.12498813E+03</pdfrwt>
<pdfrwt beam="1">  1       -4 0.72182407E-01 0.12498813E+03</pdfrwt>
<totfact> 0.57667618E+03</totfact>
</mgrwt>
</event>
<event>
 5    1  0.3245943E-002  0.1249974E+03  0.7818608E-02  0.1235073E+00
         -4   -1    0    0    0  501 -0.00000000000E+00  0.00000000000E+00  0.24057494622E+02  0.24090993078E+02  0.12700000000E+01 0.  1.
          4   -1    0    0  501    0  0.00000000000E+00 -0.00000000000E+00 -0.16221581705E+03  0.16222078844E+03  0.12700000000E+01 0.  1.
         25    2    1    2    0    0  0.00000000000E+00  0.00000000000E+00 -0.13815832243E+03  0.18631178152E+03  0.12499743147E+03 0.  0.
    9000005    1    3    3    0    0 -0.39400277870E+01  0.61957197434E+02 -0.58448120019E+02  0.85272509442E+02  0.10000000000E+01 0.  0.
    9000005    1    3    3    0    0  0.39400277870E+01 -0.61957197434E+02 -0.79710202409E+02  0.10103927207E+03  0.10000000000E+01 0.  0.
<mgrwt>
<rscale>  0 0.12499743E+03</rscale>
<asrwt>0</asrwt>
<pdfrwt beam="2">  1        4 0.24959238E-01 0.12499743E+03</pdfrwt>
<pdfrwt beam="1">  1       -4 0.37041123E-02 0.12499743E+03</pdfrwt>
<totfact> 0.92498366E+03</totfact>
</mgrwt>
</event>
<event>
 5    1  0.3245943E-002  0.1250004E+03  0.7818608E-02  0.1235069E+00
          4   -1    0    0  501    0  0.00000000000E+00  0.00000000000E+00  0.52917144292E+02  0.52932381961E+02  0.12700000000E+01 0. -1.
         -4   -1    0    0    0  501 -0.00000000000E+00 -0.00000000000E+00 -0.73787385044E+02  0.73798313609E+02  0.12700000000E+01 0. -1.
         25    2    1    2    0    0  0.00000000000E+00  0.00000000000E+00 -0.20870240752E+02  0.12673069557E+03  0.12500040900E+03 0.  0.
    9000005    1    3    3    0    0 -0.31805641140E+02  0.29646549013E+02 -0.55942510004E+02  0.70859587229E+02  0.10000000000E+01 0.  0.
    9000005    1    3    3    0    0  0.31805641140E+02 -0.29646549013E+02  0.35072269253E+02  0.55871108341E+02  0.10000000000E+01 0.  0.
<mgrwt>
<rscale>  0 0.12500041E+03</rscale>
<asrwt>0</asrwt>
<pdfrwt beam="1">  1        4 0.81431119E-02 0.12500041E+03</pdfrwt>
<pdfrwt beam="2">  1       -4 0.11353918E-01 0.12500041E+03</pdfrwt>
<totfact> 0.10414906E+04</totfact>
</mgrwt>
</event>
<event>
 5    1  0.3245943E-002  0.1250000E+03  0.7818608E-02  0.1235069E+00
         -4   -1    0    0    0  501 -0.00000000000E+00  0.00000000000E+00  0.23368857335E+03  0.23369202428E+03  0.12700000000E+01 0.  1.
          4   -1    0    0  501    0  0.00000000000E+00 -0.00000000000E+00 -0.16687927368E+02  0.16736182953E+02  0.12700000000E+01 0.  1.
         25    2    1    2    0    0  0.00000000000E+00  0.00000000000E+00  0.21700064598E+03  0.25042820724E+03  0.12500002649E+03 0.  0.
    9000005    1    3    3    0    0  0.15123609114E+02  0.11294715624E+02  0.22785062955E+03  0.22863333864E+03  0.10000000000E+01 0.  0.
    9000005    1    3    3    0    0 -0.15123609114E+02 -0.11294715624E+02 -0.10849983566E+02  0.21794868595E+02  0.10000000000E+01 0.  0.
<mgrwt>
<rscale>  0 0.12500003E+03</rscale>
<asrwt>0</asrwt>
<pdfrwt beam="2">  1        4 0.25713509E-02 0.12500003E+03</pdfrwt>
<pdfrwt beam="1">  1       -4 0.35956065E-01 0.12500003E+03</pdfrwt>
<totfact> 0.82268329E+03</totfact>
</mgrwt>
</event>
<event>
 5    1  0.3245943E-002  0.1249959E+03  0.7818608E-02  0.1235076E+00
         -4   -1    0    0    0  501 -0.00000000000E+00  0.00000000000E+00  0.66800572815E+02  0.66812644226E+02  0.12700000000E+01 0. -1.
          4   -1    0    0  501    0  0.00000000000E+00 -0.00000000000E+00 -0.58448174459E+02  0.58461970524E+02  0.12700000000E+01 0. -1.
         25    2    1    2    0    0  0.00000000000E+00  0.00000000000E+00  0.83523983566E+01  0.12527461475E+03  0.12499586610E+03 0.  0.
    9000005    1    3    3    0    0 -0.48190479081E+02  0.14716316943E+02  0.41219405657E+02  0.65107078426E+02  0.10000000000E+01 0.  0.
    9000005    1    3    3    0    0  0.48190479081E+02 -0.14716316943E+02 -0.32867007301E+02  0.60167536324E+02  0.10000000000E+01 0.  0.
<mgrwt>
<rscale>  0 0.12499587E+03</rscale>
<asrwt>0</asrwt>
<pdfrwt beam="2">  1        4 0.89940167E-02 0.12499587E+03</pdfrwt>
<pdfrwt beam="1">  1       -4 0.10279001E-01 0.12499587E+03</pdfrwt>
<totfact> 0.10447877E+04</totfact>
</mgrwt>
</event>
<event>
 5    1  0.3245943E-002  0.1249997E+03  0.7818608E-02  0.1235070E+00
         -4   -1    0    0    0  501 -0.00000000000E+00  0.00000000000E+00  0.68119204555E+02  0.68131042331E+02  0.12700000000E+01 0. -1.
          4   -1    0    0  501    0  0.00000000000E+00 -0.00000000000E+00 -0.57320205006E+02  0.57334272490E+02  0.12700000000E+01 0. -1.
         25    2    1    2    0    0  0.00000000000E+00  0.00000000000E+00  0.10798999548E+02  0.12546531482E+03  0.12499970733E+03 0.  0.
    9000005    1    3    3    0    0  0.60105843231E+02  0.12040700982E+02 -0.67923837905E+01  0.61683282567E+02  0.10000000000E+01 0.  0.
    9000005    1    3    3    0    0 -0.60105843231E+02 -0.12040700982E+02  0.17591383339E+02  0.63782032254E+02  0.10000000000E+01 0.  0.
<mgrwt>
<rscale>  0 0.12499971E+03</rscale>
<asrwt>0</asrwt>
<pdfrwt beam="2">  1        4 0.88204857E-02 0.12499971E+03</pdfrwt>
<pdfrwt beam="1">  1       -4 0.10481870E-01 0.12499971E+03</pdfrwt>
<totfact> 0.10442790E+04</totfact>
</mgrwt>
</event>
<event>
 5    1  0.3245943E-002  0.1250041E+03  0.7818608E-02  0.1235063E+00
         -4   -1    0    0    0  501 -0.00000000000E+00  0.00000000000E+00  0.51939690205E+03  0.51939845471E+03  0.12700000000E+01 0.  1.
          4   -1    0    0  501    0  0.00000000000E+00 -0.00000000000E+00 -0.74660484632E+01  0.75732938445E+01  0.12700000000E+01 0.  1.
         25    2    1    2    0    0  0.00000000000E+00  0.00000000000E+00  0.51193085358E+03  0.52697174855E+03  0.12500409963E+03 0.  0.
    9000005    1    3    3    0    0 -0.26151647080E+02  0.23606769361E+02  0.38366821129E+02  0.52097995818E+02  0.10000000000E+01 0.  0.
    9000005    1    3    3    0    0  0.26151647080E+02 -0.23606769361E+02  0.47356403245E+03  0.47487375274E+03  0.10000000000E+01 0.  0.
<mgrwt>
<rscale>  0 0.12500410E+03</rscale>
<asrwt>0</asrwt>
<pdfrwt beam="2">  1        4 0.11569919E-02 0.12500410E+03</pdfrwt>
<pdfrwt beam="1">  1       -4 0.79915584E-01 0.12500410E+03</pdfrwt>
<totfact> 0.53825930E+03</totfact>
</mgrwt>
</event>
<event>
 5    1  0.3245943E-002  0.1249993E+03  0.7818608E-02  0.1235070E+00
          4   -1    0    0  501    0  0.00000000000E+00  0.00000000000E+00  0.50751314296E+02  0.50767202038E+02  0.12700000000E+01 0. -1.
         -4   -1    0    0    0  501 -0.00000000000E+00 -0.00000000000E+00 -0.76934412454E+02  0.76944894046E+02  0.12700000000E+01 0. -1.
         25    2    1    2    0    0  0.00000000000E+00  0.00000000000E+00 -0.26183098158E+02  0.12771209608E+03  0.12499929943E+03 0.  0.
    9000005    1    3    3    0    0  0.56342300829E+01 -0.26897167376E+02 -0.70434496275E+02  0.75612303410E+02  0.10000000000E+01 0.  0.
    9000005    1    3    3    0    0 -0.56342300829E+01  0.26897167376E+02  0.44251398116E+02  0.52099792674E+02  0.10000000000E+01 0.  0.
<mgrwt>
<rscale>  0 0.12499930E+03</rscale>
<asrwt>0</asrwt>
<pdfrwt beam="1">  1        4 0.78099229E-02 0.12499930E+03</pdfrwt>
<pdfrwt beam="2">  1       -4 0.11838092E-01 0.12499930E+03</pdfrwt>
<totfact> 0.10393874E+04</totfact>
</mgrwt>
</event>
<event>
 5    1  0.3245943E-002  0.1249981E+03  0.7818608E-02  0.1235072E+00
          4   -1    0    0  501    0  0.00000000000E+00  0.00000000000E+00  0.10005256442E+03  0.10006062436E+03  0.12700000000E+01 0.  1.
         -4   -1    0    0    0  501 -0.00000000000E+00 -0.00000000000E+00 -0.39020803691E+02  0.39041465402E+02  0.12700000000E+01 0.  1.
         25    2    1    2    0    0  0.00000000000E+00  0.00000000000E+00  0.61031760733E+02  0.13910208976E+03  0.12499806222E+03 0.  0.
    9000005    1    3    3    0    0 -0.44993128704E+01  0.60554586605E+01  0.99549416893E+02  0.99839865783E+02  0.10000000000E+01 0.  0.
    9000005    1    3    3    0    0  0.44993128704E+01 -0.60554586605E+01 -0.38517656160E+02  0.39262223981E+02  0.10000000000E+01 0.  0.
<mgrwt>
<rscale>  0 0.12499806E+03</rscale>
<asrwt>0</asrwt>
<pdfrwt beam="1">  1        4 0.15394911E-01 0.12499806E+03</pdfrwt>
<pdfrwt beam="2">  1       -4 0.60054100E-02 0.12499806E+03</pdfrwt>
<totfact> 0.10152673E+04</totfact>
</mgrwt>
</event>
<event>
 5    1  0.3245943E-002  0.1249989E+03  0.7818608E-02  0.1235071E+00
          4   -1    0    0  501    0  0.00000000000E+00  0.00000000000E+00  0.13997773922E+03  0.13998350038E+03  0.12700000000E+01 0. -1.
         -4   -1    0    0    0  501 -0.00000000000E+00 -0.00000000000E+00 -0.27884935979E+02  0.27913841630E+02  0.12700000000E+01 0. -1.
         25    2    1    2    0    0  0.00000000000E+00  0.00000000000E+00  0.11209280325E+03  0.16789734201E+03  0.12499888365E+03 0.  0.
    9000005    1    3    3    0    0 -0.14481941555E+00 -0.62469486961E+02  0.58262647936E+02  0.85428296942E+02  0.10000000000E+01 0.  0.
    9000005    1    3    3    0    0  0.14481941555E+00  0.62469486961E+02  0.53830155310E+02  0.82469045068E+02  0.10000000000E+01 0.  0.
<mgrwt>
<rscale>  0 0.12499888E+03</rscale>
<asrwt>0</asrwt>
<pdfrwt beam="1">  1        4 0.21537703E-01 0.12499888E+03</pdfrwt>
<pdfrwt beam="2">  1       -4 0.42926569E-02 0.12499888E+03</pdfrwt>
<totfact> 0.95843881E+03</totfact>
</mgrwt>
</event>
<event>
 5    1  0.3245943E-002  0.1249904E+03  0.7818608E-02  0.1235084E+00
         -4   -1    0    0    0  501 -0.00000000000E+00  0.00000000000E+00  0.47319594125E+02  0.47336633680E+02  0.12700000000E+01 0.  1.
          4   -1    0    0  501    0  0.00000000000E+00 -0.00000000000E+00 -0.82500900546E+02  0.82510675012E+02  0.12700000000E+01 0.  1.
         25    2    1    2    0    0  0.00000000000E+00  0.00000000000E+00 -0.35181306421E+02  0.12984730869E+03  0.12499039664E+03 0.  0.
    9000005    1    3    3    0    0  0.57879122617E+02 -0.89043970186E+01  0.50595234723E+01  0.58786732338E+02  0.10000000000E+01 0.  0.
    9000005    1    3    3    0    0 -0.57879122617E+02  0.89043970186E+01 -0.40240829894E+02  0.71060576354E+02  0.10000000000E+01 0.  0.
<mgrwt>
<rscale>  0 0.12499040E+03</rscale>
<asrwt>0</asrwt>
<pdfrwt beam="2">  1        4 0.12694509E-01 0.12499040E+03</pdfrwt>
<pdfrwt beam="1">  1       -4 0.72820002E-02 0.12499040E+03</pdfrwt>
<totfact> 0.10350018E+04</totfact>
</mgrwt>
</event>
<event>
 5    1  0.3245943E-002  0.1250018E+03  0.7818608E-02  0.1235067E+00
         -4   -1    0    0    0  501 -0.00000000000E+00  0.00000000000E+00  0.37212806585E+02  0.37234471581E+02  0.12700000000E+01 0. -1.
          4   -1    0    0  501    0  0.00000000000E+00 -0.00000000000E+00 -0.10491746764E+03  0.10492515388E+03  0.12700000000E+01 0. -1.
         25    2    1    2    0    0  0.00000000000E+00  0.00000000000E+00 -0.67704661054E+02  0.14215962546E+03  0.12500175191E+03 0.  0.
    9000005    1    3    3    0    0  0.22254164992E+02 -0.49884206774E+02  0.67394051129E+00  0.54636399413E+02  0.10000000000E+01 0.  0.
    9000005    1    3    3    0    0 -0.22254164992E+02  0.49884206774E+02 -0.68378601565E+02  0.87523226043E+02  0.10000000000E+01 0.  0.
<mgrwt>
<rscale>  0 0.12500175E+03</rscale>
<asrwt>0</asrwt>
<pdfrwt beam="2">  1        4 0.16143407E-01 0.12500175E+03</pdfrwt>
<pdfrwt beam="1">  1       -4 0.57273050E-02 0.12500175E+03</pdfrwt>
<totfact> 0.10088623E+04</totfact>
</mgrwt>
</event>
<event>
 5    1  0.3245943E-002  0.1249997E+03  0.7818608E-02  0.1235070E+00
         -4   -1    0    0    0  501 -0.00000000000E+00  0.00000000000E+00  0.22502345985E+02  0.22538155976E+02  0.12700000000E+01 0. -1.
          4   -1    0    0  501    0  0.00000000000E+00 -0.00000000000E+00 -0.17341610649E+03  0.17342075681E+03  0.12700000000E+01 0. -1.
         25    2    1    2    0    0  0.00000000000E+00  0.00000000000E+00 -0.15091376051E+03  0.19595891278E+03  0.12499972955E+03 0.  0.
    9000005    1    3    3    0    0 -0.38885921613E+02 -0.89187702731E+01 -0.15086144205E+03  0.15605074194E+03  0.10000000000E+01 0.  0.
    9000005    1    3    3    0    0  0.38885921613E+02  0.89187702731E+01 -0.52318460931E-01  0.39908170844E+02  0.10000000000E+01 0.  0.
<mgrwt>
<rscale>  0 0.12499973E+03</rscale>
<asrwt>0</asrwt>
<pdfrwt beam="2">  1        4 0.26682513E-01 0.12499973E+03</pdfrwt>
<pdfrwt beam="1">  1       -4 0.34650118E-02 0.12499973E+03</pdfrwt>
<totfact> 0.90821247E+03</totfact>
</mgrwt>
</event>
<event>
 5    1  0.3245943E-002  0.1250040E+03  0.7818608E-02  0.1235063E+00
          4   -1    0    0  501    0  0.00000000000E+00  0.00000000000E+00  0.61598474553E+02  0.61611565207E+02  0.12700000000E+01 0. -1.
         -4   -1    0    0    0  501 -0.00000000000E+00 -0.00000000000E+00 -0.63392560983E+02  0.63405281231E+02  0.12700000000E+01 0. -1.
         25    2    1    2    0    0  0.00000000000E+00  0.00000000000E+00 -0.17940864297E+01  0.12501684644E+03  0.12500397253E+03 0.  0.
    9000005    1    3    3    0    0  0.38134438427E+02 -0.48018167717E+02 -0.12961388894E+02  0.62681555717E+02  0.10000000000E+01 0.  0.
    9000005    1    3    3    0    0 -0.38134438427E+02  0.48018167717E+02  0.11167302464E+02  0.62335290722E+02  0.10000000000E+01 0.  0.
<mgrwt>
<rscale>  0 0.12500397E+03</rscale>
<asrwt>0</asrwt>
<pdfrwt beam="1">  1        4 0.94786738E-02 0.12500397E+03</pdfrwt>
<pdfrwt beam="2">  1       -4 0.97546872E-02 0.12500397E+03</pdfrwt>
<totfact> 0.10451558E+04</totfact>
</mgrwt>
</event>
<event>
 5    1  0.3245943E-002  0.1250002E+03  0.7818608E-02  0.1235069E+00
         -4   -1    0    0    0  501 -0.00000000000E+00  0.00000000000E+00  0.16178324331E+03  0.16178822798E+03  0.12700000000E+01 0.  1.
          4   -1    0    0  501    0  0.00000000000E+00 -0.00000000000E+00 -0.24122989144E+02  0.24156396776E+02  0.12700000000E+01 0.  1.
         25    2    1    2    0    0  0.00000000000E+00  0.00000000000E+00  0.13766025416E+03  0.18594462476E+03  0.12500023161E+03 0.  0.
    9000005    1    3    3    0    0  0.16912481787E+02 -0.33808170166E+02 -0.51932993049E+01  0.38170600832E+02  0.10000000000E+01 0.  0.
    9000005    1    3    3    0    0 -0.16912481787E+02  0.33808170166E+02  0.14285355347E+03  0.14777402393E+03  0.10000000000E+01 0.  0.
<mgrwt>
<rscale>  0 0.12500023E+03</rscale>
<asrwt>0</asrwt>
<pdfrwt beam="2">  1        4 0.37141824E-02 0.12500023E+03</pdfrwt>
<pdfrwt beam="1">  1       -4 0.24892683E-01 0.12500023E+03</pdfrwt>
<totfact> 0.92557283E+03</totfact>
</mgrwt>
</event>
<event>
 5    1  0.3245943E-002  0.1250035E+03  0.7818608E-02  0.1235064E+00
          4   -1    0    0  501    0  0.00000000000E+00  0.00000000000E+00  0.29936159509E+02  0.29963086392E+02  0.12700000000E+01 0.  1.
         -4   -1    0    0    0  501 -0.00000000000E+00 -0.00000000000E+00 -0.13040468671E+03  0.13041087077E+03  0.12700000000E+01 0.  1.
         25    2    1    2    0    0  0.00000000000E+00  0.00000000000E+00 -0.10046852720E+03  0.16037395716E+03  0.12500352467E+03 0.  0.
    9000005    1    3    3    0    0 -0.33194196835E+02 -0.34199494212E+02  0.16265070951E+01  0.47698067394E+02  0.10000000000E+01 0.  0.
    9000005    1    3    3    0    0  0.33194196835E+02  0.34199494212E+02 -0.10209503430E+03  0.11267588977E+03  0.10000000000E+01 0.  0.
<mgrwt>
<rscale>  0 0.12500352E+03</rscale>
<asrwt>0</asrwt>
<pdfrwt beam="1">  1        4 0.46081101E-02 0.12500352E+03</pdfrwt>
<pdfrwt beam="2">  1       -4 0.20064806E-01 0.12500352E+03</pdfrwt>
<totfact> 0.97263032E+03</totfact>
</mgrwt>
</event>
<event>
 5    1  0.3245943E-002  0.1249953E+03  0.7818608E-02  0.1235077E+00
          4   -1    0    0  501    0  0.00000000000E+00  0.00000000000E+00  0.41964655037E+03  0.41964847210E+03  0.12700000000E+01 0.  1.
         -4   -1    0    0    0  501 -0.00000000000E+00 -0.00000000000E+00 -0.92624548335E+01  0.93491159766E+01  0.12700000000E+01 0.  1.
         25    2    1    2    0    0  0.00000000000E+00  0.00000000000E+00  0.41038409553E+03  0.42899758808E+03  0.12499529874E+03 0.  0.
    9000005    1    3    3    0    0 -0.18725208267E+01  0.37444974350E+02  0.37677432549E+03  0.37863640182E+03  0.10000000000E+01 0.  0.
    9000005    1    3    3    0    0  0.18725208267E+01 -0.37444974350E+02  0.33609770048E+02  0.50361186255E+02  0.10000000000E+01 0.  0.
<mgrwt>
<rscale>  0 0.12499530E+03</rscale>
<asrwt>0</asrwt>
<pdfrwt beam="1">  1        4 0.64567811E-01 0.12499530E+03</pdfrwt>
<pdfrwt beam="2">  1       -4 0.14318074E-02 0.12499530E+03</pdfrwt>
<totfact> 0.61833373E+03</totfact>
</mgrwt>
</event>
<event>
 5    1  0.3245943E-002  0.1250368E+03  0.7818608E-02  0.1235012E+00
          4   -1    0    0  501    0  0.00000000000E+00  0.00000000000E+00  0.68610081032E+02  0.68621834129E+02  0.12700000000E+01 0. -1.
         -4   -1    0    0    0  501 -0.00000000000E+00 -0.00000000000E+00 -0.56943879461E+02  0.56958039890E+02  0.12700000000E+01 0. -1.
         25    2    1    2    0    0  0.00000000000E+00  0.00000000000E+00  0.11666201571E+02  0.12557987402E+03  0.12503681258E+03 0.  0.
    9000005    1    3    3    0    0  0.26769426248E+02 -0.17838932653E+02 -0.47997460177E+02  0.57789150221E+02  0.10000000000E+01 0.  0.
    9000005    1    3    3    0    0 -0.26769426248E+02  0.17838932653E+02  0.59663661747E+02  0.67790723797E+02  0.10000000000E+01 0.  0.
<mgrwt>
<rscale>  0 0.12503681E+03</rscale>
<asrwt>0</asrwt>
<pdfrwt beam="1">  1        4 0.10557390E-01 0.12503681E+03</pdfrwt>
<pdfrwt beam="2">  1       -4 0.87625902E-02 0.12503681E+03</pdfrwt>
<totfact> 0.10431526E+04</totfact>
</mgrwt>
</event>
<event>
 5    1  0.3245943E-002  0.1249971E+03  0.7818608E-02  0.1235074E+00
         -4   -1    0    0    0  501 -0.00000000000E+00  0.00000000000E+00  0.46416442358E+01  0.48122511585E+01  0.12700000000E+01 0.  1.
          4   -1    0    0  501    0  0.00000000000E+00 -0.00000000000E+00 -0.82616904230E+03  0.82617001843E+03  0.12700000000E+01 0.  1.
         25    2    1    2    0    0  0.00000000000E+00  0.00000000000E+00 -0.82152739806E+03  0.83098226959E+03  0.12499706638E+03 0.  0.
    9000005    1    3    3    0    0  0.51408694821E+02 -0.23266850563E+02 -0.58925593600E+03  0.59195249670E+03  0.10000000000E+01 0.  0.
    9000005    1    3    3    0    0 -0.51408694821E+02  0.23266850563E+02 -0.23227146207E+03  0.23902977289E+03  0.10000000000E+01 0.  0.
<mgrwt>
<rscale>  0 0.12499707E+03</rscale>
<asrwt>0</asrwt>
<pdfrwt beam="2">  1        4 0.12711601E+00 0.12499707E+03</pdfrwt>
<pdfrwt beam="1">  1       -4 0.72729847E-03 0.12499707E+03</pdfrwt>
<totfact> 0.36920825E+03</totfact>
</mgrwt>
</event>
<event>
 5    1  0.3245943E-002  0.1249990E+03  0.7818608E-02  0.1235071E+00
          4   -1    0    0  501    0  0.00000000000E+00  0.00000000000E+00  0.35052968115E+03  0.35053198180E+03  0.12700000000E+01 0.  1.
         -4   -1    0    0    0  501 -0.00000000000E+00 -0.00000000000E+00 -0.11105135057E+02  0.11177518715E+02  0.12700000000E+01 0.  1.
         25    2    1    2    0    0  0.00000000000E+00  0.00000000000E+00  0.33942454609E+03  0.36170950051E+03  0.12499896109E+03 0.  0.
    9000005    1    3    3    0    0 -0.50132810949E+02 -0.18474593324E+02  0.75919970936E+02  0.92841000205E+02  0.10000000000E+01 0.  0.
    9000005    1    3    3    0    0  0.50132810949E+02  0.18474593324E+02  0.26350457515E+03  0.26886850031E+03  0.10000000000E+01 0.  0.
<mgrwt>
<rscale>  0 0.12499896E+03</rscale>
<asrwt>0</asrwt>
<pdfrwt beam="1">  1        4 0.53933380E-01 0.12499896E+03</pdfrwt>
<pdfrwt beam="2">  1       -4 0.17142275E-02 0.12499896E+03</pdfrwt>
<totfact> 0.68456867E+03</totfact>
</mgrwt>
</event>
<event>
 5    1  0.3245943E-002  0.1250085E+03  0.7818608E-02  0.1235056E+00
         -4   -1    0    0    0  501 -0.00000000000E+00  0.00000000000E+00  0.56715559367E+02  0.56729776787E+02  0.12700000000E+01 0.  1.
          4   -1    0    0  501    0  0.00000000000E+00 -0.00000000000E+00 -0.68855040763E+02  0.68866752054E+02  0.12700000000E+01 0.  1.
         25    2    1    2    0    0  0.00000000000E+00  0.00000000000E+00 -0.12139481396E+02  0.12559652884E+03  0.12500848391E+03 0.  0.
    9000005    1    3    3    0    0  0.11225559190E+01 -0.48731962276E+02  0.33225825510E+02  0.59000167456E+02  0.10000000000E+01 0.  0.
    9000005    1    3    3    0    0 -0.11225559190E+01  0.48731962276E+02 -0.45365306906E+02  0.66596361385E+02  0.10000000000E+01 0.  0.
<mgrwt>
<rscale>  0 0.12500848E+03</rscale>
<asrwt>0</asrwt>
<pdfrwt beam="2">  1        4 0.10595078E-01 0.12500848E+03</pdfrwt>
<pdfrwt beam="1">  1       -4 0.87274652E-02 0.12500848E+03</pdfrwt>
<totfact> 0.10437826E+04</totfact>
</mgrwt>
</event>
<event>
 5    1  0.3245943E-002  0.1249967E+03  0.7818608E-02  0.1235074E+00
          4   -1    0    0  501    0  0.00000000000E+00  0.00000000000E+00  0.25098356640E+03  0.25098677954E+03  0.12700000000E+01 0. -1.
         -4   -1    0    0    0  501 -0.00000000000E+00 -0.00000000000E+00 -0.15533711858E+02  0.15585541508E+02  0.12700000000E+01 0. -1.
         25    2    1    2    0    0  0.00000000000E+00  0.00000000000E+00  0.23544985455E+03  0.26657232105E+03  0.12499667333E+03 0.  0.
    9000005    1    3    3    0    0 -0.44522552357E+02  0.17666374715E+02  0.32135184749E+02  0.57689067966E+02  0.10000000000E+01 0.  0.
    9000005    1    3    3    0    0  0.44522552357E+02 -0.17666374715E+02  0.20331466980E+03  0.20888325308E+03  0.10000000000E+01 0.  0.
<mgrwt>
<rscale>  0 0.12499667E+03</rscale>
<asrwt>0</asrwt>
<pdfrwt beam="1">  1        4 0.38617085E-01 0.12499667E+03</pdfrwt>
<pdfrwt beam="2">  1       -4 0.23940362E-02 0.12499667E+03</pdfrwt>
<totfact> 0.79998410E+03</totfact>
</mgrwt>
</event>
<event>
 5    1  0.3245943E-002  0.1249999E+03  0.7818608E-02  0.1235069E+00
          4   -1    0    0  501    0  0.00000000000E+00  0.00000000000E+00  0.53990366031E+01  0.55463948869E+01  0.12700000000E+01 0.  1.
         -4   -1    0    0    0  501 -0.00000000000E+00 -0.00000000000E+00 -0.71361919906E+03  0.71362032914E+03  0.12700000000E+01 0.  1.
         25    2    1    2    0    0  0.00000000000E+00  0.00000000000E+00 -0.70822016245E+03  0.71916672403E+03  0.12499991377E+03 0.  0.
    9000005    1    3    3    0    0  0.28066016797E+02  0.42100114462E+02 -0.14310108136E+03  0.15178616677E+03  0.10000000000E+01 0.  0.
    9000005    1    3    3    0    0 -0.28066016797E+02 -0.42100114462E+02 -0.56511908109E+03  0.56738055725E+03  0.10000000000E+01 0.  0.
<mgrwt>
<rscale>  0 0.12499991E+03</rscale>
<asrwt>0</asrwt>
<pdfrwt beam="1">  1        4 0.84204376E-03 0.12499991E+03</pdfrwt>
<pdfrwt beam="2">  1       -4 0.10979892E+00 0.12499991E+03</pdfrwt>
<totfact> 0.42094127E+03</totfact>
</mgrwt>
</event>
<event>
 5    1  0.3245943E-002  0.1249694E+03  0.7818608E-02  0.1235117E+00
          4   -1    0    0  501    0  0.00000000000E+00  0.00000000000E+00  0.85640945141E+02  0.85650361264E+02  0.12700000000E+01 0. -1.
         -4   -1    0    0    0  501 -0.00000000000E+00 -0.00000000000E+00 -0.45568816367E+02  0.45586510341E+02  0.12700000000E+01 0. -1.
         25    2    1    2    0    0  0.00000000000E+00  0.00000000000E+00  0.40072128774E+02  0.13123687160E+03  0.12496936010E+03 0.  0.
    9000005    1    3    3    0    0 -0.11651234950E+02  0.55313387851E+02  0.47979060261E+02  0.74150606033E+02  0.10000000000E+01 0.  0.
    9000005    1    3    3    0    0  0.11651234950E+02 -0.55313387851E+02 -0.79069314876E+01  0.57086265572E+02  0.10000000000E+01 0.  0.
<mgrwt>
<rscale>  0 0.12496936E+03</rscale>
<asrwt>0</asrwt>
<pdfrwt beam="1">  1        4 0.13177616E-01 0.12496936E+03</pdfrwt>
<pdfrwt beam="2">  1       -4 0.70126725E-02 0.12496936E+03</pdfrwt>
<totfact> 0.10325149E+04</totfact>
</mgrwt>
</event>
<event>
 5    1  0.3245943E-002  0.1250046E+03  0.7818608E-02  0.1235062E+00
         -4   -1    0    0    0  501 -0.00000000000E+00  0.00000000000E+00  0.20632112865E+03  0.20632503732E+03  0.12700000000E+01 0.  1.
          4   -1    0    0  501    0  0.00000000000E+00 -0.00000000000E+00 -0.18908874079E+02  0.18951475376E+02  0.12700000000E+01 0.  1.
         25    2    1    2    0    0  0.00000000000E+00  0.00000000000E+00  0.18741225457E+03  0.22527651270E+03  0.12500461596E+03 0.  0.
    9000005    1    3    3    0    0 -0.18775324927E+02 -0.24943125429E+02  0.19126973660E+03  0.19380346868E+03  0.10000000000E+01 0.  0.
    9000005    1    3    3    0    0  0.18775324927E+02  0.24943125429E+02 -0.38574820323E+01  0.31473044021E+02  0.10000000000E+01 0.  0.
<mgrwt>
<rscale>  0 0.12500462E+03</rscale>
<asrwt>0</asrwt>
<pdfrwt beam="2">  1        4 0.29126354E-02 0.12500462E+03</pdfrwt>
<pdfrwt beam="1">  1       -4 0.31745288E-01 0.12500462E+03</pdfrwt>
<totfact> 0.86031347E+03</totfact>
</mgrwt>
</event>
<event>
 5    1  0.3245943E-002  0.1250122E+03  0.7818608E-02  0.1235050E+00
          4   -1    0    0  501    0  0.00000000000E+00  0.00000000000E+00  0.28552803416E+02  0.28581033622E+02  0.12700000000E+01 0. -1.
         -4   -1    0    0    0  501 -0.00000000000E+00 -0.00000000000E+00 -0.13673585460E+03  0.13674175234E+03  0.12700000000E+01 0. -1.
         25    2    1    2    0    0  0.00000000000E+00  0.00000000000E+00 -0.10818305119E+03  0.16532278597E+03  0.12501220339E+03 0.  0.
    9000005    1    3    3    0    0  0.43037353955E+02  0.10455867623E+02 -0.11240666890E+03  0.12082134835E+03  0.10000000000E+01 0.  0.
    9000005    1    3    3    0    0 -0.43037353955E+02 -0.10455867623E+02  0.42236177172E+01  0.44501437615E+02  0.10000000000E+01 0.  0.
<mgrwt>
<rscale>  0 0.12501220E+03</rscale>
<asrwt>0</asrwt>
<pdfrwt beam="1">  1        4 0.43953643E-02 0.12501220E+03</pdfrwt>
<pdfrwt beam="2">  1       -4 0.21038910E-01 0.12501220E+03</pdfrwt>
<totfact> 0.96299895E+03</totfact>
</mgrwt>
</event>
<event>
 5    1  0.3245943E-002  0.1250028E+03  0.7818608E-02  0.1235065E+00
          4   -1    0    0  501    0  0.00000000000E+00  0.00000000000E+00  0.37931076544E+02  0.37952331520E+02  0.12700000000E+01 0.  1.
         -4   -1    0    0    0  501 -0.00000000000E+00 -0.00000000000E+00 -0.10293345587E+03  0.10294129024E+03  0.12700000000E+01 0.  1.
         25    2    1    2    0    0  0.00000000000E+00  0.00000000000E+00 -0.65002379324E+02  0.14089362176E+03  0.12500281331E+03 0.  0.
    9000005    1    3    3    0    0 -0.43770760531E+02 -0.40304563357E+02 -0.54037467216E+02  0.80382741730E+02  0.10000000000E+01 0.  0.
    9000005    1    3    3    0    0  0.43770760531E+02  0.40304563357E+02 -0.10964912108E+02  0.60510880033E+02  0.10000000000E+01 0.  0.
<mgrwt>
<rscale>  0 0.12500281E+03</rscale>
<asrwt>0</asrwt>
<pdfrwt beam="1">  1        4 0.58377879E-02 0.12500281E+03</pdfrwt>
<pdfrwt beam="2">  1       -4 0.15838154E-01 0.12500281E+03</pdfrwt>
<totfact> 0.10114458E+04</totfact>
</mgrwt>
</event>
<event>
 5    1  0.3245943E-002  0.1250038E+03  0.7818608E-02  0.1235063E+00
          4   -1    0    0  501    0  0.00000000000E+00  0.00000000000E+00  0.10210726208E+02  0.10289403758E+02  0.12700000000E+01 0.  1.
         -4   -1    0    0    0  501 -0.00000000000E+00 -0.00000000000E+00 -0.38103837510E+03  0.38104049155E+03  0.12700000000E+01 0.  1.
         25    2    1    2    0    0  0.00000000000E+00  0.00000000000E+00 -0.37082764889E+03  0.39132989531E+03  0.12500376705E+03 0.  0.
    9000005    1    3    3    0    0 -0.39834133124E+02  0.73257650679E+01 -0.36422896789E+02  0.54479834857E+02  0.10000000000E+01 0.  0.
    9000005    1    3    3    0    0  0.39834133124E+02 -0.73257650679E+01 -0.33440475211E+03  0.33685006045E+03  0.10000000000E+01 0.  0.
<mgrwt>
<rscale>  0 0.12500377E+03</rscale>
<asrwt>0</asrwt>
<pdfrwt beam="1">  1        4 0.15770962E-02 0.12500377E+03</pdfrwt>
<pdfrwt beam="2">  1       -4 0.58627492E-01 0.12500377E+03</pdfrwt>
<totfact> 0.65399423E+03</totfact>
</mgrwt>
</event>
<event>
 5    1  0.3245943E-002  0.1250020E+03  0.7818608E-02  0.1235066E+00
         -4   -1    0    0    0  501 -0.00000000000E+00  0.00000000000E+00  0.34351833861E+04  0.34351836209E+04  0.12700000000E+01 0.  1.
          4   -1    0    0  501    0  0.00000000000E+00 -0.00000000000E+00 -0.78227066371E+00  0.14915922336E+01  0.12700000000E+01 0.  1.
         25    2    1    2    0    0  0.00000000000E+00  0.00000000000E+00  0.34344011155E+04  0.34366752131E+04  0.12500199436E+03 0.  0.
    9000005    1    3    3    0    0 -0.28700800522E+02 -0.33205736847E+02  0.49414441844E+03  0.49609078119E+03  0.10000000000E+01 0.  0.
    9000005    1    3    3    0    0  0.28700800522E+02  0.33205736847E+02  0.29402566970E+04  0.29405844319E+04  0.10000000000E+01 0.  0.
<mgrwt>
<rscale>  0 0.12500199E+03</rscale>
<asrwt>0</asrwt>
<pdfrwt beam="2">  1        4 0.17493151E-03 0.12500199E+03</pdfrwt>
<pdfrwt beam="1">  1       -4 0.52854155E+00 0.12500199E+03</pdfrwt>
<totfact> 0.67499567E+01</totfact>
</mgrwt>
</event>
<event>
 5    1  0.3245943E-002  0.1249988E+03  0.7818608E-02  0.1235071E+00
         -4   -1    0    0    0  501 -0.00000000000E+00  0.00000000000E+00  0.16149219030E+01  0.20544762722E+01  0.12700000000E+01 0.  1.
          4   -1    0    0  501    0  0.00000000000E+00 -0.00000000000E+00 -0.21286138674E+04  0.21286142463E+04  0.12700000000E+01 0.  1.
         25    2    1    2    0    0  0.00000000000E+00  0.00000000000E+00 -0.21269989455E+04  0.21306687225E+04  0.12499876415E+03 0.  0.
    9000005    1    3    3    0    0  0.42384566097E+02 -0.82774671470E+01 -0.29357681644E+03  0.29673778839E+03  0.10000000000E+01 0.  0.
    9000005    1    3    3    0    0 -0.42384566097E+02  0.82774671470E+01 -0.18334221291E+04  0.18339309342E+04  0.10000000000E+01 0.  0.
<mgrwt>
<rscale>  0 0.12499876E+03</rscale>
<asrwt>0</asrwt>
<pdfrwt beam="2">  1        4 0.32751092E+00 0.12499876E+03</pdfrwt>
<pdfrwt beam="1">  1       -4 0.28229224E-03 0.12499876E+03</pdfrwt>
<totfact> 0.82510503E+02</totfact>
</mgrwt>
</event>
<event>
 5    1  0.3245943E-002  0.1250319E+03  0.7818608E-02  0.1235019E+00
          4   -1    0    0  501    0  0.00000000000E+00  0.00000000000E+00  0.47202108199E+03  0.47202279049E+03  0.12700000000E+01 0. -1.
         -4   -1    0    0    0  501 -0.00000000000E+00 -0.00000000000E+00 -0.82293744963E+01  0.83267943773E+01  0.12700000000E+01 0. -1.
         25    2    1    2    0    0  0.00000000000E+00  0.00000000000E+00  0.46379170750E+03  0.48034958487E+03  0.12503189890E+03 0.  0.
    9000005    1    3    3    0    0 -0.91985230483E+01 -0.42838548798E+02  0.60622795709E+02  0.74805597712E+02  0.10000000000E+01 0.  0.
    9000005    1    3    3    0    0  0.91985230483E+01  0.42838548798E+02  0.40316891179E+03  0.40554398716E+03  0.10000000000E+01 0.  0.
<mgrwt>
<rscale>  0 0.12503190E+03</rscale>
<asrwt>0</asrwt>
<pdfrwt beam="1">  1        4 0.72626258E-01 0.12503190E+03</pdfrwt>
<pdfrwt beam="2">  1       -4 0.12736828E-02 0.12503190E+03</pdfrwt>
<totfact> 0.57381607E+03</totfact>
</mgrwt>
</event>
<event>
 5    1  0.3245943E-002  0.1250012E+03  0.7818608E-02  0.1235067E+00
          4   -1    0    0  501    0  0.00000000000E+00  0.00000000000E+00  0.65802517701E+02  0.65814772170E+02  0.12700000000E+01 0. -1.
         -4   -1    0    0    0  501 -0.00000000000E+00 -0.00000000000E+00 -0.59339810049E+02  0.59353398864E+02  0.12700000000E+01 0. -1.
         25    2    1    2    0    0  0.00000000000E+00  0.00000000000E+00  0.64627076517E+01  0.12516817103E+03  0.12500121779E+03 0.  0.
    9000005    1    3    3    0    0  0.12768782051E+02 -0.40850790645E+02 -0.42365133969E+02  0.60229838681E+02  0.10000000000E+01 0.  0.
    9000005    1    3    3    0    0 -0.12768782051E+02  0.40850790645E+02  0.48827841620E+02  0.64938332352E+02  0.10000000000E+01 0.  0.
<mgrwt>
<rscale>  0 0.12500122E+03</rscale>
<asrwt>0</asrwt>
<pdfrwt beam="1">  1        4 0.10125452E-01 0.12500122E+03</pdfrwt>
<pdfrwt beam="2">  1       -4 0.91311895E-02 0.12500122E+03</pdfrwt>
<totfact> 0.10448923E+04</totfact>
</mgrwt>
</event>
<event>
 5    1  0.3245943E-002  0.1250002E+03  0.7818608E-02  0.1235069E+00
         -4   -1    0    0    0  501 -0.00000000000E+00  0.00000000000E+00  0.27994743791E+03  0.27995031862E+03  0.12700000000E+01 0.  1.
          4   -1    0    0  501    0  0.00000000000E+00 -0.00000000000E+00 -0.13921707170E+02  0.13979514674E+02  0.12700000000E+01 0.  1.
         25    2    1    2    0    0  0.00000000000E+00  0.00000000000E+00  0.26602573074E+03  0.29392983329E+03  0.12500022993E+03 0.  0.
    9000005    1    3    3    0    0 -0.53475312962E+01 -0.54531576032E+02  0.20367241073E+03  0.21091642840E+03  0.10000000000E+01 0.  0.
    9000005    1    3    3    0    0  0.53475312962E+01  0.54531576032E+02  0.62353320017E+02  0.83013404897E+02  0.10000000000E+01 0.  0.
<mgrwt>
<rscale>  0 0.12500023E+03</rscale>
<asrwt>0</asrwt>
<pdfrwt beam="2">  1        4 0.21464694E-02 0.12500023E+03</pdfrwt>
<pdfrwt beam="1">  1       -4 0.43073506E-01 0.12500023E+03</pdfrwt>
<totfact> 0.76366241E+03</totfact>
</mgrwt>
</event>
<event>
 5    1  0.3245943E-002  0.1250093E+03  0.7818608E-02  0.1235055E+00
         -4   -1    0    0    0  501 -0.00000000000E+00  0.00000000000E+00  0.83267939719E+01  0.84230871924E+01  0.12700000000E+01 0. -1.
          4   -1    0    0  501    0  0.00000000000E+00 -0.00000000000E+00 -0.46639343663E+03  0.46639516574E+03  0.12700000000E+01 0. -1.
         25    2    1    2    0    0  0.00000000000E+00  0.00000000000E+00 -0.45806664265E+03  0.47481825293E+03  0.12500929648E+03 0.  0.
    9000005    1    3    3    0    0  0.19693229222E+02 -0.15926236334E+02 -0.44604559778E+03  0.44676519961E+03  0.10000000000E+01 0.  0.
    9000005    1    3    3    0    0 -0.19693229222E+02  0.15926236334E+02 -0.12021044869E+02  0.28053053323E+02  0.10000000000E+01 0.  0.
<mgrwt>
<rscale>  0 0.12500930E+03</rscale>
<asrwt>0</asrwt>
<pdfrwt beam="2">  1        4 0.71760356E-01 0.12500930E+03</pdfrwt>
<pdfrwt beam="1">  1       -4 0.12885858E-02 0.12500930E+03</pdfrwt>
<totfact> 0.57860673E+03</totfact>
</mgrwt>
</event>
<event>
 5    1  0.3245943E-002  0.1249589E+03  0.7818608E-02  0.1235133E+00
         -4   -1    0    0    0  501 -0.00000000000E+00  0.00000000000E+00  0.16765538236E+03  0.16766019245E+03  0.12700000000E+01 0. -1.
          4   -1    0    0  501    0  0.00000000000E+00 -0.00000000000E+00 -0.23261510332E+02  0.23296153393E+02  0.12700000000E+01 0. -1.
         25    2    1    2    0    0  0.00000000000E+00  0.00000000000E+00  0.14439387202E+03  0.19095634584E+03  0.12495893622E+03 0.  0.
    9000005    1    3    3    0    0  0.64484635888E+01  0.62128225452E+02  0.73860345984E+02  0.96735979807E+02  0.10000000000E+01 0.  0.
    9000005    1    3    3    0    0 -0.64484635888E+01 -0.62128225452E+02  0.70533526040E+02  0.94220366037E+02  0.10000000000E+01 0.  0.
<mgrwt>
<rscale>  0 0.12495894E+03</rscale>
<asrwt>0</asrwt>
<pdfrwt beam="2">  1        4 0.35817288E-02 0.12495894E+03</pdfrwt>
<pdfrwt beam="1">  1       -4 0.25796170E-01 0.12495894E+03</pdfrwt>
<totfact> 0.91765553E+03</totfact>
</mgrwt>
</event>
<event>
 5    1  0.3245943E-002  0.1249997E+03  0.7818608E-02  0.1235070E+00
         -4   -1    0    0    0  501 -0.00000000000E+00  0.00000000000E+00  0.84797807868E+02  0.84807317604E+02  0.12700000000E+01 0.  1.
          4   -1    0    0  501    0  0.00000000000E+00 -0.00000000000E+00 -0.46044355775E+02  0.46061867078E+02  0.12700000000E+01 0.  1.
         25    2    1    2    0    0  0.00000000000E+00  0.00000000000E+00  0.38753452093E+02  0.13086918468E+03  0.12499965380E+03 0.  0.
    9000005    1    3    3    0    0  0.19456108303E+02 -0.46729830712E+02 -0.18991206077E+02  0.54072942744E+02  0.10000000000E+01 0.  0.
    9000005    1    3    3    0    0 -0.19456108303E+02  0.46729830712E+02  0.57744658170E+02  0.76796241939E+02  0.10000000000E+01 0.  0.
<mgrwt>
<rscale>  0 0.12499965E+03</rscale>
<asrwt>0</asrwt>
<pdfrwt beam="2">  1        4 0.70858256E-02 0.12499965E+03</pdfrwt>
<pdfrwt beam="1">  1       -4 0.13047895E-01 0.12499965E+03</pdfrwt>
<totfact> 0.10325975E+04</totfact>
</mgrwt>
</event>
<event>
 5    1  0.3245943E-002  0.1250090E+03  0.7818608E-02  0.1235055E+00
          4   -1    0    0  501    0  0.00000000000E+00  0.00000000000E+00  0.94806548036E+02  0.94815053924E+02  0.12700000000E+01 0.  1.
         -4   -1    0    0    0  501 -0.00000000000E+00 -0.00000000000E+00 -0.41188097778E+02  0.41207672812E+02  0.12700000000E+01 0.  1.
         25    2    1    2    0    0  0.00000000000E+00  0.00000000000E+00  0.53618450259E+02  0.13602272674E+03  0.12500897560E+03 0.  0.
    9000005    1    3    3    0    0  0.46012204303E+01  0.36969333736E+02  0.81408920568E+02  0.89533877467E+02  0.10000000000E+01 0.  0.
    9000005    1    3    3    0    0 -0.46012204303E+01 -0.36969333736E+02 -0.27790470309E+02  0.46488849268E+02  0.10000000000E+01 0.  0.
<mgrwt>
<rscale>  0 0.12500898E+03</rscale>
<asrwt>0</asrwt>
<pdfrwt beam="1">  1        4 0.14587783E-01 0.12500898E+03</pdfrwt>
<pdfrwt beam="2">  1       -4 0.63387905E-02 0.12500898E+03</pdfrwt>
<totfact> 0.10214492E+04</totfact>
</mgrwt>
</event>
<event>
 5    1  0.3245943E-002  0.1250024E+03  0.7818608E-02  0.1235065E+00
         -4   -1    0    0    0  501 -0.00000000000E+00  0.00000000000E+00  0.24800662722E+03  0.24800987893E+03  0.12700000000E+01 0. -1.
          4   -1    0    0  501    0  0.00000000000E+00 -0.00000000000E+00 -0.15722237291E+02  0.15773447481E+02  0.12700000000E+01 0. -1.
         25    2    1    2    0    0  0.00000000000E+00  0.00000000000E+00  0.23228438993E+03  0.26378332641E+03  0.12500242192E+03 0.  0.
    9000005    1    3    3    0    0 -0.84904888311E+01  0.60956240899E+02  0.13903106025E+03  0.15204731967E+03  0.10000000000E+01 0.  0.
    9000005    1    3    3    0    0  0.84904888311E+01 -0.60956240899E+02  0.93253329679E+02  0.11173600674E+03  0.10000000000E+01 0.  0.
<mgrwt>
<rscale>  0 0.12500242E+03</rscale>
<asrwt>0</asrwt>
<pdfrwt beam="2">  1        4 0.24229953E-02 0.12500242E+03</pdfrwt>
<pdfrwt beam="1">  1       -4 0.38159053E-01 0.12500242E+03</pdfrwt>
<totfact> 0.80373708E+03</totfact>
</mgrwt>
</event>
<event>
 4    1  0.3245943E-002  0.1251253E+03  0.7818608E-02  0.1234874E+00
          4   -1    0    0  501    0  0.00000000000E+00  0.00000000000E+00  0.65397188867E+02  0.65409519274E+02  0.12700000000E+01 0.  1.
         -4   -1    0    0    0  501 -0.00000000000E+00 -0.00000000000E+00 -0.59826291408E+02  0.59839769749E+02  0.12700000000E+01 0.  1.
    9000005    1    1    2    0    0  0.20692831763E+02  0.12814159564E+02  0.60467975248E+02  0.65190275366E+02  0.10000000000E+01 0.  0.
    9000005    1    1    2    0    0 -0.20692831763E+02 -0.12814159564E+02 -0.54897077789E+02  0.60059013657E+02  0.10000000000E+01 0.  0.
<mgrwt>
<rscale>  0 0.12512534E+03</rscale>
<asrwt>0</asrwt>
<pdfrwt beam="1">  1        4 0.10063091E-01 0.12512534E+03</pdfrwt>
<pdfrwt beam="2">  1       -4 0.92060302E-02 0.12512534E+03</pdfrwt>
<totfact> 0.10417913E+04</totfact>
</mgrwt>
</event>
<event>
 5    1  0.3245943E-002  0.1249989E+03  0.7818608E-02  0.1235071E+00
          4   -1    0    0  501    0  0.00000000000E+00  0.00000000000E+00  0.36144821268E+02  0.36167126019E+02  0.12700000000E+01 0. -1.
         -4   -1    0    0    0  501 -0.00000000000E+00 -0.00000000000E+00 -0.10801098137E+03  0.10801844748E+03  0.12700000000E+01 0. -1.
         25    2    1    2    0    0  0.00000000000E+00  0.00000000000E+00 -0.71866160098E+02  0.14418557350E+03  0.12499893855E+03 0.  0.
    9000005    1    3    3    0    0 -0.18177980411E+02  0.57982915360E+02 -0.19109206733E+02  0.63707293361E+02  0.10000000000E+01 0.  0.
    9000005    1    3    3    0    0  0.18177980411E+02 -0.57982915360E+02 -0.52756953365E+02  0.80478280137E+02  0.10000000000E+01 0.  0.
<mgrwt>
<rscale>  0 0.12499894E+03</rscale>
<asrwt>0</asrwt>
<pdfrwt beam="1">  1        4 0.55630318E-02 0.12499894E+03</pdfrwt>
<pdfrwt beam="2">  1       -4 0.16619364E-01 0.12499894E+03</pdfrwt>
<totfact> 0.10047802E+04</totfact>
</mgrwt>
</event>
<event>
 5    1  0.3245943E-002  0.1249996E+03  0.7818608E-02  0.1235070E+00
         -4   -1    0    0    0  501 -0.00000000000E+00  0.00000000000E+00  0.17272619374E+03  0.17273086263E+03  0.12700000000E+01 0.  1.
          4   -1    0    0  501    0  0.00000000000E+00 -0.00000000000E+00 -0.22592316787E+02  0.22627984396E+02  0.12700000000E+01 0.  1.
         25    2    1    2    0    0  0.00000000000E+00  0.00000000000E+00  0.15013387695E+03  0.19535884702E+03  0.12499959241E+03 0.  0.
    9000005    1    3    3    0    0  0.70824047178E+01 -0.26990203894E+02  0.16245662060E+03  0.16483866397E+03  0.10000000000E+01 0.  0.
    9000005    1    3    3    0    0 -0.70824047178E+01  0.26990203894E+02 -0.12322743644E+02  0.30520183056E+02  0.10000000000E+01 0.  0.
<mgrwt>
<rscale>  0 0.12499959E+03</rscale>
<asrwt>0</asrwt>
<pdfrwt beam="2">  1        4 0.34788439E-02 0.12499959E+03</pdfrwt>
<pdfrwt beam="1">  1       -4 0.26576363E-01 0.12499959E+03</pdfrwt>
<totfact> 0.90923993E+03</totfact>
</mgrwt>
</event>
<event>
 5    1  0.3245943E-002  0.1250001E+03  0.7818608E-02  0.1235069E+00
         -4   -1    0    0    0  501 -0.00000000000E+00  0.00000000000E+00  0.38354988870E+02  0.38376009058E+02  0.12700000000E+01 0.  1.
          4   -1    0    0  501    0  0.00000000000E+00 -0.00000000000E+00 -0.10179188775E+03  0.10179980998E+03  0.12700000000E+01 0.  1.
         25    2    1    2    0    0  0.00000000000E+00  0.00000000000E+00 -0.63436898884E+02  0.14017581904E+03  0.12500008041E+03 0.  0.
    9000005    1    3    3    0    0 -0.42260313072E+02  0.29011113109E+02  0.83657510988E+01  0.51947709634E+02  0.10000000000E+01 0.  0.
    9000005    1    3    3    0    0  0.42260313072E+02 -0.29011113109E+02 -0.71802649983E+02  0.88228109406E+02  0.10000000000E+01 0.  0.
<mgrwt>
<rscale>  0 0.12500008E+03</rscale>
<asrwt>0</asrwt>
<pdfrwt beam="2">  1        4 0.15662517E-01 0.12500008E+03</pdfrwt>
<pdfrwt beam="1">  1       -4 0.59029939E-02 0.12500008E+03</pdfrwt>
<totfact> 0.10129925E+04</totfact>
</mgrwt>
</event>
<event>
 5    1  0.3245943E-002  0.1249949E+03  0.7818608E-02  0.1235077E+00
         -4   -1    0    0    0  501 -0.00000000000E+00  0.00000000000E+00  0.47770786609E+02  0.47787665284E+02  0.12700000000E+01 0. -1.
          4   -1    0    0  501    0  0.00000000000E+00 -0.00000000000E+00 -0.81727774521E+02  0.81737641440E+02  0.12700000000E+01 0. -1.
         25    2    1    2    0    0  0.00000000000E+00  0.00000000000E+00 -0.33956987911E+02  0.12952530672E+03  0.12499491211E+03 0.  0.
    9000005    1    3    3    0    0  0.37864577009E+02  0.13005403787E+02  0.32740360367E+02  0.51728115341E+02  0.10000000000E+01 0.  0.
    9000005    1    3    3    0    0 -0.37864577009E+02 -0.13005403787E+02 -0.66697348278E+02  0.77797191383E+02  0.10000000000E+01 0.  0.
<mgrwt>
<rscale>  0 0.12499491E+03</rscale>
<asrwt>0</asrwt>
<pdfrwt beam="2">  1        4 0.12575561E-01 0.12499491E+03</pdfrwt>
<pdfrwt beam="1">  1       -4 0.73514092E-02 0.12499491E+03</pdfrwt>
<totfact> 0.10355862E+04</totfact>
</mgrwt>
</event>
<event>
 5    1  0.3245943E-002  0.1249977E+03  0.7818608E-02  0.1235073E+00
         -4   -1    0    0    0  501 -0.00000000000E+00  0.00000000000E+00  0.29757305178E+02  0.29784393757E+02  0.12700000000E+01 0.  1.
          4   -1    0    0  501    0  0.00000000000E+00 -0.00000000000E+00 -0.13117566717E+03  0.13118181489E+03  0.12700000000E+01 0.  1.
         25    2    1    2    0    0  0.00000000000E+00  0.00000000000E+00 -0.10141836200E+03  0.16096620865E+03  0.12499774469E+03 0.  0.
    9000005    1    3    3    0    0 -0.46104587370E+02 -0.29667072733E+02 -0.12090743242E+02  0.56151173214E+02  0.10000000000E+01 0.  0.
    9000005    1    3    3    0    0  0.46104587370E+02  0.29667072733E+02 -0.89327618754E+02  0.10481503544E+03  0.10000000000E+01 0.  0.
<mgrwt>
<rscale>  0 0.12499774E+03</rscale>
<asrwt>0</asrwt>
<pdfrwt beam="2">  1        4 0.20183428E-01 0.12499774E+03</pdfrwt>
<pdfrwt beam="1">  1       -4 0.45806037E-02 0.12499774E+03</pdfrwt>
<totfact> 0.97161756E+03</totfact>
</mgrwt>
</event>
<event>
 5    1  0.3245943E-002  0.1250024E+03  0.7818608E-02  0.1235066E+00
         -4   -1    0    0    0  501 -0.00000000000E+00  0.00000000000E+00  0.94681275767E+01  0.95529231028E+01  0.12700000000E+01 0.  1.
          4   -1    0    0  501    0  0.00000000000E+00 -0.00000000000E+00 -0.41065917311E+03  0.41066113690E+03  0.12700000000E+01 0.  1.
         25    2    1    2    0    0  0.00000000000E+00  0.00000000000E+00 -0.40119104554E+03  0.42021406000E+03  0.12500240481E+03 0.  0.
    9000005    1    3    3    0    0 -0.20390585861E+02  0.23967641912E+02 -0.19092177074E+02  0.36820307930E+02  0.10000000000E+01 0.  0.
    9000005    1    3    3    0    0  0.20390585861E+02 -0.23967641912E+02 -0.38209886846E+03  0.38339375207E+03  0.10000000000E+01 0.  0.
<mgrwt>
<rscale>  0 0.12500240E+03</rscale>
<asrwt>0</asrwt>
<pdfrwt beam="2">  1        4 0.63184994E-01 0.12500240E+03</pdfrwt>
<pdfrwt beam="1">  1       -4 0.14633091E-02 0.12500240E+03</pdfrwt>
<totfact> 0.62629840E+03</totfact>
</mgrwt>
</event>
<event>
 5    1  0.3245943E-002  0.1249992E+03  0.7818608E-02  0.1235071E+00
          4   -1    0    0  501    0  0.00000000000E+00  0.00000000000E+00  0.25390293505E+02  0.25422035801E+02  0.12700000000E+01 0.  1.
         -4   -1    0    0    0  501 -0.00000000000E+00 -0.00000000000E+00 -0.15371574000E+03  0.15372098629E+03  0.12700000000E+01 0.  1.
         25    2    1    2    0    0  0.00000000000E+00  0.00000000000E+00 -0.12832544650E+03  0.17914302209E+03  0.12499920857E+03 0.  0.
    9000005    1    3    3    0    0 -0.62104845160E+02  0.11939439534E+01 -0.73963148859E+02  0.96591845845E+02  0.10000000000E+01 0.  0.
    9000005    1    3    3    0    0  0.62104845160E+02 -0.11939439534E+01 -0.54362297639E+02  0.82551176243E+02  0.10000000000E+01 0.  0.
<mgrwt>
<rscale>  0 0.12499921E+03</rscale>
<asrwt>0</asrwt>
<pdfrwt beam="1">  1        4 0.39090444E-02 0.12499921E+03</pdfrwt>
<pdfrwt beam="2">  1       -4 0.23651420E-01 0.12499921E+03</pdfrwt>
<totfact> 0.93773154E+03</totfact>
</mgrwt>
</event>
<event>
 5    1  0.3245943E-002  0.1250051E+03  0.7818608E-02  0.1235061E+00
          4   -1    0    0  501    0  0.00000000000E+00  0.00000000000E+00  0.14138595558E+02  0.14195519869E+02  0.12700000000E+01 0. -1.
         -4   -1    0    0    0  501 -0.00000000000E+00 -0.00000000000E+00 -0.27569175441E+03  0.27569467958E+03  0.12700000000E+01 0. -1.
         25    2    1    2    0    0  0.00000000000E+00  0.00000000000E+00 -0.26155315885E+03  0.28989019945E+03  0.12500509123E+03 0.  0.
    9000005    1    3    3    0    0  0.34186360109E+01 -0.56568058259E+02 -0.19186593110E+03  0.20006290961E+03  0.10000000000E+01 0.  0.
    9000005    1    3    3    0    0 -0.34186360109E+01  0.56568058259E+02 -0.69687227753E+02  0.89827289836E+02  0.10000000000E+01 0.  0.
<mgrwt>
<rscale>  0 0.12500509E+03</rscale>
<asrwt>0</asrwt>
<pdfrwt beam="1">  1        4 0.21797726E-02 0.12500509E+03</pdfrwt>
<pdfrwt beam="2">  1       -4 0.42418716E-01 0.12500509E+03</pdfrwt>
<totfact> 0.76876056E+03</totfact>
</mgrwt>
</event>
<event>
 5    1  0.3245943E-002  0.1250027E+03  0.7818608E-02  0.1235065E+00
         -4   -1    0    0    0  501 -0.00000000000E+00  0.00000000000E+00  0.13227565624E+03  0.13228175283E+03  0.12700000000E+01 0. -1.
          4   -1    0    0  501    0  0.00000000000E+00 -0.00000000000E+00 -0.29511975483E+02  0.29539289039E+02  0.12700000000E+01 0. -1.
         25    2    1    2    0    0  0.00000000000E+00  0.00000000000E+00  0.10276368075E+03  0.16182104187E+03  0.12500270201E+03 0.  0.
    9000005    1    3    3    0    0 -0.20919130237E+02 -0.37501410327E+02  0.11015815083E+03  0.11823613653E+03  0.10000000000E+01 0.  0.
    9000005    1    3    3    0    0  0.20919130237E+02  0.37501410327E+02 -0.73944700769E+01  0.43584905347E+02  0.10000000000E+01 0.  0.
<mgrwt>
<rscale>  0 0.12500270E+03</rscale>
<asrwt>0</asrwt>
<pdfrwt beam="2">  1        4 0.45428739E-02 0.12500270E+03</pdfrwt>
<pdfrwt beam="1">  1       -4 0.20352671E-01 0.12500270E+03</pdfrwt>
<totfact> 0.96986957E+03</totfact>
</mgrwt>
</event>
<event>
 5    1  0.3245943E-002  0.1249993E+03  0.7818608E-02  0.1235070E+00
         -4   -1    0    0    0  501 -0.00000000000E+00  0.00000000000E+00  0.25821575649E+03  0.25821887964E+03  0.12700000000E+01 0.  1.
          4   -1    0    0  501    0  0.00000000000E+00 -0.00000000000E+00 -0.15097817385E+02  0.15151138234E+02  0.12700000000E+01 0.  1.
         25    2    1    2    0    0  0.00000000000E+00  0.00000000000E+00  0.24311793911E+03  0.27337001787E+03  0.12499933742E+03 0.  0.
    9000005    1    3    3    0    0  0.73294790010E+01  0.51750144522E+02  0.19647384095E+03  0.20330953962E+03  0.10000000000E+01 0.  0.
    9000005    1    3    3    0    0 -0.73294790010E+01 -0.51750144522E+02  0.46644098153E+02  0.70060478253E+02  0.10000000000E+01 0.  0.
<mgrwt>
<rscale>  0 0.12499934E+03</rscale>
<asrwt>0</asrwt>
<pdfrwt beam="2">  1        4 0.23270830E-02 0.12499934E+03</pdfrwt>
<pdfrwt beam="1">  1       -4 0.39729843E-01 0.12499934E+03</pdfrwt>
<totfact> 0.79066650E+03</totfact>
</mgrwt>
</event>
<event>
 5    1  0.3245943E-002  0.1250017E+03  0.7818608E-02  0.1235067E+00
          4   -1    0    0  501    0  0.00000000000E+00  0.00000000000E+00  0.50571664816E+02  0.50587608979E+02  0.12700000000E+01 0.  1.
         -4   -1    0    0    0  501 -0.00000000000E+00 -0.00000000000E+00 -0.77210685997E+02  0.77221130088E+02  0.12700000000E+01 0.  1.
         25    2    1    2    0    0  0.00000000000E+00  0.00000000000E+00 -0.26639021181E+02  0.12780873907E+03  0.12500174532E+03 0.  0.
    9000005    1    3    3    0    0  0.10378794534E+02 -0.55659842128E+02  0.13724811732E+02  0.58267554083E+02  0.10000000000E+01 0.  0.
    9000005    1    3    3    0    0 -0.10378794534E+02  0.55659842128E+02 -0.40363832913E+02  0.69541184985E+02  0.10000000000E+01 0.  0.
<mgrwt>
<rscale>  0 0.12500175E+03</rscale>
<asrwt>0</asrwt>
<pdfrwt beam="1">  1        4 0.77822860E-02 0.12500175E+03</pdfrwt>
<pdfrwt beam="2">  1       -4 0.11880597E-01 0.12500175E+03</pdfrwt>
<totfact> 0.10391211E+04</totfact>
</mgrwt>
</event>
<event>
 5    1  0.3245943E-002  0.1250015E+03  0.7818608E-02  0.1235067E+00
         -4   -1    0    0    0  501 -0.00000000000E+00  0.00000000000E+00  0.68773979775E+02  0.68785704867E+02  0.12700000000E+01 0.  1.
          4   -1    0    0  501    0  0.00000000000E+00 -0.00000000000E+00 -0.56776035983E+02  0.56790238262E+02  0.12700000000E+01 0.  1.
         25    2    1    2    0    0  0.00000000000E+00  0.00000000000E+00  0.11997943792E+02  0.12557594313E+03  0.12500146734E+03 0.  0.
    9000005    1    3    3    0    0  0.31838099066E+02 -0.21534619110E+02 -0.43501583806E+02  0.58058523629E+02  0.10000000000E+01 0.  0.
    9000005    1    3    3    0    0 -0.31838099066E+02  0.21534619110E+02  0.55499527599E+02  0.67517419500E+02  0.10000000000E+01 0.  0.
<mgrwt>
<rscale>  0 0.12500147E+03</rscale>
<asrwt>0</asrwt>
<pdfrwt beam="2">  1        4 0.87367692E-02 0.12500147E+03</pdfrwt>
<pdfrwt beam="1">  1       -4 0.10582607E-01 0.12500147E+03</pdfrwt>
<totfact> 0.10439932E+04</totfact>
</mgrwt>
</event>
<event>
 5    1  0.3245943E-002  0.1249981E+03  0.7818608E-02  0.1235072E+00
          4   -1    0    0  501    0  0.00000000000E+00  0.00000000000E+00  0.23377946135E+03  0.23378291094E+03  0.12700000000E+01 0. -1.
         -4   -1    0    0    0  501 -0.00000000000E+00 -0.00000000000E+00 -0.16680913149E+02  0.16729188967E+02  0.12700000000E+01 0. -1.
         25    2    1    2    0    0  0.00000000000E+00  0.00000000000E+00  0.21709854820E+03  0.25051209991E+03  0.12499813027E+03 0.  0.
    9000005    1    3    3    0    0 -0.56119459961E+02 -0.97079854698E+01  0.16009447874E+03  0.16992610420E+03  0.10000000000E+01 0.  0.
    9000005    1    3    3    0    0  0.56119459961E+02  0.97079854698E+01  0.57004069460E+02  0.80585995702E+02  0.10000000000E+01 0.  0.
<mgrwt>
<rscale>  0 0.12499813E+03</rscale>
<asrwt>0</asrwt>
<pdfrwt beam="1">  1        4 0.35970049E-01 0.12499813E+03</pdfrwt>
<pdfrwt beam="2">  1       -4 0.25702732E-02 0.12499813E+03</pdfrwt>
<totfact> 0.82259695E+03</totfact>
</mgrwt>
</event>
<event>
 5    1  0.3245943E-002  0.1249973E+03  0.7818608E-02  0.1235073E+00
         -4   -1    0    0    0  501 -0.00000000000E+00  0.00000000000E+00  0.10217688225E+03  0.10218477463E+03  0.12700000000E+01 0.  1.
          4   -1    0    0  501    0  0.00000000000E+00 -0.00000000000E+00 -0.38208725334E+02  0.38229825943E+02  0.12700000000E+01 0.  1.
         25    2    1    2    0    0  0.00000000000E+00  0.00000000000E+00  0.63968156916E+02  0.14041460057E+03  0.12499733979E+03 0.  0.
    9000005    1    3    3    0    0 -0.32454745043E+02  0.78240273867E+01  0.91325372715E+02  0.97241192824E+02  0.10000000000E+01 0.  0.
    9000005    1    3    3    0    0  0.32454745043E+02 -0.78240273867E+01 -0.27357215799E+02  0.43173407749E+02  0.10000000000E+01 0.  0.
<mgrwt>
<rscale>  0 0.12499734E+03</rscale>
<asrwt>0</asrwt>
<pdfrwt beam="2">  1        4 0.58804957E-02 0.12499734E+03</pdfrwt>
<pdfrwt beam="1">  1       -4 0.15721750E-01 0.12499734E+03</pdfrwt>
<totfact> 0.10125607E+04</totfact>
</mgrwt>
</event>
<event>
 5    1  0.3245943E-002  0.1250007E+03  0.7818608E-02  0.1235068E+00
          4   -1    0    0  501    0  0.00000000000E+00  0.00000000000E+00  0.67426116639E+03  0.67426236244E+03  0.12700000000E+01 0. -1.
         -4   -1    0    0    0  501 -0.00000000000E+00 -0.00000000000E+00 -0.57226229054E+01  0.58618523452E+01  0.12700000000E+01 0. -1.
         25    2    1    2    0    0  0.00000000000E+00  0.00000000000E+00  0.66853854349E+03  0.68012421479E+03  0.12500065364E+03 0.  0.
    9000005    1    3    3    0    0  0.58885723348E+02 -0.18153744986E+02  0.39086681425E+03  0.39569553113E+03  0.10000000000E+01 0.  0.
    9000005    1    3    3    0    0 -0.58885723348E+02  0.18153744986E+02  0.27767172924E+03  0.28442868366E+03  0.10000000000E+01 0.  0.
<mgrwt>
<rscale>  0 0.12500065E+03</rscale>
<asrwt>0</asrwt>
<pdfrwt beam="1">  1        4 0.10374325E+00 0.12500065E+03</pdfrwt>
<pdfrwt beam="2">  1       -4 0.89120579E-03 0.12500065E+03</pdfrwt>
<totfact> 0.44156268E+03</totfact>
</mgrwt>
</event>
<event>
 5    1  0.3245943E-002  0.1249994E+03  0.7818608E-02  0.1235070E+00
         -4   -1    0    0    0  501 -0.00000000000E+00  0.00000000000E+00  0.54267093989E+02  0.54281952710E+02  0.12700000000E+01 0.  1.
          4   -1    0    0  501    0  0.00000000000E+00 -0.00000000000E+00 -0.71950866844E+02  0.71962074314E+02  0.12700000000E+01 0.  1.
         25    2    1    2    0    0  0.00000000000E+00  0.00000000000E+00 -0.17683772855E+02  0.12624402702E+03  0.12499935415E+03 0.  0.
    9000005    1    3    3    0    0 -0.22743704888E+01 -0.62852241019E+01 -0.71593759788E+02  0.71912052145E+02  0.10000000000E+01 0.  0.
    9000005    1    3    3    0    0  0.22743704888E+01  0.62852241019E+01  0.53909986933E+02  0.54331974879E+02  0.10000000000E+01 0.  0.
<mgrwt>
<rscale>  0 0.12499935E+03</rscale>
<asrwt>0</asrwt>
<pdfrwt beam="2">  1        4 0.11071369E-01 0.12499935E+03</pdfrwt>
<pdfrwt beam="1">  1       -4 0.83507887E-02 0.12499935E+03</pdfrwt>
<totfact> 0.10425768E+04</totfact>
</mgrwt>
</event>
<event>
 5    1  0.3245943E-002  0.1249975E+03  0.7818608E-02  0.1235073E+00
         -4   -1    0    0    0  501 -0.00000000000E+00  0.00000000000E+00  0.14878653111E+01  0.19561807646E+01  0.12700000000E+01 0.  1.
          4   -1    0    0  501    0  0.00000000000E+00 -0.00000000000E+00 -0.22678465837E+04  0.22678469393E+04  0.12700000000E+01 0.  1.
         25    2    1    2    0    0  0.00000000000E+00  0.00000000000E+00 -0.22663587184E+04  0.22698031201E+04  0.12499745375E+03 0.  0.
    9000005    1    3    3    0    0 -0.28428654410E+02 -0.55348755831E+02 -0.10282069208E+04  0.10300884162E+04  0.10000000000E+01 0.  0.
    9000005    1    3    3    0    0  0.28428654410E+02  0.55348755831E+02 -0.12381517976E+04  0.12397147039E+04  0.10000000000E+01 0.  0.
<mgrwt>
<rscale>  0 0.12499745E+03</rscale>
<asrwt>0</asrwt>
<pdfrwt beam="2">  1        4 0.34893314E+00 0.12499745E+03</pdfrwt>
<pdfrwt beam="1">  1       -4 0.26495579E-03 0.12499745E+03</pdfrwt>
<totfact> 0.67384554E+02</totfact>
</mgrwt>
</event>
<event>
 5    1  0.3245943E-002  0.1249969E+03  0.7818608E-02  0.1235074E+00
         -4   -1    0    0    0  501 -0.00000000000E+00  0.00000000000E+00  0.65999388549E+01  0.67210187389E+01  0.12700000000E+01 0.  1.
          4   -1    0    0  501    0  0.00000000000E+00 -0.00000000000E+00 -0.58633139109E+03  0.58633276651E+03  0.12700000000E+01 0.  1.
         25    2    1    2    0    0  0.00000000000E+00  0.00000000000E+00 -0.57973145224E+03  0.59305378525E+03  0.12499694189E+03 0.  0.
    9000005    1    3    3    0    0  0.44589497664E+02 -0.19739863459E+01 -0.49737869740E+03  0.49937830205E+03  0.10000000000E+01 0.  0.
    9000005    1    3    3    0    0 -0.44589497664E+02  0.19739863459E+01 -0.82352754836E+02  0.93675483202E+02  0.10000000000E+01 0.  0.
<mgrwt>
<rscale>  0 0.12499694E+03</rscale>
<asrwt>0</asrwt>
<pdfrwt beam="2">  1        4 0.90214208E-01 0.12499694E+03</pdfrwt>
<pdfrwt beam="1">  1       -4 0.10247953E-02 0.12499694E+03</pdfrwt>
<totfact> 0.49312355E+03</totfact>
</mgrwt>
</event>
<event>
 5    1  0.3245943E-002  0.1250123E+03  0.7818608E-02  0.1235050E+00
          4   -1    0    0  501    0  0.00000000000E+00  0.00000000000E+00  0.32276396977E+03  0.32276646833E+03  0.12700000000E+01 0.  1.
         -4   -1    0    0    0  501 -0.00000000000E+00 -0.00000000000E+00 -0.12069019207E+02  0.12135655096E+02  0.12700000000E+01 0.  1.
         25    2    1    2    0    0  0.00000000000E+00  0.00000000000E+00  0.31069495056E+03  0.33490212343E+03  0.12501231928E+03 0.  0.
    9000005    1    3    3    0    0 -0.57092563091E+02  0.24365156302E+02  0.13588153287E+03  0.14939214363E+03  0.10000000000E+01 0.  0.
    9000005    1    3    3    0    0  0.57092563091E+02 -0.24365156302E+02  0.17481341769E+03  0.18550997980E+03  0.10000000000E+01 0.  0.
<mgrwt>
<rscale>  0 0.12501232E+03</rscale>
<asrwt>0</asrwt>
<pdfrwt beam="1">  1        4 0.49661315E-01 0.12501232E+03</pdfrwt>
<pdfrwt beam="2">  1       -4 0.18620902E-02 0.12501232E+03</pdfrwt>
<totfact> 0.71398594E+03</totfact>
</mgrwt>
</event>
<event>
 5    1  0.3245943E-002  0.1250015E+03  0.7818608E-02  0.1235067E+00
         -4   -1    0    0    0  501 -0.00000000000E+00  0.00000000000E+00  0.18843325760E+03  0.18843753732E+03  0.12700000000E+01 0.  1.
          4   -1    0    0  501    0  0.00000000000E+00 -0.00000000000E+00 -0.20706679416E+02  0.20745589228E+02  0.12700000000E+01 0.  1.
         25    2    1    2    0    0  0.00000000000E+00  0.00000000000E+00  0.16772657819E+03  0.20918312655E+03  0.12500150160E+03 0.  0.
    9000005    1    3    3    0    0  0.56573624982E+02 -0.16015617583E+02  0.11929406606E+03  0.13300056108E+03  0.10000000000E+01 0.  0.
    9000005    1    3    3    0    0 -0.56573624982E+02  0.16015617583E+02  0.48432512123E+02  0.76182565465E+02  0.10000000000E+01 0.  0.
<mgrwt>
<rscale>  0 0.12500150E+03</rscale>
<asrwt>0</asrwt>
<pdfrwt beam="2">  1        4 0.31889653E-02 0.12500150E+03</pdfrwt>
<pdfrwt beam="1">  1       -4 0.28993054E-01 0.12500150E+03</pdfrwt>
<totfact> 0.88606486E+03</totfact>
</mgrwt>
</event>
<event>
 5    1  0.3245943E-002  0.1250140E+03  0.7818608E-02  0.1235047E+00
         -4   -1    0    0    0  501 -0.00000000000E+00  0.00000000000E+00  0.24414166858E+02  0.24447176593E+02  0.12700000000E+01 0. -1.
          4   -1    0    0  501    0  0.00000000000E+00 -0.00000000000E+00 -0.15989147146E+03  0.15989651511E+03  0.12700000000E+01 0. -1.
         25    2    1    2    0    0  0.00000000000E+00  0.00000000000E+00 -0.13547730460E+03  0.18434369171E+03  0.12501398566E+03 0.  0.
    9000005    1    3    3    0    0 -0.45515933830E+01  0.16592947567E+02 -0.15633751901E+03  0.15728465520E+03  0.10000000000E+01 0.  0.
    9000005    1    3    3    0    0  0.45515933830E+01 -0.16592947567E+02  0.20860214411E+02  0.27059036504E+02  0.10000000000E+01 0.  0.
<mgrwt>
<rscale>  0 0.12501399E+03</rscale>
<asrwt>0</asrwt>
<pdfrwt beam="2">  1        4 0.24601614E-01 0.12501399E+03</pdfrwt>
<pdfrwt beam="1">  1       -4 0.37589530E-02 0.12501399E+03</pdfrwt>
<totfact> 0.92811822E+03</totfact>
</mgrwt>
</event>
<event>
 5    1  0.3245943E-002  0.1250013E+03  0.7818608E-02  0.1235067E+00
          4   -1    0    0  501    0  0.00000000000E+00  0.00000000000E+00  0.19280159982E+02  0.19321942681E+02  0.12700000000E+01 0. -1.
         -4   -1    0    0    0  501 -0.00000000000E+00 -0.00000000000E+00 -0.20234587713E+03  0.20234986259E+03  0.12700000000E+01 0. -1.
         25    2    1    2    0    0  0.00000000000E+00  0.00000000000E+00 -0.18306571715E+03  0.22167180527E+03  0.12500132983E+03 0.  0.
    9000005    1    3    3    0    0 -0.23810366421E+02  0.27067283191E+02 -0.10089750939E+01  0.36077547023E+02  0.10000000000E+01 0.  0.
    9000005    1    3    3    0    0  0.23810366421E+02 -0.27067283191E+02 -0.18205674205E+03  0.18559425825E+03  0.10000000000E+01 0.  0.
<mgrwt>
<rscale>  0 0.12500133E+03</rscale>
<asrwt>0</asrwt>
<pdfrwt beam="1">  1        4 0.29696992E-02 0.12500133E+03</pdfrwt>
<pdfrwt beam="2">  1       -4 0.31133654E-01 0.12500133E+03</pdfrwt>
<totfact> 0.86601926E+03</totfact>
</mgrwt>
</event>
<event>
 5    1  0.3245943E-002  0.1249930E+03  0.7818608E-02  0.1235080E+00
          4   -1    0    0  501    0  0.00000000000E+00  0.00000000000E+00  0.12477667356E+03  0.12478313654E+03  0.12700000000E+01 0.  1.
         -4   -1    0    0    0  501 -0.00000000000E+00 -0.00000000000E+00 -0.31282278947E+02  0.31308048104E+02  0.12700000000E+01 0.  1.
         25    2    1    2    0    0  0.00000000000E+00  0.00000000000E+00  0.93494394609E+02  0.15609118464E+03  0.12499302420E+03 0.  0.
    9000005    1    3    3    0    0 -0.13488296216E+02 -0.12897013963E+02  0.12122157313E+03  0.12265372761E+03  0.10000000000E+01 0.  0.
    9000005    1    3    3    0    0  0.13488296216E+02  0.12897013963E+02 -0.27727178521E+02  0.33437457032E+02  0.10000000000E+01 0.  0.
<mgrwt>
<rscale>  0 0.12499302E+03</rscale>
<asrwt>0</asrwt>
<pdfrwt beam="1">  1        4 0.19198891E-01 0.12499302E+03</pdfrwt>
<pdfrwt beam="2">  1       -4 0.48151377E-02 0.12499302E+03</pdfrwt>
<totfact> 0.98117101E+03</totfact>
</mgrwt>
</event>
<event>
 5    1  0.3245943E-002  0.1249966E+03  0.7818608E-02  0.1235075E+00
         -4   -1    0    0    0  501 -0.00000000000E+00  0.00000000000E+00  0.74634650293E+02  0.74645454814E+02  0.12700000000E+01 0. -1.
          4   -1    0    0  501    0  0.00000000000E+00 -0.00000000000E+00 -0.52313122455E+02  0.52328536010E+02  0.12700000000E+01 0. -1.
         25    2    1    2    0    0  0.00000000000E+00  0.00000000000E+00  0.22321527838E+02  0.12697399082E+03  0.12499657492E+03 0.  0.
    9000005    1    3    3    0    0  0.16486318393E+02  0.58723965318E+02 -0.26459097820E+01  0.61059836516E+02  0.10000000000E+01 0.  0.
    9000005    1    3    3    0    0 -0.16486318393E+02 -0.58723965318E+02  0.24967437620E+02  0.65914154308E+02  0.10000000000E+01 0.  0.
<mgrwt>
<rscale>  0 0.12499657E+03</rscale>
<asrwt>0</asrwt>
<pdfrwt beam="2">  1        4 0.80501895E-02 0.12499657E+03</pdfrwt>
<pdfrwt beam="1">  1       -4 0.11484271E-01 0.12499657E+03</pdfrwt>
<totfact> 0.10410516E+04</totfact>
</mgrwt>
</event>
<event>
 5    1  0.3245943E-002  0.1250050E+03  0.7818608E-02  0.1235061E+00
          4   -1    0    0  501    0  0.00000000000E+00  0.00000000000E+00  0.14246951549E+03  0.14247517589E+03  0.12700000000E+01 0. -1.
         -4   -1    0    0    0  501 -0.00000000000E+00 -0.00000000000E+00 -0.27399422137E+02  0.27428839448E+02  0.12700000000E+01 0. -1.
         25    2    1    2    0    0  0.00000000000E+00  0.00000000000E+00  0.11507009336E+03  0.16990401534E+03  0.12500499207E+03 0.  0.
    9000005    1    3    3    0    0 -0.19007624461E+02 -0.29056112972E+02 -0.13090095606E+02  0.37120049726E+02  0.10000000000E+01 0.  0.
    9000005    1    3    3    0    0  0.19007624461E+02  0.29056112972E+02  0.12816018896E+03  0.13278396561E+03  0.10000000000E+01 0.  0.
<mgrwt>
<rscale>  0 0.12500499E+03</rscale>
<asrwt>0</asrwt>
<pdfrwt beam="1">  1        4 0.21921085E-01 0.12500499E+03</pdfrwt>
<pdfrwt beam="2">  1       -4 0.42179940E-02 0.12500499E+03</pdfrwt>
<totfact> 0.95455833E+03</totfact>
</mgrwt>
</event>
<event>
 5    1  0.3245943E-002  0.1249956E+03  0.7818608E-02  0.1235076E+00
         -4   -1    0    0    0  501 -0.00000000000E+00  0.00000000000E+00  0.11980088494E+02  0.12047216289E+02  0.12700000000E+01 0. -1.
          4   -1    0    0  501    0  0.00000000000E+00 -0.00000000000E+00 -0.32505986908E+03  0.32506235000E+03  0.12700000000E+01 0. -1.
         25    2    1    2    0    0  0.00000000000E+00  0.00000000000E+00 -0.31307978058E+03  0.33710956629E+03  0.12499564261E+03 0.  0.
    9000005    1    3    3    0    0 -0.17243315385E+00 -0.54105252757E+02 -0.24086366473E+03  0.24686780490E+03  0.10000000000E+01 0.  0.
    9000005    1    3    3    0    0  0.17243315385E+00  0.54105252757E+02 -0.72216115859E+02  0.90241761390E+02  0.10000000000E+01 0.  0.
<mgrwt>
<rscale>  0 0.12499564E+03</rscale>
<asrwt>0</asrwt>
<pdfrwt beam="2">  1        4 0.50014559E-01 0.12499564E+03</pdfrwt>
<pdfrwt beam="1">  1       -4 0.18484453E-02 0.12499564E+03</pdfrwt>
<totfact> 0.71173207E+03</totfact>
</mgrwt>
</event>
<event>
 5    1  0.3245943E-002  0.1250002E+03  0.7818608E-02  0.1235069E+00
         -4   -1    0    0    0  501 -0.00000000000E+00  0.00000000000E+00  0.57143531421E+03  0.57143672548E+03  0.12700000000E+01 0.  1.
          4   -1    0    0  501    0  0.00000000000E+00 -0.00000000000E+00 -0.67754616865E+01  0.68934592960E+01  0.12700000000E+01 0.  1.
         25    2    1    2    0    0  0.00000000000E+00  0.00000000000E+00  0.56465985252E+03  0.57833018477E+03  0.12500021428E+03 0.  0.
    9000005    1    3    3    0    0 -0.28710678626E+01  0.36764739357E+02  0.48908386203E+02  0.61261075175E+02  0.10000000000E+01 0.  0.
    9000005    1    3    3    0    0  0.28710678626E+01 -0.36764739357E+02  0.51575146632E+03  0.51706910960E+03  0.10000000000E+01 0.  0.
<mgrwt>
<rscale>  0 0.12500021E+03</rscale>
<asrwt>0</asrwt>
<pdfrwt beam="2">  1        4 0.10515639E-02 0.12500021E+03</pdfrwt>
<pdfrwt beam="1">  1       -4 0.87922319E-01 0.12500021E+03</pdfrwt>
<totfact> 0.50264438E+03</totfact>
</mgrwt>
</event>
<event>
 5    1  0.3245943E-002  0.1250395E+03  0.7818608E-02  0.1235007E+00
          4   -1    0    0  501    0  0.00000000000E+00  0.00000000000E+00  0.10123391936E+03  0.10124188525E+03  0.12700000000E+01 0. -1.
         -4   -1    0    0    0  501 -0.00000000000E+00 -0.00000000000E+00 -0.38590861149E+02  0.38611752928E+02  0.12700000000E+01 0. -1.
         25    2    1    2    0    0  0.00000000000E+00  0.00000000000E+00  0.62643058212E+02  0.13985363818E+03  0.12503954322E+03 0.  0.
    9000005    1    3    3    0    0  0.28094864639E+01  0.41807011782E+02  0.83207239258E+02  0.93167398339E+02  0.10000000000E+01 0.  0.
    9000005    1    3    3    0    0 -0.28094864639E+01 -0.41807011782E+02 -0.20564181046E+02  0.46686239840E+02  0.10000000000E+01 0.  0.
<mgrwt>
<rscale>  0 0.12503954E+03</rscale>
<asrwt>0</asrwt>
<pdfrwt beam="1">  1        4 0.15576669E-01 0.12503954E+03</pdfrwt>
<pdfrwt beam="2">  1       -4 0.59392755E-02 0.12503954E+03</pdfrwt>
<totfact> 0.10127595E+04</totfact>
</mgrwt>
</event>
<event>
 5    1  0.3245943E-002  0.1249999E+03  0.7818608E-02  0.1235069E+00
         -4   -1    0    0    0  501 -0.00000000000E+00  0.00000000000E+00  0.51115445238E+02  0.51131219835E+02  0.12700000000E+01 0. -1.
          4   -1    0    0  501    0  0.00000000000E+00 -0.00000000000E+00 -0.76387217924E+02  0.76397774589E+02  0.12700000000E+01 0. -1.
         25    2    1    2    0    0  0.00000000000E+00  0.00000000000E+00 -0.25271772686E+02  0.12752899442E+03  0.12499992770E+03 0.  0.
    9000005    1    3    3    0    0 -0.45697007422E+02 -0.26083012858E+02  0.21761317611E+02  0.56948178121E+02  0.10000000000E+01 0.  0.
    9000005    1    3    3    0    0  0.45697007422E+02  0.26083012858E+02 -0.47033090298E+02  0.70580816303E+02  0.10000000000E+01 0.  0.
<mgrwt>
<rscale>  0 0.12499993E+03</rscale>
<asrwt>0</asrwt>
<pdfrwt beam="2">  1        4 0.11753905E-01 0.12499993E+03</pdfrwt>
<pdfrwt beam="1">  1       -4 0.78659401E-02 0.12499993E+03</pdfrwt>
<totfact> 0.10397690E+04</totfact>
</mgrwt>
</event>
<event>
 5    1  0.3245943E-002  0.1249929E+03  0.7818608E-02  0.1235080E+00
          4   -1    0    0  501    0  0.00000000000E+00  0.00000000000E+00  0.57387050014E+02  0.57401101116E+02  0.12700000000E+01 0. -1.
         -4   -1    0    0    0  501 -0.00000000000E+00 -0.00000000000E+00 -0.68032459073E+02  0.68044311941E+02  0.12700000000E+01 0. -1.
         25    2    1    2    0    0  0.00000000000E+00  0.00000000000E+00 -0.10645409059E+02  0.12544541306E+03  0.12499290749E+03 0.  0.
    9000005    1    3    3    0    0  0.17404414366E+01 -0.60273633345E+02  0.11133813057E+02  0.61326191844E+02  0.10000000000E+01 0.  0.
    9000005    1    3    3    0    0 -0.17404414366E+01  0.60273633345E+02 -0.21779222116E+02  0.64119221213E+02  0.10000000000E+01 0.  0.
<mgrwt>
<rscale>  0 0.12499291E+03</rscale>
<asrwt>0</asrwt>
<pdfrwt beam="1">  1        4 0.88307695E-02 0.12499291E+03</pdfrwt>
<pdfrwt beam="2">  1       -4 0.10468525E-01 0.12499291E+03</pdfrwt>
<totfact> 0.10444832E+04</totfact>
</mgrwt>
</event>
<event>
 4    1  0.3245943E-002  0.1249344E+03  0.7818608E-02  0.1235172E+00
          4   -1    0    0  501    0  0.00000000000E+00  0.00000000000E+00  0.37978144769E+03  0.37978357115E+03  0.12700000000E+01 0.  1.
         -4   -1    0    0    0  501 -0.00000000000E+00 -0.00000000000E+00 -0.10233323172E+02  0.10311828313E+02  0.12700000000E+01 0.  1.
    9000005    1    1    2    0    0 -0.57111945280E+02  0.18962104243E+02  0.23700461173E+03  0.24452713892E+03  0.10000000000E+01 0.  0.
    9000005    1    1    2    0    0  0.57111945280E+02 -0.18962104243E+02  0.13254351279E+03  0.14556826053E+03  0.10000000000E+01 0.  0.
<mgrwt>
<rscale>  0 0.12493440E+03</rscale>
<asrwt>0</asrwt>
<pdfrwt beam="1">  1        4 0.58434108E-01 0.12493440E+03</pdfrwt>
<pdfrwt beam="2">  1       -4 0.15805599E-02 0.12493440E+03</pdfrwt>
<totfact> 0.65622671E+03</totfact>
</mgrwt>
</event>
<event>
 5    1  0.3245943E-002  0.1249973E+03  0.7818608E-02  0.1235074E+00
          4   -1    0    0  501    0  0.00000000000E+00  0.00000000000E+00  0.33945854078E+02  0.33969602722E+02  0.12700000000E+01 0. -1.
         -4   -1    0    0    0  501 -0.00000000000E+00 -0.00000000000E+00 -0.11500043875E+03  0.11500745111E+03  0.12700000000E+01 0. -1.
         25    2    1    2    0    0  0.00000000000E+00  0.00000000000E+00 -0.81054584668E+02  0.14897705384E+03  0.12499726747E+03 0.  0.
    9000005    1    3    3    0    0  0.24051289106E+01 -0.23224681737E+02 -0.10961210790E+03  0.11207579884E+03  0.10000000000E+01 0.  0.
    9000005    1    3    3    0    0 -0.24051289106E+01  0.23224681737E+02  0.28557523235E+02  0.36901254995E+02  0.10000000000E+01 0.  0.
<mgrwt>
<rscale>  0 0.12499727E+03</rscale>
<asrwt>0</asrwt>
<pdfrwt beam="1">  1        4 0.52248054E-02 0.12499727E+03</pdfrwt>
<pdfrwt beam="2">  1       -4 0.17694741E-01 0.12499727E+03</pdfrwt>
<totfact> 0.99514119E+03</totfact>
</mgrwt>
</event>
<event>
 5    1  0.3245943E-002  0.1250017E+03  0.7818608E-02  0.1235067E+00
          4   -1    0    0  501    0  0.00000000000E+00  0.00000000000E+00  0.35151272464E+03  0.35151501886E+03  0.12700000000E+01 0.  1.
         -4   -1    0    0    0  501 -0.00000000000E+00 -0.00000000000E+00 -0.11074368966E+02  0.11146952409E+02  0.12700000000E+01 0.  1.
         25    2    1    2    0    0  0.00000000000E+00  0.00000000000E+00  0.34043835567E+03  0.36266197126E+03  0.12500172555E+03 0.  0.
    9000005    1    3    3    0    0  0.15790539393E+02  0.14809584667E+02  0.34030040218E+03  0.34098977794E+03  0.10000000000E+01 0.  0.
    9000005    1    3    3    0    0 -0.15790539393E+02 -0.14809584667E+02  0.13795348545E+00  0.21672193325E+02  0.10000000000E+01 0.  0.
<mgrwt>
<rscale>  0 0.12500173E+03</rscale>
<asrwt>0</asrwt>
<pdfrwt beam="1">  1        4 0.54084635E-01 0.12500173E+03</pdfrwt>
<pdfrwt beam="2">  1       -4 0.17095091E-02 0.12500173E+03</pdfrwt>
<totfact> 0.68351078E+03</totfact>
</mgrwt>
</event>
<event>
 5    1  0.3245943E-002  0.1249977E+03  0.7818608E-02  0.1235073E+00
         -4   -1    0    0    0  501 -0.00000000000E+00  0.00000000000E+00  0.23009472763E+03  0.23009823246E+03  0.12700000000E+01 0.  1.
          4   -1    0    0  501    0  0.00000000000E+00 -0.00000000000E+00 -0.16948675212E+02  0.16996190498E+02  0.12700000000E+01 0.  1.
         25    2    1    2    0    0  0.00000000000E+00  0.00000000000E+00  0.21314605241E+03  0.24709442296E+03  0.12499765677E+03 0.  0.
    9000005    1    3    3    0    0 -0.14293658511E+02 -0.57946729796E+02  0.14318220719E+03  0.15512664705E+03  0.10000000000E+01 0.  0.
    9000005    1    3    3    0    0  0.14293658511E+02  0.57946729796E+02  0.69963845220E+02  0.91967775909E+02  0.10000000000E+01 0.  0.
<mgrwt>
<rscale>  0 0.12499766E+03</rscale>
<asrwt>0</asrwt>
<pdfrwt beam="2">  1        4 0.26114133E-02 0.12499766E+03</pdfrwt>
<pdfrwt beam="1">  1       -4 0.35403111E-01 0.12499766E+03</pdfrwt>
<totfact> 0.82756317E+03</totfact>
</mgrwt>
</event>
<event>
 5    1  0.3245943E-002  0.1250013E+03  0.7818608E-02  0.1235067E+00
          4   -1    0    0  501    0  0.00000000000E+00  0.00000000000E+00  0.19208204874E+02  0.19250143752E+02  0.12700000000E+01 0. -1.
         -4   -1    0    0    0  501 -0.00000000000E+00 -0.00000000000E+00 -0.20310225395E+03  0.20310622457E+03  0.12700000000E+01 0. -1.
         25    2    1    2    0    0  0.00000000000E+00  0.00000000000E+00 -0.18389404907E+03  0.22235636832E+03  0.12500133298E+03 0.  0.
    9000005    1    3    3    0    0 -0.50394014943E+01  0.46306388080E+02 -0.16605531174E+03  0.17246751491E+03  0.10000000000E+01 0.  0.
    9000005    1    3    3    0    0  0.50394014943E+01 -0.46306388080E+02 -0.17838737335E+02  0.49888853406E+02  0.10000000000E+01 0.  0.
<mgrwt>
<rscale>  0 0.12500133E+03</rscale>
<asrwt>0</asrwt>
<pdfrwt beam="1">  1        4 0.29586401E-02 0.12500133E+03</pdfrwt>
<pdfrwt beam="2">  1       -4 0.31250031E-01 0.12500133E+03</pdfrwt>
<totfact> 0.86494279E+03</totfact>
</mgrwt>
</event>
<event>
 5    1  0.3245943E-002  0.1249939E+03  0.7818608E-02  0.1235079E+00
          4   -1    0    0  501    0  0.00000000000E+00  0.00000000000E+00  0.34494011265E+01  0.36757676928E+01  0.12700000000E+01 0.  1.
         -4   -1    0    0    0  501 -0.00000000000E+00 -0.00000000000E+00 -0.10961321209E+04  0.10961328567E+04  0.12700000000E+01 0.  1.
         25    2    1    2    0    0  0.00000000000E+00  0.00000000000E+00 -0.10926827198E+04  0.10998086244E+04  0.12499393597E+03 0.  0.
    9000005    1    3    3    0    0  0.61224341129E+02 -0.68549076038E+01 -0.63839871276E+03  0.64136520498E+03  0.10000000000E+01 0.  0.
    9000005    1    3    3    0    0 -0.61224341129E+02  0.68549076038E+01 -0.45428400704E+03  0.45844341937E+03  0.10000000000E+01 0.  0.
<mgrwt>
<rscale>  0 0.12499394E+03</rscale>
<asrwt>0</asrwt>
<pdfrwt beam="1">  1        4 0.54814738E-03 0.12499394E+03</pdfrwt>
<pdfrwt beam="2">  1       -4 0.16865291E+00 0.12499394E+03</pdfrwt>
<totfact> 0.27492677E+03</totfact>
</mgrwt>
</event>
<event>
 5    1  0.3245943E-002  0.1249986E+03  0.7818608E-02  0.1235071E+00
          4   -1    0    0  501    0  0.00000000000E+00  0.00000000000E+00  0.63144378707E+03  0.63144506422E+03  0.12700000000E+01 0. -1.
         -4   -1    0    0    0  501 -0.00000000000E+00 -0.00000000000E+00 -0.61196023089E+01  0.62499945935E+01  0.12700000000E+01 0. -1.
         25    2    1    2    0    0  0.00000000000E+00  0.00000000000E+00  0.62532418476E+03  0.63769505882E+03  0.12499860795E+03 0.  0.
    9000005    1    3    3    0    0 -0.39413723603E+02 -0.43605743103E+02  0.42091506423E+03  0.42500046322E+03  0.10000000000E+01 0.  0.
    9000005    1    3    3    0    0  0.39413723603E+02  0.43605743103E+02  0.20440912053E+03  0.21269459560E+03  0.10000000000E+01 0.  0.
<mgrwt>
<rscale>  0 0.12499861E+03</rscale>
<asrwt>0</asrwt>
<pdfrwt beam="1">  1        4 0.97155260E-01 0.12499861E+03</pdfrwt>
<pdfrwt beam="2">  1       -4 0.95160635E-03 0.12499861E+03</pdfrwt>
<totfact> 0.46572899E+03</totfact>
</mgrwt>
</event>
<event>
 5    1  0.3245943E-002  0.1249966E+03  0.7818608E-02  0.1235075E+00
         -4   -1    0    0    0  501 -0.00000000000E+00  0.00000000000E+00  0.25165542705E+03  0.25165863161E+03  0.12700000000E+01 0.  1.
          4   -1    0    0  501    0  0.00000000000E+00 -0.00000000000E+00 -0.15492095656E+02  0.15544064070E+02  0.12700000000E+01 0.  1.
         25    2    1    2    0    0  0.00000000000E+00  0.00000000000E+00  0.23616333139E+03  0.26720269568E+03  0.12499664589E+03 0.  0.
    9000005    1    3    3    0    0 -0.59572401128E+02  0.17428811563E+02  0.10260659436E+03  0.11992392444E+03  0.10000000000E+01 0.  0.
    9000005    1    3    3    0    0  0.59572401128E+02 -0.17428811563E+02  0.13355673704E+03  0.14727877124E+03  0.10000000000E+01 0.  0.
<mgrwt>
<rscale>  0 0.12499665E+03</rscale>
<asrwt>0</asrwt>
<pdfrwt beam="2">  1        4 0.23876434E-02 0.12499665E+03</pdfrwt>
<pdfrwt beam="1">  1       -4 0.38720464E-01 0.12499665E+03</pdfrwt>
<totfact> 0.79911733E+03</totfact>
</mgrwt>
</event>
<event>
 5    1  0.3245943E-002  0.1249949E+03  0.7818608E-02  0.1235077E+00
          4   -1    0    0  501    0  0.00000000000E+00  0.00000000000E+00  0.52470875543E+02  0.52486242771E+02  0.12700000000E+01 0.  1.
         -4   -1    0    0    0  501 -0.00000000000E+00 -0.00000000000E+00 -0.74408281672E+02  0.74419119058E+02  0.12700000000E+01 0.  1.
         25    2    1    2    0    0  0.00000000000E+00  0.00000000000E+00 -0.21937406129E+02  0.12690536183E+03  0.12499488419E+03 0.  0.
    9000005    1    3    3    0    0  0.43667949018E+02 -0.19400547514E+02 -0.51854035697E+02  0.70520295188E+02  0.10000000000E+01 0.  0.
    9000005    1    3    3    0    0 -0.43667949018E+02  0.19400547514E+02  0.29916629568E+02  0.56385066641E+02  0.10000000000E+01 0.  0.
<mgrwt>
<rscale>  0 0.12499488E+03</rscale>
<asrwt>0</asrwt>
<pdfrwt beam="1">  1        4 0.80744581E-02 0.12499488E+03</pdfrwt>
<pdfrwt beam="2">  1       -4 0.11449444E-01 0.12499488E+03</pdfrwt>
<totfact> 0.10412405E+04</totfact>
</mgrwt>
</event>
<event>
 5    1  0.3245943E-002  0.1250141E+03  0.7818608E-02  0.1235047E+00
          4   -1    0    0  501    0  0.00000000000E+00  0.00000000000E+00  0.43550909344E+02  0.43569422818E+02  0.12700000000E+01 0. -1.
         -4   -1    0    0    0  501 -0.00000000000E+00 -0.00000000000E+00 -0.89672000836E+02  0.89680993716E+02  0.12700000000E+01 0. -1.
         25    2    1    2    0    0  0.00000000000E+00  0.00000000000E+00 -0.46121091492E+02  0.13325041653E+03  0.12501407291E+03 0.  0.
    9000005    1    3    3    0    0 -0.51804293416E+01  0.25762504249E+02 -0.83502673475E+02  0.87545644957E+02  0.10000000000E+01 0.  0.
    9000005    1    3    3    0    0  0.51804293416E+01 -0.25762504249E+02  0.37381581983E+02  0.45704771577E+02  0.10000000000E+01 0.  0.
<mgrwt>
<rscale>  0 0.12501407E+03</rscale>
<asrwt>0</asrwt>
<pdfrwt beam="1">  1        4 0.67022558E-02 0.12501407E+03</pdfrwt>
<pdfrwt beam="2">  1       -4 0.13797808E-01 0.12501407E+03</pdfrwt>
<totfact> 0.10271820E+04</totfact>
</mgrwt>
</event>
<event>
 5    1  0.3245943E-002  0.1249988E+03  0.7818608E-02  0.1235071E+00
          4   -1    0    0  501    0  0.00000000000E+00  0.00000000000E+00  0.18746584834E+02  0.18789554091E+02  0.12700000000E+01 0.  1.
         -4   -1    0    0    0  501 -0.00000000000E+00 -0.00000000000E+00 -0.20808380858E+03  0.20808768414E+03  0.12700000000E+01 0.  1.
         25    2    1    2    0    0  0.00000000000E+00  0.00000000000E+00 -0.18933722374E+03  0.22687723823E+03  0.12499878773E+03 0.  0.
    9000005    1    3    3    0    0  0.55581997754E+02 -0.16712887794E+02 -0.13670912634E+03  0.14852294206E+03  0.10000000000E+01 0.  0.
    9000005    1    3    3    0    0 -0.55581997754E+02  0.16712887794E+02 -0.52628097400E+02  0.78354296172E+02  0.10000000000E+01 0.  0.
<mgrwt>
<rscale>  0 0.12499879E+03</rscale>
<asrwt>0</asrwt>
<pdfrwt beam="1">  1        4 0.28876936E-02 0.12499879E+03</pdfrwt>
<pdfrwt beam="2">  1       -4 0.32016495E-01 0.12499879E+03</pdfrwt>
<totfact> 0.85793740E+03</totfact>
</mgrwt>
</event>
<event>
 5    1  0.3245943E-002  0.1250028E+03  0.7818608E-02  0.1235065E+00
         -4   -1    0    0    0  501 -0.00000000000E+00  0.00000000000E+00  0.33793244351E+02  0.33817100168E+02  0.12700000000E+01 0.  1.
          4   -1    0    0  501    0  0.00000000000E+00 -0.00000000000E+00 -0.11552974233E+03  0.11553672257E+03  0.12700000000E+01 0.  1.
         25    2    1    2    0    0  0.00000000000E+00  0.00000000000E+00 -0.81736497978E+02  0.14935382274E+03  0.12500283703E+03 0.  0.
    9000005    1    3    3    0    0 -0.19276671305E+02 -0.61110139268E+00  0.30154388680E+02  0.35808527730E+02  0.10000000000E+01 0.  0.
    9000005    1    3    3    0    0  0.19276671305E+02  0.61110139268E+00 -0.11189088666E+03  0.11354529501E+03  0.10000000000E+01 0.  0.
<mgrwt>
<rscale>  0 0.12500284E+03</rscale>
<asrwt>0</asrwt>
<pdfrwt beam="2">  1        4 0.17776178E-01 0.12500284E+03</pdfrwt>
<pdfrwt beam="1">  1       -4 0.52013327E-02 0.12500284E+03</pdfrwt>
<totfact> 0.99426311E+03</totfact>
</mgrwt>
</event>
<event>
 5    1  0.3245943E-002  0.1250034E+03  0.7818608E-02  0.1235064E+00
          4   -1    0    0  501    0  0.00000000000E+00  0.00000000000E+00  0.47820404743E+02  0.47837265910E+02  0.12700000000E+01 0.  1.
         -4   -1    0    0    0  501 -0.00000000000E+00 -0.00000000000E+00 -0.81654027401E+02  0.81663903230E+02  0.12700000000E+01 0.  1.
         25    2    1    2    0    0  0.00000000000E+00  0.00000000000E+00 -0.33833622658E+02  0.12950116914E+03  0.12500335510E+03 0.  0.
    9000005    1    3    3    0    0  0.59284594048E+02 -0.16377765624E+02 -0.28386086175E+02  0.67747060354E+02  0.10000000000E+01 0.  0.
    9000005    1    3    3    0    0 -0.59284594048E+02  0.16377765624E+02 -0.54475364830E+01  0.61754108786E+02  0.10000000000E+01 0.  0.
<mgrwt>
<rscale>  0 0.12500336E+03</rscale>
<asrwt>0</asrwt>
<pdfrwt beam="1">  1        4 0.73590421E-02 0.12500336E+03</pdfrwt>
<pdfrwt beam="2">  1       -4 0.12564215E-01 0.12500336E+03</pdfrwt>
<totfact> 0.10354406E+04</totfact>
</mgrwt>
</event>
<event>
 5    1  0.3245943E-002  0.1249862E+03  0.7818608E-02  0.1235091E+00
          4   -1    0    0  501    0  0.00000000000E+00  0.00000000000E+00  0.54279459851E+02  0.54294315188E+02  0.12700000000E+01 0.  1.
         -4   -1    0    0    0  501 -0.00000000000E+00 -0.00000000000E+00 -0.71919286668E+02  0.71930499059E+02  0.12700000000E+01 0.  1.
         25    2    1    2    0    0  0.00000000000E+00  0.00000000000E+00 -0.17639826817E+02  0.12622481425E+03  0.12498616020E+03 0.  0.
    9000005    1    3    3    0    0  0.53861909848E+02 -0.31659297483E+02 -0.98138472008E+01  0.63251308654E+02  0.10000000000E+01 0.  0.
    9000005    1    3    3    0    0 -0.53861909848E+02  0.31659297483E+02 -0.78259796161E+01  0.62973505592E+02  0.10000000000E+01 0.  0.
<mgrwt>
<rscale>  0 0.12498616E+03</rscale>
<asrwt>0</asrwt>
<pdfrwt beam="1">  1        4 0.83526914E-02 0.12498616E+03</pdfrwt>
<pdfrwt beam="2">  1       -4 0.11066511E-01 0.12498616E+03</pdfrwt>
<totfact> 0.10429294E+04</totfact>
</mgrwt>
</event>
<event>
 5    1  0.3245943E-002  0.1250043E+03  0.7818608E-02  0.1235063E+00
         -4   -1    0    0    0  501 -0.00000000000E+00  0.00000000000E+00  0.14184545819E+03  0.14185114349E+03  0.12700000000E+01 0.  1.
          4   -1    0    0  501    0  0.00000000000E+00 -0.00000000000E+00 -0.27519781239E+02  0.27549070028E+02  0.12700000000E+01 0.  1.
         25    2    1    2    0    0  0.00000000000E+00  0.00000000000E+00  0.11432567695E+03  0.16940021352E+03  0.12500428764E+03 0.  0.
    9000005    1    3    3    0    0  0.20015186371E+02  0.31458120440E+02 -0.10801904115E+02  0.38831715898E+02  0.10000000000E+01 0.  0.
    9000005    1    3    3    0    0 -0.20015186371E+02 -0.31458120440E+02  0.12512758107E+03  0.13056849762E+03  0.10000000000E+01 0.  0.
<mgrwt>
<rscale>  0 0.12500429E+03</rscale>
<asrwt>0</asrwt>
<pdfrwt beam="2">  1        4 0.42365028E-02 0.12500429E+03</pdfrwt>
<pdfrwt beam="1">  1       -4 0.21825069E-01 0.12500429E+03</pdfrwt>
<totfact> 0.95551290E+03</totfact>
</mgrwt>
</event>
<event>
 5    1  0.3245943E-002  0.1249987E+03  0.7818608E-02  0.1235071E+00
         -4   -1    0    0    0  501 -0.00000000000E+00  0.00000000000E+00  0.41879327942E+02  0.41898580034E+02  0.12700000000E+01 0. -1.
          4   -1    0    0  501    0  0.00000000000E+00 -0.00000000000E+00 -0.93226944490E+02  0.93235594485E+02  0.12700000000E+01 0. -1.
         25    2    1    2    0    0  0.00000000000E+00  0.00000000000E+00 -0.51347616548E+02  0.13513417452E+03  0.12499866958E+03 0.  0.
    9000005    1    3    3    0    0 -0.31825550989E+02 -0.45832981398E+02 -0.56091299042E+02  0.79124975246E+02  0.10000000000E+01 0.  0.
    9000005    1    3    3    0    0  0.31825550989E+02  0.45832981398E+02  0.47436824937E+01  0.56009199273E+02  0.10000000000E+01 0.  0.
<mgrwt>
<rscale>  0 0.12499867E+03</rscale>
<asrwt>0</asrwt>
<pdfrwt beam="2">  1        4 0.14344753E-01 0.12499867E+03</pdfrwt>
<pdfrwt beam="1">  1       -4 0.64451199E-02 0.12499867E+03</pdfrwt>
<totfact> 0.10235551E+04</totfact>
</mgrwt>
</event>
<event>
 5    1  0.3245943E-002  0.1249992E+03  0.7818608E-02  0.1235071E+00
          4   -1    0    0  501    0  0.00000000000E+00  0.00000000000E+00  0.20442918536E+03  0.20443313021E+03  0.12700000000E+01 0.  1.
         -4   -1    0    0    0  501 -0.00000000000E+00 -0.00000000000E+00 -0.19082601256E+02  0.19124815573E+02  0.12700000000E+01 0.  1.
         25    2    1    2    0    0  0.00000000000E+00  0.00000000000E+00  0.18534658410E+03  0.22355794578E+03  0.12499919553E+03 0.  0.
    9000005    1    3    3    0    0  0.34030272537E+02 -0.31607955962E+02  0.16744946263E+03  0.17377412023E+03  0.10000000000E+01 0.  0.
    9000005    1    3    3    0    0 -0.34030272537E+02  0.31607955962E+02  0.17897121478E+02  0.49783825548E+02  0.10000000000E+01 0.  0.
<mgrwt>
<rscale>  0 0.12499920E+03</rscale>
<asrwt>0</asrwt>
<pdfrwt beam="1">  1        4 0.31454194E-01 0.12499920E+03</pdfrwt>
<pdfrwt beam="2">  1       -4 0.29393356E-02 0.12499920E+03</pdfrwt>
<totfact> 0.86310014E+03</totfact>
</mgrwt>
</event>
<event>
 5    1  0.3245943E-002  0.1249972E+03  0.7818608E-02  0.1235074E+00
          4   -1    0    0  501    0  0.00000000000E+00  0.00000000000E+00  0.22773809471E+04  0.22773813012E+04  0.12700000000E+01 0. -1.
         -4   -1    0    0    0  501 -0.00000000000E+00 -0.00000000000E+00 -0.14796651153E+01  0.19499509874E+01  0.12700000000E+01 0. -1.
         25    2    1    2    0    0  0.00000000000E+00  0.00000000000E+00  0.22759012820E+04  0.22793312522E+04  0.12499724764E+03 0.  0.
    9000005    1    3    3    0    0 -0.41875895352E+02  0.40645577531E+02  0.15454640196E+04  0.15465657727E+04  0.10000000000E+01 0.  0.
    9000005    1    3    3    0    0  0.41875895352E+02 -0.40645577531E+02  0.73043726244E+03  0.73276547950E+03  0.10000000000E+01 0.  0.
<mgrwt>
<rscale>  0 0.12499725E+03</rscale>
<asrwt>0</asrwt>
<pdfrwt beam="1">  1        4 0.35040217E+00 0.12499725E+03</pdfrwt>
<pdfrwt beam="2">  1       -4 0.26384411E-03 0.12499725E+03</pdfrwt>
<totfact> 0.66421445E+02</totfact>
</mgrwt>
</event>
<event>
 5    1  0.3245943E-002  0.1249848E+03  0.7818608E-02  0.1235093E+00
          4   -1    0    0  501    0  0.00000000000E+00  0.00000000000E+00  0.54379298130E+01  0.55842618717E+01  0.12700000000E+01 0.  1.
         -4   -1    0    0    0  501 -0.00000000000E+00 -0.00000000000E+00 -0.70847810447E+03  0.70847924275E+03  0.12700000000E+01 0.  1.
         25    2    1    2    0    0  0.00000000000E+00  0.00000000000E+00 -0.70304017466E+03  0.71406350462E+03  0.12498480490E+03 0.  0.
    9000005    1    3    3    0    0  0.57092921476E+02 -0.21851797411E+02 -0.42539460882E+03  0.42976583851E+03  0.10000000000E+01 0.  0.
    9000005    1    3    3    0    0 -0.57092921476E+02  0.21851797411E+02 -0.27764556583E+03  0.28429766611E+03  0.10000000000E+01 0.  0.
<mgrwt>
<rscale>  0 0.12498480E+03</rscale>
<asrwt>0</asrwt>
<pdfrwt beam="1">  1        4 0.84794902E-03 0.12498480E+03</pdfrwt>
<pdfrwt beam="2">  1       -4 0.10900790E+00 0.12498480E+03</pdfrwt>
<totfact> 0.42368732E+03</totfact>
</mgrwt>
</event>
<event>
 5    1  0.3245943E-002  0.1249972E+03  0.7818608E-02  0.1235074E+00
         -4   -1    0    0    0  501 -0.00000000000E+00  0.00000000000E+00  0.23227198244E+04  0.23227201716E+04  0.12700000000E+01 0. -1.
          4   -1    0    0  501    0  0.00000000000E+00 -0.00000000000E+00 -0.14415101010E+01  0.19211588615E+01  0.12700000000E+01 0. -1.
         25    2    1    2    0    0  0.00000000000E+00  0.00000000000E+00  0.23212783143E+04  0.23246413304E+04  0.12499721140E+03 0.  0.
    9000005    1    3    3    0    0  0.53795000606E+01 -0.57537698151E+02  0.16029128711E+04  0.16039545499E+04  0.10000000000E+01 0.  0.
    9000005    1    3    3    0    0 -0.53795000606E+01  0.57537698151E+02  0.71836544319E+03  0.72068678058E+03  0.10000000000E+01 0.  0.
<mgrwt>
<rscale>  0 0.12499721E+03</rscale>
<asrwt>0</asrwt>
<pdfrwt beam="2">  1        4 0.25869203E-03 0.12499721E+03</pdfrwt>
<pdfrwt beam="1">  1       -4 0.35738053E+00 0.12499721E+03</pdfrwt>
<totfact> 0.61972857E+02</totfact>
</mgrwt>
</event>
<event>
 5    1  0.3245943E-002  0.1250018E+03  0.7818608E-02  0.1235067E+00
          4   -1    0    0  501    0  0.00000000000E+00  0.00000000000E+00  0.15870427001E+03  0.15870935140E+03  0.12700000000E+01 0. -1.
         -4   -1    0    0    0  501 -0.00000000000E+00 -0.00000000000E+00 -0.24592228848E+02  0.24624999893E+02  0.12700000000E+01 0. -1.
         25    2    1    2    0    0  0.00000000000E+00  0.00000000000E+00  0.13411204117E+03  0.18333435129E+03  0.12500177910E+03 0.  0.
    9000005    1    3    3    0    0 -0.29730778436E+02  0.49635409328E+02  0.32417885055E+02  0.66328819657E+02  0.10000000000E+01 0.  0.
    9000005    1    3    3    0    0  0.29730778436E+02 -0.49635409328E+02  0.10169415611E+03  0.11700553163E+03  0.10000000000E+01 0.  0.
<mgrwt>
<rscale>  0 0.12500178E+03</rscale>
<asrwt>0</asrwt>
<pdfrwt beam="1">  1        4 0.24418952E-01 0.12500178E+03</pdfrwt>
<pdfrwt beam="2">  1       -4 0.37863318E-02 0.12500178E+03</pdfrwt>
<totfact> 0.93016521E+03</totfact>
</mgrwt>
</event>
<event>
 5    1  0.3245943E-002  0.1250203E+03  0.7818608E-02  0.1235038E+00
         -4   -1    0    0    0  501 -0.00000000000E+00  0.00000000000E+00  0.17853371898E+04  0.17853376415E+04  0.12700000000E+01 0.  1.
          4   -1    0    0  501    0  0.00000000000E+00 -0.00000000000E+00 -0.20039511208E+01  0.23724923803E+01  0.12700000000E+01 0.  1.
         25    2    1    2    0    0  0.00000000000E+00  0.00000000000E+00  0.17833332387E+04  0.17877101339E+04  0.12502032885E+03 0.  0.
    9000005    1    3    3    0    0 -0.56263725159E+02 -0.19403481681E+02  0.61869540996E+03  0.62155217977E+03  0.10000000000E+01 0.  0.
    9000005    1    3    3    0    0  0.56263725159E+02  0.19403481681E+02  0.11646378287E+04  0.11661579541E+04  0.10000000000E+01 0.  0.
<mgrwt>
<rscale>  0 0.12502033E+03</rscale>
<asrwt>0</asrwt>
<pdfrwt beam="2">  1        4 0.33668321E-03 0.12502033E+03</pdfrwt>
<pdfrwt beam="1">  1       -4 0.27469649E+00 0.12502033E+03</pdfrwt>
<totfact> 0.12887950E+03</totfact>
</mgrwt>
</event>
<event>
 5    1  0.3245943E-002  0.1249977E+03  0.7818608E-02  0.1235073E+00
          4   -1    0    0  501    0  0.00000000000E+00  0.00000000000E+00  0.74399521012E+02  0.74410359674E+02  0.12700000000E+01 0. -1.
         -4   -1    0    0    0  501 -0.00000000000E+00 -0.00000000000E+00 -0.52479392306E+02  0.52494757041E+02  0.12700000000E+01 0. -1.
         25    2    1    2    0    0  0.00000000000E+00  0.00000000000E+00  0.21920128706E+02  0.12690511671E+03  0.12499766640E+03 0.  0.
    9000005    1    3    3    0    0  0.59170611940E+02  0.19939733551E+02  0.84017181989E+01  0.63010659099E+02  0.10000000000E+01 0.  0.
    9000005    1    3    3    0    0 -0.59170611940E+02 -0.19939733551E+02  0.13518410507E+02  0.63894457616E+02  0.10000000000E+01 0.  0.
<mgrwt>
<rscale>  0 0.12499767E+03</rscale>
<asrwt>0</asrwt>
<pdfrwt beam="1">  1        4 0.11448096E-01 0.12499767E+03</pdfrwt>
<pdfrwt beam="2">  1       -4 0.80757683E-02 0.12499767E+03</pdfrwt>
<totfact> 0.10411756E+04</totfact>
</mgrwt>
</event>
<event>
 5    1  0.3245943E-002  0.1249948E+03  0.7818608E-02  0.1235077E+00
         -4   -1    0    0    0  501 -0.00000000000E+00  0.00000000000E+00  0.73031887559E+02  0.73042929161E+02  0.12700000000E+01 0.  1.
          4   -1    0    0  501    0  0.00000000000E+00 -0.00000000000E+00 -0.53459821723E+02  0.53474904756E+02  0.12700000000E+01 0.  1.
         25    2    1    2    0    0  0.00000000000E+00  0.00000000000E+00  0.19572065836E+02  0.12651783392E+03  0.12499478604E+03 0.  0.
    9000005    1    3    3    0    0  0.27675159416E+02  0.46406942612E+02 -0.21987631998E+02  0.58343592041E+02  0.10000000000E+01 0.  0.
    9000005    1    3    3    0    0 -0.27675159416E+02 -0.46406942612E+02  0.41559697834E+02  0.68174241876E+02  0.10000000000E+01 0.  0.
<mgrwt>
<rscale>  0 0.12499479E+03</rscale>
<asrwt>0</asrwt>
<pdfrwt beam="2">  1        4 0.82265976E-02 0.12499479E+03</pdfrwt>
<pdfrwt beam="1">  1       -4 0.11237684E-01 0.12499479E+03</pdfrwt>
<totfact> 0.10420866E+04</totfact>
</mgrwt>
</event>
<event>
 5    1  0.3245943E-002  0.1249986E+03  0.7818608E-02  0.1235071E+00
          4   -1    0    0  501    0  0.00000000000E+00  0.00000000000E+00  0.38079788663E+03  0.38080000441E+03  0.12700000000E+01 0.  1.
         -4   -1    0    0    0  501 -0.00000000000E+00 -0.00000000000E+00 -0.10216372455E+02  0.10295006855E+02  0.12700000000E+01 0.  1.
         25    2    1    2    0    0  0.00000000000E+00  0.00000000000E+00  0.37058151418E+03  0.39109501127E+03  0.12499859676E+03 0.  0.
    9000005    1    3    3    0    0 -0.42272959094E+01 -0.57060432797E+02  0.10667145605E+03  0.12105190026E+03  0.10000000000E+01 0.  0.
    9000005    1    3    3    0    0  0.42272959094E+01  0.57060432797E+02  0.26391005813E+03  0.27004311101E+03  0.10000000000E+01 0.  0.
<mgrwt>
<rscale>  0 0.12499860E+03</rscale>
<asrwt>0</asrwt>
<pdfrwt beam="1">  1        4 0.58590510E-01 0.12499860E+03</pdfrwt>
<pdfrwt beam="2">  1       -4 0.15779611E-02 0.12499860E+03</pdfrwt>
<totfact> 0.65430212E+03</totfact>
</mgrwt>
</event>
<event>
 5    1  0.3245943E-002  0.1250035E+03  0.7818608E-02  0.1235064E+00
         -4   -1    0    0    0  501 -0.00000000000E+00  0.00000000000E+00  0.60733929680E+01  0.62047564129E+01  0.12700000000E+01 0. -1.
          4   -1    0    0  501    0  0.00000000000E+00 -0.00000000000E+00 -0.63619634523E+03  0.63619761284E+03  0.12700000000E+01 0. -1.
         25    2    1    2    0    0  0.00000000000E+00  0.00000000000E+00 -0.63012295226E+03  0.64240236925E+03  0.12500347617E+03 0.  0.
    9000005    1    3    3    0    0 -0.56021226397E+02 -0.27256030220E+02 -0.34034148564E+03  0.34599797086E+03  0.10000000000E+01 0.  0.
    9000005    1    3    3    0    0  0.56021226397E+02  0.27256030220E+02 -0.28978146661E+03  0.29640439839E+03  0.10000000000E+01 0.  0.
<mgrwt>
<rscale>  0 0.12500348E+03</rscale>
<asrwt>0</asrwt>
<pdfrwt beam="2">  1        4 0.97886511E-01 0.12500348E+03</pdfrwt>
<pdfrwt beam="1">  1       -4 0.94457104E-03 0.12500348E+03</pdfrwt>
<totfact> 0.46292370E+03</totfact>
</mgrwt>
</event>
<event>
 5    1  0.3245943E-002  0.1250000E+03  0.7818608E-02  0.1235069E+00
         -4   -1    0    0    0  501 -0.00000000000E+00  0.00000000000E+00  0.12349391476E+03  0.12350044487E+03  0.12700000000E+01 0.  1.
          4   -1    0    0  501    0  0.00000000000E+00 -0.00000000000E+00 -0.31610986748E+02  0.31636488161E+02  0.12700000000E+01 0.  1.
         25    2    1    2    0    0  0.00000000000E+00  0.00000000000E+00  0.91882928013E+02  0.15513693303E+03  0.12499998212E+03 0.  0.
    9000005    1    3    3    0    0  0.34435505409E+02  0.46972157709E+02  0.74053341912E+02  0.94218284218E+02  0.10000000000E+01 0.  0.
    9000005    1    3    3    0    0 -0.34435505409E+02 -0.46972157709E+02  0.17829586102E+02  0.60918648813E+02  0.10000000000E+01 0.  0.
<mgrwt>
<rscale>  0 0.12499998E+03</rscale>
<asrwt>0</asrwt>
<pdfrwt beam="2">  1        4 0.48656927E-02 0.12499998E+03</pdfrwt>
<pdfrwt beam="1">  1       -4 0.19001528E-01 0.12499998E+03</pdfrwt>
<totfact> 0.98288663E+03</totfact>
</mgrwt>
</event>
<event>
 5    1  0.3245943E-002  0.1249985E+03  0.7818608E-02  0.1235072E+00
         -4   -1    0    0    0  501 -0.00000000000E+00  0.00000000000E+00  0.18287487724E+03  0.18287928704E+03  0.12700000000E+01 0. -1.
          4   -1    0    0  501    0  0.00000000000E+00 -0.00000000000E+00 -0.21336170314E+02  0.21373934211E+02  0.12700000000E+01 0. -1.
         25    2    1    2    0    0  0.00000000000E+00  0.00000000000E+00  0.16153870693E+03  0.20425322125E+03  0.12499849820E+03 0.  0.
    9000005    1    3    3    0    0  0.20927889176E+02  0.12586865630E+02  0.17476248587E+03  0.17646340187E+03  0.10000000000E+01 0.  0.
    9000005    1    3    3    0    0 -0.20927889176E+02 -0.12586865630E+02 -0.13223778938E+02  0.27789819380E+02  0.10000000000E+01 0.  0.
<mgrwt>
<rscale>  0 0.12499850E+03</rscale>
<asrwt>0</asrwt>
<pdfrwt beam="2">  1        4 0.32857318E-02 0.12499850E+03</pdfrwt>
<pdfrwt beam="1">  1       -4 0.28137841E-01 0.12499850E+03</pdfrwt>
<totfact> 0.89426094E+03</totfact>
</mgrwt>
</event>
<event>
 5    1  0.3245943E-002  0.1250008E+03  0.7818608E-02  0.1235068E+00
         -4   -1    0    0    0  501 -0.00000000000E+00  0.00000000000E+00  0.24413416361E+02  0.24446427110E+02  0.12700000000E+01 0. -1.
          4   -1    0    0  501    0  0.00000000000E+00 -0.00000000000E+00 -0.15986269560E+03  0.15986774016E+03  0.12700000000E+01 0. -1.
         25    2    1    2    0    0  0.00000000000E+00  0.00000000000E+00 -0.13544927924E+03  0.18431416727E+03  0.12500082004E+03 0.  0.
    9000005    1    3    3    0    0 -0.14352000480E+01 -0.55022342723E+02 -0.11136056344E+03  0.12422436592E+03  0.10000000000E+01 0.  0.
    9000005    1    3    3    0    0  0.14352000480E+01  0.55022342723E+02 -0.24088715797E+02  0.60089801353E+02  0.10000000000E+01 0.  0.
<mgrwt>
<rscale>  0 0.12500082E+03</rscale>
<asrwt>0</asrwt>
<pdfrwt beam="2">  1        4 0.24597188E-01 0.12500082E+03</pdfrwt>
<pdfrwt beam="1">  1       -4 0.37588376E-02 0.12500082E+03</pdfrwt>
<totfact> 0.92844447E+03</totfact>
</mgrwt>
</event>
<event>
 5    1  0.3245943E-002  0.1249819E+03  0.7818608E-02  0.1235098E+00
         -4   -1    0    0    0  501 -0.00000000000E+00  0.00000000000E+00  0.11714562225E+04  0.11714569109E+04  0.12700000000E+01 0.  1.
          4   -1    0    0  501    0  0.00000000000E+00 -0.00000000000E+00 -0.32118870737E+01  0.34538556099E+01  0.12700000000E+01 0.  1.
         25    2    1    2    0    0  0.00000000000E+00  0.00000000000E+00  0.11682443354E+04  0.11749107665E+04  0.12498192687E+03 0.  0.
    9000005    1    3    3    0    0  0.32824544419E+02  0.87545398095E+01  0.10770986617E+04  0.10776347339E+04  0.10000000000E+01 0.  0.
    9000005    1    3    3    0    0 -0.32824544419E+02 -0.87545398095E+01  0.91145673741E+02  0.97276032636E+02  0.10000000000E+01 0.  0.
<mgrwt>
<rscale>  0 0.12498193E+03</rscale>
<asrwt>0</asrwt>
<pdfrwt beam="2">  1        4 0.51280182E-03 0.12498193E+03</pdfrwt>
<pdfrwt beam="1">  1       -4 0.18024290E+00 0.12498193E+03</pdfrwt>
<totfact> 0.25389037E+03</totfact>
</mgrwt>
</event>
<event>
 5    1  0.3245943E-002  0.1250223E+03  0.7818608E-02  0.1235034E+00
         -4   -1    0    0    0  501 -0.00000000000E+00  0.00000000000E+00  0.82540428992E+03  0.82540526696E+03  0.12700000000E+01 0. -1.
          4   -1    0    0  501    0  0.00000000000E+00 -0.00000000000E+00 -0.46480479596E+01  0.48184281498E+01  0.12700000000E+01 0. -1.
         25    2    1    2    0    0  0.00000000000E+00  0.00000000000E+00  0.82075624196E+03  0.83022369511E+03  0.12502229880E+03 0.  0.
    9000005    1    3    3    0    0  0.12181682992E+02  0.39712000211E+02  0.72051694028E+03  0.72171399986E+03  0.10000000000E+01 0.  0.
    9000005    1    3    3    0    0 -0.12181682992E+02 -0.39712000211E+02  0.10023930168E+03  0.10850969525E+03  0.10000000000E+01 0.  0.
<mgrwt>
<rscale>  0 0.12502230E+03</rscale>
<asrwt>0</asrwt>
<pdfrwt beam="2">  1        4 0.72826590E-03 0.12502230E+03</pdfrwt>
<pdfrwt beam="1">  1       -4 0.12699841E+00 0.12502230E+03</pdfrwt>
<totfact> 0.36932551E+03</totfact>
</mgrwt>
</event>
<event>
 5    1  0.3245943E-002  0.1249945E+03  0.7818608E-02  0.1235078E+00
          4   -1    0    0  501    0  0.00000000000E+00  0.00000000000E+00  0.12649611286E+02  0.12713204383E+02  0.12700000000E+01 0.  1.
         -4   -1    0    0    0  501 -0.00000000000E+00 -0.00000000000E+00 -0.30793785675E+03  0.30794047561E+03  0.12700000000E+01 0.  1.
         25    2    1    2    0    0  0.00000000000E+00  0.00000000000E+00 -0.29528824546E+03  0.32065367999E+03  0.12499453822E+03 0.  0.
    9000005    1    3    3    0    0 -0.51440810444E+02 -0.20319053550E+02 -0.73033347125E+02  0.91618178920E+02  0.10000000000E+01 0.  0.
    9000005    1    3    3    0    0  0.51440810444E+02  0.20319053550E+02 -0.22225489834E+03  0.22903550107E+03  0.10000000000E+01 0.  0.
<mgrwt>
<rscale>  0 0.12499454E+03</rscale>
<asrwt>0</asrwt>
<pdfrwt beam="1">  1        4 0.19511875E-02 0.12499454E+03</pdfrwt>
<pdfrwt beam="2">  1       -4 0.47380143E-01 0.12499454E+03</pdfrwt>
<totfact> 0.73087296E+03</totfact>
</mgrwt>
</event>
<event>
 5    1  0.3245943E-002  0.1250100E+03  0.7818608E-02  0.1235054E+00
          4   -1    0    0  501    0  0.00000000000E+00  0.00000000000E+00  0.30947294803E+02  0.30973342662E+02  0.12700000000E+01 0.  1.
         -4   -1    0    0    0  501 -0.00000000000E+00 -0.00000000000E+00 -0.12616052373E+03  0.12616691582E+03  0.12700000000E+01 0.  1.
         25    2    1    2    0    0  0.00000000000E+00  0.00000000000E+00 -0.95213228926E+02  0.15714025848E+03  0.12501000709E+03 0.  0.
    9000005    1    3    3    0    0  0.47276429868E+02 -0.40807803782E+02 -0.50564703419E+02  0.80362471978E+02  0.10000000000E+01 0.  0.
    9000005    1    3    3    0    0 -0.47276429868E+02  0.40807803782E+02 -0.44648525507E+02  0.76777786504E+02  0.10000000000E+01 0.  0.
<mgrwt>
<rscale>  0 0.12501001E+03</rscale>
<asrwt>0</asrwt>
<pdfrwt beam="1">  1        4 0.47636177E-02 0.12501001E+03</pdfrwt>
<pdfrwt beam="2">  1       -4 0.19411806E-01 0.12501001E+03</pdfrwt>
<totfact> 0.97874947E+03</totfact>
</mgrwt>
</event>
<event>
 5    1  0.3245943E-002  0.1250013E+03  0.7818608E-02  0.1235067E+00
          4   -1    0    0  501    0  0.00000000000E+00  0.00000000000E+00  0.18969524961E+03  0.18969950086E+03  0.12700000000E+01 0. -1.
         -4   -1    0    0    0  501 -0.00000000000E+00 -0.00000000000E+00 -0.20568593792E+02  0.20607764327E+02  0.12700000000E+01 0. -1.
         25    2    1    2    0    0  0.00000000000E+00  0.00000000000E+00  0.16912665582E+03  0.21030726518E+03  0.12500128031E+03 0.  0.
    9000005    1    3    3    0    0  0.60471379174E+02  0.74720445780E+01  0.10791902970E+03  0.12393601623E+03  0.10000000000E+01 0.  0.
    9000005    1    3    3    0    0 -0.60471379174E+02 -0.74720445780E+01  0.61207626122E+02  0.86371248948E+02  0.10000000000E+01 0.  0.
<mgrwt>
<rscale>  0 0.12500128E+03</rscale>
<asrwt>0</asrwt>
<pdfrwt beam="1">  1        4 0.29187225E-01 0.12500128E+03</pdfrwt>
<pdfrwt beam="2">  1       -4 0.31677391E-02 0.12500128E+03</pdfrwt>
<totfact> 0.88423193E+03</totfact>
</mgrwt>
</event>
<event>
 5    1  0.3245943E-002  0.1249967E+03  0.7818608E-02  0.1235074E+00
          4   -1    0    0  501    0  0.00000000000E+00  0.00000000000E+00  0.64083703064E+02  0.64096286151E+02  0.12700000000E+01 0.  1.
         -4   -1    0    0    0  501 -0.00000000000E+00 -0.00000000000E+00 -0.60927080248E+02  0.60940315125E+02  0.12700000000E+01 0.  1.
         25    2    1    2    0    0  0.00000000000E+00  0.00000000000E+00  0.31566228159E+01  0.12503660128E+03  0.12499674952E+03 0.  0.
    9000005    1    3    3    0    0 -0.28464885903E+02  0.24876783806E+01 -0.54014658681E+02  0.61114823288E+02  0.10000000000E+01 0.  0.
    9000005    1    3    3    0    0  0.28464885903E+02 -0.24876783806E+01  0.57171281497E+02  0.63921777988E+02  0.10000000000E+01 0.  0.
<mgrwt>
<rscale>  0 0.12499675E+03</rscale>
<asrwt>0</asrwt>
<pdfrwt beam="1">  1        4 0.98610172E-02 0.12499675E+03</pdfrwt>
<pdfrwt beam="2">  1       -4 0.93753830E-02 0.12499675E+03</pdfrwt>
<totfact> 0.10452836E+04</totfact>
</mgrwt>
</event>
<event>
 5    1  0.3245943E-002  0.1249998E+03  0.7818608E-02  0.1235070E+00
          4   -1    0    0  501    0  0.00000000000E+00  0.00000000000E+00  0.59293636466E+01  0.60638480566E+01  0.12700000000E+01 0.  1.
         -4   -1    0    0    0  501 -0.00000000000E+00 -0.00000000000E+00 -0.65127309808E+03  0.65127433635E+03  0.12700000000E+01 0.  1.
         25    2    1    2    0    0  0.00000000000E+00  0.00000000000E+00 -0.64534373443E+03  0.65733818440E+03  0.12499981240E+03 0.  0.
    9000005    1    3    3    0    0 -0.55613380511E+01  0.29851182430E+02 -0.60989664400E+03  0.61065287843E+03  0.10000000000E+01 0.  0.
    9000005    1    3    3    0    0  0.55613380511E+01 -0.29851182430E+02 -0.35447090430E+02  0.46685305968E+02  0.10000000000E+01 0.  0.
<mgrwt>
<rscale>  0 0.12499981E+03</rscale>
<asrwt>0</asrwt>
<pdfrwt beam="1">  1        4 0.92265051E-03 0.12499981E+03</pdfrwt>
<pdfrwt beam="2">  1       -4 0.10020625E+00 0.12499981E+03</pdfrwt>
<totfact> 0.45436421E+03</totfact>
</mgrwt>
</event>
<event>
 5    1  0.3245943E-002  0.1250125E+03  0.7818608E-02  0.1235050E+00
          4   -1    0    0  501    0  0.00000000000E+00  0.00000000000E+00  0.20733412786E+02  0.20772272523E+02  0.12700000000E+01 0.  1.
         -4   -1    0    0    0  501 -0.00000000000E+00 -0.00000000000E+00 -0.18822375308E+03  0.18822803756E+03  0.12700000000E+01 0.  1.
         25    2    1    2    0    0  0.00000000000E+00  0.00000000000E+00 -0.16749034029E+03  0.20900031008E+03  0.12501246147E+03 0.  0.
    9000005    1    3    3    0    0  0.35785687230E+01  0.17935169316E+01  0.20527083701E+02  0.20937622175E+02  0.10000000000E+01 0.  0.
    9000005    1    3    3    0    0 -0.35785687230E+01 -0.17935169316E+01 -0.18801742400E+03  0.18806268791E+03  0.10000000000E+01 0.  0.
<mgrwt>
<rscale>  0 0.12501246E+03</rscale>
<asrwt>0</asrwt>
<pdfrwt beam="1">  1        4 0.31930747E-02 0.12501246E+03</pdfrwt>
<pdfrwt beam="2">  1       -4 0.28960818E-01 0.12501246E+03</pdfrwt>
<totfact> 0.88614712E+03</totfact>
</mgrwt>
</event>
<event>
 5    1  0.3245943E-002  0.1249980E+03  0.7818608E-02  0.1235072E+00
         -4   -1    0    0    0  501 -0.00000000000E+00  0.00000000000E+00  0.23947595663E+02  0.23981247634E+02  0.12700000000E+01 0.  1.
          4   -1    0    0  501    0  0.00000000000E+00 -0.00000000000E+00 -0.16296062890E+03  0.16296557756E+03  0.12700000000E+01 0.  1.
         25    2    1    2    0    0  0.00000000000E+00  0.00000000000E+00 -0.13901303323E+03  0.18694682520E+03  0.12499796815E+03 0.  0.
    9000005    1    3    3    0    0 -0.17435959327E+02 -0.26495355860E+02  0.11021540622E+02  0.33593018880E+02  0.10000000000E+01 0.  0.
    9000005    1    3    3    0    0  0.17435959327E+02  0.26495355860E+02 -0.15003457386E+03  0.15335380632E+03  0.10000000000E+01 0.  0.
<mgrwt>
<rscale>  0 0.12499797E+03</rscale>
<asrwt>0</asrwt>
<pdfrwt beam="2">  1        4 0.25073835E-01 0.12499797E+03</pdfrwt>
<pdfrwt beam="1">  1       -4 0.36872149E-02 0.12499797E+03</pdfrwt>
<totfact> 0.92385493E+03</totfact>
</mgrwt>
</event>
<event>
 5    1  0.3245943E-002  0.1249969E+03  0.7818608E-02  0.1235074E+00
          4   -1    0    0  501    0  0.00000000000E+00  0.00000000000E+00  0.17277357285E+02  0.17323971102E+02  0.12700000000E+01 0.  1.
         -4   -1    0    0    0  501 -0.00000000000E+00 -0.00000000000E+00 -0.22572660018E+03  0.22573017284E+03  0.12700000000E+01 0.  1.
         25    2    1    2    0    0  0.00000000000E+00  0.00000000000E+00 -0.20844924290E+03  0.24305414394E+03  0.12499692005E+03 0.  0.
    9000005    1    3    3    0    0  0.60930409057E+02 -0.74921264037E+01 -0.81514048262E+02  0.10204992293E+03  0.10000000000E+01 0.  0.
    9000005    1    3    3    0    0 -0.60930409057E+02  0.74921264037E+01 -0.12693519464E+03  0.14100422101E+03  0.10000000000E+01 0.  0.
<mgrwt>
<rscale>  0 0.12499692E+03</rscale>
<asrwt>0</asrwt>
<pdfrwt beam="1">  1        4 0.26619156E-02 0.12499692E+03</pdfrwt>
<pdfrwt beam="2">  1       -4 0.34731028E-01 0.12499692E+03</pdfrwt>
<totfact> 0.83350322E+03</totfact>
</mgrwt>
</event>
<event>
 5    1  0.3245943E-002  0.1249987E+03  0.7818608E-02  0.1235071E+00
          4   -1    0    0  501    0  0.00000000000E+00  0.00000000000E+00  0.17339272781E+02  0.17385720594E+02  0.12700000000E+01 0. -1.
         -4   -1    0    0    0  501 -0.00000000000E+00 -0.00000000000E+00 -0.22492912563E+03  0.22493271095E+03  0.12700000000E+01 0. -1.
         25    2    1    2    0    0  0.00000000000E+00  0.00000000000E+00 -0.20758985284E+03  0.24231843154E+03  0.12499870104E+03 0.  0.
    9000005    1    3    3    0    0  0.36912630204E+02  0.58481267866E+01 -0.67033410281E+01  0.37982596494E+02  0.10000000000E+01 0.  0.
    9000005    1    3    3    0    0 -0.36912630204E+02 -0.58481267866E+01 -0.20088651182E+03  0.20433583505E+03  0.10000000000E+01 0.  0.
<mgrwt>
<rscale>  0 0.12499870E+03</rscale>
<asrwt>0</asrwt>
<pdfrwt beam="1">  1        4 0.26714293E-02 0.12499870E+03</pdfrwt>
<pdfrwt beam="2">  1       -4 0.34608327E-01 0.12499870E+03</pdfrwt>
<totfact> 0.83455703E+03</totfact>
</mgrwt>
</event>
<event>
 5    1  0.3245943E-002  0.1250036E+03  0.7818608E-02  0.1235064E+00
          4   -1    0    0  501    0  0.00000000000E+00  0.00000000000E+00  0.38294449284E+02  0.38315502685E+02  0.12700000000E+01 0.  1.
         -4   -1    0    0    0  501 -0.00000000000E+00 -0.00000000000E+00 -0.10195846548E+03  0.10196637477E+03  0.12700000000E+01 0.  1.
         25    2    1    2    0    0  0.00000000000E+00  0.00000000000E+00 -0.63664016196E+02  0.14028187745E+03  0.12500359268E+03 0.  0.
    9000005    1    3    3    0    0  0.30988199498E+02  0.14512130008E+02  0.26852883464E+02  0.43508019672E+02  0.10000000000E+01 0.  0.
    9000005    1    3    3    0    0 -0.30988199498E+02 -0.14512130008E+02 -0.90516899659E+02  0.96773857779E+02  0.10000000000E+01 0.  0.
<mgrwt>
<rscale>  0 0.12500359E+03</rscale>
<asrwt>0</asrwt>
<pdfrwt beam="1">  1        4 0.58936817E-02 0.12500359E+03</pdfrwt>
<pdfrwt beam="2">  1       -4 0.15688146E-01 0.12500359E+03</pdfrwt>
<totfact> 0.10126927E+04</totfact>
</mgrwt>
</event>
<event>
 5    1  0.3245943E-002  0.1250103E+03  0.7818608E-02  0.1235053E+00
          4   -1    0    0  501    0  0.00000000000E+00  0.00000000000E+00  0.25502805608E+03  0.25503121826E+03  0.12700000000E+01 0.  1.
         -4   -1    0    0    0  501 -0.00000000000E+00 -0.00000000000E+00 -0.15289875317E+02  0.15342528710E+02  0.12700000000E+01 0.  1.
         25    2    1    2    0    0  0.00000000000E+00  0.00000000000E+00  0.23973818076E+03  0.27037374697E+03  0.12501027052E+03 0.  0.
    9000005    1    3    3    0    0  0.26568035144E+01 -0.78436079997E+01  0.25384673305E+03  0.25398374883E+03  0.10000000000E+01 0.  0.
    9000005    1    3    3    0    0 -0.26568035144E+01  0.78436079997E+01 -0.14108552287E+02  0.16389998139E+02  0.10000000000E+01 0.  0.
<mgrwt>
<rscale>  0 0.12501027E+03</rscale>
<asrwt>0</asrwt>
<pdfrwt beam="1">  1        4 0.39239378E-01 0.12501027E+03</pdfrwt>
<pdfrwt beam="2">  1       -4 0.23565821E-02 0.12501027E+03</pdfrwt>
<totfact> 0.79453787E+03</totfact>
</mgrwt>
</event>
<event>
 5    1  0.3245943E-002  0.1250011E+03  0.7818608E-02  0.1235068E+00
          4   -1    0    0  501    0  0.00000000000E+00  0.00000000000E+00  0.40247724568E+02  0.40267756740E+02  0.12700000000E+01 0. -1.
         -4   -1    0    0    0  501 -0.00000000000E+00 -0.00000000000E+00 -0.97008531170E+02  0.97016844000E+02  0.12700000000E+01 0. -1.
         25    2    1    2    0    0  0.00000000000E+00  0.00000000000E+00 -0.56760806602E+02  0.13728460074E+03  0.12500108973E+03 0.  0.
    9000005    1    3    3    0    0  0.56570356046E+02 -0.24997279416E+02 -0.38218876296E+02  0.72710052033E+02  0.10000000000E+01 0.  0.
    9000005    1    3    3    0    0 -0.56570356046E+02  0.24997279416E+02 -0.18541930306E+02  0.64574548708E+02  0.10000000000E+01 0.  0.
<mgrwt>
<rscale>  0 0.12500109E+03</rscale>
<asrwt>0</asrwt>
<pdfrwt beam="1">  1        4 0.61941380E-02 0.12500109E+03</pdfrwt>
<pdfrwt beam="2">  1       -4 0.14926570E-01 0.12500109E+03</pdfrwt>
<totfact> 0.10189888E+04</totfact>
</mgrwt>
</event>
<event>
 5    1  0.3245943E-002  0.1249998E+03  0.7818608E-02  0.1235070E+00
         -4   -1    0    0    0  501 -0.00000000000E+00  0.00000000000E+00  0.23580471577E+02  0.23614646722E+02  0.12700000000E+01 0.  1.
          4   -1    0    0  501    0  0.00000000000E+00 -0.00000000000E+00 -0.16549896403E+03  0.16550383679E+03  0.12700000000E+01 0.  1.
         25    2    1    2    0    0  0.00000000000E+00  0.00000000000E+00 -0.14191849245E+03  0.18911848352E+03  0.12499976923E+03 0.  0.
    9000005    1    3    3    0    0  0.55751005699E+02 -0.14750625600E+02 -0.10737958537E+03  0.12188983119E+03  0.10000000000E+01 0.  0.
    9000005    1    3    3    0    0 -0.55751005699E+02  0.14750625600E+02 -0.34538907078E+02  0.67228652331E+02  0.10000000000E+01 0.  0.
<mgrwt>
<rscale>  0 0.12499977E+03</rscale>
<asrwt>0</asrwt>
<pdfrwt beam="2">  1        4 0.25464382E-01 0.12499977E+03</pdfrwt>
<pdfrwt beam="1">  1       -4 0.36307686E-02 0.12499977E+03</pdfrwt>
<totfact> 0.92001398E+03</totfact>
</mgrwt>
</event>
<event>
 5    1  0.3245943E-002  0.1250015E+03  0.7818608E-02  0.1235067E+00
          4   -1    0    0  501    0  0.00000000000E+00  0.00000000000E+00  0.12948153452E+02  0.13010287384E+02  0.12700000000E+01 0.  1.
         -4   -1    0    0    0  501 -0.00000000000E+00 -0.00000000000E+00 -0.30090562293E+03  0.30090830299E+03  0.12700000000E+01 0.  1.
         25    2    1    2    0    0  0.00000000000E+00  0.00000000000E+00 -0.28795746948E+03  0.31391859038E+03  0.12500150862E+03 0.  0.
    9000005    1    3    3    0    0  0.37581390872E+02  0.47023440274E+02 -0.10182302437E+03  0.11828986925E+03  0.10000000000E+01 0.  0.
    9000005    1    3    3    0    0 -0.37581390872E+02 -0.47023440274E+02 -0.18613444511E+03  0.19562872113E+03  0.10000000000E+01 0.  0.
<mgrwt>
<rscale>  0 0.12500151E+03</rscale>
<asrwt>0</asrwt>
<pdfrwt beam="1">  1        4 0.19970095E-02 0.12500151E+03</pdfrwt>
<pdfrwt beam="2">  1       -4 0.46298153E-01 0.12500151E+03</pdfrwt>
<totfact> 0.73882845E+03</totfact>
</mgrwt>
</event>
<event>
 5    1  0.3245943E-002  0.1250593E+03  0.7818608E-02  0.1234977E+00
         -4   -1    0    0    0  501 -0.00000000000E+00  0.00000000000E+00  0.31061803052E+04  0.31061805649E+04  0.12700000000E+01 0.  1.
          4   -1    0    0  501    0  0.00000000000E+00 -0.00000000000E+00 -0.93810661222E+00  0.15789059554E+01  0.12700000000E+01 0.  1.
         25    2    1    2    0    0  0.00000000000E+00  0.00000000000E+00  0.31052421986E+04  0.31077594708E+04  0.12505925136E+03 0.  0.
    9000005    1    3    3    0    0 -0.13109679499E+02 -0.50566441914E+02  0.24063021523E+04  0.24068693103E+04  0.10000000000E+01 0.  0.
    9000005    1    3    3    0    0  0.13109679499E+02  0.50566441914E+02  0.69894004635E+03  0.70089016054E+03  0.10000000000E+01 0.  0.
<mgrwt>
<rscale>  0 0.12505925E+03</rscale>
<asrwt>0</asrwt>
<pdfrwt beam="2">  1        4 0.19363730E-03 0.12505925E+03</pdfrwt>
<pdfrwt beam="1">  1       -4 0.47792079E+00 0.12505925E+03</pdfrwt>
<totfact> 0.14417582E+02</totfact>
</mgrwt>
</event>
<event>
 5    1  0.3245943E-002  0.1249932E+03  0.7818608E-02  0.1235080E+00
          4   -1    0    0  501    0  0.00000000000E+00  0.00000000000E+00  0.10195905527E+02  0.10274696565E+02  0.12700000000E+01 0. -1.
         -4   -1    0    0    0  501 -0.00000000000E+00 -0.00000000000E+00 -0.38152334867E+03  0.38152546243E+03  0.12700000000E+01 0. -1.
         25    2    1    2    0    0  0.00000000000E+00  0.00000000000E+00 -0.37132744315E+03  0.39180015900E+03  0.12499317804E+03 0.  0.
    9000005    1    3    3    0    0 -0.42801982051E+02 -0.27976853393E+02 -0.29825159303E+03  0.30260490204E+03  0.10000000000E+01 0.  0.
    9000005    1    3    3    0    0  0.42801982051E+02  0.27976853393E+02 -0.73075850116E+02  0.89195256956E+02  0.10000000000E+01 0.  0.
<mgrwt>
<rscale>  0 0.12499318E+03</rscale>
<asrwt>0</asrwt>
<pdfrwt beam="1">  1        4 0.15748246E-02 0.12499318E+03</pdfrwt>
<pdfrwt beam="2">  1       -4 0.58702112E-01 0.12499318E+03</pdfrwt>
<totfact> 0.65368039E+03</totfact>
</mgrwt>
</event>
<event>
 5    1  0.3245943E-002  0.1249967E+03  0.7818608E-02  0.1235074E+00
          4   -1    0    0  501    0  0.00000000000E+00  0.00000000000E+00  0.10449627243E+04  0.10449634960E+04  0.12700000000E+01 0. -1.
         -4   -1    0    0    0  501 -0.00000000000E+00 -0.00000000000E+00 -0.36293053289E+01  0.38450952095E+01  0.12700000000E+01 0. -1.
         25    2    1    2    0    0  0.00000000000E+00  0.00000000000E+00  0.10413334189E+04  0.10488085912E+04  0.12499668649E+03 0.  0.
    9000005    1    3    3    0    0  0.20214040197E+02  0.44428009194E+02  0.19325902853E+03  0.19933014706E+03  0.10000000000E+01 0.  0.
    9000005    1    3    3    0    0 -0.20214040197E+02 -0.44428009194E+02  0.84807439040E+03  0.84947844415E+03  0.10000000000E+01 0.  0.
<mgrwt>
<rscale>  0 0.12499669E+03</rscale>
<asrwt>0</asrwt>
<pdfrwt beam="1">  1        4 0.16078025E+00 0.12499669E+03</pdfrwt>
<pdfrwt beam="2">  1       -4 0.57501290E-03 0.12499669E+03</pdfrwt>
<totfact> 0.29034074E+03</totfact>
</mgrwt>
</event>
<event>
 5    1  0.3245943E-002  0.1249999E+03  0.7818608E-02  0.1235069E+00
          4   -1    0    0  501    0  0.00000000000E+00  0.00000000000E+00  0.10248125934E+03  0.10248912828E+03  0.12700000000E+01 0.  1.
         -4   -1    0    0    0  501 -0.00000000000E+00 -0.00000000000E+00 -0.38096776721E+02  0.38117939300E+02  0.12700000000E+01 0.  1.
         25    2    1    2    0    0  0.00000000000E+00  0.00000000000E+00  0.64384482618E+02  0.14060706758E+03  0.12499994341E+03 0.  0.
    9000005    1    3    3    0    0  0.61510330272E+02  0.10523752477E+02  0.28465522405E+02  0.68597055783E+02  0.10000000000E+01 0.  0.
    9000005    1    3    3    0    0 -0.61510330272E+02 -0.10523752477E+02  0.35918960214E+02  0.72010011798E+02  0.10000000000E+01 0.  0.
<mgrwt>
<rscale>  0 0.12499994E+03</rscale>
<asrwt>0</asrwt>
<pdfrwt beam="1">  1        4 0.15768581E-01 0.12499994E+03</pdfrwt>
<pdfrwt beam="2">  1       -4 0.58632757E-02 0.12499994E+03</pdfrwt>
<totfact> 0.10121032E+04</totfact>
</mgrwt>
</event>
<event>
 5    1  0.3245943E-002  0.1249996E+03  0.7818608E-02  0.1235070E+00
          4   -1    0    0  501    0  0.00000000000E+00  0.00000000000E+00  0.65411682636E+02  0.65424010312E+02  0.12700000000E+01 0.  1.
         -4   -1    0    0    0  501 -0.00000000000E+00 -0.00000000000E+00 -0.59692873701E+02  0.59706382160E+02  0.12700000000E+01 0.  1.
         25    2    1    2    0    0  0.00000000000E+00  0.00000000000E+00  0.57188089352E+01  0.12513039247E+03  0.12499964138E+03 0.  0.
    9000005    1    3    3    0    0 -0.47757451572E+02  0.33157389349E+02  0.25797144318E+02  0.63613515106E+02  0.10000000000E+01 0.  0.
    9000005    1    3    3    0    0  0.47757451572E+02 -0.33157389349E+02 -0.20078335382E+02  0.61516877366E+02  0.10000000000E+01 0.  0.
<mgrwt>
<rscale>  0 0.12499964E+03</rscale>
<asrwt>0</asrwt>
<pdfrwt beam="1">  1        4 0.10065323E-01 0.12499964E+03</pdfrwt>
<pdfrwt beam="2">  1       -4 0.91855065E-02 0.12499964E+03</pdfrwt>
<totfact> 0.10450116E+04</totfact>
</mgrwt>
</event>
<event>
 5    1  0.3245943E-002  0.1249983E+03  0.7818608E-02  0.1235072E+00
         -4   -1    0    0    0  501 -0.00000000000E+00  0.00000000000E+00  0.31982740937E+02  0.32007946167E+02  0.12700000000E+01 0.  1.
          4   -1    0    0  501    0  0.00000000000E+00 -0.00000000000E+00 -0.12205616861E+03  0.12206277563E+03  0.12700000000E+01 0.  1.
         25    2    1    2    0    0  0.00000000000E+00  0.00000000000E+00 -0.90073427670E+02  0.15407072180E+03  0.12499825976E+03 0.  0.
    9000005    1    3    3    0    0  0.33817633696E+02  0.52414567387E+02 -0.40388386747E+02  0.74317837746E+02  0.10000000000E+01 0.  0.
    9000005    1    3    3    0    0 -0.33817633696E+02 -0.52414567387E+02 -0.49685040922E+02  0.79752884052E+02  0.10000000000E+01 0.  0.
<mgrwt>
<rscale>  0 0.12499826E+03</rscale>
<asrwt>0</asrwt>
<pdfrwt beam="2">  1        4 0.18780319E-01 0.12499826E+03</pdfrwt>
<pdfrwt beam="1">  1       -4 0.49228689E-02 0.12499826E+03</pdfrwt>
<totfact> 0.98502093E+03</totfact>
</mgrwt>
</event>
<event>
 5    1  0.3245943E-002  0.1250024E+03  0.7818608E-02  0.1235066E+00
          4   -1    0    0  501    0  0.00000000000E+00  0.00000000000E+00  0.55376408455E+03  0.55376554086E+03  0.12700000000E+01 0. -1.
         -4   -1    0    0    0  501 -0.00000000000E+00 -0.00000000000E+00 -0.69956293382E+01  0.71099739688E+01  0.12700000000E+01 0. -1.
         25    2    1    2    0    0  0.00000000000E+00  0.00000000000E+00  0.54676845522E+03  0.56087551483E+03  0.12500239803E+03 0.  0.
    9000005    1    3    3    0    0 -0.77808898810E+01  0.55458709635E+02  0.39782557743E+03  0.40174917645E+03  0.10000000000E+01 0.  0.
    9000005    1    3    3    0    0  0.77808898810E+01 -0.55458709635E+02  0.14894287779E+03  0.15912633838E+03  0.10000000000E+01 0.  0.
<mgrwt>
<rscale>  0 0.12500240E+03</rscale>
<asrwt>0</asrwt>
<pdfrwt beam="1">  1        4 0.85203430E-01 0.12500240E+03</pdfrwt>
<pdfrwt beam="2">  1       -4 0.10851578E-02 0.12500240E+03</pdfrwt>
<totfact> 0.51431484E+03</totfact>
</mgrwt>
</event>
<event>
 5    1  0.3245943E-002  0.1250033E+03  0.7818608E-02  0.1235064E+00
         -4   -1    0    0    0  501 -0.00000000000E+00  0.00000000000E+00  0.31767166647E+03  0.31767420509E+03  0.12700000000E+01 0.  1.
          4   -1    0    0  501    0  0.00000000000E+00 -0.00000000000E+00 -0.12261761351E+02  0.12327355411E+02  0.12700000000E+01 0.  1.
         25    2    1    2    0    0  0.00000000000E+00  0.00000000000E+00  0.30540990512E+03  0.33000156050E+03  0.12500327910E+03 0.  0.
    9000005    1    3    3    0    0 -0.10923280531E+02  0.25204497604E+02  0.45180420791E+01  0.27856730987E+02  0.10000000000E+01 0.  0.
    9000005    1    3    3    0    0  0.10923280531E+02 -0.25204497604E+02  0.30089186304E+03  0.30214482951E+03  0.10000000000E+01 0.  0.
<mgrwt>
<rscale>  0 0.12500328E+03</rscale>
<asrwt>0</asrwt>
<pdfrwt beam="2">  1        4 0.18916660E-02 0.12500328E+03</pdfrwt>
<pdfrwt beam="1">  1       -4 0.48877801E-01 0.12500328E+03</pdfrwt>
<totfact> 0.71976925E+03</totfact>
</mgrwt>
</event>
<event>
 5    1  0.3245943E-002  0.1249983E+03  0.7818608E-02  0.1235072E+00
         -4   -1    0    0    0  501 -0.00000000000E+00  0.00000000000E+00  0.68471989307E+01  0.69639811313E+01  0.12700000000E+01 0. -1.
          4   -1    0    0  501    0  0.00000000000E+00 -0.00000000000E+00 -0.56553198658E+03  0.56553341258E+03  0.12700000000E+01 0. -1.
         25    2    1    2    0    0  0.00000000000E+00  0.00000000000E+00 -0.55868478765E+03  0.57249739371E+03  0.12499829541E+03 0.  0.
    9000005    1    3    3    0    0 -0.30119482401E+02  0.52736923263E+02 -0.34677597017E+03  0.35205530784E+03  0.10000000000E+01 0.  0.
    9000005    1    3    3    0    0  0.30119482401E+02 -0.52736923263E+02 -0.21190881749E+03  0.22044208587E+03  0.10000000000E+01 0.  0.
<mgrwt>
<rscale>  0 0.12499830E+03</rscale>
<asrwt>0</asrwt>
<pdfrwt beam="2">  1        4 0.87013977E-01 0.12499830E+03</pdfrwt>
<pdfrwt beam="1">  1       -4 0.10625086E-02 0.12499830E+03</pdfrwt>
<totfact> 0.50652894E+03</totfact>
</mgrwt>
</event>
<event>
 5    1  0.3245943E-002  0.1249978E+03  0.7818608E-02  0.1235073E+00
          4   -1    0    0  501    0  0.00000000000E+00  0.00000000000E+00  0.20159760493E+02  0.20199723838E+02  0.12700000000E+01 0.  1.
         -4   -1    0    0    0  501 -0.00000000000E+00 -0.00000000000E+00 -0.19352404137E+03  0.19352820850E+03  0.12700000000E+01 0.  1.
         25    2    1    2    0    0  0.00000000000E+00  0.00000000000E+00 -0.17336428087E+03  0.21372793234E+03  0.12499782070E+03 0.  0.
    9000005    1    3    3    0    0  0.50595252673E+02 -0.16718061807E+02 -0.14250146805E+03  0.15214151826E+03  0.10000000000E+01 0.  0.
    9000005    1    3    3    0    0 -0.50595252673E+02  0.16718061807E+02 -0.30862812826E+02  0.61586414080E+02  0.10000000000E+01 0.  0.
<mgrwt>
<rscale>  0 0.12499782E+03</rscale>
<asrwt>0</asrwt>
<pdfrwt beam="1">  1        4 0.31048964E-02 0.12499782E+03</pdfrwt>
<pdfrwt beam="2">  1       -4 0.29776323E-01 0.12499782E+03</pdfrwt>
<totfact> 0.87874937E+03</totfact>
</mgrwt>
</event>
<event>
 5    1  0.3245943E-002  0.1250004E+03  0.7818608E-02  0.1235069E+00
          4   -1    0    0  501    0  0.00000000000E+00  0.00000000000E+00  0.93708781623E+02  0.93717387145E+02  0.12700000000E+01 0.  1.
         -4   -1    0    0    0  501 -0.00000000000E+00 -0.00000000000E+00 -0.41665068648E+02  0.41684419696E+02  0.12700000000E+01 0.  1.
         25    2    1    2    0    0  0.00000000000E+00  0.00000000000E+00  0.52043712975E+02  0.13540180684E+03  0.12500040494E+03 0.  0.
    9000005    1    3    3    0    0  0.61403326616E+02  0.16445373218E+01  0.13567177940E+02  0.62913761132E+02  0.10000000000E+01 0.  0.
    9000005    1    3    3    0    0 -0.61403326616E+02 -0.16445373218E+01  0.38476535035E+02  0.72488045709E+02  0.10000000000E+01 0.  0.
<mgrwt>
<rscale>  0 0.12500040E+03</rscale>
<asrwt>0</asrwt>
<pdfrwt beam="1">  1        4 0.14418886E-01 0.12500040E+03</pdfrwt>
<pdfrwt beam="2">  1       -4 0.64121611E-02 0.12500040E+03</pdfrwt>
<totfact> 0.10229515E+04</totfact>
</mgrwt>
</event>
<event>
 5    1  0.3245943E-002  0.1249969E+03  0.7818608E-02  0.1235074E+00
         -4   -1    0    0    0  501 -0.00000000000E+00  0.00000000000E+00  0.11096780423E+03  0.11097507142E+03  0.12700000000E+01 0. -1.
          4   -1    0    0  501    0  0.00000000000E+00 -0.00000000000E+00 -0.35180055574E+02  0.35202971610E+02  0.12700000000E+01 0. -1.
         25    2    1    2    0    0  0.00000000000E+00  0.00000000000E+00  0.75787748661E+02  0.14617804303E+03  0.12499694963E+03 0.  0.
    9000005    1    3    3    0    0 -0.26561733883E+02 -0.45737022535E+02 -0.10272748445E+01  0.52909887836E+02  0.10000000000E+01 0.  0.
    9000005    1    3    3    0    0  0.26561733883E+02  0.45737022535E+02  0.76815023505E+02  0.93268155194E+02  0.10000000000E+01 0.  0.
<mgrwt>
<rscale>  0 0.12499695E+03</rscale>
<asrwt>0</asrwt>
<pdfrwt beam="2">  1        4 0.54146381E-02 0.12499695E+03</pdfrwt>
<pdfrwt beam="1">  1       -4 0.17074291E-01 0.12499695E+03</pdfrwt>
<totfact> 0.10007795E+04</totfact>
</mgrwt>
</event>
<event>
 5    1  0.3245943E-002  0.1250005E+03  0.7818608E-02  0.1235068E+00
         -4   -1    0    0    0  501 -0.00000000000E+00  0.00000000000E+00  0.19500319667E+03  0.19500733220E+03  0.12700000000E+01 0.  1.
          4   -1    0    0  501    0  0.00000000000E+00 -0.00000000000E+00 -0.20007416573E+02  0.20047683605E+02  0.12700000000E+01 0.  1.
         25    2    1    2    0    0  0.00000000000E+00  0.00000000000E+00  0.17499578010E+03  0.21505501581E+03  0.12500054708E+03 0.  0.
    9000005    1    3    3    0    0  0.22111340356E+02 -0.15769070562E+02 -0.93321959897E+01  0.28734384293E+02  0.10000000000E+01 0.  0.
    9000005    1    3    3    0    0 -0.22111340356E+02  0.15769070562E+02  0.18432797609E+03  0.18632063151E+03  0.10000000000E+01 0.  0.
<mgrwt>
<rscale>  0 0.12500055E+03</rscale>
<asrwt>0</asrwt>
<pdfrwt beam="2">  1        4 0.30814797E-02 0.12500055E+03</pdfrwt>
<pdfrwt beam="1">  1       -4 0.30003907E-01 0.12500055E+03</pdfrwt>
<totfact> 0.87655856E+03</totfact>
</mgrwt>
</event>
<event>
 5    1  0.3245943E-002  0.1249999E+03  0.7818608E-02  0.1235069E+00
          4   -1    0    0  501    0  0.00000000000E+00  0.00000000000E+00  0.55003193327E+02  0.55017853249E+02  0.12700000000E+01 0.  1.
         -4   -1    0    0    0  501 -0.00000000000E+00 -0.00000000000E+00 -0.70988667326E+02  0.71000026681E+02  0.12700000000E+01 0.  1.
         25    2    1    2    0    0  0.00000000000E+00  0.00000000000E+00 -0.15985473999E+02  0.12601787993E+03  0.12499988273E+03 0.  0.
    9000005    1    3    3    0    0  0.31815893516E+02 -0.42300198102E+02  0.25499572839E+02  0.58760412308E+02  0.10000000000E+01 0.  0.
    9000005    1    3    3    0    0 -0.31815893516E+02  0.42300198102E+02 -0.41485046838E+02  0.67257467621E+02  0.10000000000E+01 0.  0.
<mgrwt>
<rscale>  0 0.12499988E+03</rscale>
<asrwt>0</asrwt>
<pdfrwt beam="1">  1        4 0.84640312E-02 0.12499988E+03</pdfrwt>
<pdfrwt beam="2">  1       -4 0.10923335E-01 0.12499988E+03</pdfrwt>
<totfact> 0.10430593E+04</totfact>
</mgrwt>
</event>
<event>
 5    1  0.3245943E-002  0.1249986E+03  0.7818608E-02  0.1235071E+00
          4   -1    0    0  501    0  0.00000000000E+00  0.00000000000E+00  0.65300161717E+03  0.65300285216E+03  0.12700000000E+01 0. -1.
         -4   -1    0    0    0  501 -0.00000000000E+00 -0.00000000000E+00 -0.59131959619E+01  0.60480398878E+01  0.12700000000E+01 0. -1.
         25    2    1    2    0    0  0.00000000000E+00  0.00000000000E+00  0.64708842121E+03  0.65905089204E+03  0.12499861377E+03 0.  0.
    9000005    1    3    3    0    0  0.56625900800E+02  0.25472247651E+02  0.28632369557E+03  0.29298052271E+03  0.10000000000E+01 0.  0.
    9000005    1    3    3    0    0 -0.56625900800E+02 -0.25472247651E+02  0.36076472564E+03  0.36607036934E+03  0.10000000000E+01 0.  0.
<mgrwt>
<rscale>  0 0.12499861E+03</rscale>
<asrwt>0</asrwt>
<pdfrwt beam="1">  1        4 0.10047220E+00 0.12499861E+03</pdfrwt>
<pdfrwt beam="2">  1       -4 0.92019058E-03 0.12499861E+03</pdfrwt>
<totfact> 0.45339488E+03</totfact>
</mgrwt>
</event>
<event>
 5    1  0.3245943E-002  0.1249965E+03  0.7818608E-02  0.1235075E+00
          4   -1    0    0  501    0  0.00000000000E+00  0.00000000000E+00  0.42574580758E+03  0.42574770178E+03  0.12700000000E+01 0. -1.
         -4   -1    0    0    0  501 -0.00000000000E+00 -0.00000000000E+00 -0.91286937343E+01  0.92166126801E+01  0.12700000000E+01 0. -1.
         25    2    1    2    0    0  0.00000000000E+00  0.00000000000E+00  0.41661711384E+03  0.43496431446E+03  0.12499654117E+03 0.  0.
    9000005    1    3    3    0    0 -0.20068971181E+02  0.48190481634E+02  0.88775779270E+02  0.10299138367E+03  0.10000000000E+01 0.  0.
    9000005    1    3    3    0    0  0.20068971181E+02 -0.48190481634E+02  0.32784133457E+03  0.33197293079E+03  0.10000000000E+01 0.  0.
<mgrwt>
<rscale>  0 0.12499654E+03</rscale>
<asrwt>0</asrwt>
<pdfrwt beam="1">  1        4 0.65506232E-01 0.12499654E+03</pdfrwt>
<pdfrwt beam="2">  1       -4 0.14113238E-02 0.12499654E+03</pdfrwt>
<totfact> 0.61293260E+03</totfact>
</mgrwt>
</event>
<event>
 5    1  0.3245943E-002  0.1250011E+03  0.7818608E-02  0.1235067E+00
         -4   -1    0    0    0  501 -0.00000000000E+00  0.00000000000E+00  0.36694741892E+03  0.36694961664E+03  0.12700000000E+01 0. -1.
          4   -1    0    0  501    0  0.00000000000E+00 -0.00000000000E+00 -0.10605337837E+02  0.10681109055E+02  0.12700000000E+01 0. -1.
         25    2    1    2    0    0  0.00000000000E+00  0.00000000000E+00  0.35634208108E+03  0.37763072569E+03  0.12500114495E+03 0.  0.
    9000005    1    3    3    0    0  0.21063681796E+02  0.57897687121E+02  0.20978375363E+03  0.21864593330E+03  0.10000000000E+01 0.  0.
    9000005    1    3    3    0    0 -0.21063681796E+02 -0.57897687121E+02  0.14655832745E+03  0.15898479239E+03  0.10000000000E+01 0.  0.
<mgrwt>
<rscale>  0 0.12500114E+03</rscale>
<asrwt>0</asrwt>
<pdfrwt beam="2">  1        4 0.16375881E-02 0.12500114E+03</pdfrwt>
<pdfrwt beam="1">  1       -4 0.56459443E-01 0.12500114E+03</pdfrwt>
<totfact> 0.66786415E+03</totfact>
</mgrwt>
</event>
<event>
 5    1  0.3245943E-002  0.1249993E+03  0.7818608E-02  0.1235070E+00
         -4   -1    0    0    0  501 -0.00000000000E+00  0.00000000000E+00  0.19722171778E+02  0.19763020003E+02  0.12700000000E+01 0.  1.
          4   -1    0    0  501    0  0.00000000000E+00 -0.00000000000E+00 -0.19781394549E+03  0.19781802226E+03  0.12700000000E+01 0.  1.
         25    2    1    2    0    0  0.00000000000E+00  0.00000000000E+00 -0.17809177371E+03  0.21758104226E+03  0.12499932035E+03 0.  0.
    9000005    1    3    3    0    0 -0.56524241366E+02 -0.20056624957E+02 -0.11959180061E+03  0.13379258889E+03  0.10000000000E+01 0.  0.
    9000005    1    3    3    0    0  0.56524241366E+02  0.20056624957E+02 -0.58499973096E+02  0.83788453374E+02  0.10000000000E+01 0.  0.
<mgrwt>
<rscale>  0 0.12499932E+03</rscale>
<asrwt>0</asrwt>
<pdfrwt beam="2">  1        4 0.30436369E-01 0.12499932E+03</pdfrwt>
<pdfrwt beam="1">  1       -4 0.30376362E-02 0.12499932E+03</pdfrwt>
<totfact> 0.87253897E+03</totfact>
</mgrwt>
</event>
<event>
 5    1  0.3245943E-002  0.1250114E+03  0.7818608E-02  0.1235052E+00
          4   -1    0    0  501    0  0.00000000000E+00  0.00000000000E+00  0.35578690146E+01  0.37777416435E+01  0.12700000000E+01 0.  1.
         -4   -1    0    0    0  501 -0.00000000000E+00 -0.00000000000E+00 -0.10649835409E+04  0.10649842982E+04  0.12700000000E+01 0.  1.
         25    2    1    2    0    0  0.00000000000E+00  0.00000000000E+00 -0.10614256719E+04  0.10687620398E+04  0.12501136248E+03 0.  0.
    9000005    1    3    3    0    0 -0.15932598515E+02  0.60349819178E+02 -0.55776412582E+03  0.56124661997E+03  0.10000000000E+01 0.  0.
    9000005    1    3    3    0    0  0.15932598515E+02 -0.60349819178E+02 -0.50366154608E+03  0.50751541983E+03  0.10000000000E+01 0.  0.
<mgrwt>
<rscale>  0 0.12501136E+03</rscale>
<asrwt>0</asrwt>
<pdfrwt beam="1">  1        4 0.56433684E-03 0.12501136E+03</pdfrwt>
<pdfrwt beam="2">  1       -4 0.16386035E+00 0.12501136E+03</pdfrwt>
<totfact> 0.28409111E+03</totfact>
</mgrwt>
</event>
<event>
 4    1  0.3245943E-002  0.1246285E+03  0.7818608E-02  0.1235651E+00
          4   -1    0    0  501    0  0.00000000000E+00  0.00000000000E+00  0.32631344090E+02  0.32656048706E+02  0.12700000000E+01 0. -1.
         -4   -1    0    0    0  501 -0.00000000000E+00 -0.00000000000E+00 -0.11892494911E+03  0.11893173008E+03  0.12700000000E+01 0. -1.
    9000005    1    1    2    0    0  0.20727980002E+02  0.53623632461E+02 -0.13931792137E+02  0.59162808802E+02  0.10000000000E+01 0.  0.
    9000005    1    1    2    0    0 -0.20727980002E+02 -0.53623632461E+02 -0.72361812879E+02  0.92424969983E+02  0.10000000000E+01 0.  0.
<mgrwt>
<rscale>  0 0.12462852E+03</rscale>
<asrwt>0</asrwt>
<pdfrwt beam="1">  1        4 0.50226288E-02 0.12462852E+03</pdfrwt>
<pdfrwt beam="2">  1       -4 0.18298568E-01 0.12462852E+03</pdfrwt>
<totfact> 0.99820128E+03</totfact>
</mgrwt>
</event>
<event>
 5    1  0.3245943E-002  0.1249996E+03  0.7818608E-02  0.1235070E+00
         -4   -1    0    0    0  501 -0.00000000000E+00  0.00000000000E+00  0.23957557397E+02  0.23991195394E+02  0.12700000000E+01 0.  1.
          4   -1    0    0  501    0  0.00000000000E+00 -0.00000000000E+00 -0.16289725815E+03  0.16290220874E+03  0.12700000000E+01 0.  1.
         25    2    1    2    0    0  0.00000000000E+00  0.00000000000E+00 -0.13893970075E+03  0.18689340414E+03  0.12499961626E+03 0.  0.
    9000005    1    3    3    0    0  0.28341828550E+02 -0.27761184076E+02 -0.14166081303E+03  0.14711467818E+03  0.10000000000E+01 0.  0.
    9000005    1    3    3    0    0 -0.28341828550E+02  0.27761184076E+02  0.27211122771E+01  0.39778725958E+02  0.10000000000E+01 0.  0.
<mgrwt>
<rscale>  0 0.12499962E+03</rscale>
<asrwt>0</asrwt>
<pdfrwt beam="2">  1        4 0.25064084E-01 0.12499962E+03</pdfrwt>
<pdfrwt beam="1">  1       -4 0.36887465E-02 0.12499962E+03</pdfrwt>
<totfact> 0.92391474E+03</totfact>
</mgrwt>
</event>
<event>
 5    1  0.3245943E-002  0.1250025E+03  0.7818608E-02  0.1235065E+00
         -4   -1    0    0    0  501 -0.00000000000E+00  0.00000000000E+00  0.61348281129E+02  0.61361425158E+02  0.12700000000E+01 0.  1.
          4   -1    0    0  501    0  0.00000000000E+00 -0.00000000000E+00 -0.63649560697E+02  0.63662229594E+02  0.12700000000E+01 0.  1.
         25    2    1    2    0    0  0.00000000000E+00  0.00000000000E+00 -0.23012795680E+01  0.12502365475E+03  0.12500247342E+03 0.  0.
    9000005    1    3    3    0    0 -0.42658829459E+02 -0.17582636622E+02  0.41004808727E+02  0.61735882436E+02  0.10000000000E+01 0.  0.
    9000005    1    3    3    0    0  0.42658829459E+02  0.17582636622E+02 -0.43306088295E+02  0.63287772317E+02  0.10000000000E+01 0.  0.
<mgrwt>
<rscale>  0 0.12500247E+03</rscale>
<asrwt>0</asrwt>
<pdfrwt beam="2">  1        4 0.97942258E-02 0.12500247E+03</pdfrwt>
<pdfrwt beam="1">  1       -4 0.94401827E-02 0.12500247E+03</pdfrwt>
<totfact> 0.10451765E+04</totfact>
</mgrwt>
</event>
