<event>
 5    1  0.3337119E-002  0.1250240E+03  0.7818608E-02  0.1235032E+00
          4   -1    0    0  501    0  0.00000000000E+00  0.00000000000E+00  0.17452630890E+02  0.17498777814E+02  0.12700000000E+01 0.  1.
         -4   -1    0    0    0  501 -0.00000000000E+00 -0.00000000000E+00 -0.22356248119E+03  0.22356608843E+03  0.12700000000E+01 0.  1.
         25    2    1    2    0    0  0.00000000000E+00  0.00000000000E+00 -0.20610985030E+03  0.24106486624E+03  0.12502399508E+03 0.  0.
    9000005    1    3    3    0    0  0.46833770624E+02  0.15302883585E+02 -0.28898374403E+02  0.57128769986E+02  0.10000000000E+01 0.  0.
    9000005    1    3    3    0    0 -0.46833770624E+02 -0.15302883585E+02 -0.17721147589E+03  0.18393609626E+03  0.10000000000E+01 0.  0.
<mgrwt>
<rscale>  0 0.12502400E+03</rscale>
<asrwt>0</asrwt>
<pdfrwt beam="1">  1        4 0.26888475E-02 0.12502400E+03</pdfrwt>
<pdfrwt beam="2">  1       -4 0.34398053E-01 0.12502400E+03</pdfrwt>
<totfact> 0.83594308E+03</totfact>
</mgrwt>
</event>
<event>
 4    1  0.3337119E-002  0.1242727E+03  0.7818608E-02  0.1236210E+00
         -4   -1    0    0    0  501 -0.00000000000E+00  0.00000000000E+00  0.26113115352E+01  0.29037644419E+01  0.12700000000E+01 0. -1.
          4   -1    0    0  501    0  0.00000000000E+00 -0.00000000000E+00 -0.13998426672E+04  0.13998432433E+04  0.12700000000E+01 0. -1.
    9000005    1    1    2    0    0  0.54932071178E+02 -0.33683501725E+01 -0.10240150708E+04  0.10254934146E+04  0.10000000000E+01 0.  0.
    9000005    1    1    2    0    0 -0.54932071178E+02  0.33683501725E+01 -0.37321628487E+03  0.37725359312E+03  0.10000000000E+01 0.  0.
<mgrwt>
<rscale>  0 0.12427271E+03</rscale>
<asrwt>0</asrwt>
<pdfrwt beam="2">  1        4 0.21538238E+00 0.12427271E+03</pdfrwt>
<pdfrwt beam="1">  1       -4 0.42428205E-03 0.12427271E+03</pdfrwt>
<totfact> 0.20241924E+03</totfact>
</mgrwt>
</event>
<event>
 5    1  0.3337119E-002  0.1250043E+03  0.7818608E-02  0.1235063E+00
         -4   -1    0    0    0  501 -0.00000000000E+00  0.00000000000E+00  0.41918669855E+02  0.41937903887E+02  0.12700000000E+01 0.  1.
          4   -1    0    0  501    0  0.00000000000E+00 -0.00000000000E+00 -0.93147910347E+02  0.93156567681E+02  0.12700000000E+01 0.  1.
         25    2    1    2    0    0  0.00000000000E+00  0.00000000000E+00 -0.51229240492E+02  0.13509447157E+03  0.12500432459E+03 0.  0.
    9000005    1    3    3    0    0 -0.55303588165E+02 -0.23777332458E+02 -0.43752407020E+02  0.74425274758E+02  0.10000000000E+01 0.  0.
    9000005    1    3    3    0    0  0.55303588165E+02  0.23777332458E+02 -0.74768334723E+01  0.60669196809E+02  0.10000000000E+01 0.  0.
<mgrwt>
<rscale>  0 0.12500432E+03</rscale>
<asrwt>0</asrwt>
<pdfrwt beam="2">  1        4 0.14332593E-01 0.12500432E+03</pdfrwt>
<pdfrwt beam="1">  1       -4 0.64511716E-02 0.12500432E+03</pdfrwt>
<totfact> 0.10235082E+04</totfact>
</mgrwt>
</event>
<event>
 5    1  0.3337119E-002  0.1249947E+03  0.7818608E-02  0.1235078E+00
         -4   -1    0    0    0  501 -0.00000000000E+00  0.00000000000E+00  0.14670559556E+03  0.14671109252E+03  0.12700000000E+01 0.  1.
          4   -1    0    0  501    0  0.00000000000E+00 -0.00000000000E+00 -0.26603050639E+02  0.26633347580E+02  0.12700000000E+01 0.  1.
         25    2    1    2    0    0  0.00000000000E+00  0.00000000000E+00  0.12010254492E+03  0.17334444010E+03  0.12499469436E+03 0.  0.
    9000005    1    3    3    0    0 -0.86614522838E+01 -0.45563262001E+02  0.11813027083E+03  0.12691253873E+03  0.10000000000E+01 0.  0.
    9000005    1    3    3    0    0  0.86614522838E+01  0.45563262001E+02  0.19722740880E+01  0.46431901370E+02  0.10000000000E+01 0.  0.
<mgrwt>
<rscale>  0 0.12499469E+03</rscale>
<asrwt>0</asrwt>
<pdfrwt beam="2">  1        4 0.40955304E-02 0.12499469E+03</pdfrwt>
<pdfrwt beam="1">  1       -4 0.22572845E-01 0.12499469E+03</pdfrwt>
<totfact> 0.94840220E+03</totfact>
</mgrwt>
</event>
<event>
 5    1  0.3337119E-002  0.1249978E+03  0.7818608E-02  0.1235073E+00
          4   -1    0    0  501    0  0.00000000000E+00  0.00000000000E+00  0.41585149756E+01  0.43481199158E+01  0.12700000000E+01 0.  1.
         -4   -1    0    0    0  501 -0.00000000000E+00 -0.00000000000E+00 -0.91817792899E+03  0.91817880731E+03  0.12700000000E+01 0.  1.
         25    2    1    2    0    0  0.00000000000E+00  0.00000000000E+00 -0.91401941402E+03  0.92252692722E+03  0.12499776899E+03 0.  0.
    9000005    1    3    3    0    0  0.43948288025E+02 -0.40695048535E+02 -0.32548795175E+03  0.33095459769E+03  0.10000000000E+01 0.  0.
    9000005    1    3    3    0    0 -0.43948288025E+02  0.40695048535E+02 -0.58853146226E+03  0.59157232953E+03  0.10000000000E+01 0.  0.
<mgrwt>
<rscale>  0 0.12499777E+03</rscale>
<asrwt>0</asrwt>
<pdfrwt beam="1">  1        4 0.65442482E-03 0.12499777E+03</pdfrwt>
<pdfrwt beam="2">  1       -4 0.14127264E+00 0.12499777E+03</pdfrwt>
<totfact> 0.33313535E+03</totfact>
</mgrwt>
</event>
<event>
 5    1  0.3337119E-002  0.1249988E+03  0.7818608E-02  0.1235071E+00
          4   -1    0    0  501    0  0.00000000000E+00  0.00000000000E+00  0.12909013617E+02  0.12971335033E+02  0.12700000000E+01 0. -1.
         -4   -1    0    0    0  501 -0.00000000000E+00 -0.00000000000E+00 -0.30180073959E+03  0.30180341171E+03  0.12700000000E+01 0. -1.
         25    2    1    2    0    0  0.00000000000E+00  0.00000000000E+00 -0.28889172597E+03  0.31477474674E+03  0.12499884739E+03 0.  0.
    9000005    1    3    3    0    0  0.17679672583E+02 -0.43881504433E+02 -0.24726273143E+03  0.25174990687E+03  0.10000000000E+01 0.  0.
    9000005    1    3    3    0    0 -0.17679672583E+02  0.43881504433E+02 -0.41628994541E+02  0.63024839868E+02  0.10000000000E+01 0.  0.
<mgrwt>
<rscale>  0 0.12499885E+03</rscale>
<asrwt>0</asrwt>
<pdfrwt beam="1">  1        4 0.19910018E-02 0.12499885E+03</pdfrwt>
<pdfrwt beam="2">  1       -4 0.46435877E-01 0.12499885E+03</pdfrwt>
<totfact> 0.73783828E+03</totfact>
</mgrwt>
</event>
<event>
 5    1  0.3337119E-002  0.1250116E+03  0.7818608E-02  0.1235051E+00
          4   -1    0    0  501    0  0.00000000000E+00  0.00000000000E+00  0.48377752843E+02  0.48394419824E+02  0.12700000000E+01 0.  1.
         -4   -1    0    0    0  501 -0.00000000000E+00 -0.00000000000E+00 -0.80724183885E+02  0.80734173457E+02  0.12700000000E+01 0.  1.
         25    2    1    2    0    0  0.00000000000E+00  0.00000000000E+00 -0.32346431042E+02  0.12912859328E+03  0.12501160747E+03 0.  0.
    9000005    1    3    3    0    0 -0.50060045007E+02  0.32212827289E+02  0.34878449057E+01  0.59639243876E+02  0.10000000000E+01 0.  0.
    9000005    1    3    3    0    0  0.50060045007E+02 -0.32212827289E+02 -0.35834275948E+02  0.69489349405E+02  0.10000000000E+01 0.  0.
<mgrwt>
<rscale>  0 0.12501161E+03</rscale>
<asrwt>0</asrwt>
<pdfrwt beam="1">  1        4 0.74447817E-02 0.12501161E+03</pdfrwt>
<pdfrwt beam="2">  1       -4 0.12421156E-01 0.12501161E+03</pdfrwt>
<totfact> 0.10360469E+04</totfact>
</mgrwt>
</event>
<event>
 5    1  0.3337119E-002  0.1249945E+03  0.7818608E-02  0.1235078E+00
          4   -1    0    0  501    0  0.00000000000E+00  0.00000000000E+00  0.42112024367E+03  0.42112215868E+03  0.12700000000E+01 0.  1.
         -4   -1    0    0    0  501 -0.00000000000E+00 -0.00000000000E+00 -0.92296217289E+01  0.93165882843E+01  0.12700000000E+01 0.  1.
         25    2    1    2    0    0  0.00000000000E+00  0.00000000000E+00  0.41189062194E+03  0.43043874696E+03  0.12499452165E+03 0.  0.
    9000005    1    3    3    0    0 -0.23417431229E+02 -0.56313735245E+02  0.15906916106E+03  0.17036317343E+03  0.10000000000E+01 0.  0.
    9000005    1    3    3    0    0  0.23417431229E+02  0.56313735245E+02  0.25282146088E+03  0.26007557353E+03  0.10000000000E+01 0.  0.
<mgrwt>
<rscale>  0 0.12499452E+03</rscale>
<asrwt>0</asrwt>
<pdfrwt beam="1">  1        4 0.64794555E-01 0.12499452E+03</pdfrwt>
<pdfrwt beam="2">  1       -4 0.14267791E-02 0.12499452E+03</pdfrwt>
<totfact> 0.61703699E+03</totfact>
</mgrwt>
</event>
<event>
 5    1  0.3337119E-002  0.1249875E+03  0.7818608E-02  0.1235089E+00
         -4   -1    0    0    0  501 -0.00000000000E+00  0.00000000000E+00  0.11117620552E+02  0.11189923447E+02  0.12700000000E+01 0.  1.
          4   -1    0    0  501    0  0.00000000000E+00 -0.00000000000E+00 -0.35007415963E+03  0.35007646328E+03  0.12700000000E+01 0.  1.
         25    2    1    2    0    0  0.00000000000E+00  0.00000000000E+00 -0.33895653908E+03  0.36126638672E+03  0.12498746654E+03 0.  0.
    9000005    1    3    3    0    0 -0.25926789940E+02  0.29138652141E+02 -0.28373402902E+02  0.48242196026E+02  0.10000000000E+01 0.  0.
    9000005    1    3    3    0    0  0.25926789940E+02 -0.29138652141E+02 -0.31058313617E+03  0.31302419070E+03  0.10000000000E+01 0.  0.
<mgrwt>
<rscale>  0 0.12498747E+03</rscale>
<asrwt>0</asrwt>
<pdfrwt beam="2">  1        4 0.53863294E-01 0.12498747E+03</pdfrwt>
<pdfrwt beam="1">  1       -4 0.17161424E-02 0.12498747E+03</pdfrwt>
<totfact> 0.68521640E+03</totfact>
</mgrwt>
</event>
<event>
 5    1  0.3337119E-002  0.1250003E+03  0.7818608E-02  0.1235069E+00
          4   -1    0    0  501    0  0.00000000000E+00  0.00000000000E+00  0.10487949055E+04  0.10487956745E+04  0.12700000000E+01 0. -1.
         -4   -1    0    0    0  501 -0.00000000000E+00 -0.00000000000E+00 -0.36154784305E+01  0.38320470093E+01  0.12700000000E+01 0. -1.
         25    2    1    2    0    0  0.00000000000E+00  0.00000000000E+00  0.10451794271E+04  0.10526277215E+04  0.12500034069E+03 0.  0.
    9000005    1    3    3    0    0 -0.45432456914E+02  0.15313573754E+02  0.18504969157E+03  0.19116224008E+03  0.10000000000E+01 0.  0.
    9000005    1    3    3    0    0  0.45432456914E+02 -0.15313573754E+02  0.86012973554E+03  0.86146548140E+03  0.10000000000E+01 0.  0.
<mgrwt>
<rscale>  0 0.12500034E+03</rscale>
<asrwt>0</asrwt>
<pdfrwt beam="1">  1        4 0.16136985E+00 0.12500034E+03</pdfrwt>
<pdfrwt beam="2">  1       -4 0.57294548E-03 0.12500034E+03</pdfrwt>
<totfact> 0.28912632E+03</totfact>
</mgrwt>
</event>
<event>
 5    1  0.3337119E-002  0.1250002E+03  0.7818608E-02  0.1235069E+00
         -4   -1    0    0    0  501 -0.00000000000E+00  0.00000000000E+00  0.88933746944E+02  0.88942814468E+02  0.12700000000E+01 0. -1.
          4   -1    0    0  501    0  0.00000000000E+00 -0.00000000000E+00 -0.43902785841E+02  0.43921150994E+02  0.12700000000E+01 0. -1.
         25    2    1    2    0    0  0.00000000000E+00  0.00000000000E+00  0.45030961103E+02  0.13286396546E+03  0.12500018344E+03 0.  0.
    9000005    1    3    3    0    0  0.23102547654E+02  0.26152014320E+02  0.77619001919E+02  0.85107960967E+02  0.10000000000E+01 0.  0.
    9000005    1    3    3    0    0 -0.23102547654E+02 -0.26152014320E+02 -0.32588040816E+02  0.47756004495E+02  0.10000000000E+01 0.  0.
<mgrwt>
<rscale>  0 0.12500018E+03</rscale>
<asrwt>0</asrwt>
<pdfrwt beam="2">  1        4 0.67563850E-02 0.12500018E+03</pdfrwt>
<pdfrwt beam="1">  1       -4 0.13684225E-01 0.12500018E+03</pdfrwt>
<totfact> 0.10283249E+04</totfact>
</mgrwt>
</event>
<event>
 5    1  0.3337119E-002  0.1250104E+03  0.7818608E-02  0.1235053E+00
         -4   -1    0    0    0  501 -0.00000000000E+00  0.00000000000E+00  0.12105399065E+02  0.12171835791E+02  0.12700000000E+01 0.  1.
          4   -1    0    0  501    0  0.00000000000E+00 -0.00000000000E+00 -0.32178946759E+03  0.32179197373E+03  0.12700000000E+01 0.  1.
         25    2    1    2    0    0  0.00000000000E+00  0.00000000000E+00 -0.30968406853E+03  0.33396380952E+03  0.12501041463E+03 0.  0.
    9000005    1    3    3    0    0 -0.62497267431E+01  0.47062045198E+02 -0.26342432240E+03  0.26767007456E+03  0.10000000000E+01 0.  0.
    9000005    1    3    3    0    0  0.62497267431E+01 -0.47062045198E+02 -0.46259746129E+02  0.66293734957E+02  0.10000000000E+01 0.  0.
<mgrwt>
<rscale>  0 0.12501041E+03</rscale>
<asrwt>0</asrwt>
<pdfrwt beam="2">  1        4 0.49511369E-01 0.12501041E+03</pdfrwt>
<pdfrwt beam="1">  1       -4 0.18676726E-02 0.12501041E+03</pdfrwt>
<totfact> 0.71509032E+03</totfact>
</mgrwt>
</event>
<event>
 5    1  0.3337119E-002  0.1250259E+03  0.7818608E-02  0.1235029E+00
         -4   -1    0    0    0  501 -0.00000000000E+00  0.00000000000E+00  0.93467918082E+02  0.93476545778E+02  0.12700000000E+01 0. -1.
          4   -1    0    0  501    0  0.00000000000E+00 -0.00000000000E+00 -0.41789518524E+02  0.41808811971E+02  0.12700000000E+01 0. -1.
         25    2    1    2    0    0  0.00000000000E+00  0.00000000000E+00  0.51678399558E+02  0.13528535775E+03  0.12502588148E+03 0.  0.
    9000005    1    3    3    0    0 -0.30418391329E+02 -0.18220436063E+02 -0.29859035011E+02  0.46366203134E+02  0.10000000000E+01 0.  0.
    9000005    1    3    3    0    0  0.30418391329E+02  0.18220436063E+02  0.81537434569E+02  0.88919154615E+02  0.10000000000E+01 0.  0.
<mgrwt>
<rscale>  0 0.12502588E+03</rscale>
<asrwt>0</asrwt>
<pdfrwt beam="2">  1        4 0.64313045E-02 0.12502588E+03</pdfrwt>
<pdfrwt beam="1">  1       -4 0.14381827E-01 0.12502588E+03</pdfrwt>
<totfact> 0.10226090E+04</totfact>
</mgrwt>
</event>
<event>
 5    1  0.3337119E-002  0.1250040E+03  0.7818608E-02  0.1235063E+00
          4   -1    0    0  501    0  0.00000000000E+00  0.00000000000E+00  0.11014479071E+02  0.11087454586E+02  0.12700000000E+01 0.  1.
         -4   -1    0    0    0  501 -0.00000000000E+00 -0.00000000000E+00 -0.35342455310E+03  0.35342683491E+03  0.12700000000E+01 0.  1.
         25    2    1    2    0    0  0.00000000000E+00  0.00000000000E+00 -0.34241007403E+03  0.36451428949E+03  0.12500403373E+03 0.  0.
    9000005    1    3    3    0    0 -0.79351333193E+01 -0.61986633938E+02 -0.17248604511E+03  0.18346047227E+03  0.10000000000E+01 0.  0.
    9000005    1    3    3    0    0  0.79351333193E+01  0.61986633938E+02 -0.16992402892E+03  0.18105381723E+03  0.10000000000E+01 0.  0.
<mgrwt>
<rscale>  0 0.12500403E+03</rscale>
<asrwt>0</asrwt>
<pdfrwt beam="1">  1        4 0.17003245E-02 0.12500403E+03</pdfrwt>
<pdfrwt beam="2">  1       -4 0.54378789E-01 0.12500403E+03</pdfrwt>
<totfact> 0.68150701E+03</totfact>
</mgrwt>
</event>
<event>
 5    1  0.3337119E-002  0.1250005E+03  0.7818608E-02  0.1235069E+00
         -4   -1    0    0    0  501 -0.00000000000E+00  0.00000000000E+00  0.52515162682E+03  0.52515316246E+03  0.12700000000E+01 0. -1.
          4   -1    0    0  501    0  0.00000000000E+00 -0.00000000000E+00 -0.73826199308E+01  0.74910598077E+01  0.12700000000E+01 0. -1.
         25    2    1    2    0    0  0.00000000000E+00  0.00000000000E+00  0.51776900688E+03  0.53264422227E+03  0.12500049212E+03 0.  0.
    9000005    1    3    3    0    0  0.43729644426E+02 -0.43431464862E+02  0.30290161882E+03  0.30910995556E+03  0.10000000000E+01 0.  0.
    9000005    1    3    3    0    0 -0.43729644426E+02  0.43431464862E+02  0.21486738806E+03  0.22353426671E+03  0.10000000000E+01 0.  0.
<mgrwt>
<rscale>  0 0.12500049E+03</rscale>
<asrwt>0</asrwt>
<pdfrwt beam="2">  1        4 0.11442474E-02 0.12500049E+03</pdfrwt>
<pdfrwt beam="1">  1       -4 0.80801011E-01 0.12500049E+03</pdfrwt>
<totfact> 0.53417070E+03</totfact>
</mgrwt>
</event>
<event>
 5    1  0.3337119E-002  0.1249972E+03  0.7818608E-02  0.1235074E+00
          4   -1    0    0  501    0  0.00000000000E+00  0.00000000000E+00  0.52903690162E+02  0.52918931704E+02  0.12700000000E+01 0.  1.
         -4   -1    0    0    0  501 -0.00000000000E+00 -0.00000000000E+00 -0.73802414151E+02  0.73813340491E+02  0.12700000000E+01 0.  1.
         25    2    1    2    0    0  0.00000000000E+00  0.00000000000E+00 -0.20898723989E+02  0.12673227220E+03  0.12499724858E+03 0.  0.
    9000005    1    3    3    0    0 -0.21451161335E+02  0.19292448630E+02 -0.66650973199E+02  0.72634035584E+02  0.10000000000E+01 0.  0.
    9000005    1    3    3    0    0  0.21451161335E+02 -0.19292448630E+02  0.45752249210E+02  0.54098236612E+02  0.10000000000E+01 0.  0.
<mgrwt>
<rscale>  0 0.12499725E+03</rscale>
<asrwt>0</asrwt>
<pdfrwt beam="1">  1        4 0.81410422E-02 0.12499725E+03</pdfrwt>
<pdfrwt beam="2">  1       -4 0.11356230E-01 0.12499725E+03</pdfrwt>
<totfact> 0.10415614E+04</totfact>
</mgrwt>
</event>
<event>
 5    1  0.3337119E-002  0.1249892E+03  0.7818608E-02  0.1235086E+00
         -4   -1    0    0    0  501 -0.00000000000E+00  0.00000000000E+00  0.39267239941E+02  0.39287772049E+02  0.12700000000E+01 0.  1.
          4   -1    0    0  501    0  0.00000000000E+00 -0.00000000000E+00 -0.99410848174E+02  0.99418960136E+02  0.12700000000E+01 0.  1.
         25    2    1    2    0    0  0.00000000000E+00  0.00000000000E+00 -0.60143608233E+02  0.13870673219E+03  0.12498921530E+03 0.  0.
    9000005    1    3    3    0    0  0.50440604380E+02  0.10398843986E+02  0.91980535217E+01  0.52325851307E+02  0.10000000000E+01 0.  0.
    9000005    1    3    3    0    0 -0.50440604380E+02 -0.10398843986E+02 -0.69341661755E+02  0.86380880878E+02  0.10000000000E+01 0.  0.
<mgrwt>
<rscale>  0 0.12498922E+03</rscale>
<asrwt>0</asrwt>
<pdfrwt beam="2">  1        4 0.15296180E-01 0.12498922E+03</pdfrwt>
<pdfrwt beam="1">  1       -4 0.60433173E-02 0.12498922E+03</pdfrwt>
<totfact> 0.10162929E+04</totfact>
</mgrwt>
</event>
<event>
 5    1  0.3337119E-002  0.1250071E+03  0.7818608E-02  0.1235058E+00
         -4   -1    0    0    0  501 -0.00000000000E+00  0.00000000000E+00  0.22539535752E+03  0.22539893542E+03  0.12700000000E+01 0.  1.
          4   -1    0    0  501    0  0.00000000000E+00 -0.00000000000E+00 -0.17305643368E+02  0.17352181199E+02  0.12700000000E+01 0.  1.
         25    2    1    2    0    0  0.00000000000E+00  0.00000000000E+00  0.20808971415E+03  0.24275111662E+03  0.12500710175E+03 0.  0.
    9000005    1    3    3    0    0  0.17835123459E+02  0.36608366140E+02  0.11985144463E+02  0.42460661653E+02  0.10000000000E+01 0.  0.
    9000005    1    3    3    0    0 -0.17835123459E+02 -0.36608366140E+02  0.19610456969E+03  0.20029045497E+03  0.10000000000E+01 0.  0.
<mgrwt>
<rscale>  0 0.12500710E+03</rscale>
<asrwt>0</asrwt>
<pdfrwt beam="2">  1        4 0.26662621E-02 0.12500710E+03</pdfrwt>
<pdfrwt beam="1">  1       -4 0.34680060E-01 0.12500710E+03</pdfrwt>
<totfact> 0.83376141E+03</totfact>
</mgrwt>
</event>
<event>
 5    1  0.3337119E-002  0.1249994E+03  0.7818608E-02  0.1235070E+00
         -4   -1    0    0    0  501 -0.00000000000E+00  0.00000000000E+00  0.50692519474E+03  0.50692678560E+03  0.12700000000E+01 0. -1.
          4   -1    0    0  501    0  0.00000000000E+00 -0.00000000000E+00 -0.76517518402E+01  0.77564299922E+01  0.12700000000E+01 0. -1.
         25    2    1    2    0    0  0.00000000000E+00  0.00000000000E+00  0.49927344290E+03  0.51468321560E+03  0.12499936652E+03 0.  0.
    9000005    1    3    3    0    0  0.56330682682E+02  0.14995532262E+02  0.34236692653E+03  0.34729544221E+03  0.10000000000E+01 0.  0.
    9000005    1    3    3    0    0 -0.56330682682E+02 -0.14995532262E+02  0.15690651637E+03  0.16738777339E+03  0.10000000000E+01 0.  0.
<mgrwt>
<rscale>  0 0.12499937E+03</rscale>
<asrwt>0</asrwt>
<pdfrwt beam="2">  1        4 0.11853668E-02 0.12499937E+03</pdfrwt>
<pdfrwt beam="1">  1       -4 0.77996688E-01 0.12499937E+03</pdfrwt>
<totfact> 0.54743610E+03</totfact>
</mgrwt>
</event>
<event>
 5    1  0.3337119E-002  0.1249984E+03  0.7818608E-02  0.1235072E+00
         -4   -1    0    0    0  501 -0.00000000000E+00  0.00000000000E+00  0.13732837185E+03  0.13733424415E+03  0.12700000000E+01 0. -1.
          4   -1    0    0  501    0  0.00000000000E+00 -0.00000000000E+00 -0.28423210582E+02  0.28451569373E+02  0.12700000000E+01 0. -1.
         25    2    1    2    0    0  0.00000000000E+00  0.00000000000E+00  0.10890516127E+03  0.16578581352E+03  0.12499840725E+03 0.  0.
    9000005    1    3    3    0    0  0.20998229759E+02 -0.40975550855E+02 -0.15863521697E+01  0.46080776188E+02  0.10000000000E+01 0.  0.
    9000005    1    3    3    0    0 -0.20998229759E+02  0.40975550855E+02  0.11049151344E+03  0.11970503734E+03  0.10000000000E+01 0.  0.
<mgrwt>
<rscale>  0 0.12499841E+03</rscale>
<asrwt>0</asrwt>
<pdfrwt beam="2">  1        4 0.43754347E-02 0.12499841E+03</pdfrwt>
<pdfrwt beam="1">  1       -4 0.21130076E-01 0.12499841E+03</pdfrwt>
<totfact> 0.96242221E+03</totfact>
</mgrwt>
</event>
<event>
 5    1  0.3337119E-002  0.1250033E+03  0.7818608E-02  0.1235064E+00
         -4   -1    0    0    0  501 -0.00000000000E+00  0.00000000000E+00  0.19952391917E+03  0.19952796100E+03  0.12700000000E+01 0. -1.
          4   -1    0    0  501    0  0.00000000000E+00 -0.00000000000E+00 -0.19554032680E+02  0.19595231411E+02  0.12700000000E+01 0. -1.
         25    2    1    2    0    0  0.00000000000E+00  0.00000000000E+00  0.17996988649E+03  0.21912319241E+03  0.12500325359E+03 0.  0.
    9000005    1    3    3    0    0  0.48640859587E+01  0.31288204586E+01 -0.19092501697E+02  0.19974295250E+02  0.10000000000E+01 0.  0.
    9000005    1    3    3    0    0 -0.48640859587E+01 -0.31288204586E+01  0.19906238819E+03  0.19914889716E+03  0.10000000000E+01 0.  0.
<mgrwt>
<rscale>  0 0.12500325E+03</rscale>
<asrwt>0</asrwt>
<pdfrwt beam="2">  1        4 0.30117928E-02 0.12500325E+03</pdfrwt>
<pdfrwt beam="1">  1       -4 0.30699467E-01 0.12500325E+03</pdfrwt>
<totfact> 0.87000959E+03</totfact>
</mgrwt>
</event>
<event>
 5    1  0.3337119E-002  0.1249966E+03  0.7818608E-02  0.1235075E+00
         -4   -1    0    0    0  501 -0.00000000000E+00  0.00000000000E+00  0.22273078545E+02  0.22309256551E+02  0.12700000000E+01 0. -1.
          4   -1    0    0  501    0  0.00000000000E+00 -0.00000000000E+00 -0.17518966944E+03  0.17519427268E+03  0.12700000000E+01 0. -1.
         25    2    1    2    0    0  0.00000000000E+00  0.00000000000E+00 -0.15291659090E+03  0.19750352923E+03  0.12499664110E+03 0.  0.
    9000005    1    3    3    0    0  0.23097182732E+02  0.43294769012E+02 -0.15321131656E+02  0.51416475464E+02  0.10000000000E+01 0.  0.
    9000005    1    3    3    0    0 -0.23097182732E+02 -0.43294769012E+02 -0.13759545924E+03  0.14608705377E+03  0.10000000000E+01 0.  0.
<mgrwt>
<rscale>  0 0.12499664E+03</rscale>
<asrwt>0</asrwt>
<pdfrwt beam="2">  1        4 0.26955393E-01 0.12499664E+03</pdfrwt>
<pdfrwt beam="1">  1       -4 0.34297646E-02 0.12499664E+03</pdfrwt>
<totfact> 0.90564677E+03</totfact>
</mgrwt>
</event>
<event>
 5    1  0.3337119E-002  0.1249980E+03  0.7818608E-02  0.1235072E+00
          4   -1    0    0  501    0  0.00000000000E+00  0.00000000000E+00  0.36078981369E+02  0.36101326798E+02  0.12700000000E+01 0.  1.
         -4   -1    0    0    0  501 -0.00000000000E+00 -0.00000000000E+00 -0.10820639965E+03  0.10821385228E+03  0.12700000000E+01 0.  1.
         25    2    1    2    0    0  0.00000000000E+00  0.00000000000E+00 -0.72127418283E+02  0.14431517908E+03  0.12499802576E+03 0.  0.
    9000005    1    3    3    0    0  0.74923025862E+01 -0.74220603528E+01 -0.10717721452E+03  0.10769947488E+03  0.10000000000E+01 0.  0.
    9000005    1    3    3    0    0 -0.74923025862E+01  0.74220603528E+01  0.35049796234E+02  0.36615704199E+02  0.10000000000E+01 0.  0.
<mgrwt>
<rscale>  0 0.12499803E+03</rscale>
<asrwt>0</asrwt>
<pdfrwt beam="1">  1        4 0.55529047E-02 0.12499803E+03</pdfrwt>
<pdfrwt beam="2">  1       -4 0.16649430E-01 0.12499803E+03</pdfrwt>
<totfact> 0.10045368E+04</totfact>
</mgrwt>
</event>
<event>
 5    1  0.3337119E-002  0.1249977E+03  0.7818608E-02  0.1235073E+00
          4   -1    0    0  501    0  0.00000000000E+00  0.00000000000E+00  0.65506932329E+02  0.65519242083E+02  0.12700000000E+01 0.  1.
         -4   -1    0    0    0  501 -0.00000000000E+00 -0.00000000000E+00 -0.59604178105E+02  0.59617706661E+02  0.12700000000E+01 0.  1.
         25    2    1    2    0    0  0.00000000000E+00  0.00000000000E+00  0.59027542245E+01  0.12513694874E+03  0.12499765371E+03 0.  0.
    9000005    1    3    3    0    0 -0.61145203044E+02 -0.12758494516E+02  0.10549798090E+01  0.62479020639E+02  0.10000000000E+01 0.  0.
    9000005    1    3    3    0    0  0.61145203044E+02  0.12758494516E+02  0.48477744155E+01  0.62657928105E+02  0.10000000000E+01 0.  0.
<mgrwt>
<rscale>  0 0.12499765E+03</rscale>
<asrwt>0</asrwt>
<pdfrwt beam="1">  1        4 0.10079977E-01 0.12499765E+03</pdfrwt>
<pdfrwt beam="2">  1       -4 0.91718611E-02 0.12499765E+03</pdfrwt>
<totfact> 0.10450443E+04</totfact>
</mgrwt>
</event>
<event>
 5    1  0.3337119E-002  0.1250004E+03  0.7818608E-02  0.1235069E+00
         -4   -1    0    0    0  501 -0.00000000000E+00  0.00000000000E+00  0.48613826615E+02  0.48630412688E+02  0.12700000000E+01 0.  1.
          4   -1    0    0  501    0  0.00000000000E+00 -0.00000000000E+00 -0.80317903528E+02  0.80327943625E+02  0.12700000000E+01 0.  1.
         25    2    1    2    0    0  0.00000000000E+00  0.00000000000E+00 -0.31704076913E+02  0.12895835631E+03  0.12500043668E+03 0.  0.
    9000005    1    3    3    0    0 -0.30541141277E+02  0.14756340007E+02  0.38295703224E+02  0.51167096520E+02  0.10000000000E+01 0.  0.
    9000005    1    3    3    0    0  0.30541141277E+02 -0.14756340007E+02 -0.69999780137E+02  0.77791259792E+02  0.10000000000E+01 0.  0.
<mgrwt>
<rscale>  0 0.12500044E+03</rscale>
<asrwt>0</asrwt>
<pdfrwt beam="2">  1        4 0.12358649E-01 0.12500044E+03</pdfrwt>
<pdfrwt beam="1">  1       -4 0.74810984E-02 0.12500044E+03</pdfrwt>
<totfact> 0.10366739E+04</totfact>
</mgrwt>
</event>
<event>
 5    1  0.3337119E-002  0.1250027E+03  0.7818608E-02  0.1235065E+00
          4   -1    0    0  501    0  0.00000000000E+00  0.00000000000E+00  0.24888513936E+03  0.24888837959E+03  0.12700000000E+01 0. -1.
         -4   -1    0    0    0  501 -0.00000000000E+00 -0.00000000000E+00 -0.15666630808E+02  0.15718022168E+02  0.12700000000E+01 0. -1.
         25    2    1    2    0    0  0.00000000000E+00  0.00000000000E+00  0.23321850855E+03  0.26460640176E+03  0.12500270045E+03 0.  0.
    9000005    1    3    3    0    0  0.52038705145E+02 -0.34552647122E+02  0.12057312365E+03  0.13579687184E+03  0.10000000000E+01 0.  0.
    9000005    1    3    3    0    0 -0.52038705145E+02  0.34552647122E+02  0.11264538490E+03  0.12880952991E+03  0.10000000000E+01 0.  0.
<mgrwt>
<rscale>  0 0.12500270E+03</rscale>
<asrwt>0</asrwt>
<pdfrwt beam="1">  1        4 0.38294223E-01 0.12500270E+03</pdfrwt>
<pdfrwt beam="2">  1       -4 0.24144534E-02 0.12500270E+03</pdfrwt>
<totfact> 0.80259109E+03</totfact>
</mgrwt>
</event>
<event>
 5    1  0.3337119E-002  0.1249991E+03  0.7818608E-02  0.1235071E+00
         -4   -1    0    0    0  501 -0.00000000000E+00  0.00000000000E+00  0.24136194487E+01  0.27273538170E+01  0.12700000000E+01 0.  1.
          4   -1    0    0  501    0  0.00000000000E+00 -0.00000000000E+00 -0.15193175182E+04  0.15193180490E+04  0.12700000000E+01 0.  1.
         25    2    1    2    0    0  0.00000000000E+00  0.00000000000E+00 -0.15169038988E+04  0.15220454028E+04  0.12499908072E+03 0.  0.
    9000005    1    3    3    0    0  0.49893467704E+02 -0.31831923725E+02 -0.51414391597E+03  0.51753994611E+03  0.10000000000E+01 0.  0.
    9000005    1    3    3    0    0 -0.49893467704E+02  0.31831923725E+02 -0.10027599828E+04  0.10045054567E+04  0.10000000000E+01 0.  0.
<mgrwt>
<rscale>  0 0.12499908E+03</rscale>
<asrwt>0</asrwt>
<pdfrwt beam="2">  1        4 0.23376461E+00 0.12499908E+03</pdfrwt>
<pdfrwt beam="1">  1       -4 0.39550153E-03 0.12499908E+03</pdfrwt>
<totfact> 0.17501531E+03</totfact>
</mgrwt>
</event>
<event>
 5    1  0.3337119E-002  0.1250029E+03  0.7818608E-02  0.1235065E+00
          4   -1    0    0  501    0  0.00000000000E+00  0.00000000000E+00  0.18065423398E+03  0.18065869797E+03  0.12700000000E+01 0. -1.
         -4   -1    0    0    0  501 -0.00000000000E+00 -0.00000000000E+00 -0.21600424105E+02  0.21637726810E+02  0.12700000000E+01 0. -1.
         25    2    1    2    0    0  0.00000000000E+00  0.00000000000E+00  0.15905380987E+03  0.20229642478E+03  0.12500291615E+03 0.  0.
    9000005    1    3    3    0    0 -0.51911881125E+02  0.24507735986E+01  0.23359242506E+02  0.56986874836E+02  0.10000000000E+01 0.  0.
    9000005    1    3    3    0    0  0.51911881125E+02 -0.24507735986E+01  0.13569456737E+03  0.14530954995E+03  0.10000000000E+01 0.  0.
<mgrwt>
<rscale>  0 0.12500292E+03</rscale>
<asrwt>0</asrwt>
<pdfrwt beam="1">  1        4 0.27796171E-01 0.12500292E+03</pdfrwt>
<pdfrwt beam="2">  1       -4 0.33263551E-02 0.12500292E+03</pdfrwt>
<totfact> 0.89743782E+03</totfact>
</mgrwt>
</event>
<event>
 4    1  0.3337119E-002  0.1251853E+03  0.7818608E-02  0.1234780E+00
          4   -1    0    0  501    0  0.00000000000E+00  0.00000000000E+00  0.65396104696E+02  0.65408435308E+02  0.12700000000E+01 0. -1.
         -4   -1    0    0    0  501 -0.00000000000E+00 -0.00000000000E+00 -0.59884675572E+02  0.59898140776E+02  0.12700000000E+01 0. -1.
    9000005    1    1    2    0    0  0.29426891046E+02  0.52852820899E+02  0.18817377503E+02  0.63359737134E+02  0.10000000000E+01 0.  0.
    9000005    1    1    2    0    0 -0.29426891046E+02 -0.52852820899E+02 -0.13305948378E+02  0.61946838950E+02  0.10000000000E+01 0.  0.
<mgrwt>
<rscale>  0 0.12518531E+03</rscale>
<asrwt>0</asrwt>
<pdfrwt beam="1">  1        4 0.10062924E-01 0.12518531E+03</pdfrwt>
<pdfrwt beam="2">  1       -4 0.92150113E-02 0.12518531E+03</pdfrwt>
<totfact> 0.10402579E+04</totfact>
</mgrwt>
</event>
<event>
 5    1  0.3337119E-002  0.1249990E+03  0.7818608E-02  0.1235071E+00
          4   -1    0    0  501    0  0.00000000000E+00  0.00000000000E+00  0.45793984322E+01  0.47522405244E+01  0.12700000000E+01 0.  1.
         -4   -1    0    0    0  501 -0.00000000000E+00 -0.00000000000E+00 -0.83701849184E+03  0.83701945532E+03  0.12700000000E+01 0.  1.
         25    2    1    2    0    0  0.00000000000E+00  0.00000000000E+00 -0.83243909341E+03  0.84177169584E+03  0.12499897475E+03 0.  0.
    9000005    1    3    3    0    0  0.52889518288E+01  0.53959071178E+02 -0.62548309787E+03  0.62782932402E+03  0.10000000000E+01 0.  0.
    9000005    1    3    3    0    0 -0.52889518288E+01 -0.53959071178E+02 -0.20695599554E+03  0.21394237183E+03  0.10000000000E+01 0.  0.
<mgrwt>
<rscale>  0 0.12499897E+03</rscale>
<asrwt>0</asrwt>
<pdfrwt beam="1">  1        4 0.71789316E-03 0.12499897E+03</pdfrwt>
<pdfrwt beam="2">  1       -4 0.12878533E+00 0.12499897E+03</pdfrwt>
<totfact> 0.36467267E+03</totfact>
</mgrwt>
</event>
<event>
 5    1  0.3337119E-002  0.1250000E+03  0.7818608E-02  0.1235069E+00
         -4   -1    0    0    0  501 -0.00000000000E+00  0.00000000000E+00  0.41455917612E+02  0.41475366244E+02  0.12700000000E+01 0.  1.
          4   -1    0    0  501    0  0.00000000000E+00 -0.00000000000E+00 -0.94180755287E+02  0.94189317687E+02  0.12700000000E+01 0.  1.
         25    2    1    2    0    0  0.00000000000E+00  0.00000000000E+00 -0.52724837675E+02  0.13566468393E+03  0.12499999183E+03 0.  0.
    9000005    1    3    3    0    0  0.21768356712E+00  0.29453226398E+02 -0.86180151376E+02  0.91079956207E+02  0.10000000000E+01 0.  0.
    9000005    1    3    3    0    0 -0.21768356712E+00 -0.29453226398E+02  0.33455313701E+02  0.44584727724E+02  0.10000000000E+01 0.  0.
<mgrwt>
<rscale>  0 0.12499999E+03</rscale>
<asrwt>0</asrwt>
<pdfrwt beam="2">  1        4 0.14491502E-01 0.12499999E+03</pdfrwt>
<pdfrwt beam="1">  1       -4 0.63799882E-02 0.12499999E+03</pdfrwt>
<totfact> 0.10224082E+04</totfact>
</mgrwt>
</event>
<event>
 5    1  0.3337119E-002  0.1250099E+03  0.7818608E-02  0.1235054E+00
         -4   -1    0    0    0  501 -0.00000000000E+00  0.00000000000E+00  0.76031761540E+01  0.77085139702E+01  0.12700000000E+01 0.  1.
          4   -1    0    0  501    0  0.00000000000E+00 -0.00000000000E+00 -0.51020564527E+03  0.51020722591E+03  0.12700000000E+01 0.  1.
         25    2    1    2    0    0  0.00000000000E+00  0.00000000000E+00 -0.50260246912E+03  0.51791573988E+03  0.12500988620E+03 0.  0.
    9000005    1    3    3    0    0  0.55738793797E+02 -0.10985941904E+02 -0.14339510858E+03  0.15424221607E+03  0.10000000000E+01 0.  0.
    9000005    1    3    3    0    0 -0.55738793797E+02  0.10985941904E+02 -0.35920736053E+03  0.36367352380E+03  0.10000000000E+01 0.  0.
<mgrwt>
<rscale>  0 0.12500989E+03</rscale>
<asrwt>0</asrwt>
<pdfrwt beam="2">  1        4 0.78501374E-01 0.12500989E+03</pdfrwt>
<pdfrwt beam="1">  1       -4 0.11779443E-02 0.12500989E+03</pdfrwt>
<totfact> 0.54488807E+03</totfact>
</mgrwt>
</event>
<event>
 5    1  0.3337119E-002  0.1250007E+03  0.7818608E-02  0.1235068E+00
          4   -1    0    0  501    0  0.00000000000E+00  0.00000000000E+00  0.27859302199E+02  0.27888234419E+02  0.12700000000E+01 0. -1.
         -4   -1    0    0    0  501 -0.00000000000E+00 -0.00000000000E+00 -0.14011048630E+03  0.14011624199E+03  0.12700000000E+01 0. -1.
         25    2    1    2    0    0  0.00000000000E+00  0.00000000000E+00 -0.11225118410E+03  0.16800447641E+03  0.12500070305E+03 0.  0.
    9000005    1    3    3    0    0  0.29599255979E+02  0.15978422431E+02  0.14661047128E+02  0.36706569450E+02  0.10000000000E+01 0.  0.
    9000005    1    3    3    0    0 -0.29599255979E+02 -0.15978422431E+02 -0.12691223123E+03  0.13129790696E+03  0.10000000000E+01 0.  0.
<mgrwt>
<rscale>  0 0.12500070E+03</rscale>
<asrwt>0</asrwt>
<pdfrwt beam="1">  1        4 0.42887149E-02 0.12500070E+03</pdfrwt>
<pdfrwt beam="2">  1       -4 0.21558127E-01 0.12500070E+03</pdfrwt>
<totfact> 0.95819886E+03</totfact>
</mgrwt>
</event>
<event>
 5    1  0.3337119E-002  0.1249966E+03  0.7818608E-02  0.1235075E+00
         -4   -1    0    0    0  501 -0.00000000000E+00  0.00000000000E+00  0.10809645543E+03  0.10810391564E+03  0.12700000000E+01 0.  1.
          4   -1    0    0  501    0  0.00000000000E+00 -0.00000000000E+00 -0.36114847303E+02  0.36137170554E+02  0.12700000000E+01 0.  1.
         25    2    1    2    0    0  0.00000000000E+00  0.00000000000E+00  0.71981608129E+02  0.14424108620E+03  0.12499655610E+03 0.  0.
    9000005    1    3    3    0    0 -0.41767660232E+02  0.46173873507E+02  0.42148102297E+02  0.75193261421E+02  0.10000000000E+01 0.  0.
    9000005    1    3    3    0    0  0.41767660232E+02 -0.46173873507E+02  0.29833505832E+02  0.69047824775E+02  0.10000000000E+01 0.  0.
<mgrwt>
<rscale>  0 0.12499656E+03</rscale>
<asrwt>0</asrwt>
<pdfrwt beam="2">  1        4 0.55584213E-02 0.12499656E+03</pdfrwt>
<pdfrwt beam="1">  1       -4 0.16632515E-01 0.12499656E+03</pdfrwt>
<totfact> 0.10047210E+04</totfact>
</mgrwt>
</event>
<event>
 5    1  0.3337119E-002  0.1250086E+03  0.7818608E-02  0.1235056E+00
          4   -1    0    0  501    0  0.00000000000E+00  0.00000000000E+00  0.33668474418E+02  0.33692418578E+02  0.12700000000E+01 0.  1.
         -4   -1    0    0    0  501 -0.00000000000E+00 -0.00000000000E+00 -0.11596835335E+03  0.11597530719E+03  0.12700000000E+01 0.  1.
         25    2    1    2    0    0  0.00000000000E+00  0.00000000000E+00 -0.82299878930E+02  0.14966772577E+03  0.12500863196E+03 0.  0.
    9000005    1    3    3    0    0 -0.44179296846E+02  0.38028928545E+02 -0.14170937218E+02  0.59998542797E+02  0.10000000000E+01 0.  0.
    9000005    1    3    3    0    0  0.44179296846E+02 -0.38028928545E+02 -0.68128941712E+02  0.89669182972E+02  0.10000000000E+01 0.  0.
<mgrwt>
<rscale>  0 0.12500863E+03</rscale>
<asrwt>0</asrwt>
<pdfrwt beam="1">  1        4 0.51821421E-02 0.12500863E+03</pdfrwt>
<pdfrwt beam="2">  1       -4 0.17843662E-01 0.12500863E+03</pdfrwt>
<totfact> 0.99350670E+03</totfact>
</mgrwt>
</event>
<event>
 5    1  0.3337119E-002  0.1250135E+03  0.7818608E-02  0.1235048E+00
         -4   -1    0    0    0  501 -0.00000000000E+00  0.00000000000E+00  0.10626223437E+03  0.10626982335E+03  0.12700000000E+01 0. -1.
          4   -1    0    0  501    0  0.00000000000E+00 -0.00000000000E+00 -0.36748553192E+02  0.36770491725E+02  0.12700000000E+01 0. -1.
         25    2    1    2    0    0  0.00000000000E+00  0.00000000000E+00  0.69513681182E+02  0.14304031507E+03  0.12501351873E+03 0.  0.
    9000005    1    3    3    0    0 -0.27457025581E+02  0.49438576364E+02  0.65202718279E+02  0.86316021442E+02  0.10000000000E+01 0.  0.
    9000005    1    3    3    0    0  0.27457025581E+02 -0.49438576364E+02  0.43109629027E+01  0.56724293629E+02  0.10000000000E+01 0.  0.
<mgrwt>
<rscale>  0 0.12501352E+03</rscale>
<asrwt>0</asrwt>
<pdfrwt beam="2">  1        4 0.56558950E-02 0.12501352E+03</pdfrwt>
<pdfrwt beam="1">  1       -4 0.16350307E-01 0.12501352E+03</pdfrwt>
<totfact> 0.10067892E+04</totfact>
</mgrwt>
</event>
<event>
 5    1  0.3337119E-002  0.1250023E+03  0.7818608E-02  0.1235066E+00
          4   -1    0    0  501    0  0.00000000000E+00  0.00000000000E+00  0.12341807548E+03  0.12342460960E+03  0.12700000000E+01 0.  1.
         -4   -1    0    0    0  501 -0.00000000000E+00 -0.00000000000E+00 -0.31631624198E+02  0.31657108987E+02  0.12700000000E+01 0.  1.
         25    2    1    2    0    0  0.00000000000E+00  0.00000000000E+00  0.91786451278E+02  0.15508171858E+03  0.12500234718E+03 0.  0.
    9000005    1    3    3    0    0  0.40501129297E+02 -0.46970360445E+02  0.36376654745E+02  0.71908394817E+02  0.10000000000E+01 0.  0.
    9000005    1    3    3    0    0 -0.40501129297E+02  0.46970360445E+02  0.55409796532E+02  0.83173323767E+02  0.10000000000E+01 0.  0.
<mgrwt>
<rscale>  0 0.12500235E+03</rscale>
<asrwt>0</asrwt>
<pdfrwt beam="1">  1        4 0.18989860E-01 0.12500235E+03</pdfrwt>
<pdfrwt beam="2">  1       -4 0.48688666E-02 0.12500235E+03</pdfrwt>
<totfact> 0.98294269E+03</totfact>
</mgrwt>
</event>
<event>
 5    1  0.3337119E-002  0.1250027E+03  0.7818608E-02  0.1235065E+00
         -4   -1    0    0    0  501 -0.00000000000E+00  0.00000000000E+00  0.10479803172E+02  0.10556475479E+02  0.12700000000E+01 0. -1.
          4   -1    0    0  501    0  0.00000000000E+00 -0.00000000000E+00 -0.37132056117E+03  0.37132273300E+03  0.12700000000E+01 0. -1.
         25    2    1    2    0    0  0.00000000000E+00  0.00000000000E+00 -0.36084075799E+03  0.38187920848E+03  0.12500270893E+03 0.  0.
    9000005    1    3    3    0    0  0.14702383670E+02 -0.54094566208E+02 -0.96032625574E+02  0.11120093234E+03  0.10000000000E+01 0.  0.
    9000005    1    3    3    0    0 -0.14702383670E+02  0.54094566208E+02 -0.26480813242E+03  0.27067827614E+03  0.10000000000E+01 0.  0.
<mgrwt>
<rscale>  0 0.12500271E+03</rscale>
<asrwt>0</asrwt>
<pdfrwt beam="2">  1        4 0.57132295E-01 0.12500271E+03</pdfrwt>
<pdfrwt beam="1">  1       -4 0.16183426E-02 0.12500271E+03</pdfrwt>
<totfact> 0.66350225E+03</totfact>
</mgrwt>
</event>
<event>
 5    1  0.3337119E-002  0.1250064E+03  0.7818608E-02  0.1235059E+00
         -4   -1    0    0    0  501 -0.00000000000E+00  0.00000000000E+00  0.15376479310E+02  0.15428837156E+02  0.12700000000E+01 0. -1.
          4   -1    0    0  501    0  0.00000000000E+00 -0.00000000000E+00 -0.25358103346E+03  0.25358421369E+03  0.12700000000E+01 0. -1.
         25    2    1    2    0    0  0.00000000000E+00  0.00000000000E+00 -0.23820455415E+03  0.26901305085E+03  0.12500644746E+03 0.  0.
    9000005    1    3    3    0    0  0.16887783968E+02 -0.18112185172E+02  0.43779809753E+01  0.25167741584E+02  0.10000000000E+01 0.  0.
    9000005    1    3    3    0    0 -0.16887783968E+02  0.18112185172E+02 -0.24258253513E+03  0.24384530926E+03  0.10000000000E+01 0.  0.
<mgrwt>
<rscale>  0 0.12500645E+03</rscale>
<asrwt>0</asrwt>
<pdfrwt beam="2">  1        4 0.39016736E-01 0.12500645E+03</pdfrwt>
<pdfrwt beam="1">  1       -4 0.23698845E-02 0.12500645E+03</pdfrwt>
<totfact> 0.79646190E+03</totfact>
</mgrwt>
</event>
<event>
 5    1  0.3337119E-002  0.1249991E+03  0.7818608E-02  0.1235071E+00
         -4   -1    0    0    0  501 -0.00000000000E+00  0.00000000000E+00  0.73785679397E+01  0.74870665043E+01  0.12700000000E+01 0. -1.
          4   -1    0    0  501    0  0.00000000000E+00 -0.00000000000E+00 -0.52542385017E+03  0.52542538502E+03  0.12700000000E+01 0. -1.
         25    2    1    2    0    0  0.00000000000E+00  0.00000000000E+00 -0.51804528223E+03  0.53291245153E+03  0.12499906621E+03 0.  0.
    9000005    1    3    3    0    0 -0.26699318312E+02 -0.48757950165E+02 -0.38073312604E+03  0.38477123666E+03  0.10000000000E+01 0.  0.
    9000005    1    3    3    0    0  0.26699318312E+02  0.48757950165E+02 -0.13731215619E+03  0.14814121486E+03  0.10000000000E+01 0.  0.
<mgrwt>
<rscale>  0 0.12499907E+03</rscale>
<asrwt>0</asrwt>
<pdfrwt beam="2">  1        4 0.80842874E-01 0.12499907E+03</pdfrwt>
<pdfrwt beam="1">  1       -4 0.11436288E-02 0.12499907E+03</pdfrwt>
<totfact> 0.53399338E+03</totfact>
</mgrwt>
</event>
<event>
 5    1  0.3337119E-002  0.1249923E+03  0.7818608E-02  0.1235081E+00
          4   -1    0    0  501    0  0.00000000000E+00  0.00000000000E+00  0.61421797092E+03  0.61421928389E+03  0.12700000000E+01 0. -1.
         -4   -1    0    0    0  501 -0.00000000000E+00 -0.00000000000E+00 -0.62941905109E+01  0.64210384042E+01  0.12700000000E+01 0. -1.
         25    2    1    2    0    0  0.00000000000E+00  0.00000000000E+00  0.60792378041E+03  0.62064032229E+03  0.12499234724E+03 0.  0.
    9000005    1    3    3    0    0  0.28293775976E+02 -0.48259367666E+02  0.16570642033E+03  0.17489746157E+03  0.10000000000E+01 0.  0.
    9000005    1    3    3    0    0 -0.28293775976E+02  0.48259367666E+02  0.44221736008E+03  0.44574286072E+03  0.10000000000E+01 0.  0.
<mgrwt>
<rscale>  0 0.12499235E+03</rscale>
<asrwt>0</asrwt>
<pdfrwt beam="1">  1        4 0.94504942E-01 0.12499235E+03</pdfrwt>
<pdfrwt beam="2">  1       -4 0.97819541E-03 0.12499235E+03</pdfrwt>
<totfact> 0.47598103E+03</totfact>
</mgrwt>
</event>
<event>
 5    1  0.3337119E-002  0.1250011E+03  0.7818608E-02  0.1235068E+00
         -4   -1    0    0    0  501 -0.00000000000E+00  0.00000000000E+00  0.21053983958E+03  0.21054366993E+03  0.12700000000E+01 0. -1.
          4   -1    0    0  501    0  0.00000000000E+00 -0.00000000000E+00 -0.18528093538E+02  0.18571568328E+02  0.12700000000E+01 0. -1.
         25    2    1    2    0    0  0.00000000000E+00  0.00000000000E+00  0.19201174604E+03  0.22911523826E+03  0.12500112714E+03 0.  0.
    9000005    1    3    3    0    0 -0.46851274757E+02  0.39641252159E+02  0.11760381674E+03  0.13265793806E+03  0.10000000000E+01 0.  0.
    9000005    1    3    3    0    0  0.46851274757E+02 -0.39641252159E+02  0.74407929297E+02  0.96457300198E+02  0.10000000000E+01 0.  0.
<mgrwt>
<rscale>  0 0.12500113E+03</rscale>
<asrwt>0</asrwt>
<pdfrwt beam="2">  1        4 0.28541148E-02 0.12500113E+03</pdfrwt>
<pdfrwt beam="1">  1       -4 0.32394383E-01 0.12500113E+03</pdfrwt>
<totfact> 0.85443489E+03</totfact>
</mgrwt>
</event>
<event>
 5    1  0.3337119E-002  0.1250017E+03  0.7818608E-02  0.1235067E+00
         -4   -1    0    0    0  501 -0.00000000000E+00  0.00000000000E+00  0.21173144489E+02  0.21211198635E+02  0.12700000000E+01 0.  1.
          4   -1    0    0  501    0  0.00000000000E+00 -0.00000000000E+00 -0.18428979597E+03  0.18429417191E+03  0.12700000000E+01 0.  1.
         25    2    1    2    0    0  0.00000000000E+00  0.00000000000E+00 -0.16311665148E+03  0.20550537054E+03  0.12500166131E+03 0.  0.
    9000005    1    3    3    0    0 -0.20930765812E+02  0.52708234929E+02 -0.38401633339E+02  0.68497740327E+02  0.10000000000E+01 0.  0.
    9000005    1    3    3    0    0  0.20930765812E+02 -0.52708234929E+02 -0.12471501814E+03  0.13700763022E+03  0.10000000000E+01 0.  0.
<mgrwt>
<rscale>  0 0.12500166E+03</rscale>
<asrwt>0</asrwt>
<pdfrwt beam="2">  1        4 0.28355539E-01 0.12500166E+03</pdfrwt>
<pdfrwt beam="1">  1       -4 0.32606708E-02 0.12500166E+03</pdfrwt>
<totfact> 0.89211900E+03</totfact>
</mgrwt>
</event>
<event>
 5    1  0.3337119E-002  0.1250001E+03  0.7818608E-02  0.1235069E+00
         -4   -1    0    0    0  501 -0.00000000000E+00  0.00000000000E+00  0.16357345166E+03  0.16357838179E+03  0.12700000000E+01 0.  1.
          4   -1    0    0  501    0  0.00000000000E+00 -0.00000000000E+00 -0.23858582266E+02  0.23892359610E+02  0.12700000000E+01 0.  1.
         25    2    1    2    0    0  0.00000000000E+00  0.00000000000E+00  0.13971486940E+03  0.18747074140E+03  0.12500013660E+03 0.  0.
    9000005    1    3    3    0    0 -0.59123767864E+02 -0.19925972470E+02  0.64535018188E+02  0.89768774514E+02  0.10000000000E+01 0.  0.
    9000005    1    3    3    0    0  0.59123767864E+02  0.19925972470E+02  0.75179851207E+02  0.97701966883E+02  0.10000000000E+01 0.  0.
<mgrwt>
<rscale>  0 0.12500014E+03</rscale>
<asrwt>0</asrwt>
<pdfrwt beam="2">  1        4 0.36735286E-02 0.12500014E+03</pdfrwt>
<pdfrwt beam="1">  1       -4 0.25168124E-01 0.12500014E+03</pdfrwt>
<totfact> 0.92288986E+03</totfact>
</mgrwt>
</event>
<event>
 5    1  0.3337119E-002  0.1249999E+03  0.7818608E-02  0.1235069E+00
          4   -1    0    0  501    0  0.00000000000E+00  0.00000000000E+00  0.26099524916E+03  0.26099833905E+03  0.12700000000E+01 0.  1.
         -4   -1    0    0    0  501 -0.00000000000E+00 -0.00000000000E+00 -0.14936594181E+02  0.14990488509E+02  0.12700000000E+01 0.  1.
         25    2    1    2    0    0  0.00000000000E+00  0.00000000000E+00  0.24605865498E+03  0.27598882756E+03  0.12499988498E+03 0.  0.
    9000005    1    3    3    0    0  0.60337324847E+02 -0.11877409077E+02  0.98485004651E+02  0.11611185020E+03  0.10000000000E+01 0.  0.
    9000005    1    3    3    0    0 -0.60337324847E+02  0.11877409077E+02  0.14757365033E+03  0.15987697735E+03  0.10000000000E+01 0.  0.
<mgrwt>
<rscale>  0 0.12499988E+03</rscale>
<asrwt>0</asrwt>
<pdfrwt beam="1">  1        4 0.40157496E-01 0.12499988E+03</pdfrwt>
<pdfrwt beam="2">  1       -4 0.23023211E-02 0.12499988E+03</pdfrwt>
<totfact> 0.78713183E+03</totfact>
</mgrwt>
</event>
<event>
 5    1  0.3337119E-002  0.1249958E+03  0.7818608E-02  0.1235076E+00
         -4   -1    0    0    0  501 -0.00000000000E+00  0.00000000000E+00  0.59784532455E+02  0.59798020209E+02  0.12700000000E+01 0. -1.
          4   -1    0    0  501    0  0.00000000000E+00 -0.00000000000E+00 -0.65307412761E+02  0.65319760116E+02  0.12700000000E+01 0. -1.
         25    2    1    2    0    0  0.00000000000E+00  0.00000000000E+00 -0.55228803060E+01  0.12511778032E+03  0.12499582692E+03 0.  0.
    9000005    1    3    3    0    0  0.60002036925E+02  0.10533548120E+02 -0.16695838040E+02  0.63173974697E+02  0.10000000000E+01 0.  0.
    9000005    1    3    3    0    0 -0.60002036925E+02 -0.10533548120E+02  0.11172957734E+02  0.61943805628E+02  0.10000000000E+01 0.  0.
<mgrwt>
<rscale>  0 0.12499583E+03</rscale>
<asrwt>0</asrwt>
<pdfrwt beam="2">  1        4 0.10049282E-01 0.12499583E+03</pdfrwt>
<pdfrwt beam="1">  1       -4 0.91996076E-02 0.12499583E+03</pdfrwt>
<totfact> 0.10451291E+04</totfact>
</mgrwt>
</event>
<event>
 5    1  0.3337119E-002  0.1249914E+03  0.7818608E-02  0.1235083E+00
         -4   -1    0    0    0  501 -0.00000000000E+00  0.00000000000E+00  0.50671781426E+01  0.52239060413E+01  0.12700000000E+01 0. -1.
          4   -1    0    0  501    0  0.00000000000E+00 -0.00000000000E+00 -0.75889112895E+03  0.75889219162E+03  0.12700000000E+01 0. -1.
         25    2    1    2    0    0  0.00000000000E+00  0.00000000000E+00 -0.75382395081E+03  0.76411609766E+03  0.12499144727E+03 0.  0.
    9000005    1    3    3    0    0  0.44842494908E+02  0.40752729727E+02 -0.28357953493E+03  0.28998273563E+03  0.10000000000E+01 0.  0.
    9000005    1    3    3    0    0 -0.44842494908E+02 -0.40752729727E+02 -0.47024441588E+03  0.47413336204E+03  0.10000000000E+01 0.  0.
<mgrwt>
<rscale>  0 0.12499145E+03</rscale>
<asrwt>0</asrwt>
<pdfrwt beam="2">  1        4 0.11676453E+00 0.12499145E+03</pdfrwt>
<pdfrwt beam="1">  1       -4 0.79170421E-03 0.12499145E+03</pdfrwt>
<totfact> 0.39915382E+03</totfact>
</mgrwt>
</event>
<event>
 5    1  0.3337119E-002  0.1249780E+03  0.7818608E-02  0.1235104E+00
         -4   -1    0    0    0  501 -0.00000000000E+00  0.00000000000E+00  0.27816064118E+02  0.27845041264E+02  0.12700000000E+01 0. -1.
          4   -1    0    0  501    0  0.00000000000E+00 -0.00000000000E+00 -0.14027701647E+03  0.14028276534E+03  0.12700000000E+01 0. -1.
         25    2    1    2    0    0  0.00000000000E+00  0.00000000000E+00 -0.11246095235E+03  0.16812780660E+03  0.12497797225E+03 0.  0.
    9000005    1    3    3    0    0 -0.14812481594E+02 -0.33457062981E+02  0.11902485540E+02  0.38489658823E+02  0.10000000000E+01 0.  0.
    9000005    1    3    3    0    0  0.14812481594E+02  0.33457062981E+02 -0.12436343789E+03  0.12963814778E+03  0.10000000000E+01 0.  0.
<mgrwt>
<rscale>  0 0.12497797E+03</rscale>
<asrwt>0</asrwt>
<pdfrwt beam="2">  1        4 0.21583750E-01 0.12497797E+03</pdfrwt>
<pdfrwt beam="1">  1       -4 0.42820658E-02 0.12497797E+03</pdfrwt>
<totfact> 0.95845697E+03</totfact>
</mgrwt>
</event>
<event>
 5    1  0.3337119E-002  0.1250056E+03  0.7818608E-02  0.1235060E+00
          4   -1    0    0  501    0  0.00000000000E+00  0.00000000000E+00  0.12874005588E+03  0.12874631990E+03  0.12700000000E+01 0.  1.
         -4   -1    0    0    0  501 -0.00000000000E+00 -0.00000000000E+00 -0.30324586333E+02  0.30351168615E+02  0.12700000000E+01 0.  1.
         25    2    1    2    0    0  0.00000000000E+00  0.00000000000E+00  0.98415469546E+02  0.15909748852E+03  0.12500562470E+03 0.  0.
    9000005    1    3    3    0    0  0.11744534295E+02 -0.61326179403E+02  0.52518571852E+02  0.81596781525E+02  0.10000000000E+01 0.  0.
    9000005    1    3    3    0    0 -0.11744534295E+02  0.61326179403E+02  0.45896897694E+02  0.77500706990E+02  0.10000000000E+01 0.  0.
<mgrwt>
<rscale>  0 0.12500562E+03</rscale>
<asrwt>0</asrwt>
<pdfrwt beam="1">  1        4 0.19808689E-01 0.12500562E+03</pdfrwt>
<pdfrwt beam="2">  1       -4 0.46678476E-02 0.12500562E+03</pdfrwt>
<totfact> 0.97504735E+03</totfact>
</mgrwt>
</event>
<event>
 5    1  0.3337119E-002  0.1249985E+03  0.7818608E-02  0.1235072E+00
         -4   -1    0    0    0  501 -0.00000000000E+00  0.00000000000E+00  0.57399699149E+02  0.57413747155E+02  0.12700000000E+01 0. -1.
          4   -1    0    0  501    0  0.00000000000E+00 -0.00000000000E+00 -0.68023573413E+02  0.68035427829E+02  0.12700000000E+01 0. -1.
         25    2    1    2    0    0  0.00000000000E+00  0.00000000000E+00 -0.10623874264E+02  0.12544917498E+03  0.12499851519E+03 0.  0.
    9000005    1    3    3    0    0  0.58951401144E+02 -0.50516058136E+01 -0.25493409105E+02  0.64433689371E+02  0.10000000000E+01 0.  0.
    9000005    1    3    3    0    0 -0.58951401144E+02  0.50516058136E+01  0.14869534841E+02  0.61015485613E+02  0.10000000000E+01 0.  0.
<mgrwt>
<rscale>  0 0.12499852E+03</rscale>
<asrwt>0</asrwt>
<pdfrwt beam="2">  1        4 0.10467158E-01 0.12499852E+03</pdfrwt>
<pdfrwt beam="1">  1       -4 0.88327154E-02 0.12499852E+03</pdfrwt>
<totfact> 0.10443428E+04</totfact>
</mgrwt>
</event>
<event>
 5    1  0.3337119E-002  0.1249996E+03  0.7818608E-02  0.1235070E+00
          4   -1    0    0  501    0  0.00000000000E+00  0.00000000000E+00  0.11605418288E+04  0.11605425237E+04  0.12700000000E+01 0.  1.
         -4   -1    0    0    0  501 -0.00000000000E+00 -0.00000000000E+00 -0.32453434327E+01  0.34849898129E+01  0.12700000000E+01 0.  1.
         25    2    1    2    0    0  0.00000000000E+00  0.00000000000E+00  0.11572964853E+04  0.11640275135E+04  0.12499958860E+03 0.  0.
    9000005    1    3    3    0    0  0.41487298879E+01  0.42824829916E+02  0.15660225757E+03  0.16240826670E+03  0.10000000000E+01 0.  0.
    9000005    1    3    3    0    0 -0.41487298879E+01 -0.42824829916E+02  0.10006942278E+04  0.10016192468E+04  0.10000000000E+01 0.  0.
<mgrwt>
<rscale>  0 0.12499959E+03</rscale>
<asrwt>0</asrwt>
<pdfrwt beam="1">  1        4 0.17856379E+00 0.12499959E+03</pdfrwt>
<pdfrwt beam="2">  1       -4 0.51777022E-03 0.12499959E+03</pdfrwt>
<totfact> 0.25674371E+03</totfact>
</mgrwt>
</event>
<event>
 5    1  0.3337119E-002  0.1250104E+03  0.7818608E-02  0.1235053E+00
         -4   -1    0    0    0  501 -0.00000000000E+00  0.00000000000E+00  0.54558129522E+02  0.54572909002E+02  0.12700000000E+01 0.  1.
          4   -1    0    0  501    0  0.00000000000E+00 -0.00000000000E+00 -0.71579696400E+02  0.71590961976E+02  0.12700000000E+01 0.  1.
         25    2    1    2    0    0  0.00000000000E+00  0.00000000000E+00 -0.17021566878E+02  0.12616387098E+03  0.12501035398E+03 0.  0.
    9000005    1    3    3    0    0 -0.86468195609E+01  0.56857469303E+02 -0.33197851583E+02  0.66412624205E+02  0.10000000000E+01 0.  0.
    9000005    1    3    3    0    0  0.86468195609E+01 -0.56857469303E+02  0.16176284706E+02  0.59751246773E+02  0.10000000000E+01 0.  0.
<mgrwt>
<rscale>  0 0.12501035E+03</rscale>
<asrwt>0</asrwt>
<pdfrwt beam="2">  1        4 0.11014264E-01 0.12501035E+03</pdfrwt>
<pdfrwt beam="1">  1       -4 0.83955618E-02 0.12501035E+03</pdfrwt>
<totfact> 0.10424933E+04</totfact>
</mgrwt>
</event>
<event>
 5    1  0.3337119E-002  0.1249977E+03  0.7818608E-02  0.1235073E+00
          4   -1    0    0  501    0  0.00000000000E+00  0.00000000000E+00  0.84179536703E+01  0.85132158433E+01  0.12700000000E+01 0. -1.
         -4   -1    0    0    0  501 -0.00000000000E+00 -0.00000000000E+00 -0.46131417633E+03  0.46131592448E+03  0.12700000000E+01 0. -1.
         25    2    1    2    0    0  0.00000000000E+00  0.00000000000E+00 -0.45289622266E+03  0.46982914033E+03  0.12499773039E+03 0.  0.
    9000005    1    3    3    0    0  0.59363694064E+01  0.31896458008E+02 -0.25700954590E+02  0.41402458647E+02  0.10000000000E+01 0.  0.
    9000005    1    3    3    0    0 -0.59363694064E+01 -0.31896458008E+02 -0.42719526807E+03  0.42842668168E+03  0.10000000000E+01 0.  0.
<mgrwt>
<rscale>  0 0.12499773E+03</rscale>
<asrwt>0</asrwt>
<pdfrwt beam="1">  1        4 0.13025325E-02 0.12499773E+03</pdfrwt>
<pdfrwt beam="2">  1       -4 0.70978854E-01 0.12499773E+03</pdfrwt>
<totfact> 0.58286597E+03</totfact>
</mgrwt>
</event>
<event>
 5    1  0.3337119E-002  0.1250013E+03  0.7818608E-02  0.1235067E+00
         -4   -1    0    0    0  501 -0.00000000000E+00  0.00000000000E+00  0.14412750461E+03  0.14413309990E+03  0.12700000000E+01 0.  1.
          4   -1    0    0  501    0  0.00000000000E+00 -0.00000000000E+00 -0.27082279944E+02  0.27112041365E+02  0.12700000000E+01 0.  1.
         25    2    1    2    0    0  0.00000000000E+00  0.00000000000E+00  0.11704522467E+03  0.17124514126E+03  0.12500125515E+03 0.  0.
    9000005    1    3    3    0    0 -0.43663530116E+02  0.35035935167E+02  0.96569378997E+02  0.11162735138E+03  0.10000000000E+01 0.  0.
    9000005    1    3    3    0    0  0.43663530116E+02 -0.35035935167E+02  0.20475845673E+02  0.59617789889E+02  0.10000000000E+01 0.  0.
<mgrwt>
<rscale>  0 0.12500126E+03</rscale>
<asrwt>0</asrwt>
<pdfrwt beam="2">  1        4 0.41692244E-02 0.12500126E+03</pdfrwt>
<pdfrwt beam="1">  1       -4 0.22176182E-01 0.12500126E+03</pdfrwt>
<totfact> 0.95214385E+03</totfact>
</mgrwt>
</event>
<event>
 5    1  0.3337119E-002  0.1250001E+03  0.7818608E-02  0.1235069E+00
          4   -1    0    0  501    0  0.00000000000E+00  0.00000000000E+00  0.68873796988E+02  0.68885505090E+02  0.12700000000E+01 0. -1.
         -4   -1    0    0    0  501 -0.00000000000E+00 -0.00000000000E+00 -0.56692481627E+02  0.56706704833E+02  0.12700000000E+01 0. -1.
         25    2    1    2    0    0  0.00000000000E+00  0.00000000000E+00  0.12181315361E+02  0.12559220992E+03  0.12500007500E+03 0.  0.
    9000005    1    3    3    0    0 -0.50832422274E+01  0.61263058097E+02 -0.51988074183E+01  0.61701128333E+02  0.10000000000E+01 0.  0.
    9000005    1    3    3    0    0  0.50832422274E+01 -0.61263058097E+02  0.17380122779E+02  0.63891081591E+02  0.10000000000E+01 0.  0.
<mgrwt>
<rscale>  0 0.12500007E+03</rscale>
<asrwt>0</asrwt>
<pdfrwt beam="1">  1        4 0.10597964E-01 0.12500007E+03</pdfrwt>
<pdfrwt beam="2">  1       -4 0.87239149E-02 0.12500007E+03</pdfrwt>
<totfact> 0.10439901E+04</totfact>
</mgrwt>
</event>
<event>
 5    1  0.3337119E-002  0.1250005E+03  0.7818608E-02  0.1235069E+00
          4   -1    0    0  501    0  0.00000000000E+00  0.00000000000E+00  0.53665198098E+01  0.55147470358E+01  0.12700000000E+01 0.  1.
         -4   -1    0    0    0  501 -0.00000000000E+00 -0.00000000000E+00 -0.71783392257E+03  0.71783504602E+03  0.12700000000E+01 0.  1.
         25    2    1    2    0    0  0.00000000000E+00  0.00000000000E+00 -0.71246740276E+03  0.72334979306E+03  0.12500049246E+03 0.  0.
    9000005    1    3    3    0    0  0.29451958589E+02 -0.52103179750E+02 -0.25221303885E+03  0.25921916629E+03  0.10000000000E+01 0.  0.
    9000005    1    3    3    0    0 -0.29451958589E+02  0.52103179750E+02 -0.46025436391E+03  0.46413062677E+03  0.10000000000E+01 0.  0.
<mgrwt>
<rscale>  0 0.12500049E+03</rscale>
<asrwt>0</asrwt>
<pdfrwt beam="1">  1        4 0.83710752E-03 0.12500049E+03</pdfrwt>
<pdfrwt beam="2">  1       -4 0.11044740E+00 0.12500049E+03</pdfrwt>
<totfact> 0.41881946E+03</totfact>
</mgrwt>
</event>
<event>
 5    1  0.3337119E-002  0.1250008E+03  0.7818608E-02  0.1235068E+00
          4   -1    0    0  501    0  0.00000000000E+00  0.00000000000E+00  0.11428659388E+02  0.11499006714E+02  0.12700000000E+01 0. -1.
         -4   -1    0    0    0  501 -0.00000000000E+00 -0.00000000000E+00 -0.34067856874E+03  0.34068093592E+03  0.12700000000E+01 0. -1.
         25    2    1    2    0    0  0.00000000000E+00  0.00000000000E+00 -0.32924990935E+03  0.35217994263E+03  0.12500083674E+03 0.  0.
    9000005    1    3    3    0    0 -0.59787970594E+02  0.11477096795E+02 -0.12488263009E+03  0.13893522403E+03  0.10000000000E+01 0.  0.
    9000005    1    3    3    0    0  0.59787970594E+02 -0.11477096795E+02 -0.20436727926E+03  0.21324471860E+03  0.10000000000E+01 0.  0.
<mgrwt>
<rscale>  0 0.12500084E+03</rscale>
<asrwt>0</asrwt>
<pdfrwt beam="1">  1        4 0.17638490E-02 0.12500084E+03</pdfrwt>
<pdfrwt beam="2">  1       -4 0.52417673E-01 0.12500084E+03</pdfrwt>
<totfact> 0.69484116E+03</totfact>
</mgrwt>
</event>
<event>
 5    1  0.3337119E-002  0.1250081E+03  0.7818608E-02  0.1235057E+00
          4   -1    0    0  501    0  0.00000000000E+00  0.00000000000E+00  0.42940985984E+03  0.42941173787E+03  0.12700000000E+01 0. -1.
         -4   -1    0    0    0  501 -0.00000000000E+00 -0.00000000000E+00 -0.90517367127E+01  0.91403959168E+01  0.12700000000E+01 0. -1.
         25    2    1    2    0    0  0.00000000000E+00  0.00000000000E+00  0.42035812312E+03  0.43855213379E+03  0.12500808925E+03 0.  0.
    9000005    1    3    3    0    0 -0.30672634998E+02 -0.25897854818E+02  0.37821536508E+03  0.38034112558E+03  0.10000000000E+01 0.  0.
    9000005    1    3    3    0    0  0.30672634998E+02  0.25897854818E+02  0.42142758042E+02  0.58211008213E+02  0.10000000000E+01 0.  0.
<mgrwt>
<rscale>  0 0.12500809E+03</rscale>
<asrwt>0</asrwt>
<pdfrwt beam="1">  1        4 0.66070028E-01 0.12500809E+03</pdfrwt>
<pdfrwt beam="2">  1       -4 0.13995391E-02 0.12500809E+03</pdfrwt>
<totfact> 0.60957494E+03</totfact>
</mgrwt>
</event>
<event>
 5    1  0.3337119E-002  0.1250029E+03  0.7818608E-02  0.1235065E+00
          4   -1    0    0  501    0  0.00000000000E+00  0.00000000000E+00  0.92029168963E+03  0.92029256593E+03  0.12700000000E+01 0.  1.
         -4   -1    0    0    0  501 -0.00000000000E+00 -0.00000000000E+00 -0.41488831798E+01  0.43389090380E+01  0.12700000000E+01 0.  1.
         25    2    1    2    0    0  0.00000000000E+00  0.00000000000E+00  0.91614280645E+03  0.92463147497E+03  0.12500289071E+03 0.  0.
    9000005    1    3    3    0    0  0.54198998015E+02  0.14079925916E+02  0.66328052248E+03  0.66564091460E+03  0.10000000000E+01 0.  0.
    9000005    1    3    3    0    0 -0.54198998015E+02 -0.14079925916E+02  0.25286228398E+03  0.25899056036E+03  0.10000000000E+01 0.  0.
<mgrwt>
<rscale>  0 0.12500289E+03</rscale>
<asrwt>0</asrwt>
<pdfrwt beam="1">  1        4 0.14159784E+00 0.12500289E+03</pdfrwt>
<pdfrwt beam="2">  1       -4 0.65297536E-03 0.12500289E+03</pdfrwt>
<totfact> 0.33232059E+03</totfact>
</mgrwt>
</event>
<event>
 5    1  0.3337119E-002  0.1250104E+03  0.7818608E-02  0.1235053E+00
          4   -1    0    0  501    0  0.00000000000E+00  0.00000000000E+00  0.46342436255E+03  0.46342610274E+03  0.12700000000E+01 0.  1.
         -4   -1    0    0    0  501 -0.00000000000E+00 -0.00000000000E+00 -0.83809032394E+01  0.84765818057E+01  0.12700000000E+01 0.  1.
         25    2    1    2    0    0  0.00000000000E+00  0.00000000000E+00  0.45504345931E+03  0.47190268455E+03  0.12501037487E+03 0.  0.
    9000005    1    3    3    0    0 -0.83186153680E+01 -0.61892273398E+02  0.23680338986E+03  0.24490140529E+03  0.10000000000E+01 0.  0.
    9000005    1    3    3    0    0  0.83186153680E+01  0.61892273398E+02  0.21824006945E+03  0.22700127925E+03  0.10000000000E+01 0.  0.
<mgrwt>
<rscale>  0 0.12501037E+03</rscale>
<asrwt>0</asrwt>
<pdfrwt beam="1">  1        4 0.71303554E-01 0.12501037E+03</pdfrwt>
<pdfrwt beam="2">  1       -4 0.12968634E-02 0.12501037E+03</pdfrwt>
<totfact> 0.58098964E+03</totfact>
</mgrwt>
</event>
<event>
 5    1  0.3337119E-002  0.1250001E+03  0.7818608E-02  0.1235069E+00
         -4   -1    0    0    0  501 -0.00000000000E+00  0.00000000000E+00  0.58754373880E+02  0.58768098064E+02  0.12700000000E+01 0.  1.
          4   -1    0    0  501    0  0.00000000000E+00 -0.00000000000E+00 -0.66456983227E+02  0.66469117037E+02  0.12700000000E+01 0.  1.
         25    2    1    2    0    0  0.00000000000E+00  0.00000000000E+00 -0.77026093467E+01  0.12523721510E+03  0.12500011942E+03 0.  0.
    9000005    1    3    3    0    0  0.35674413991E+02  0.48559598447E+02 -0.20452557156E+02  0.63639653590E+02  0.10000000000E+01 0.  0.
    9000005    1    3    3    0    0 -0.35674413991E+02 -0.48559598447E+02  0.12749947810E+02  0.61597561510E+02  0.10000000000E+01 0.  0.
<mgrwt>
<rscale>  0 0.12500012E+03</rscale>
<asrwt>0</asrwt>
<pdfrwt beam="2">  1        4 0.10226140E-01 0.12500012E+03</pdfrwt>
<pdfrwt beam="1">  1       -4 0.90411235E-02 0.12500012E+03</pdfrwt>
<totfact> 0.10447684E+04</totfact>
</mgrwt>
</event>
<event>
 5    1  0.3337119E-002  0.1249961E+03  0.7818608E-02  0.1235075E+00
         -4   -1    0    0    0  501 -0.00000000000E+00  0.00000000000E+00  0.26986198688E+02  0.27016065954E+02  0.12700000000E+01 0. -1.
          4   -1    0    0  501    0  0.00000000000E+00 -0.00000000000E+00 -0.14462810016E+03  0.14463367607E+03  0.12700000000E+01 0. -1.
         25    2    1    2    0    0  0.00000000000E+00  0.00000000000E+00 -0.11764190147E+03  0.17164974203E+03  0.12499606777E+03 0.  0.
    9000005    1    3    3    0    0 -0.19701893660E+02 -0.38764586298E+01  0.22442125868E+02  0.30130392609E+02  0.10000000000E+01 0.  0.
    9000005    1    3    3    0    0  0.19701893660E+02  0.38764586298E+01 -0.14008402734E+03  0.14151934942E+03  0.10000000000E+01 0.  0.
<mgrwt>
<rscale>  0 0.12499607E+03</rscale>
<asrwt>0</asrwt>
<pdfrwt beam="2">  1        4 0.22253203E-01 0.12499607E+03</pdfrwt>
<pdfrwt beam="1">  1       -4 0.41544494E-02 0.12499607E+03</pdfrwt>
<totfact> 0.95150435E+03</totfact>
</mgrwt>
</event>
<event>
 5    1  0.3337119E-002  0.1249975E+03  0.7818608E-02  0.1235073E+00
          4   -1    0    0  501    0  0.00000000000E+00  0.00000000000E+00  0.10788452906E+01  0.16663754562E+01  0.12700000000E+01 0.  1.
         -4   -1    0    0    0  501 -0.00000000000E+00 -0.00000000000E+00 -0.28451537494E+04  0.28451540329E+04  0.12700000000E+01 0.  1.
         25    2    1    2    0    0  0.00000000000E+00  0.00000000000E+00 -0.28440749042E+04  0.28468204083E+04  0.12499750776E+03 0.  0.
    9000005    1    3    3    0    0  0.22707263331E+02 -0.51641037399E+02 -0.20342906171E+04  0.20350729056E+04  0.10000000000E+01 0.  0.
    9000005    1    3    3    0    0 -0.22707263331E+02  0.51641037399E+02 -0.80978428708E+03  0.81174750271E+03  0.10000000000E+01 0.  0.
<mgrwt>
<rscale>  0 0.12499751E+03</rscale>
<asrwt>0</asrwt>
<pdfrwt beam="1">  1        4 0.21119491E-03 0.12499751E+03</pdfrwt>
<pdfrwt beam="2">  1       -4 0.43775646E+00 0.12499751E+03</pdfrwt>
<totfact> 0.24812003E+02</totfact>
</mgrwt>
</event>
<event>
 5    1  0.3337119E-002  0.1250009E+03  0.7818608E-02  0.1235068E+00
         -4   -1    0    0    0  501 -0.00000000000E+00  0.00000000000E+00  0.30387184444E+03  0.30387449835E+03  0.12700000000E+01 0. -1.
          4   -1    0    0  501    0  0.00000000000E+00 -0.00000000000E+00 -0.12821023921E+02  0.12883770969E+02  0.12700000000E+01 0. -1.
         25    2    1    2    0    0  0.00000000000E+00  0.00000000000E+00  0.29105082052E+03  0.31675826932E+03  0.12500088421E+03 0.  0.
    9000005    1    3    3    0    0 -0.19343539495E+02 -0.22342868742E+02  0.28505759265E+03  0.28658717248E+03  0.10000000000E+01 0.  0.
    9000005    1    3    3    0    0  0.19343539495E+02  0.22342868742E+02  0.59932278736E+01  0.30171096834E+02  0.10000000000E+01 0.  0.
<mgrwt>
<rscale>  0 0.12500088E+03</rscale>
<asrwt>0</asrwt>
<pdfrwt beam="2">  1        4 0.19774962E-02 0.12500088E+03</pdfrwt>
<pdfrwt beam="1">  1       -4 0.46754542E-01 0.12500088E+03</pdfrwt>
<totfact> 0.73541911E+03</totfact>
</mgrwt>
</event>
<event>
 5    1  0.3337119E-002  0.1249934E+03  0.7818608E-02  0.1235080E+00
          4   -1    0    0  501    0  0.00000000000E+00  0.00000000000E+00  0.57490099254E+02  0.57504125176E+02  0.12700000000E+01 0. -1.
         -4   -1    0    0    0  501 -0.00000000000E+00 -0.00000000000E+00 -0.67911071513E+02  0.67922945564E+02  0.12700000000E+01 0. -1.
         25    2    1    2    0    0  0.00000000000E+00  0.00000000000E+00 -0.10420972259E+02  0.12542707074E+03  0.12499341347E+03 0.  0.
    9000005    1    3    3    0    0 -0.38078303682E+02  0.40428300692E+02  0.23532102697E+02  0.60325488523E+02  0.10000000000E+01 0.  0.
    9000005    1    3    3    0    0  0.38078303682E+02 -0.40428300692E+02 -0.33953074956E+02  0.65101582217E+02  0.10000000000E+01 0.  0.
<mgrwt>
<rscale>  0 0.12499341E+03</rscale>
<asrwt>0</asrwt>
<pdfrwt beam="1">  1        4 0.88466229E-02 0.12499341E+03</pdfrwt>
<pdfrwt beam="2">  1       -4 0.10449850E-01 0.12499341E+03</pdfrwt>
<totfact> 0.10445119E+04</totfact>
</mgrwt>
</event>
<event>
 5    1  0.3337119E-002  0.1250095E+03  0.7818608E-02  0.1235054E+00
          4   -1    0    0  501    0  0.00000000000E+00  0.00000000000E+00  0.12069134858E+03  0.12069803032E+03  0.12700000000E+01 0. -1.
         -4   -1    0    0    0  501 -0.00000000000E+00 -0.00000000000E+00 -0.32350522754E+02  0.32375441656E+02  0.12700000000E+01 0. -1.
         25    2    1    2    0    0  0.00000000000E+00  0.00000000000E+00  0.88340825828E+02  0.15307347197E+03  0.12500954489E+03 0.  0.
    9000005    1    3    3    0    0 -0.12403596987E+02  0.54917492636E+02  0.10949218360E+02  0.57364323393E+02  0.10000000000E+01 0.  0.
    9000005    1    3    3    0    0  0.12403596987E+02 -0.54917492636E+02  0.77391607468E+02  0.95709148581E+02  0.10000000000E+01 0.  0.
<mgrwt>
<rscale>  0 0.12500954E+03</rscale>
<asrwt>0</asrwt>
<pdfrwt beam="1">  1        4 0.18570331E-01 0.12500954E+03</pdfrwt>
<pdfrwt beam="2">  1       -4 0.49794343E-02 0.12500954E+03</pdfrwt>
<totfact> 0.98673347E+03</totfact>
</mgrwt>
</event>
<event>
 5    1  0.3337119E-002  0.1249981E+03  0.7818608E-02  0.1235072E+00
         -4   -1    0    0    0  501 -0.00000000000E+00  0.00000000000E+00  0.18993454019E+03  0.18993878607E+03  0.12700000000E+01 0. -1.
          4   -1    0    0  501    0  0.00000000000E+00 -0.00000000000E+00 -0.20541591654E+02  0.20580813582E+02  0.12700000000E+01 0. -1.
         25    2    1    2    0    0  0.00000000000E+00  0.00000000000E+00  0.16939294853E+03  0.21051959966E+03  0.12499812330E+03 0.  0.
    9000005    1    3    3    0    0 -0.51963630297E+02 -0.19539109708E+02  0.36376676132E+02  0.66379652366E+02  0.10000000000E+01 0.  0.
    9000005    1    3    3    0    0  0.51963630297E+02  0.19539109708E+02  0.13301627240E+03  0.14413994729E+03  0.10000000000E+01 0.  0.
<mgrwt>
<rscale>  0 0.12499812E+03</rscale>
<asrwt>0</asrwt>
<pdfrwt beam="2">  1        4 0.31635887E-02 0.12499812E+03</pdfrwt>
<pdfrwt beam="1">  1       -4 0.29224041E-01 0.12499812E+03</pdfrwt>
<totfact> 0.88394803E+03</totfact>
</mgrwt>
</event>
<event>
 5    1  0.3337119E-002  0.1250016E+03  0.7818608E-02  0.1235067E+00
          4   -1    0    0  501    0  0.00000000000E+00  0.00000000000E+00  0.22223362674E+02  0.22259621482E+02  0.12700000000E+01 0.  1.
         -4   -1    0    0    0  501 -0.00000000000E+00 -0.00000000000E+00 -0.17559485999E+03  0.17559945261E+03  0.12700000000E+01 0.  1.
         25    2    1    2    0    0  0.00000000000E+00  0.00000000000E+00 -0.15337149732E+03  0.19785907409E+03  0.12500158803E+03 0.  0.
    9000005    1    3    3    0    0  0.50463590266E+01  0.23648368221E+02  0.14526092324E+02  0.28226200898E+02  0.10000000000E+01 0.  0.
    9000005    1    3    3    0    0 -0.50463590266E+01 -0.23648368221E+02 -0.16789758965E+03  0.16963287319E+03  0.10000000000E+01 0.  0.
<mgrwt>
<rscale>  0 0.12500159E+03</rscale>
<asrwt>0</asrwt>
<pdfrwt beam="1">  1        4 0.34221214E-02 0.12500159E+03</pdfrwt>
<pdfrwt beam="2">  1       -4 0.27017735E-01 0.12500159E+03</pdfrwt>
<totfact> 0.90494341E+03</totfact>
</mgrwt>
</event>
<event>
 5    1  0.3337119E-002  0.1250019E+03  0.7818608E-02  0.1235066E+00
         -4   -1    0    0    0  501 -0.00000000000E+00  0.00000000000E+00  0.63479779841E+03  0.63479906881E+03  0.12700000000E+01 0.  1.
          4   -1    0    0  501    0  0.00000000000E+00 -0.00000000000E+00 -0.60869067955E+01  0.62179847489E+01  0.12700000000E+01 0.  1.
         25    2    1    2    0    0  0.00000000000E+00  0.00000000000E+00  0.62871089162E+03  0.64101705356E+03  0.12500191088E+03 0.  0.
    9000005    1    3    3    0    0  0.13150748954E+02  0.58218315571E+02  0.40933601897E+03  0.41366567527E+03  0.10000000000E+01 0.  0.
    9000005    1    3    3    0    0 -0.13150748954E+02 -0.58218315571E+02  0.21937487264E+03  0.22735137830E+03  0.10000000000E+01 0.  0.
<mgrwt>
<rscale>  0 0.12500191E+03</rscale>
<asrwt>0</asrwt>
<pdfrwt beam="2">  1        4 0.94662825E-03 0.12500191E+03</pdfrwt>
<pdfrwt beam="1">  1       -4 0.97671338E-01 0.12500191E+03</pdfrwt>
<totfact> 0.46374801E+03</totfact>
</mgrwt>
</event>
<event>
 5    1  0.3337119E-002  0.1249994E+03  0.7818608E-02  0.1235070E+00
          4   -1    0    0  501    0  0.00000000000E+00  0.00000000000E+00  0.63032958349E+02  0.63045751151E+02  0.12700000000E+01 0. -1.
         -4   -1    0    0    0  501 -0.00000000000E+00 -0.00000000000E+00 -0.61945334444E+02  0.61958351813E+02  0.12700000000E+01 0. -1.
         25    2    1    2    0    0  0.00000000000E+00  0.00000000000E+00  0.10876239053E+01  0.12500410296E+03  0.12499937133E+03 0.  0.
    9000005    1    3    3    0    0  0.34821511254E+02 -0.49865684734E+02 -0.13812446280E+02  0.62377141905E+02  0.10000000000E+01 0.  0.
    9000005    1    3    3    0    0 -0.34821511254E+02  0.49865684734E+02  0.14900070185E+02  0.62626961059E+02  0.10000000000E+01 0.  0.
<mgrwt>
<rscale>  0 0.12499937E+03</rscale>
<asrwt>0</asrwt>
<pdfrwt beam="1">  1        4 0.96993636E-02 0.12499937E+03</pdfrwt>
<pdfrwt beam="2">  1       -4 0.95320369E-02 0.12499937E+03</pdfrwt>
<totfact> 0.10452922E+04</totfact>
</mgrwt>
</event>
<event>
 5    1  0.3337119E-002  0.1250014E+03  0.7818608E-02  0.1235067E+00
          4   -1    0    0  501    0  0.00000000000E+00  0.00000000000E+00  0.12875281835E+02  0.12937765740E+02  0.12700000000E+01 0.  1.
         -4   -1    0    0    0  501 -0.00000000000E+00 -0.00000000000E+00 -0.30259989153E+03  0.30260255659E+03  0.12700000000E+01 0.  1.
         25    2    1    2    0    0  0.00000000000E+00  0.00000000000E+00 -0.28972460969E+03  0.31554032233E+03  0.12500138220E+03 0.  0.
    9000005    1    3    3    0    0 -0.20868645499E+02 -0.54221377427E+02 -0.86755352526E+02  0.10441718885E+03  0.10000000000E+01 0.  0.
    9000005    1    3    3    0    0  0.20868645499E+02  0.54221377427E+02 -0.20296925717E+03  0.21112313348E+03  0.10000000000E+01 0.  0.
<mgrwt>
<rscale>  0 0.12500138E+03</rscale>
<asrwt>0</asrwt>
<pdfrwt beam="1">  1        4 0.19858243E-02 0.12500138E+03</pdfrwt>
<pdfrwt beam="2">  1       -4 0.46558836E-01 0.12500138E+03</pdfrwt>
<totfact> 0.73687447E+03</totfact>
</mgrwt>
</event>
<event>
 5    1  0.3337119E-002  0.1249991E+03  0.7818608E-02  0.1235071E+00
         -4   -1    0    0    0  501 -0.00000000000E+00  0.00000000000E+00  0.38185166766E+03  0.38185377960E+03  0.12700000000E+01 0. -1.
          4   -1    0    0  501    0  0.00000000000E+00 -0.00000000000E+00 -0.10188050793E+02  0.10266902111E+02  0.12700000000E+01 0. -1.
         25    2    1    2    0    0  0.00000000000E+00  0.00000000000E+00  0.37166361687E+03  0.39212068171E+03  0.12499913969E+03 0.  0.
    9000005    1    3    3    0    0 -0.29774020154E+02 -0.12091451042E+02  0.17702741941E+02  0.36702623022E+02  0.10000000000E+01 0.  0.
    9000005    1    3    3    0    0  0.29774020154E+02  0.12091451042E+02  0.35396087492E+03  0.35541805869E+03  0.10000000000E+01 0.  0.
<mgrwt>
<rscale>  0 0.12499914E+03</rscale>
<asrwt>0</asrwt>
<pdfrwt beam="2">  1        4 0.15736200E-02 0.12499914E+03</pdfrwt>
<pdfrwt beam="1">  1       -4 0.58752651E-01 0.12499914E+03</pdfrwt>
<totfact> 0.65327636E+03</totfact>
</mgrwt>
</event>
<event>
 5    1  0.3337119E-002  0.1249920E+03  0.7818608E-02  0.1235082E+00
         -4   -1    0    0    0  501 -0.00000000000E+00  0.00000000000E+00  0.10409472586E+03  0.10410247284E+03  0.12700000000E+01 0.  1.
          4   -1    0    0  501    0  0.00000000000E+00 -0.00000000000E+00 -0.37501215623E+02  0.37522714097E+02  0.12700000000E+01 0.  1.
         25    2    1    2    0    0  0.00000000000E+00  0.00000000000E+00  0.66593510238E+02  0.14162518694E+03  0.12499199162E+03 0.  0.
    9000005    1    3    3    0    0 -0.45470329571E+02  0.29731396103E+02  0.68279997059E+02  0.87262046640E+02  0.10000000000E+01 0.  0.
    9000005    1    3    3    0    0  0.45470329571E+02 -0.29731396103E+02 -0.16864868205E+01  0.54363140301E+02  0.10000000000E+01 0.  0.
<mgrwt>
<rscale>  0 0.12499199E+03</rscale>
<asrwt>0</asrwt>
<pdfrwt beam="2">  1        4 0.57716676E-02 0.12499199E+03</pdfrwt>
<pdfrwt beam="1">  1       -4 0.16016823E-01 0.12499199E+03</pdfrwt>
<totfact> 0.10101836E+04</totfact>
</mgrwt>
</event>
<event>
 5    1  0.3337119E-002  0.1250012E+03  0.7818608E-02  0.1235067E+00
          4   -1    0    0  501    0  0.00000000000E+00  0.00000000000E+00  0.14100982629E+04  0.14100988348E+04  0.12700000000E+01 0.  1.
         -4   -1    0    0    0  501 -0.00000000000E+00 -0.00000000000E+00 -0.26240909539E+01  0.29152621382E+01  0.12700000000E+01 0.  1.
         25    2    1    2    0    0  0.00000000000E+00  0.00000000000E+00  0.14074741719E+04  0.14130140969E+04  0.12500117391E+03 0.  0.
    9000005    1    3    3    0    0 -0.33029833051E+02  0.52660513416E+02  0.63115882682E+03  0.63421334282E+03  0.10000000000E+01 0.  0.
    9000005    1    3    3    0    0  0.33029833051E+02 -0.52660513416E+02  0.77631534511E+03  0.77880075410E+03  0.10000000000E+01 0.  0.
<mgrwt>
<rscale>  0 0.12500117E+03</rscale>
<asrwt>0</asrwt>
<pdfrwt beam="1">  1        4 0.21696088E+00 0.12500117E+03</pdfrwt>
<pdfrwt beam="2">  1       -4 0.42614761E-03 0.12500117E+03</pdfrwt>
<totfact> 0.19702822E+03</totfact>
</mgrwt>
</event>
<event>
 5    1  0.3337119E-002  0.1249983E+03  0.7818608E-02  0.1235072E+00
         -4   -1    0    0    0  501 -0.00000000000E+00  0.00000000000E+00  0.84717200730E+02  0.84726719514E+02  0.12700000000E+01 0.  1.
          4   -1    0    0  501    0  0.00000000000E+00 -0.00000000000E+00 -0.46087176018E+02  0.46104671057E+02  0.12700000000E+01 0.  1.
         25    2    1    2    0    0  0.00000000000E+00  0.00000000000E+00  0.38630024713E+02  0.13083139057E+03  0.12499829579E+03 0.  0.
    9000005    1    3    3    0    0 -0.56860892024E+01 -0.48780898347E+02  0.59760685430E+02  0.77357916059E+02  0.10000000000E+01 0.  0.
    9000005    1    3    3    0    0  0.56860892024E+01  0.48780898347E+02 -0.21130660717E+02  0.53473474512E+02  0.10000000000E+01 0.  0.
<mgrwt>
<rscale>  0 0.12499830E+03</rscale>
<asrwt>0</asrwt>
<pdfrwt beam="2">  1        4 0.70924129E-02 0.12499830E+03</pdfrwt>
<pdfrwt beam="1">  1       -4 0.13035493E-01 0.12499830E+03</pdfrwt>
<totfact> 0.10327102E+04</totfact>
</mgrwt>
</event>
<event>
 5    1  0.3337119E-002  0.1249997E+03  0.7818608E-02  0.1235070E+00
         -4   -1    0    0    0  501 -0.00000000000E+00  0.00000000000E+00  0.10822283907E+02  0.10896546653E+02  0.12700000000E+01 0.  1.
          4   -1    0    0  501    0  0.00000000000E+00 -0.00000000000E+00 -0.35963359627E+03  0.35963583869E+03  0.12700000000E+01 0.  1.
         25    2    1    2    0    0  0.00000000000E+00  0.00000000000E+00 -0.34881131237E+03  0.37053238534E+03  0.12499966781E+03 0.  0.
    9000005    1    3    3    0    0 -0.55235035469E+02  0.11165318483E+02 -0.94334459281E+02  0.10988886972E+03  0.10000000000E+01 0.  0.
    9000005    1    3    3    0    0  0.55235035469E+02 -0.11165318483E+02 -0.25447685309E+03  0.26064351562E+03  0.10000000000E+01 0.  0.
<mgrwt>
<rscale>  0 0.12499967E+03</rscale>
<asrwt>0</asrwt>
<pdfrwt beam="2">  1        4 0.55334121E-01 0.12499967E+03</pdfrwt>
<pdfrwt beam="1">  1       -4 0.16708520E-02 0.12499967E+03</pdfrwt>
<totfact> 0.67523776E+03</totfact>
</mgrwt>
</event>
<event>
 5    1  0.3337119E-002  0.1249772E+03  0.7818608E-02  0.1235105E+00
         -4   -1    0    0    0  501 -0.00000000000E+00  0.00000000000E+00  0.10023609293E+03  0.10024413812E+03  0.12700000000E+01 0.  1.
          4   -1    0    0  501    0  0.00000000000E+00 -0.00000000000E+00 -0.38936312417E+02  0.38957018940E+02  0.12700000000E+01 0.  1.
         25    2    1    2    0    0  0.00000000000E+00  0.00000000000E+00  0.61299780517E+02  0.13920115706E+03  0.12497719406E+03 0.  0.
    9000005    1    3    3    0    0 -0.18315703394E+02  0.60790675178E+01  0.96838890469E+02  0.98748117754E+02  0.10000000000E+01 0.  0.
    9000005    1    3    3    0    0  0.18315703394E+02 -0.60790675178E+01 -0.35539109951E+02  0.40453039303E+02  0.10000000000E+01 0.  0.
<mgrwt>
<rscale>  0 0.12497719E+03</rscale>
<asrwt>0</asrwt>
<pdfrwt beam="2">  1        4 0.59924136E-02 0.12497719E+03</pdfrwt>
<pdfrwt beam="1">  1       -4 0.15423149E-01 0.12497719E+03</pdfrwt>
<totfact> 0.10155386E+04</totfact>
</mgrwt>
</event>
<event>
 5    1  0.3337119E-002  0.1250346E+03  0.7818608E-02  0.1235015E+00
          4   -1    0    0  501    0  0.00000000000E+00  0.00000000000E+00  0.14512299371E+03  0.14512855062E+03  0.12700000000E+01 0. -1.
         -4   -1    0    0    0  501 -0.00000000000E+00 -0.00000000000E+00 -0.26910691696E+02  0.26940642672E+02  0.12700000000E+01 0. -1.
         25    2    1    2    0    0  0.00000000000E+00  0.00000000000E+00  0.11821230202E+03  0.17206919329E+03  0.12503463093E+03 0.  0.
    9000005    1    3    3    0    0 -0.45951094952E+02 -0.73236066554E+01  0.16639156686E+01  0.46571525175E+02  0.10000000000E+01 0.  0.
    9000005    1    3    3    0    0  0.45951094952E+02  0.73236066554E+01  0.11654838635E+03  0.12549766811E+03  0.10000000000E+01 0.  0.
<mgrwt>
<rscale>  0 0.12503463E+03</rscale>
<asrwt>0</asrwt>
<pdfrwt beam="1">  1        4 0.22329346E-01 0.12503463E+03</pdfrwt>
<pdfrwt beam="2">  1       -4 0.41428378E-02 0.12503463E+03</pdfrwt>
<totfact> 0.94990529E+03</totfact>
</mgrwt>
</event>
<event>
 5    1  0.3337119E-002  0.1249990E+03  0.7818608E-02  0.1235071E+00
         -4   -1    0    0    0  501 -0.00000000000E+00  0.00000000000E+00  0.21407488627E+04  0.21407492394E+04  0.12700000000E+01 0. -1.
          4   -1    0    0  501    0  0.00000000000E+00 -0.00000000000E+00 -0.16032769417E+01  0.20453354130E+01  0.12700000000E+01 0. -1.
         25    2    1    2    0    0  0.00000000000E+00  0.00000000000E+00  0.21391455858E+04  0.21427945749E+04  0.12499901135E+03 0.  0.
    9000005    1    3    3    0    0  0.15296055870E+02 -0.58525977385E+02  0.13384033949E+04  0.13397700948E+04  0.10000000000E+01 0.  0.
    9000005    1    3    3    0    0 -0.15296055870E+02  0.58525977385E+02  0.80074219087E+03  0.80302448007E+03  0.10000000000E+01 0.  0.
<mgrwt>
<rscale>  0 0.12499901E+03</rscale>
<asrwt>0</asrwt>
<pdfrwt beam="2">  1        4 0.28069078E-03 0.12499901E+03</pdfrwt>
<pdfrwt beam="1">  1       -4 0.32938082E+00 0.12499901E+03</pdfrwt>
<totfact> 0.81107920E+02</totfact>
</mgrwt>
</event>
<event>
 5    1  0.3337119E-002  0.1249742E+03  0.7818608E-02  0.1235110E+00
          4   -1    0    0  501    0  0.00000000000E+00  0.00000000000E+00  0.79903934877E+02  0.79914026984E+02  0.12700000000E+01 0. -1.
         -4   -1    0    0    0  501 -0.00000000000E+00 -0.00000000000E+00 -0.48845238822E+02  0.48861746342E+02  0.12700000000E+01 0. -1.
         25    2    1    2    0    0  0.00000000000E+00  0.00000000000E+00  0.31058696055E+02  0.12877577333E+03  0.12497422612E+03 0.  0.
    9000005    1    3    3    0    0  0.34299402223E+02 -0.49924876919E+02  0.31315179145E+02  0.68195181451E+02  0.10000000000E+01 0.  0.
    9000005    1    3    3    0    0 -0.34299402223E+02  0.49924876919E+02 -0.25648309002E+00  0.60580591874E+02  0.10000000000E+01 0.  0.
<mgrwt>
<rscale>  0 0.12497423E+03</rscale>
<asrwt>0</asrwt>
<pdfrwt beam="1">  1        4 0.12294959E-01 0.12497423E+03</pdfrwt>
<pdfrwt beam="2">  1       -4 0.75166983E-02 0.12497423E+03</pdfrwt>
<totfact> 0.10376804E+04</totfact>
</mgrwt>
</event>
<event>
 5    1  0.3337119E-002  0.1249999E+03  0.7818608E-02  0.1235069E+00
          4   -1    0    0  501    0  0.00000000000E+00  0.00000000000E+00  0.63777222957E+02  0.63789866500E+02  0.12700000000E+01 0.  1.
         -4   -1    0    0    0  501 -0.00000000000E+00 -0.00000000000E+00 -0.61222948298E+02  0.61236119230E+02  0.12700000000E+01 0.  1.
         25    2    1    2    0    0  0.00000000000E+00  0.00000000000E+00  0.25542746587E+01  0.12502598573E+03  0.12499989115E+03 0.  0.
    9000005    1    3    3    0    0 -0.32932640719E+02  0.50665049423E+02  0.17209591288E+02  0.62838492106E+02  0.10000000000E+01 0.  0.
    9000005    1    3    3    0    0  0.32932640719E+02 -0.50665049423E+02 -0.14655316629E+02  0.62187493625E+02  0.10000000000E+01 0.  0.
<mgrwt>
<rscale>  0 0.12499989E+03</rscale>
<asrwt>0</asrwt>
<pdfrwt beam="1">  1        4 0.98138661E-02 0.12499989E+03</pdfrwt>
<pdfrwt beam="2">  1       -4 0.94209009E-02 0.12499989E+03</pdfrwt>
<totfact> 0.10452324E+04</totfact>
</mgrwt>
</event>
<event>
 5    1  0.3337119E-002  0.1249956E+03  0.7818608E-02  0.1235076E+00
         -4   -1    0    0    0  501 -0.00000000000E+00  0.00000000000E+00  0.18140896663E+03  0.18141341205E+03  0.12700000000E+01 0. -1.
          4   -1    0    0  501    0  0.00000000000E+00 -0.00000000000E+00 -0.21507885185E+02  0.21545348109E+02  0.12700000000E+01 0. -1.
         25    2    1    2    0    0  0.00000000000E+00  0.00000000000E+00  0.15990108144E+03  0.20295876016E+03  0.12499560984E+03 0.  0.
    9000005    1    3    3    0    0  0.26128732213E+02 -0.36001331874E+02  0.86881735500E+01  0.45335316293E+02  0.10000000000E+01 0.  0.
    9000005    1    3    3    0    0 -0.26128732213E+02  0.36001331874E+02  0.15121290789E+03  0.15762344387E+03  0.10000000000E+01 0.  0.
<mgrwt>
<rscale>  0 0.12499561E+03</rscale>
<asrwt>0</asrwt>
<pdfrwt beam="2">  1        4 0.33121291E-02 0.12499561E+03</pdfrwt>
<pdfrwt beam="1">  1       -4 0.27912296E-01 0.12499561E+03</pdfrwt>
<totfact> 0.89647679E+03</totfact>
</mgrwt>
</event>
<event>
 5    1  0.3337119E-002  0.1249922E+03  0.7818608E-02  0.1235082E+00
         -4   -1    0    0    0  501 -0.00000000000E+00  0.00000000000E+00  0.66824215635E+02  0.66836282775E+02  0.12700000000E+01 0.  1.
          4   -1    0    0  501    0  0.00000000000E+00 -0.00000000000E+00 -0.58424031530E+02  0.58437833295E+02  0.12700000000E+01 0.  1.
         25    2    1    2    0    0  0.00000000000E+00  0.00000000000E+00  0.84001841049E+01  0.12527411607E+03  0.12499216401E+03 0.  0.
    9000005    1    3    3    0    0  0.21991156761E+02 -0.33874191324E+02  0.51990863163E+02  0.65841640821E+02  0.10000000000E+01 0.  0.
    9000005    1    3    3    0    0 -0.21991156761E+02  0.33874191324E+02 -0.43590679058E+02  0.59432475250E+02  0.10000000000E+01 0.  0.
<mgrwt>
<rscale>  0 0.12499216E+03</rscale>
<asrwt>0</asrwt>
<pdfrwt beam="2">  1        4 0.89903025E-02 0.12499216E+03</pdfrwt>
<pdfrwt beam="1">  1       -4 0.10282638E-01 0.12499216E+03</pdfrwt>
<totfact> 0.10448762E+04</totfact>
</mgrwt>
</event>
<event>
 5    1  0.3337119E-002  0.1249979E+03  0.7818608E-02  0.1235073E+00
         -4   -1    0    0    0  501 -0.00000000000E+00  0.00000000000E+00  0.21852474816E+02  0.21889347994E+02  0.12700000000E+01 0. -1.
          4   -1    0    0  501    0  0.00000000000E+00 -0.00000000000E+00 -0.17855958328E+03  0.17856409964E+03  0.12700000000E+01 0. -1.
         25    2    1    2    0    0  0.00000000000E+00  0.00000000000E+00 -0.15670710847E+03  0.20045344764E+03  0.12499786729E+03 0.  0.
    9000005    1    3    3    0    0  0.15383960693E+02  0.48608923661E+02 -0.13629906871E+03  0.14552638880E+03  0.10000000000E+01 0.  0.
    9000005    1    3    3    0    0 -0.15383960693E+02 -0.48608923661E+02 -0.20408039760E+02  0.54927058841E+02  0.10000000000E+01 0.  0.
<mgrwt>
<rscale>  0 0.12499787E+03</rscale>
<asrwt>0</asrwt>
<pdfrwt beam="2">  1        4 0.27473888E-01 0.12499787E+03</pdfrwt>
<pdfrwt beam="1">  1       -4 0.33651031E-02 0.12499787E+03</pdfrwt>
<totfact> 0.90063383E+03</totfact>
</mgrwt>
</event>
<event>
 5    1  0.3337119E-002  0.1250002E+03  0.7818608E-02  0.1235069E+00
         -4   -1    0    0    0  501 -0.00000000000E+00  0.00000000000E+00  0.34122000116E+03  0.34122236458E+03  0.12700000000E+01 0. -1.
          4   -1    0    0  501    0  0.00000000000E+00 -0.00000000000E+00 -0.11410291059E+02  0.11480750936E+02  0.12700000000E+01 0. -1.
         25    2    1    2    0    0  0.00000000000E+00  0.00000000000E+00  0.32980971010E+03  0.35270311551E+03  0.12500017128E+03 0.  0.
    9000005    1    3    3    0    0  0.25319014581E+02 -0.57133229605E+02  0.16503960042E+03  0.17647755702E+03  0.10000000000E+01 0.  0.
    9000005    1    3    3    0    0 -0.25319014581E+02  0.57133229605E+02  0.16477010967E+03  0.17622555849E+03  0.10000000000E+01 0.  0.
<mgrwt>
<rscale>  0 0.12500017E+03</rscale>
<asrwt>0</asrwt>
<pdfrwt beam="2">  1        4 0.17610310E-02 0.12500017E+03</pdfrwt>
<pdfrwt beam="1">  1       -4 0.52500992E-01 0.12500017E+03</pdfrwt>
<totfact> 0.69427932E+03</totfact>
</mgrwt>
</event>
<event>
 5    1  0.3337119E-002  0.1250001E+03  0.7818608E-02  0.1235069E+00
          4   -1    0    0  501    0  0.00000000000E+00  0.00000000000E+00  0.45276138507E+03  0.45276316624E+03  0.12700000000E+01 0.  1.
         -4   -1    0    0    0  501 -0.00000000000E+00 -0.00000000000E+00 -0.85790853611E+01  0.86725777963E+01  0.12700000000E+01 0.  1.
         25    2    1    2    0    0  0.00000000000E+00  0.00000000000E+00  0.44418229971E+03  0.46143574404E+03  0.12500012203E+03 0.  0.
    9000005    1    3    3    0    0  0.12120905583E+02 -0.51071577777E+02  0.96904975958E+02  0.11021250734E+03  0.10000000000E+01 0.  0.
    9000005    1    3    3    0    0 -0.12120905583E+02  0.51071577777E+02  0.34727732375E+03  0.35122323670E+03  0.10000000000E+01 0.  0.
<mgrwt>
<rscale>  0 0.12500012E+03</rscale>
<asrwt>0</asrwt>
<pdfrwt beam="1">  1        4 0.69662937E-01 0.12500012E+03</pdfrwt>
<pdfrwt beam="2">  1       -4 0.13271878E-02 0.12500012E+03</pdfrwt>
<totfact> 0.58985597E+03</totfact>
</mgrwt>
</event>
<event>
 5    1  0.3337119E-002  0.1250002E+03  0.7818608E-02  0.1235069E+00
         -4   -1    0    0    0  501 -0.00000000000E+00  0.00000000000E+00  0.57090130774E+01  0.58485665182E+01  0.12700000000E+01 0. -1.
          4   -1    0    0  501    0  0.00000000000E+00 -0.00000000000E+00 -0.67582537927E+03  0.67582657255E+03  0.12700000000E+01 0. -1.
         25    2    1    2    0    0  0.00000000000E+00  0.00000000000E+00 -0.67011636619E+03  0.68167513907E+03  0.12500020394E+03 0.  0.
    9000005    1    3    3    0    0 -0.15519595184E+02 -0.54589311990E+02 -0.19239052943E+03  0.20058904914E+03  0.10000000000E+01 0.  0.
    9000005    1    3    3    0    0  0.15519595184E+02  0.54589311990E+02 -0.47772583676E+03  0.48108608993E+03  0.10000000000E+01 0.  0.
<mgrwt>
<rscale>  0 0.12500020E+03</rscale>
<asrwt>0</asrwt>
<pdfrwt beam="2">  1        4 0.10398390E+00 0.12500020E+03</pdfrwt>
<pdfrwt beam="1">  1       -4 0.88913691E-03 0.12500020E+03</pdfrwt>
<totfact> 0.44071681E+03</totfact>
</mgrwt>
</event>
<event>
 5    1  0.3337119E-002  0.1250247E+03  0.7818608E-02  0.1235031E+00
          4   -1    0    0  501    0  0.00000000000E+00  0.00000000000E+00  0.59501644987E+02  0.59515196851E+02  0.12700000000E+01 0. -1.
         -4   -1    0    0    0  501 -0.00000000000E+00 -0.00000000000E+00 -0.65648185848E+02  0.65660469121E+02  0.12700000000E+01 0. -1.
         25    2    1    2    0    0  0.00000000000E+00  0.00000000000E+00 -0.61465408605E+01  0.12517566597E+03  0.12502466711E+03 0.  0.
    9000005    1    3    3    0    0  0.59240907644E+02  0.32576489073E+01 -0.22761567927E+02  0.63554593770E+02  0.10000000000E+01 0.  0.
    9000005    1    3    3    0    0 -0.59240907644E+02 -0.32576489073E+01  0.16615027066E+02  0.61621072201E+02  0.10000000000E+01 0.  0.
<mgrwt>
<rscale>  0 0.12502467E+03</rscale>
<asrwt>0</asrwt>
<pdfrwt beam="1">  1        4 0.91560865E-02 0.12502467E+03</pdfrwt>
<pdfrwt beam="2">  1       -4 0.10101708E-01 0.12502467E+03</pdfrwt>
<totfact> 0.10443225E+04</totfact>
</mgrwt>
</event>
<event>
 5    1  0.3337119E-002  0.1250133E+03  0.7818608E-02  0.1235048E+00
         -4   -1    0    0    0  501 -0.00000000000E+00  0.00000000000E+00  0.27264948475E+02  0.27294510718E+02  0.12700000000E+01 0. -1.
          4   -1    0    0  501    0  0.00000000000E+00 -0.00000000000E+00 -0.14319058593E+03  0.14319621782E+03  0.12700000000E+01 0. -1.
         25    2    1    2    0    0  0.00000000000E+00  0.00000000000E+00 -0.11592563745E+03  0.17049072854E+03  0.12501333968E+03 0.  0.
    9000005    1    3    3    0    0  0.46977748414E+02  0.64316712776E+01 -0.11349076288E+03  0.12300174186E+03  0.10000000000E+01 0.  0.
    9000005    1    3    3    0    0 -0.46977748414E+02 -0.64316712776E+01 -0.24348745713E+01  0.47488986678E+02  0.10000000000E+01 0.  0.
<mgrwt>
<rscale>  0 0.12501334E+03</rscale>
<asrwt>0</asrwt>
<pdfrwt beam="2">  1        4 0.22032028E-01 0.12501334E+03</pdfrwt>
<pdfrwt beam="1">  1       -4 0.41973148E-02 0.12501334E+03</pdfrwt>
<totfact> 0.95328707E+03</totfact>
</mgrwt>
</event>
<event>
 5    1  0.3337119E-002  0.1250066E+03  0.7818608E-02  0.1235059E+00
          4   -1    0    0  501    0  0.00000000000E+00  0.00000000000E+00  0.16975908449E+03  0.16976383497E+03  0.12700000000E+01 0.  1.
         -4   -1    0    0    0  501 -0.00000000000E+00 -0.00000000000E+00 -0.22990377982E+02  0.23025428981E+02  0.12700000000E+01 0.  1.
         25    2    1    2    0    0  0.00000000000E+00  0.00000000000E+00  0.14676870650E+03  0.19278926396E+03  0.12500658818E+03 0.  0.
    9000005    1    3    3    0    0  0.52777462408E+02  0.31756544239E+02  0.57083081263E+02  0.83984622442E+02  0.10000000000E+01 0.  0.
    9000005    1    3    3    0    0 -0.52777462408E+02 -0.31756544239E+02  0.89685625240E+02  0.10880464151E+03  0.10000000000E+01 0.  0.
<mgrwt>
<rscale>  0 0.12500659E+03</rscale>
<asrwt>0</asrwt>
<pdfrwt beam="1">  1        4 0.26119844E-01 0.12500659E+03</pdfrwt>
<pdfrwt beam="2">  1       -4 0.35400429E-02 0.12500659E+03</pdfrwt>
<totfact> 0.91350766E+03</totfact>
</mgrwt>
</event>
<event>
 5    1  0.3337119E-002  0.1250009E+03  0.7818608E-02  0.1235068E+00
          4   -1    0    0  501    0  0.00000000000E+00  0.00000000000E+00  0.47857258621E+01  0.49513707221E+01  0.12700000000E+01 0.  1.
         -4   -1    0    0    0  501 -0.00000000000E+00 -0.00000000000E+00 -0.80218963306E+03  0.80219063837E+03  0.12700000000E+01 0.  1.
         25    2    1    2    0    0  0.00000000000E+00  0.00000000000E+00 -0.79740390719E+03  0.80714200909E+03  0.12500092651E+03 0.  0.
    9000005    1    3    3    0    0  0.21703362285E+02  0.17232786332E+02 -0.76037400974E+03  0.76087951710E+03  0.10000000000E+01 0.  0.
    9000005    1    3    3    0    0 -0.21703362285E+02 -0.17232786332E+02 -0.37029897455E+02  0.46262491987E+02  0.10000000000E+01 0.  0.
<mgrwt>
<rscale>  0 0.12500093E+03</rscale>
<asrwt>0</asrwt>
<pdfrwt beam="1">  1        4 0.74908540E-03 0.12500093E+03</pdfrwt>
<pdfrwt beam="2">  1       -4 0.12342650E+00 0.12500093E+03</pdfrwt>
<totfact> 0.37947130E+03</totfact>
</mgrwt>
</event>
<event>
 5    1  0.3337119E-002  0.1250001E+03  0.7818608E-02  0.1235069E+00
         -4   -1    0    0    0  501 -0.00000000000E+00  0.00000000000E+00  0.96063042210E+01  0.96898906488E+01  0.12700000000E+01 0.  1.
          4   -1    0    0  501    0  0.00000000000E+00 -0.00000000000E+00 -0.40478855103E+03  0.40479054330E+03  0.12700000000E+01 0.  1.
         25    2    1    2    0    0  0.00000000000E+00  0.00000000000E+00 -0.39518224681E+03  0.41448043395E+03  0.12500008773E+03 0.  0.
    9000005    1    3    3    0    0  0.61771428491E+02 -0.56923625106E+01 -0.17252566393E+03  0.18334180397E+03  0.10000000000E+01 0.  0.
    9000005    1    3    3    0    0 -0.61771428491E+02  0.56923625106E+01 -0.22265658288E+03  0.23113862998E+03  0.10000000000E+01 0.  0.
<mgrwt>
<rscale>  0 0.12500009E+03</rscale>
<asrwt>0</asrwt>
<pdfrwt beam="2">  1        4 0.62281731E-01 0.12500009E+03</pdfrwt>
<pdfrwt beam="1">  1       -4 0.14844762E-02 0.12500009E+03</pdfrwt>
<totfact> 0.63168275E+03</totfact>
</mgrwt>
</event>
<event>
 5    1  0.3337119E-002  0.1249995E+03  0.7818608E-02  0.1235070E+00
          4   -1    0    0  501    0  0.00000000000E+00  0.00000000000E+00  0.43390941769E+02  0.43409523466E+02  0.12700000000E+01 0. -1.
         -4   -1    0    0    0  501 -0.00000000000E+00 -0.00000000000E+00 -0.89981515100E+02  0.89990477050E+02  0.12700000000E+01 0. -1.
         25    2    1    2    0    0  0.00000000000E+00  0.00000000000E+00 -0.46590573332E+02  0.13340000052E+03  0.12499951446E+03 0.  0.
    9000005    1    3    3    0    0  0.44731893636E+02 -0.43633427901E+02 -0.22619218960E+02  0.66463880454E+02  0.10000000000E+01 0.  0.
    9000005    1    3    3    0    0 -0.44731893636E+02  0.43633427901E+02 -0.23971354371E+02  0.66936120062E+02  0.10000000000E+01 0.  0.
<mgrwt>
<rscale>  0 0.12499951E+03</rscale>
<asrwt>0</asrwt>
<pdfrwt beam="1">  1        4 0.66776483E-02 0.12499951E+03</pdfrwt>
<pdfrwt beam="2">  1       -4 0.13845429E-01 0.12499951E+03</pdfrwt>
<totfact> 0.10272018E+04</totfact>
</mgrwt>
</event>
<event>
 5    1  0.3337119E-002  0.1250027E+03  0.7818608E-02  0.1235065E+00
          4   -1    0    0  501    0  0.00000000000E+00  0.00000000000E+00  0.19467446618E+04  0.19467450761E+04  0.12700000000E+01 0. -1.
         -4   -1    0    0    0  501 -0.00000000000E+00 -0.00000000000E+00 -0.18052415278E+01  0.22072147548E+01  0.12700000000E+01 0. -1.
         25    2    1    2    0    0  0.00000000000E+00  0.00000000000E+00  0.19449394203E+04  0.19489522908E+04  0.12500273328E+03 0.  0.
    9000005    1    3    3    0    0 -0.44358350606E+02  0.29826726122E+02  0.46770611411E+03  0.47075185187E+03  0.10000000000E+01 0.  0.
    9000005    1    3    3    0    0  0.44358350606E+02 -0.29826726122E+02  0.14772333062E+04  0.14782004390E+04  0.10000000000E+01 0.  0.
<mgrwt>
<rscale>  0 0.12500273E+03</rscale>
<asrwt>0</asrwt>
<pdfrwt beam="1">  1        4 0.29953001E+00 0.12500273E+03</pdfrwt>
<pdfrwt beam="2">  1       -4 0.30868247E-03 0.12500273E+03</pdfrwt>
<totfact> 0.10541686E+03</totfact>
</mgrwt>
</event>
<event>
 5    1  0.3337119E-002  0.1250003E+03  0.7818608E-02  0.1235069E+00
         -4   -1    0    0    0  501 -0.00000000000E+00  0.00000000000E+00  0.35997856961E+03  0.35998080988E+03  0.12700000000E+01 0. -1.
          4   -1    0    0  501    0  0.00000000000E+00 -0.00000000000E+00 -0.10811948765E+02  0.10886282015E+02  0.12700000000E+01 0. -1.
         25    2    1    2    0    0  0.00000000000E+00  0.00000000000E+00  0.34916662085E+03  0.37086709189E+03  0.12500028294E+03 0.  0.
    9000005    1    3    3    0    0  0.13782964546E+02 -0.27022296219E+02  0.12482106048E+02  0.32817336516E+02  0.10000000000E+01 0.  0.
    9000005    1    3    3    0    0 -0.13782964546E+02  0.27022296219E+02  0.33668451480E+03  0.33804975538E+03  0.10000000000E+01 0.  0.
<mgrwt>
<rscale>  0 0.12500028E+03</rscale>
<asrwt>0</asrwt>
<pdfrwt beam="2">  1        4 0.16692672E-02 0.12500028E+03</pdfrwt>
<pdfrwt beam="1">  1       -4 0.55387203E-01 0.12500028E+03</pdfrwt>
<totfact> 0.67487900E+03</totfact>
</mgrwt>
</event>
<event>
 5    1  0.3337119E-002  0.1249929E+03  0.7818608E-02  0.1235080E+00
          4   -1    0    0  501    0  0.00000000000E+00  0.00000000000E+00  0.16142811956E+04  0.16142816952E+04  0.12700000000E+01 0.  1.
         -4   -1    0    0    0  501 -0.00000000000E+00 -0.00000000000E+00 -0.22523432059E+01  0.25857203865E+01  0.12700000000E+01 0.  1.
         25    2    1    2    0    0  0.00000000000E+00  0.00000000000E+00  0.16120288524E+04  0.16168674156E+04  0.12499287398E+03 0.  0.
    9000005    1    3    3    0    0 -0.59048923711E+02 -0.16792124550E+01  0.10696007000E+04  0.10712311854E+04  0.10000000000E+01 0.  0.
    9000005    1    3    3    0    0  0.59048923711E+02  0.16792124550E+01  0.54242815244E+03  0.54563623020E+03  0.10000000000E+01 0.  0.
<mgrwt>
<rscale>  0 0.12499287E+03</rscale>
<asrwt>0</asrwt>
<pdfrwt beam="1">  1        4 0.24837589E+00 0.12499287E+03</pdfrwt>
<pdfrwt beam="2">  1       -4 0.37219828E-03 0.12499287E+03</pdfrwt>
<totfact> 0.15745708E+03</totfact>
</mgrwt>
</event>
<event>
 5    1  0.3337119E-002  0.1250041E+03  0.7818608E-02  0.1235063E+00
         -4   -1    0    0    0  501 -0.00000000000E+00  0.00000000000E+00  0.15045632688E+02  0.15099137823E+02  0.12700000000E+01 0.  1.
          4   -1    0    0  501    0  0.00000000000E+00 -0.00000000000E+00 -0.25912798731E+03  0.25913109946E+03  0.12700000000E+01 0.  1.
         25    2    1    2    0    0  0.00000000000E+00  0.00000000000E+00 -0.24408235462E+03  0.27423023728E+03  0.12500410874E+03 0.  0.
    9000005    1    3    3    0    0  0.57944511398E+02  0.15863391814E+02 -0.15980290823E+03  0.17072546114E+03  0.10000000000E+01 0.  0.
    9000005    1    3    3    0    0 -0.57944511398E+02 -0.15863391814E+02 -0.84279446386E+02  0.10350477614E+03  0.10000000000E+01 0.  0.
<mgrwt>
<rscale>  0 0.12500411E+03</rscale>
<asrwt>0</asrwt>
<pdfrwt beam="2">  1        4 0.39870196E-01 0.12500411E+03</pdfrwt>
<pdfrwt beam="1">  1       -4 0.23190681E-02 0.12500411E+03</pdfrwt>
<totfact> 0.78942195E+03</totfact>
</mgrwt>
</event>
<event>
 5    1  0.3337119E-002  0.1249978E+03  0.7818608E-02  0.1235073E+00
          4   -1    0    0  501    0  0.00000000000E+00  0.00000000000E+00  0.73728416050E+01  0.74814232157E+01  0.12700000000E+01 0. -1.
         -4   -1    0    0    0  501 -0.00000000000E+00 -0.00000000000E+00 -0.52581507097E+03  0.52581660468E+03  0.12700000000E+01 0. -1.
         25    2    1    2    0    0  0.00000000000E+00  0.00000000000E+00 -0.51844222936E+03  0.53329802789E+03  0.12499776546E+03 0.  0.
    9000005    1    3    3    0    0  0.14660903752E+02  0.55097624758E+02 -0.36836414476E+03  0.37275170489E+03  0.10000000000E+01 0.  0.
    9000005    1    3    3    0    0 -0.14660903752E+02 -0.55097624758E+02 -0.15007808460E+03  0.16054632301E+03  0.10000000000E+01 0.  0.
<mgrwt>
<rscale>  0 0.12499777E+03</rscale>
<asrwt>0</asrwt>
<pdfrwt beam="1">  1        4 0.11427541E-02 0.12499777E+03</pdfrwt>
<pdfrwt beam="2">  1       -4 0.80903068E-01 0.12499777E+03</pdfrwt>
<totfact> 0.53372974E+03</totfact>
</mgrwt>
</event>
<event>
 5    1  0.3337119E-002  0.1250035E+03  0.7818608E-02  0.1235064E+00
          4   -1    0    0  501    0  0.00000000000E+00  0.00000000000E+00  0.23767730183E+02  0.23801636457E+02  0.12700000000E+01 0. -1.
         -4   -1    0    0    0  501 -0.00000000000E+00 -0.00000000000E+00 -0.16420678046E+03  0.16421169157E+03  0.12700000000E+01 0. -1.
         25    2    1    2    0    0  0.00000000000E+00  0.00000000000E+00 -0.14043905027E+03  0.18801332803E+03  0.12500353864E+03 0.  0.
    9000005    1    3    3    0    0 -0.32208986810E+02 -0.32938041958E+02 -0.67070885617E+01  0.46565206714E+02  0.10000000000E+01 0.  0.
    9000005    1    3    3    0    0  0.32208986810E+02  0.32938041958E+02 -0.13373196171E+03  0.14144812131E+03  0.10000000000E+01 0.  0.
<mgrwt>
<rscale>  0 0.12500354E+03</rscale>
<asrwt>0</asrwt>
<pdfrwt beam="1">  1        4 0.36595599E-02 0.12500354E+03</pdfrwt>
<pdfrwt beam="2">  1       -4 0.25265567E-01 0.12500354E+03</pdfrwt>
<totfact> 0.92186834E+03</totfact>
</mgrwt>
</event>
<event>
 5    1  0.3337119E-002  0.1250029E+03  0.7818608E-02  0.1235065E+00
          4   -1    0    0  501    0  0.00000000000E+00  0.00000000000E+00  0.84658280813E+02  0.84667806221E+02  0.12700000000E+01 0. -1.
         -4   -1    0    0    0  501 -0.00000000000E+00 -0.00000000000E+00 -0.46122677450E+02  0.46140159029E+02  0.12700000000E+01 0. -1.
         25    2    1    2    0    0  0.00000000000E+00  0.00000000000E+00  0.38535603362E+02  0.13080796525E+03  0.12500292415E+03 0.  0.
    9000005    1    3    3    0    0  0.51871799675E+02  0.92874003835E+01 -0.15885289497E+02  0.55047995693E+02  0.10000000000E+01 0.  0.
    9000005    1    3    3    0    0 -0.51871799675E+02 -0.92874003835E+01  0.54420892860E+02  0.75759969556E+02  0.10000000000E+01 0.  0.
<mgrwt>
<rscale>  0 0.12500292E+03</rscale>
<asrwt>0</asrwt>
<pdfrwt beam="1">  1        4 0.13026428E-01 0.12500292E+03</pdfrwt>
<pdfrwt beam="2">  1       -4 0.70978740E-02 0.12500292E+03</pdfrwt>
<totfact> 0.10326527E+04</totfact>
</mgrwt>
</event>
<event>
 5    1  0.3337119E-002  0.1250017E+03  0.7818608E-02  0.1235067E+00
          4   -1    0    0  501    0  0.00000000000E+00  0.00000000000E+00  0.44639376188E+01  0.46410816696E+01  0.12700000000E+01 0. -1.
         -4   -1    0    0    0  501 -0.00000000000E+00 -0.00000000000E+00 -0.85788854142E+03  0.85788948146E+03  0.12700000000E+01 0. -1.
         25    2    1    2    0    0  0.00000000000E+00  0.00000000000E+00 -0.85342460380E+03  0.86253056313E+03  0.12500167183E+03 0.  0.
    9000005    1    3    3    0    0 -0.38822850874E+02  0.45491373592E+02 -0.30161658252E+03  0.30749023020E+03  0.10000000000E+01 0.  0.
    9000005    1    3    3    0    0  0.38822850874E+02 -0.45491373592E+02 -0.55180802128E+03  0.55504033293E+03  0.10000000000E+01 0.  0.
<mgrwt>
<rscale>  0 0.12500167E+03</rscale>
<asrwt>0</asrwt>
<pdfrwt beam="1">  1        4 0.70045909E-03 0.12500167E+03</pdfrwt>
<pdfrwt beam="2">  1       -4 0.13199642E+00 0.12500167E+03</pdfrwt>
<totfact> 0.35618711E+03</totfact>
</mgrwt>
</event>
<event>
 5    1  0.3337119E-002  0.1249998E+03  0.7818608E-02  0.1235070E+00
          4   -1    0    0  501    0  0.00000000000E+00  0.00000000000E+00  0.91513445103E+03  0.91513533227E+03  0.12700000000E+01 0. -1.
         -4   -1    0    0    0  501 -0.00000000000E+00 -0.00000000000E+00 -0.41731132881E+01  0.43620837355E+01  0.12700000000E+01 0. -1.
         25    2    1    2    0    0  0.00000000000E+00  0.00000000000E+00  0.91096133774E+03  0.91949741600E+03  0.12499975669E+03 0.  0.
    9000005    1    3    3    0    0 -0.42457932819E+02 -0.11263986365E+02  0.12851677635E+03  0.13582015775E+03  0.10000000000E+01 0.  0.
    9000005    1    3    3    0    0  0.42457932819E+02  0.11263986365E+02  0.78244456139E+03  0.78367725825E+03  0.10000000000E+01 0.  0.
<mgrwt>
<rscale>  0 0.12499976E+03</rscale>
<asrwt>0</asrwt>
<pdfrwt beam="1">  1        4 0.14080436E+00 0.12499976E+03</pdfrwt>
<pdfrwt beam="2">  1       -4 0.65662213E-03 0.12499976E+03</pdfrwt>
<totfact> 0.33424470E+03</totfact>
</mgrwt>
</event>
<event>
 5    1  0.3337119E-002  0.1249973E+03  0.7818608E-02  0.1235073E+00
         -4   -1    0    0    0  501 -0.00000000000E+00  0.00000000000E+00  0.41297149355E+02  0.41316672723E+02  0.12700000000E+01 0.  1.
          4   -1    0    0  501    0  0.00000000000E+00 -0.00000000000E+00 -0.94538660714E+02  0.94547190702E+02  0.12700000000E+01 0.  1.
         25    2    1    2    0    0  0.00000000000E+00  0.00000000000E+00 -0.53241511358E+02  0.13586386342E+03  0.12499732338E+03 0.  0.
    9000005    1    3    3    0    0 -0.60146975368E+02  0.94421826047E+01 -0.41925671101E+02  0.73929529659E+02  0.10000000000E+01 0.  0.
    9000005    1    3    3    0    0  0.60146975368E+02 -0.94421826047E+01 -0.11315840257E+02  0.61934333766E+02  0.10000000000E+01 0.  0.
<mgrwt>
<rscale>  0 0.12499732E+03</rscale>
<asrwt>0</asrwt>
<pdfrwt beam="2">  1        4 0.14546567E-01 0.12499732E+03</pdfrwt>
<pdfrwt beam="1">  1       -4 0.63555655E-02 0.12499732E+03</pdfrwt>
<totfact> 0.10220512E+04</totfact>
</mgrwt>
</event>
<event>
 5    1  0.3337119E-002  0.1250017E+03  0.7818608E-02  0.1235067E+00
         -4   -1    0    0    0  501 -0.00000000000E+00  0.00000000000E+00  0.70889098459E+01  0.72017735873E+01  0.12700000000E+01 0.  1.
          4   -1    0    0  501    0  0.00000000000E+00 -0.00000000000E+00 -0.54658592843E+03  0.54658740386E+03  0.12700000000E+01 0.  1.
         25    2    1    2    0    0  0.00000000000E+00  0.00000000000E+00 -0.53949701858E+03  0.55378917745E+03  0.12500167997E+03 0.  0.
    9000005    1    3    3    0    0  0.20450713379E+02  0.15044754016E+02 -0.16766710068E+02  0.30441729051E+02  0.10000000000E+01 0.  0.
    9000005    1    3    3    0    0 -0.20450713379E+02 -0.15044754016E+02 -0.52273030852E+03  0.52334744840E+03  0.10000000000E+01 0.  0.
<mgrwt>
<rscale>  0 0.12500168E+03</rscale>
<asrwt>0</asrwt>
<pdfrwt beam="2">  1        4 0.84098905E-01 0.12500168E+03</pdfrwt>
<pdfrwt beam="1">  1       -4 0.10993973E-02 0.12500168E+03</pdfrwt>
<totfact> 0.51918938E+03</totfact>
</mgrwt>
</event>
<event>
 5    1  0.3337119E-002  0.1250010E+03  0.7818608E-02  0.1235068E+00
          4   -1    0    0  501    0  0.00000000000E+00  0.00000000000E+00  0.85438598793E+01  0.86377335938E+01  0.12700000000E+01 0. -1.
         -4   -1    0    0    0  501 -0.00000000000E+00 -0.00000000000E+00 -0.45461457676E+03  0.45461635068E+03  0.12700000000E+01 0. -1.
         25    2    1    2    0    0  0.00000000000E+00  0.00000000000E+00 -0.44607071688E+03  0.46325408427E+03  0.12500104854E+03 0.  0.
    9000005    1    3    3    0    0  0.60573199683E+02  0.10952145952E+02 -0.26299380937E+03  0.27010332428E+03  0.10000000000E+01 0.  0.
    9000005    1    3    3    0    0 -0.60573199683E+02 -0.10952145952E+02 -0.18307690751E+03  0.19315075999E+03  0.10000000000E+01 0.  0.
<mgrwt>
<rscale>  0 0.12500105E+03</rscale>
<asrwt>0</asrwt>
<pdfrwt beam="1">  1        4 0.13217978E-02 0.12500105E+03</pdfrwt>
<pdfrwt beam="2">  1       -4 0.69948043E-01 0.12500105E+03</pdfrwt>
<totfact> 0.58831199E+03</totfact>
</mgrwt>
</event>
<event>
 5    1  0.3337119E-002  0.1249936E+03  0.7818608E-02  0.1235079E+00
          4   -1    0    0  501    0  0.00000000000E+00  0.00000000000E+00  0.89973362651E+03  0.89973452283E+03  0.12700000000E+01 0.  1.
         -4   -1    0    0    0  501 -0.00000000000E+00 -0.00000000000E+00 -0.42473185352E+01  0.44331269709E+01  0.12700000000E+01 0.  1.
         25    2    1    2    0    0  0.00000000000E+00  0.00000000000E+00  0.89548630797E+03  0.90416764980E+03  0.12499364455E+03 0.  0.
    9000005    1    3    3    0    0 -0.56056518366E+02  0.23975887217E+01  0.64673867690E+03  0.64916869755E+03  0.10000000000E+01 0.  0.
    9000005    1    3    3    0    0  0.56056518366E+02 -0.23975887217E+01  0.24874763108E+03  0.25499895225E+03  0.10000000000E+01 0.  0.
<mgrwt>
<rscale>  0 0.12499364E+03</rscale>
<asrwt>0</asrwt>
<pdfrwt beam="1">  1        4 0.13843471E+00 0.12499364E+03</pdfrwt>
<pdfrwt beam="2">  1       -4 0.66779653E-03 0.12499364E+03</pdfrwt>
<totfact> 0.34005602E+03</totfact>
</mgrwt>
</event>
<event>
 5    1  0.3337119E-002  0.1250013E+03  0.7818608E-02  0.1235067E+00
         -4   -1    0    0    0  501 -0.00000000000E+00  0.00000000000E+00  0.31631696363E+02  0.31657181093E+02  0.12700000000E+01 0. -1.
          4   -1    0    0  501    0  0.00000000000E+00 -0.00000000000E+00 -0.12341571660E+03  0.12342225084E+03  0.12700000000E+01 0. -1.
         25    2    1    2    0    0  0.00000000000E+00  0.00000000000E+00 -0.91784020236E+02  0.15507943194E+03  0.12500129535E+03 0.  0.
    9000005    1    3    3    0    0 -0.57163847866E+02  0.85170085021E+00 -0.77201452563E+02  0.96070261658E+02  0.10000000000E+01 0.  0.
    9000005    1    3    3    0    0  0.57163847866E+02 -0.85170085021E+00 -0.14582567674E+02  0.59009170280E+02  0.10000000000E+01 0.  0.
<mgrwt>
<rscale>  0 0.12500130E+03</rscale>
<asrwt>0</asrwt>
<pdfrwt beam="2">  1        4 0.18989496E-01 0.12500130E+03</pdfrwt>
<pdfrwt beam="1">  1       -4 0.48688779E-02 0.12500130E+03</pdfrwt>
<totfact> 0.98297044E+03</totfact>
</mgrwt>
</event>
<event>
 5    1  0.3337119E-002  0.1250031E+03  0.7818608E-02  0.1235064E+00
         -4   -1    0    0    0  501 -0.00000000000E+00  0.00000000000E+00  0.11654357547E+04  0.11654364467E+04  0.12700000000E+01 0. -1.
          4   -1    0    0  501    0  0.00000000000E+00 -0.00000000000E+00 -0.32309001642E+01  0.34715437302E+01  0.12700000000E+01 0. -1.
         25    2    1    2    0    0  0.00000000000E+00  0.00000000000E+00  0.11622048545E+04  0.11689079904E+04  0.12500306445E+03 0.  0.
    9000005    1    3    3    0    0  0.27070500449E+02 -0.53680766780E+02  0.74062044858E+03  0.74305725592E+03  0.10000000000E+01 0.  0.
    9000005    1    3    3    0    0 -0.27070500449E+02  0.53680766780E+02  0.42158440595E+03  0.42585073448E+03  0.10000000000E+01 0.  0.
<mgrwt>
<rscale>  0 0.12500306E+03</rscale>
<asrwt>0</asrwt>
<pdfrwt beam="2">  1        4 0.51562607E-03 0.12500306E+03</pdfrwt>
<pdfrwt beam="1">  1       -4 0.17931629E+00 0.12500306E+03</pdfrwt>
<totfact> 0.25539698E+03</totfact>
</mgrwt>
</event>
<event>
 5    1  0.3337119E-002  0.1250009E+03  0.7818608E-02  0.1235068E+00
          4   -1    0    0  501    0  0.00000000000E+00  0.00000000000E+00  0.47931324799E+02  0.47948146961E+02  0.12700000000E+01 0. -1.
         -4   -1    0    0    0  501 -0.00000000000E+00 -0.00000000000E+00 -0.81461920913E+02  0.81471820029E+02  0.12700000000E+01 0. -1.
         25    2    1    2    0    0  0.00000000000E+00  0.00000000000E+00 -0.33530596114E+02  0.12941996699E+03  0.12500090792E+03 0.  0.
    9000005    1    3    3    0    0  0.33105658156E+02  0.19274098592E+02 -0.67885191360E+02  0.77954311520E+02  0.10000000000E+01 0.  0.
    9000005    1    3    3    0    0 -0.33105658156E+02 -0.19274098592E+02  0.34354595246E+02  0.51465655470E+02  0.10000000000E+01 0.  0.
<mgrwt>
<rscale>  0 0.12500091E+03</rscale>
<asrwt>0</asrwt>
<pdfrwt beam="1">  1        4 0.73761055E-02 0.12500091E+03</pdfrwt>
<pdfrwt beam="2">  1       -4 0.12534659E-01 0.12500091E+03</pdfrwt>
<totfact> 0.10356719E+04</totfact>
</mgrwt>
</event>
<event>
 5    1  0.3337119E-002  0.1250024E+03  0.7818608E-02  0.1235066E+00
         -4   -1    0    0    0  501 -0.00000000000E+00  0.00000000000E+00  0.33387935380E+03  0.33388176919E+03  0.12700000000E+01 0. -1.
          4   -1    0    0  501    0  0.00000000000E+00 -0.00000000000E+00 -0.11663098425E+02  0.11732040099E+02  0.12700000000E+01 0. -1.
         25    2    1    2    0    0  0.00000000000E+00  0.00000000000E+00  0.32221625538E+03  0.34561380929E+03  0.12500235974E+03 0.  0.
    9000005    1    3    3    0    0  0.50116676009E+02  0.22614959652E+01  0.26413766605E+03  0.26886149260E+03  0.10000000000E+01 0.  0.
    9000005    1    3    3    0    0 -0.50116676009E+02 -0.22614959652E+01  0.58078589334E+02  0.76752316690E+02  0.10000000000E+01 0.  0.
<mgrwt>
<rscale>  0 0.12500236E+03</rscale>
<asrwt>0</asrwt>
<pdfrwt beam="2">  1        4 0.17998118E-02 0.12500236E+03</pdfrwt>
<pdfrwt beam="1">  1       -4 0.51371543E-01 0.12500236E+03</pdfrwt>
<totfact> 0.70206132E+03</totfact>
</mgrwt>
</event>
<event>
 5    1  0.3337119E-002  0.1250005E+03  0.7818608E-02  0.1235068E+00
          4   -1    0    0  501    0  0.00000000000E+00  0.00000000000E+00  0.72740647621E+02  0.72751733425E+02  0.12700000000E+01 0. -1.
         -4   -1    0    0    0  501 -0.00000000000E+00 -0.00000000000E+00 -0.53678833463E+02  0.53693854974E+02  0.12700000000E+01 0. -1.
         25    2    1    2    0    0  0.00000000000E+00  0.00000000000E+00  0.19061814158E+02  0.12644558840E+03  0.12500053627E+03 0.  0.
    9000005    1    3    3    0    0  0.11027999297E+02 -0.61509911375E+02  0.99805121410E+01  0.63290572666E+02  0.10000000000E+01 0.  0.
    9000005    1    3    3    0    0 -0.11027999297E+02  0.61509911375E+02  0.90813020174E+01  0.63155015733E+02  0.10000000000E+01 0.  0.
<mgrwt>
<rscale>  0 0.12500054E+03</rscale>
<asrwt>0</asrwt>
<pdfrwt beam="1">  1        4 0.11192877E-01 0.12500054E+03</pdfrwt>
<pdfrwt beam="2">  1       -4 0.82602903E-02 0.12500054E+03</pdfrwt>
<totfact> 0.10421089E+04</totfact>
</mgrwt>
</event>
<event>
 5    1  0.3337119E-002  0.1249983E+03  0.7818608E-02  0.1235072E+00
         -4   -1    0    0    0  501 -0.00000000000E+00  0.00000000000E+00  0.34904929613E+02  0.34928026158E+02  0.12700000000E+01 0.  1.
          4   -1    0    0  501    0  0.00000000000E+00 -0.00000000000E+00 -0.11184432597E+03  0.11185153621E+03  0.12700000000E+01 0.  1.
         25    2    1    2    0    0  0.00000000000E+00  0.00000000000E+00 -0.76939396362E+02  0.14677956237E+03  0.12499827685E+03 0.  0.
    9000005    1    3    3    0    0 -0.10139200194E+02  0.38167587770E+01  0.33799533150E+02  0.35507456531E+02  0.10000000000E+01 0.  0.
    9000005    1    3    3    0    0  0.10139200194E+02 -0.38167587770E+01 -0.11073892951E+03  0.11127210584E+03  0.10000000000E+01 0.  0.
<mgrwt>
<rscale>  0 0.12499828E+03</rscale>
<asrwt>0</asrwt>
<pdfrwt beam="2">  1        4 0.17209150E-01 0.12499828E+03</pdfrwt>
<pdfrwt beam="1">  1       -4 0.53723205E-02 0.12499828E+03</pdfrwt>
<totfact> 0.99953440E+03</totfact>
</mgrwt>
</event>
<event>
 5    1  0.3337119E-002  0.1249937E+03  0.7818608E-02  0.1235079E+00
          4   -1    0    0  501    0  0.00000000000E+00  0.00000000000E+00  0.36685290180E+03  0.36685510008E+03  0.12700000000E+01 0.  1.
         -4   -1    0    0    0  501 -0.00000000000E+00 -0.00000000000E+00 -0.10606820708E+02  0.10682581407E+02  0.12700000000E+01 0.  1.
         25    2    1    2    0    0  0.00000000000E+00  0.00000000000E+00  0.35624608109E+03  0.37753768149E+03  0.12499372246E+03 0.  0.
    9000005    1    3    3    0    0 -0.22492295744E+02  0.53346433111E+02  0.24915908789E+03  0.25579874193E+03  0.10000000000E+01 0.  0.
    9000005    1    3    3    0    0  0.22492295744E+02 -0.53346433111E+02  0.10708699320E+03  0.12173893956E+03  0.10000000000E+01 0.  0.
<mgrwt>
<rscale>  0 0.12499372E+03</rscale>
<asrwt>0</asrwt>
<pdfrwt beam="1">  1        4 0.56444905E-01 0.12499372E+03</pdfrwt>
<pdfrwt beam="2">  1       -4 0.16378154E-02 0.12499372E+03</pdfrwt>
<totfact> 0.66806924E+03</totfact>
</mgrwt>
</event>
<event>
 5    1  0.3337119E-002  0.1250088E+03  0.7818608E-02  0.1235055E+00
          4   -1    0    0  501    0  0.00000000000E+00  0.00000000000E+00  0.19104814425E+02  0.19146979767E+02  0.12700000000E+01 0. -1.
         -4   -1    0    0    0  501 -0.00000000000E+00 -0.00000000000E+00 -0.20422353432E+03  0.20422748314E+03  0.12700000000E+01 0. -1.
         25    2    1    2    0    0  0.00000000000E+00  0.00000000000E+00 -0.18511871989E+03  0.22337446290E+03  0.12500884058E+03 0.  0.
    9000005    1    3    3    0    0  0.27753738316E+02  0.52519863471E+02 -0.57855592471E+02  0.82926929461E+02  0.10000000000E+01 0.  0.
    9000005    1    3    3    0    0 -0.27753738316E+02 -0.52519863471E+02 -0.12726312742E+03  0.14044753344E+03  0.10000000000E+01 0.  0.
<mgrwt>
<rscale>  0 0.12500884E+03</rscale>
<asrwt>0</asrwt>
<pdfrwt beam="1">  1        4 0.29427496E-02 0.12500884E+03</pdfrwt>
<pdfrwt beam="2">  1       -4 0.31422551E-01 0.12500884E+03</pdfrwt>
<totfact> 0.86320145E+03</totfact>
</mgrwt>
</event>
<event>
 5    1  0.3337119E-002  0.1249973E+03  0.7818608E-02  0.1235074E+00
         -4   -1    0    0    0  501 -0.00000000000E+00  0.00000000000E+00  0.49300387852E+03  0.49300551431E+03  0.12700000000E+01 0. -1.
          4   -1    0    0  501    0  0.00000000000E+00 -0.00000000000E+00 -0.78704699102E+01  0.79722767518E+01  0.12700000000E+01 0. -1.
         25    2    1    2    0    0  0.00000000000E+00  0.00000000000E+00  0.48513340861E+03  0.50097779106E+03  0.12499729190E+03 0.  0.
    9000005    1    3    3    0    0  0.54229658096E+02  0.28172217202E+02  0.29490808086E+03  0.30117487578E+03  0.10000000000E+01 0.  0.
    9000005    1    3    3    0    0 -0.54229658096E+02 -0.28172217202E+02  0.19022532775E+03  0.19980291528E+03  0.10000000000E+01 0.  0.
<mgrwt>
<rscale>  0 0.12499729E+03</rscale>
<asrwt>0</asrwt>
<pdfrwt beam="2">  1        4 0.12187988E-02 0.12499729E+03</pdfrwt>
<pdfrwt beam="1">  1       -4 0.75854701E-01 0.12499729E+03</pdfrwt>
<totfact> 0.55791906E+03</totfact>
</mgrwt>
</event>
<event>
 5    1  0.3337119E-002  0.1250034E+03  0.7818608E-02  0.1235064E+00
         -4   -1    0    0    0  501 -0.00000000000E+00  0.00000000000E+00  0.67934248104E+02  0.67946118104E+02  0.12700000000E+01 0. -1.
          4   -1    0    0  501    0  0.00000000000E+00 -0.00000000000E+00 -0.57479630304E+02  0.57493658780E+02  0.12700000000E+01 0. -1.
         25    2    1    2    0    0  0.00000000000E+00  0.00000000000E+00  0.10454617800E+02  0.12543977688E+03  0.12500335432E+03 0.  0.
    9000005    1    3    3    0    0  0.18800859608E+02  0.59263341814E+02 -0.11069108419E+01  0.62191970997E+02  0.10000000000E+01 0.  0.
    9000005    1    3    3    0    0 -0.18800859608E+02 -0.59263341814E+02  0.11561528641E+02  0.63247805887E+02  0.10000000000E+01 0.  0.
<mgrwt>
<rscale>  0 0.12500335E+03</rscale>
<asrwt>0</asrwt>
<pdfrwt beam="2">  1        4 0.88450122E-02 0.12500335E+03</pdfrwt>
<pdfrwt beam="1">  1       -4 0.10453415E-01 0.12500335E+03</pdfrwt>
<totfact> 0.10442496E+04</totfact>
</mgrwt>
</event>
<event>
 5    1  0.3337119E-002  0.1249983E+03  0.7818608E-02  0.1235072E+00
         -4   -1    0    0    0  501 -0.00000000000E+00  0.00000000000E+00  0.34121725869E+01  0.36408545375E+01  0.12700000000E+01 0.  1.
          4   -1    0    0  501    0  0.00000000000E+00 -0.00000000000E+00 -0.11074220596E+04  0.11074227878E+04  0.12700000000E+01 0.  1.
         25    2    1    2    0    0  0.00000000000E+00  0.00000000000E+00 -0.11040098870E+04  0.11110636423E+04  0.12499834699E+03 0.  0.
    9000005    1    3    3    0    0 -0.24856537389E+02  0.12404512854E+02 -0.10495638191E+04  0.10499318691E+04  0.10000000000E+01 0.  0.
    9000005    1    3    3    0    0  0.24856537389E+02 -0.12404512854E+02 -0.54446067876E+02  0.61131773222E+02  0.10000000000E+01 0.  0.
<mgrwt>
<rscale>  0 0.12499835E+03</rscale>
<asrwt>0</asrwt>
<pdfrwt beam="2">  1        4 0.17038999E+00 0.12499835E+03</pdfrwt>
<pdfrwt beam="1">  1       -4 0.54259745E-03 0.12499835E+03</pdfrwt>
<totfact> 0.27162862E+03</totfact>
</mgrwt>
</event>
<event>
 5    1  0.3337119E-002  0.1250016E+03  0.7818608E-02  0.1235067E+00
         -4   -1    0    0    0  501 -0.00000000000E+00  0.00000000000E+00  0.67209126205E+01  0.68398513472E+01  0.12700000000E+01 0.  1.
          4   -1    0    0  501    0  0.00000000000E+00 -0.00000000000E+00 -0.57600540028E+03  0.57600680035E+03  0.12700000000E+01 0.  1.
         25    2    1    2    0    0  0.00000000000E+00  0.00000000000E+00 -0.56928448766E+03  0.58284665170E+03  0.12500156602E+03 0.  0.
    9000005    1    3    3    0    0  0.32948572030E+02  0.53025656786E+02 -0.29784620946E+03  0.30432005055E+03  0.10000000000E+01 0.  0.
    9000005    1    3    3    0    0 -0.32948572030E+02 -0.53025656786E+02 -0.27143827820E+03  0.27852660115E+03  0.10000000000E+01 0.  0.
<mgrwt>
<rscale>  0 0.12500157E+03</rscale>
<asrwt>0</asrwt>
<pdfrwt beam="2">  1        4 0.88625434E-01 0.12500157E+03</pdfrwt>
<pdfrwt beam="1">  1       -4 0.10432438E-02 0.12500157E+03</pdfrwt>
<totfact> 0.49966894E+03</totfact>
</mgrwt>
</event>
<event>
 5    1  0.3337119E-002  0.1250009E+03  0.7818608E-02  0.1235068E+00
         -4   -1    0    0    0  501 -0.00000000000E+00  0.00000000000E+00  0.13594815574E+03  0.13595408765E+03  0.12700000000E+01 0.  1.
          4   -1    0    0  501    0  0.00000000000E+00 -0.00000000000E+00 -0.28713219657E+02  0.28741292300E+02  0.12700000000E+01 0.  1.
         25    2    1    2    0    0  0.00000000000E+00  0.00000000000E+00  0.10723493608E+03  0.16469537995E+03  0.12500094664E+03 0.  0.
    9000005    1    3    3    0    0  0.39586363786E+02  0.26381234298E+02  0.22389325387E+00  0.47582558244E+02  0.10000000000E+01 0.  0.
    9000005    1    3    3    0    0 -0.39586363786E+02 -0.26381234298E+02  0.10701104283E+03  0.11711282171E+03  0.10000000000E+01 0.  0.
<mgrwt>
<rscale>  0 0.12500095E+03</rscale>
<asrwt>0</asrwt>
<pdfrwt beam="2">  1        4 0.44200342E-02 0.12500095E+03</pdfrwt>
<pdfrwt beam="1">  1       -4 0.20917716E-01 0.12500095E+03</pdfrwt>
<totfact> 0.96443062E+03</totfact>
</mgrwt>
</event>
<event>
 5    1  0.3337119E-002  0.1249954E+03  0.7818608E-02  0.1235076E+00
          4   -1    0    0  501    0  0.00000000000E+00  0.00000000000E+00  0.23237600381E+03  0.23237947424E+03  0.12700000000E+01 0. -1.
         -4   -1    0    0    0  501 -0.00000000000E+00 -0.00000000000E+00 -0.16781219868E+02  0.16829207951E+02  0.12700000000E+01 0. -1.
         25    2    1    2    0    0  0.00000000000E+00  0.00000000000E+00  0.21559478395E+03  0.24920868219E+03  0.12499542558E+03 0.  0.
    9000005    1    3    3    0    0  0.13263551288E+02  0.10985918306E+02 -0.11965835774E+02  0.20995080842E+02  0.10000000000E+01 0.  0.
    9000005    1    3    3    0    0 -0.13263551288E+02 -0.10985918306E+02  0.22756061972E+03  0.22821360135E+03  0.10000000000E+01 0.  0.
<mgrwt>
<rscale>  0 0.12499543E+03</rscale>
<asrwt>0</asrwt>
<pdfrwt beam="1">  1        4 0.35754114E-01 0.12499543E+03</pdfrwt>
<pdfrwt beam="2">  1       -4 0.25856844E-02 0.12499543E+03</pdfrwt>
<totfact> 0.82453133E+03</totfact>
</mgrwt>
</event>
<event>
 5    1  0.3337119E-002  0.1250012E+03  0.7818608E-02  0.1235067E+00
         -4   -1    0    0    0  501 -0.00000000000E+00  0.00000000000E+00  0.36646141321E+02  0.36668141127E+02  0.12700000000E+01 0.  1.
          4   -1    0    0  501    0  0.00000000000E+00 -0.00000000000E+00 -0.10653800646E+03  0.10654557579E+03  0.12700000000E+01 0.  1.
         25    2    1    2    0    0  0.00000000000E+00  0.00000000000E+00 -0.69891865136E+02  0.14321371691E+03  0.12500118360E+03 0.  0.
    9000005    1    3    3    0    0 -0.25367576044E+02 -0.51045369697E+02 -0.55976911567E+01  0.57284184799E+02  0.10000000000E+01 0.  0.
    9000005    1    3    3    0    0  0.25367576044E+02  0.51045369697E+02 -0.64294173979E+02  0.85929532115E+02  0.10000000000E+01 0.  0.
<mgrwt>
<rscale>  0 0.12500118E+03</rscale>
<asrwt>0</asrwt>
<pdfrwt beam="2">  1        4 0.16392737E-01 0.12500118E+03</pdfrwt>
<pdfrwt beam="1">  1       -4 0.56401425E-02 0.12500118E+03</pdfrwt>
<totfact> 0.10067140E+04</totfact>
</mgrwt>
</event>
<event>
 5    1  0.3337119E-002  0.1250015E+03  0.7818608E-02  0.1235067E+00
          4   -1    0    0  501    0  0.00000000000E+00  0.00000000000E+00  0.17862917577E+03  0.17863369037E+03  0.12700000000E+01 0. -1.
         -4   -1    0    0    0  501 -0.00000000000E+00 -0.00000000000E+00 -0.21845217702E+02  0.21882103108E+02  0.12700000000E+01 0. -1.
         25    2    1    2    0    0  0.00000000000E+00  0.00000000000E+00  0.15678395807E+03  0.20051579348E+03  0.12500149570E+03 0.  0.
    9000005    1    3    3    0    0  0.18025159023E+02 -0.54813764905E+02  0.39897140380E+02  0.70158655855E+02  0.10000000000E+01 0.  0.
    9000005    1    3    3    0    0 -0.18025159023E+02  0.54813764905E+02  0.11688681769E+03  0.13035713762E+03  0.10000000000E+01 0.  0.
<mgrwt>
<rscale>  0 0.12500150E+03</rscale>
<asrwt>0</asrwt>
<pdfrwt beam="1">  1        4 0.27484595E-01 0.12500150E+03</pdfrwt>
<pdfrwt beam="2">  1       -4 0.33639875E-02 0.12500150E+03</pdfrwt>
<totfact> 0.90045573E+03</totfact>
</mgrwt>
</event>
<event>
 5    1  0.3337119E-002  0.1250041E+03  0.7818608E-02  0.1235063E+00
          4   -1    0    0  501    0  0.00000000000E+00  0.00000000000E+00  0.50877688393E+02  0.50893536685E+02  0.12700000000E+01 0.  1.
         -4   -1    0    0    0  501 -0.00000000000E+00 -0.00000000000E+00 -0.76749265629E+02  0.76759772502E+02  0.12700000000E+01 0.  1.
         25    2    1    2    0    0  0.00000000000E+00  0.00000000000E+00 -0.25871577236E+02  0.12765330919E+03  0.12500411528E+03 0.  0.
    9000005    1    3    3    0    0  0.40157613784E+02 -0.43165778312E+02  0.82299908060E+01  0.59536972637E+02  0.10000000000E+01 0.  0.
    9000005    1    3    3    0    0 -0.40157613784E+02  0.43165778312E+02 -0.34101568042E+02  0.68116336550E+02  0.10000000000E+01 0.  0.
<mgrwt>
<rscale>  0 0.12500412E+03</rscale>
<asrwt>0</asrwt>
<pdfrwt beam="1">  1        4 0.78293641E-02 0.12500412E+03</pdfrwt>
<pdfrwt beam="2">  1       -4 0.11809607E-01 0.12500412E+03</pdfrwt>
<totfact> 0.10394016E+04</totfact>
</mgrwt>
</event>
<event>
 5    1  0.3337119E-002  0.1250027E+03  0.7818608E-02  0.1235065E+00
          4   -1    0    0  501    0  0.00000000000E+00  0.00000000000E+00  0.93853151066E+02  0.93861743352E+02  0.12700000000E+01 0. -1.
         -4   -1    0    0    0  501 -0.00000000000E+00 -0.00000000000E+00 -0.41602462398E+02  0.41621842554E+02  0.12700000000E+01 0. -1.
         25    2    1    2    0    0  0.00000000000E+00  0.00000000000E+00  0.52250688668E+02  0.13548358591E+03  0.12500267031E+03 0.  0.
    9000005    1    3    3    0    0 -0.48942816121E+02  0.37706989912E+02  0.15946392525E+02  0.63816171717E+02  0.10000000000E+01 0.  0.
    9000005    1    3    3    0    0  0.48942816121E+02 -0.37706989912E+02  0.36304296143E+02  0.71667414188E+02  0.10000000000E+01 0.  0.
<mgrwt>
<rscale>  0 0.12500267E+03</rscale>
<asrwt>0</asrwt>
<pdfrwt beam="1">  1        4 0.14441098E-01 0.12500267E+03</pdfrwt>
<pdfrwt beam="2">  1       -4 0.64025306E-02 0.12500267E+03</pdfrwt>
<totfact> 0.10227272E+04</totfact>
</mgrwt>
</event>
<event>
 5    1  0.3337119E-002  0.1249995E+03  0.7818608E-02  0.1235070E+00
         -4   -1    0    0    0  501 -0.00000000000E+00  0.00000000000E+00  0.42644221654E+02  0.42663128583E+02  0.12700000000E+01 0. -1.
          4   -1    0    0  501    0  0.00000000000E+00 -0.00000000000E+00 -0.91556643614E+02  0.91565451399E+02  0.12700000000E+01 0. -1.
         25    2    1    2    0    0  0.00000000000E+00  0.00000000000E+00 -0.48912421960E+02  0.13422857998E+03  0.12499954665E+03 0.  0.
    9000005    1    3    3    0    0 -0.15862878395E+02  0.60438396721E+02 -0.23501190277E+02  0.66766283809E+02  0.10000000000E+01 0.  0.
    9000005    1    3    3    0    0  0.15862878395E+02 -0.60438396721E+02 -0.25411231683E+02  0.67462296172E+02  0.10000000000E+01 0.  0.
<mgrwt>
<rscale>  0 0.12499955E+03</rscale>
<asrwt>0</asrwt>
<pdfrwt beam="2">  1        4 0.14087769E-01 0.12499955E+03</pdfrwt>
<pdfrwt beam="1">  1       -4 0.65627814E-02 0.12499955E+03</pdfrwt>
<totfact> 0.10254461E+04</totfact>
</mgrwt>
</event>
<event>
 5    1  0.3337119E-002  0.1249995E+03  0.7818608E-02  0.1235070E+00
         -4   -1    0    0    0  501 -0.00000000000E+00  0.00000000000E+00  0.55293461796E+02  0.55308044780E+02  0.12700000000E+01 0. -1.
          4   -1    0    0  501    0  0.00000000000E+00 -0.00000000000E+00 -0.70615607432E+02  0.70627026789E+02  0.12700000000E+01 0. -1.
         25    2    1    2    0    0  0.00000000000E+00  0.00000000000E+00 -0.15322145636E+02  0.12593507157E+03  0.12499949642E+03 0.  0.
    9000005    1    3    3    0    0 -0.22012283578E+01  0.23449034535E+02  0.50655805930E+02  0.55872294577E+02  0.10000000000E+01 0.  0.
    9000005    1    3    3    0    0  0.22012283578E+01 -0.23449034535E+02 -0.65977951566E+02  0.70062776992E+02  0.10000000000E+01 0.  0.
<mgrwt>
<rscale>  0 0.12499950E+03</rscale>
<asrwt>0</asrwt>
<pdfrwt beam="2">  1        4 0.10865940E-01 0.12499950E+03</pdfrwt>
<pdfrwt beam="1">  1       -4 0.85086866E-02 0.12499950E+03</pdfrwt>
<totfact> 0.10432499E+04</totfact>
</mgrwt>
</event>
<event>
 5    1  0.3337119E-002  0.1249935E+03  0.7818608E-02  0.1235079E+00
          4   -1    0    0  501    0  0.00000000000E+00  0.00000000000E+00  0.11267978463E+03  0.11268694141E+03  0.12700000000E+01 0.  1.
         -4   -1    0    0    0  501 -0.00000000000E+00 -0.00000000000E+00 -0.34643338226E+02  0.34666609056E+02  0.12700000000E+01 0.  1.
         25    2    1    2    0    0  0.00000000000E+00  0.00000000000E+00  0.78036446408E+02  0.14735355047E+03  0.12499352730E+03 0.  0.
    9000005    1    3    3    0    0  0.19345253216E+02 -0.53387721451E+02  0.82684598035E+01  0.57392116629E+02  0.10000000000E+01 0.  0.
    9000005    1    3    3    0    0 -0.19345253216E+02  0.53387721451E+02  0.69767986604E+02  0.89961433840E+02  0.10000000000E+01 0.  0.
<mgrwt>
<rscale>  0 0.12499353E+03</rscale>
<asrwt>0</asrwt>
<pdfrwt beam="1">  1        4 0.17337692E-01 0.12499353E+03</pdfrwt>
<pdfrwt beam="2">  1       -4 0.53320849E-02 0.12499353E+03</pdfrwt>
<totfact> 0.99848416E+03</totfact>
</mgrwt>
</event>
<event>
 5    1  0.3337119E-002  0.1250005E+03  0.7818608E-02  0.1235069E+00
          4   -1    0    0  501    0  0.00000000000E+00  0.00000000000E+00  0.10514458298E+01  0.16487687324E+01  0.12700000000E+01 0. -1.
         -4   -1    0    0    0  501 -0.00000000000E+00 -0.00000000000E+00 -0.28927136670E+04  0.28927139458E+04  0.12700000000E+01 0. -1.
         25    2    1    2    0    0  0.00000000000E+00  0.00000000000E+00 -0.28916622211E+04  0.28943627145E+04  0.12500048742E+03 0.  0.
    9000005    1    3    3    0    0 -0.10135778593E+02  0.61503418157E+02 -0.15490610953E+04  0.15503150265E+04  0.10000000000E+01 0.  0.
    9000005    1    3    3    0    0  0.10135778593E+02 -0.61503418157E+02 -0.13426011258E+04  0.13440476880E+04  0.10000000000E+01 0.  0.
<mgrwt>
<rscale>  0 0.12500049E+03</rscale>
<asrwt>0</asrwt>
<pdfrwt beam="1">  1        4 0.20773257E-03 0.12500049E+03</pdfrwt>
<pdfrwt beam="2">  1       -4 0.44507388E+00 0.12500049E+03</pdfrwt>
<totfact> 0.22574558E+02</totfact>
</mgrwt>
</event>
<event>
 5    1  0.3337119E-002  0.1250013E+03  0.7818608E-02  0.1235067E+00
         -4   -1    0    0    0  501 -0.00000000000E+00  0.00000000000E+00  0.83116595414E+03  0.83116692441E+03  0.12700000000E+01 0.  1.
          4   -1    0    0  501    0  0.00000000000E+00 -0.00000000000E+00 -0.46130370763E+01  0.47846641541E+01  0.12700000000E+01 0.  1.
         25    2    1    2    0    0  0.00000000000E+00  0.00000000000E+00  0.82655291707E+03  0.83595158856E+03  0.12500133481E+03 0.  0.
    9000005    1    3    3    0    0  0.19797290465E+01 -0.56882578626E+01 -0.27003196215E+01  0.66758767715E+01  0.10000000000E+01 0.  0.
    9000005    1    3    3    0    0 -0.19797290465E+01  0.56882578626E+01  0.82925323669E+03  0.82927571179E+03  0.10000000000E+01 0.  0.
<mgrwt>
<rscale>  0 0.12500133E+03</rscale>
<asrwt>0</asrwt>
<pdfrwt beam="2">  1        4 0.72297441E-03 0.12500133E+03</pdfrwt>
<pdfrwt beam="1">  1       -4 0.12788502E+00 0.12500133E+03</pdfrwt>
<totfact> 0.36708108E+03</totfact>
</mgrwt>
</event>
<event>
 5    1  0.3337119E-002  0.1249960E+03  0.7818608E-02  0.1235076E+00
          4   -1    0    0  501    0  0.00000000000E+00  0.00000000000E+00  0.16334868857E+03  0.16335362548E+03  0.12700000000E+01 0.  1.
         -4   -1    0    0    0  501 -0.00000000000E+00 -0.00000000000E+00 -0.23889865983E+02  0.23923599159E+02  0.12700000000E+01 0.  1.
         25    2    1    2    0    0  0.00000000000E+00  0.00000000000E+00  0.13945882258E+03  0.18727722464E+03  0.12499598262E+03 0.  0.
    9000005    1    3    3    0    0 -0.48840998292E+02 -0.22359092653E+02  0.11757143328E+03  0.12926489880E+03  0.10000000000E+01 0.  0.
    9000005    1    3    3    0    0  0.48840998292E+02  0.22359092653E+02  0.21887389306E+02  0.58012325837E+02  0.10000000000E+01 0.  0.
<mgrwt>
<rscale>  0 0.12499598E+03</rscale>
<asrwt>0</asrwt>
<pdfrwt beam="1">  1        4 0.25133542E-01 0.12499598E+03</pdfrwt>
<pdfrwt beam="2">  1       -4 0.36783387E-02 0.12499598E+03</pdfrwt>
<totfact> 0.92331549E+03</totfact>
</mgrwt>
</event>
<event>
 5    1  0.3337119E-002  0.1250014E+03  0.7818608E-02  0.1235067E+00
          4   -1    0    0  501    0  0.00000000000E+00  0.00000000000E+00  0.15398731733E+02  0.15451014174E+02  0.12700000000E+01 0.  1.
         -4   -1    0    0    0  501 -0.00000000000E+00 -0.00000000000E+00 -0.25319531244E+03  0.25319849751E+03  0.12700000000E+01 0.  1.
         25    2    1    2    0    0  0.00000000000E+00  0.00000000000E+00 -0.23779658070E+03  0.26864951168E+03  0.12500138532E+03 0.  0.
    9000005    1    3    3    0    0 -0.33069210867E+02  0.32046883264E+02 -0.20969315408E+03  0.21469232474E+03  0.10000000000E+01 0.  0.
    9000005    1    3    3    0    0  0.33069210867E+02 -0.32046883264E+02 -0.28103426618E+02  0.53957186936E+02  0.10000000000E+01 0.  0.
<mgrwt>
<rscale>  0 0.12500139E+03</rscale>
<asrwt>0</asrwt>
<pdfrwt beam="1">  1        4 0.23733026E-02 0.12500139E+03</pdfrwt>
<pdfrwt beam="2">  1       -4 0.38957389E-01 0.12500139E+03</pdfrwt>
<totfact> 0.79704887E+03</totfact>
</mgrwt>
</event>
<event>
 5    1  0.3337119E-002  0.1249983E+03  0.7818608E-02  0.1235072E+00
          4   -1    0    0  501    0  0.00000000000E+00  0.00000000000E+00  0.63217835640E+02  0.63230591038E+02  0.12700000000E+01 0.  1.
         -4   -1    0    0    0  501 -0.00000000000E+00 -0.00000000000E+00 -0.61763093168E+02  0.61776148938E+02  0.12700000000E+01 0.  1.
         25    2    1    2    0    0  0.00000000000E+00  0.00000000000E+00  0.14547424724E+01  0.12500673998E+03  0.12499827504E+03 0.  0.
    9000005    1    3    3    0    0 -0.25770774374E+02 -0.53597562541E+02 -0.18465350164E+02  0.62280018295E+02  0.10000000000E+01 0.  0.
    9000005    1    3    3    0    0  0.25770774374E+02  0.53597562541E+02  0.19920092636E+02  0.62726721681E+02  0.10000000000E+01 0.  0.
<mgrwt>
<rscale>  0 0.12499828E+03</rscale>
<asrwt>0</asrwt>
<pdfrwt beam="1">  1        4 0.97278063E-02 0.12499828E+03</pdfrwt>
<pdfrwt beam="2">  1       -4 0.95039998E-02 0.12499828E+03</pdfrwt>
<totfact> 0.10453124E+04</totfact>
</mgrwt>
</event>
<event>
 5    1  0.3337119E-002  0.1249980E+03  0.7818608E-02  0.1235072E+00
          4   -1    0    0  501    0  0.00000000000E+00  0.00000000000E+00  0.35314791099E+02  0.35337619761E+02  0.12700000000E+01 0.  1.
         -4   -1    0    0    0  501 -0.00000000000E+00 -0.00000000000E+00 -0.11054648929E+03  0.11055378417E+03  0.12700000000E+01 0.  1.
         25    2    1    2    0    0  0.00000000000E+00  0.00000000000E+00 -0.75231698190E+02  0.14589140393E+03  0.12499797330E+03 0.  0.
    9000005    1    3    3    0    0  0.34223964148E+02  0.52046738931E+02 -0.31782365734E+02  0.69937554482E+02  0.10000000000E+01 0.  0.
    9000005    1    3    3    0    0 -0.34223964148E+02 -0.52046738931E+02 -0.43449332456E+02  0.75953849449E+02  0.10000000000E+01 0.  0.
<mgrwt>
<rscale>  0 0.12499797E+03</rscale>
<asrwt>0</asrwt>
<pdfrwt beam="1">  1        4 0.54353620E-02 0.12499797E+03</pdfrwt>
<pdfrwt beam="2">  1       -4 0.17009469E-01 0.12499797E+03</pdfrwt>
<totfact> 0.10013365E+04</totfact>
</mgrwt>
</event>
<event>
 4    1  0.3337119E-002  0.1252780E+03  0.7818608E-02  0.1234635E+00
         -4   -1    0    0    0  501 -0.00000000000E+00  0.00000000000E+00  0.66318494851E+02  0.66330653994E+02  0.12700000000E+01 0.  1.
          4   -1    0    0  501    0  0.00000000000E+00 -0.00000000000E+00 -0.59139242753E+02  0.59152877643E+02  0.12700000000E+01 0.  1.
    9000005    1    1    2    0    0  0.14026706583E+02  0.61039822924E+02  0.37777711972E+01  0.62752530111E+02  0.10000000000E+01 0.  0.
    9000005    1    1    2    0    0 -0.14026706583E+02 -0.61039822924E+02  0.34014809005E+01  0.62731001526E+02  0.10000000000E+01 0.  0.
<mgrwt>
<rscale>  0 0.12527799E+03</rscale>
<asrwt>0</asrwt>
<pdfrwt beam="2">  1        4 0.91003291E-02 0.12527799E+03</pdfrwt>
<pdfrwt beam="1">  1       -4 0.10204830E-01 0.12527799E+03</pdfrwt>
<totfact> 0.10377037E+04</totfact>
</mgrwt>
</event>
<event>
 5    1  0.3337119E-002  0.1249949E+03  0.7818608E-02  0.1235077E+00
         -4   -1    0    0    0  501 -0.00000000000E+00  0.00000000000E+00  0.10579142182E+02  0.10655099685E+02  0.12700000000E+01 0. -1.
          4   -1    0    0  501    0  0.00000000000E+00 -0.00000000000E+00 -0.36781294893E+03  0.36781514148E+03  0.12700000000E+01 0. -1.
         25    2    1    2    0    0  0.00000000000E+00  0.00000000000E+00 -0.35723380675E+03  0.37847024116E+03  0.12499492295E+03 0.  0.
    9000005    1    3    3    0    0  0.17675977900E+02  0.13257803387E+02 -0.35560508143E+03  0.35629227256E+03  0.10000000000E+01 0.  0.
    9000005    1    3    3    0    0 -0.17675977900E+02 -0.13257803387E+02 -0.16287253203E+01  0.22177968607E+02  0.10000000000E+01 0.  0.
<mgrwt>
<rscale>  0 0.12499492E+03</rscale>
<asrwt>0</asrwt>
<pdfrwt beam="2">  1        4 0.56592609E-01 0.12499492E+03</pdfrwt>
<pdfrwt beam="1">  1       -4 0.16335722E-02 0.12499492E+03</pdfrwt>
<totfact> 0.66709492E+03</totfact>
</mgrwt>
</event>
<event>
 5    1  0.3337119E-002  0.1249975E+03  0.7818608E-02  0.1235073E+00
          4   -1    0    0  501    0  0.00000000000E+00  0.00000000000E+00  0.11014224584E+03  0.11014956749E+03  0.12700000000E+01 0. -1.
         -4   -1    0    0    0  501 -0.00000000000E+00 -0.00000000000E+00 -0.35444199891E+02  0.35466945257E+02  0.12700000000E+01 0. -1.
         25    2    1    2    0    0  0.00000000000E+00  0.00000000000E+00  0.74698045946E+02  0.14561651275E+03  0.12499748284E+03 0.  0.
    9000005    1    3    3    0    0 -0.51534010809E+01  0.15848097519E+01 -0.35178452424E+02  0.35603267822E+02  0.10000000000E+01 0.  0.
    9000005    1    3    3    0    0  0.51534010809E+01 -0.15848097519E+01  0.10987649837E+03  0.11001324492E+03  0.10000000000E+01 0.  0.
<mgrwt>
<rscale>  0 0.12499748E+03</rscale>
<asrwt>0</asrwt>
<pdfrwt beam="1">  1        4 0.16947274E-01 0.12499748E+03</pdfrwt>
<pdfrwt beam="2">  1       -4 0.54552666E-02 0.12499748E+03</pdfrwt>
<totfact> 0.10019045E+04</totfact>
</mgrwt>
</event>
<event>
 5    1  0.3337119E-002  0.1249884E+03  0.7818608E-02  0.1235087E+00
         -4   -1    0    0    0  501 -0.00000000000E+00  0.00000000000E+00  0.64104424402E+01  0.65350342218E+01  0.12700000000E+01 0.  1.
          4   -1    0    0  501    0  0.00000000000E+00 -0.00000000000E+00 -0.60325535402E+03  0.60325669085E+03  0.12700000000E+01 0.  1.
         25    2    1    2    0    0  0.00000000000E+00  0.00000000000E+00 -0.59684491158E+03  0.60979172508E+03  0.12498839741E+03 0.  0.
    9000005    1    3    3    0    0  0.36977577384E+02  0.12012245923E+02 -0.53707889536E+03  0.53848525990E+03  0.10000000000E+01 0.  0.
    9000005    1    3    3    0    0 -0.36977577384E+02 -0.12012245923E+02 -0.59766016220E+02  0.71306465178E+02  0.10000000000E+01 0.  0.
<mgrwt>
<rscale>  0 0.12498840E+03</rscale>
<asrwt>0</asrwt>
<pdfrwt beam="2">  1        4 0.92818159E-01 0.12498840E+03</pdfrwt>
<pdfrwt beam="1">  1       -4 0.99590920E-03 0.12498840E+03</pdfrwt>
<totfact> 0.48267598E+03</totfact>
</mgrwt>
</event>
<event>
 5    1  0.3337119E-002  0.1250346E+03  0.7818608E-02  0.1235015E+00
         -4   -1    0    0    0  501 -0.00000000000E+00  0.00000000000E+00  0.44644386863E+03  0.44644567501E+03  0.12700000000E+01 0.  1.
          4   -1    0    0  501    0  0.00000000000E+00 -0.00000000000E+00 -0.87066568135E+01  0.87987938303E+01  0.12700000000E+01 0.  1.
         25    2    1    2    0    0  0.00000000000E+00  0.00000000000E+00  0.43773721181E+03  0.45524446884E+03  0.12503463441E+03 0.  0.
    9000005    1    3    3    0    0  0.57437460555E+02 -0.24206893971E+02  0.20164444076E+03  0.21106045599E+03  0.10000000000E+01 0.  0.
    9000005    1    3    3    0    0 -0.57437460555E+02  0.24206893971E+02  0.23609277105E+03  0.24418401285E+03  0.10000000000E+01 0.  0.
<mgrwt>
<rscale>  0 0.12503463E+03</rscale>
<asrwt>0</asrwt>
<pdfrwt beam="2">  1        4 0.13467120E-02 0.12503463E+03</pdfrwt>
<pdfrwt beam="1">  1       -4 0.68690901E-01 0.12503463E+03</pdfrwt>
<totfact> 0.59466772E+03</totfact>
</mgrwt>
</event>
<event>
 5    1  0.3337119E-002  0.1250010E+03  0.7818608E-02  0.1235068E+00
         -4   -1    0    0    0  501 -0.00000000000E+00  0.00000000000E+00  0.88369684352E+01  0.89277607005E+01  0.12700000000E+01 0.  1.
          4   -1    0    0  501    0  0.00000000000E+00 -0.00000000000E+00 -0.43969153355E+03  0.43969336767E+03  0.12700000000E+01 0.  1.
         25    2    1    2    0    0  0.00000000000E+00  0.00000000000E+00 -0.43085456512E+03  0.44862112838E+03  0.12500104217E+03 0.  0.
    9000005    1    3    3    0    0  0.18744147568E+02 -0.46827126116E+01 -0.21330272438E+01  0.19463316025E+02  0.10000000000E+01 0.  0.
    9000005    1    3    3    0    0 -0.18744147568E+02  0.46827126116E+01 -0.42872153787E+03  0.42915781235E+03  0.10000000000E+01 0.  0.
<mgrwt>
<rscale>  0 0.12500104E+03</rscale>
<asrwt>0</asrwt>
<pdfrwt beam="2">  1        4 0.67651959E-01 0.12500104E+03</pdfrwt>
<pdfrwt beam="1">  1       -4 0.13666591E-02 0.12500104E+03</pdfrwt>
<totfact> 0.60082061E+03</totfact>
</mgrwt>
</event>
<event>
 5    1  0.3337119E-002  0.1250241E+03  0.7818608E-02  0.1235032E+00
          4   -1    0    0  501    0  0.00000000000E+00  0.00000000000E+00  0.36684932601E+01  0.38821054596E+01  0.12700000000E+01 0. -1.
         -4   -1    0    0    0  501 -0.00000000000E+00 -0.00000000000E+00 -0.10348716495E+04  0.10348724287E+04  0.12700000000E+01 0. -1.
         25    2    1    2    0    0  0.00000000000E+00  0.00000000000E+00 -0.10312031562E+04  0.10387545342E+04  0.12502412949E+03 0.  0.
    9000005    1    3    3    0    0 -0.39059872995E+02 -0.90653696389E+01 -0.11723813580E+03  0.12390978610E+03  0.10000000000E+01 0.  0.
    9000005    1    3    3    0    0  0.39059872995E+02  0.90653696389E+01 -0.91396502041E+03  0.91484474811E+03  0.10000000000E+01 0.  0.
<mgrwt>
<rscale>  0 0.12502413E+03</rscale>
<asrwt>0</asrwt>
<pdfrwt beam="1">  1        4 0.58087606E-03 0.12502413E+03</pdfrwt>
<pdfrwt beam="2">  1       -4 0.15922729E+00 0.12502413E+03</pdfrwt>
<totfact> 0.29333114E+03</totfact>
</mgrwt>
</event>
<event>
 5    1  0.3337119E-002  0.1250015E+03  0.7818608E-02  0.1235067E+00
         -4   -1    0    0    0  501 -0.00000000000E+00  0.00000000000E+00  0.61180142239E+01  0.62484396487E+01  0.12700000000E+01 0. -1.
          4   -1    0    0  501    0  0.00000000000E+00 -0.00000000000E+00 -0.63163307379E+03  0.63163435056E+03  0.12700000000E+01 0. -1.
         25    2    1    2    0    0  0.00000000000E+00  0.00000000000E+00 -0.62551505957E+03  0.63788279021E+03  0.12500145719E+03 0.  0.
    9000005    1    3    3    0    0  0.19680546126E+02  0.31946820350E+02 -0.56777587014E+03  0.56901525634E+03  0.10000000000E+01 0.  0.
    9000005    1    3    3    0    0 -0.19680546126E+02 -0.31946820350E+02 -0.57739189425E+02  0.68867533873E+02  0.10000000000E+01 0.  0.
<mgrwt>
<rscale>  0 0.12500146E+03</rscale>
<asrwt>0</asrwt>
<pdfrwt beam="2">  1        4 0.97184399E-01 0.12500146E+03</pdfrwt>
<pdfrwt beam="1">  1       -4 0.95136439E-03 0.12500146E+03</pdfrwt>
<totfact> 0.46558951E+03</totfact>
</mgrwt>
</event>
<event>
 5    1  0.3337119E-002  0.1250008E+03  0.7818608E-02  0.1235068E+00
         -4   -1    0    0    0  501 -0.00000000000E+00  0.00000000000E+00  0.31739600265E+03  0.31739854347E+03  0.12700000000E+01 0. -1.
          4   -1    0    0  501    0  0.00000000000E+00 -0.00000000000E+00 -0.12271977126E+02  0.12337516872E+02  0.12700000000E+01 0. -1.
         25    2    1    2    0    0  0.00000000000E+00  0.00000000000E+00  0.30512402552E+03  0.32973606034E+03  0.12500079415E+03 0.  0.
    9000005    1    3    3    0    0  0.39802790416E+02 -0.46928917494E+02  0.18130322164E+03  0.19146394856E+03  0.10000000000E+01 0.  0.
    9000005    1    3    3    0    0 -0.39802790416E+02  0.46928917494E+02  0.12382080388E+03  0.13827211178E+03  0.10000000000E+01 0.  0.
<mgrwt>
<rscale>  0 0.12500079E+03</rscale>
<asrwt>0</asrwt>
<pdfrwt beam="2">  1        4 0.18932335E-02 0.12500079E+03</pdfrwt>
<pdfrwt beam="1">  1       -4 0.48835390E-01 0.12500079E+03</pdfrwt>
<totfact> 0.72011652E+03</totfact>
</mgrwt>
</event>
<event>
 5    1  0.3337119E-002  0.1250002E+03  0.7818608E-02  0.1235069E+00
         -4   -1    0    0    0  501 -0.00000000000E+00  0.00000000000E+00  0.16640520949E+02  0.16688913610E+02  0.12700000000E+01 0.  1.
          4   -1    0    0  501    0  0.00000000000E+00 -0.00000000000E+00 -0.23435305707E+03  0.23435649822E+03  0.12700000000E+01 0.  1.
         25    2    1    2    0    0  0.00000000000E+00  0.00000000000E+00 -0.21771253612E+03  0.25104541183E+03  0.12500020167E+03 0.  0.
    9000005    1    3    3    0    0  0.41744956480E+02  0.30798470583E+02 -0.38877803597E+02  0.64835721592E+02  0.10000000000E+01 0.  0.
    9000005    1    3    3    0    0 -0.41744956480E+02 -0.30798470583E+02 -0.17883473252E+03  0.18620969024E+03  0.10000000000E+01 0.  0.
<mgrwt>
<rscale>  0 0.12500020E+03</rscale>
<asrwt>0</asrwt>
<pdfrwt beam="2">  1        4 0.36058301E-01 0.12500020E+03</pdfrwt>
<pdfrwt beam="1">  1       -4 0.25640675E-02 0.12500020E+03</pdfrwt>
<totfact> 0.82179000E+03</totfact>
</mgrwt>
</event>
<event>
 5    1  0.3337119E-002  0.1249962E+03  0.7818608E-02  0.1235075E+00
         -4   -1    0    0    0  501 -0.00000000000E+00  0.00000000000E+00  0.12383863320E+03  0.12384514513E+03  0.12700000000E+01 0.  1.
          4   -1    0    0  501    0  0.00000000000E+00 -0.00000000000E+00 -0.31521038161E+02  0.31546612286E+02  0.12700000000E+01 0.  1.
         25    2    1    2    0    0  0.00000000000E+00  0.00000000000E+00  0.92317595037E+02  0.15539175742E+03  0.12499623962E+03 0.  0.
    9000005    1    3    3    0    0  0.15181029370E+02 -0.28412023465E+02  0.11272721346E+03  0.11724389700E+03  0.10000000000E+01 0.  0.
    9000005    1    3    3    0    0 -0.15181029370E+02  0.28412023465E+02 -0.20409618421E+02  0.38147860415E+02  0.10000000000E+01 0.  0.
<mgrwt>
<rscale>  0 0.12499624E+03</rscale>
<asrwt>0</asrwt>
<pdfrwt beam="2">  1        4 0.48518586E-02 0.12499624E+03</pdfrwt>
<pdfrwt beam="1">  1       -4 0.19054566E-01 0.12499624E+03</pdfrwt>
<totfact> 0.98246955E+03</totfact>
</mgrwt>
</event>
<event>
 5    1  0.3337119E-002  0.1249934E+03  0.7818608E-02  0.1235080E+00
          4   -1    0    0  501    0  0.00000000000E+00  0.00000000000E+00  0.39062922853E+02  0.39083562297E+02  0.12700000000E+01 0. -1.
         -4   -1    0    0    0  501 -0.00000000000E+00 -0.00000000000E+00 -0.99937294264E+02  0.99945363498E+02  0.12700000000E+01 0. -1.
         25    2    1    2    0    0  0.00000000000E+00  0.00000000000E+00 -0.60874371411E+02  0.13902892579E+03  0.12499341228E+03 0.  0.
    9000005    1    3    3    0    0  0.14146425154E+02 -0.59598463725E+02 -0.16690610434E+02  0.63495469915E+02  0.10000000000E+01 0.  0.
    9000005    1    3    3    0    0 -0.14146425154E+02  0.59598463725E+02 -0.44183760977E+02  0.75533455880E+02  0.10000000000E+01 0.  0.
<mgrwt>
<rscale>  0 0.12499341E+03</rscale>
<asrwt>0</asrwt>
<pdfrwt beam="1">  1        4 0.60118888E-02 0.12499341E+03</pdfrwt>
<pdfrwt beam="2">  1       -4 0.15377177E-01 0.12499341E+03</pdfrwt>
<totfact> 0.10155259E+04</totfact>
</mgrwt>
</event>
<event>
 5    1  0.3337119E-002  0.1250003E+03  0.7818608E-02  0.1235069E+00
          4   -1    0    0  501    0  0.00000000000E+00  0.00000000000E+00  0.14071022555E+03  0.14071595671E+03  0.12700000000E+01 0.  1.
         -4   -1    0    0    0  501 -0.00000000000E+00 -0.00000000000E+00 -0.27740243894E+02  0.27769300158E+02  0.12700000000E+01 0.  1.
         25    2    1    2    0    0  0.00000000000E+00  0.00000000000E+00  0.11296998165E+03  0.16848525687E+03  0.12500026011E+03 0.  0.
    9000005    1    3    3    0    0  0.44710636768E+02 -0.13366569159E+02  0.46183577540E+00  0.46678897840E+02  0.10000000000E+01 0.  0.
    9000005    1    3    3    0    0 -0.44710636768E+02  0.13366569159E+02  0.11250814588E+03  0.12180635903E+03  0.10000000000E+01 0.  0.
<mgrwt>
<rscale>  0 0.12500026E+03</rscale>
<asrwt>0</asrwt>
<pdfrwt beam="1">  1        4 0.21650404E-01 0.12500026E+03</pdfrwt>
<pdfrwt beam="2">  1       -4 0.42704057E-02 0.12500026E+03</pdfrwt>
<totfact> 0.95730821E+03</totfact>
</mgrwt>
</event>
<event>
 5    1  0.3337119E-002  0.1250051E+03  0.7818608E-02  0.1235061E+00
          4   -1    0    0  501    0  0.00000000000E+00  0.00000000000E+00  0.44684632587E+01  0.46454347369E+01  0.12700000000E+01 0. -1.
         -4   -1    0    0    0  501 -0.00000000000E+00 -0.00000000000E+00 -0.85709947470E+03  0.85710041561E+03  0.12700000000E+01 0. -1.
         25    2    1    2    0    0  0.00000000000E+00  0.00000000000E+00 -0.85263101144E+03  0.86174585034E+03  0.12500507554E+03 0.  0.
    9000005    1    3    3    0    0  0.54887533664E+02  0.28012774239E+02 -0.35460447484E+03  0.35992039460E+03  0.10000000000E+01 0.  0.
    9000005    1    3    3    0    0 -0.54887533664E+02 -0.28012774239E+02 -0.49802653660E+03  0.50182545574E+03  0.10000000000E+01 0.  0.
<mgrwt>
<rscale>  0 0.12500508E+03</rscale>
<asrwt>0</asrwt>
<pdfrwt beam="1">  1        4 0.70114214E-03 0.12500508E+03</pdfrwt>
<pdfrwt beam="2">  1       -4 0.13187501E+00 0.12500508E+03</pdfrwt>
<totfact> 0.35647518E+03</totfact>
</mgrwt>
</event>
<event>
 5    1  0.3337119E-002  0.1249982E+03  0.7818608E-02  0.1235072E+00
         -4   -1    0    0    0  501 -0.00000000000E+00  0.00000000000E+00  0.32503187127E+01  0.34896234373E+01  0.12700000000E+01 0. -1.
          4   -1    0    0  501    0  0.00000000000E+00 -0.00000000000E+00 -0.11588612168E+04  0.11588619127E+04  0.12700000000E+01 0. -1.
         25    2    1    2    0    0  0.00000000000E+00  0.00000000000E+00 -0.11556108981E+04  0.11623515361E+04  0.12499818310E+03 0.  0.
    9000005    1    3    3    0    0 -0.97861073868E+01 -0.53174071774E+02 -0.86918862221E+03  0.87086916973E+03  0.10000000000E+01 0.  0.
    9000005    1    3    3    0    0  0.97861073868E+01  0.53174071774E+02 -0.28642227588E+03  0.29148236641E+03  0.10000000000E+01 0.  0.
<mgrwt>
<rscale>  0 0.12499818E+03</rscale>
<asrwt>0</asrwt>
<pdfrwt beam="2">  1        4 0.17830448E+00 0.12499818E+03</pdfrwt>
<pdfrwt beam="1">  1       -4 0.51851154E-03 0.12499818E+03</pdfrwt>
<totfact> 0.25721075E+03</totfact>
</mgrwt>
</event>
<event>
 5    1  0.3337119E-002  0.1249971E+03  0.7818608E-02  0.1235074E+00
          4   -1    0    0  501    0  0.00000000000E+00  0.00000000000E+00  0.11866442077E+02  0.11934209130E+02  0.12700000000E+01 0.  1.
         -4   -1    0    0    0  501 -0.00000000000E+00 -0.00000000000E+00 -0.32816314215E+03  0.32816559961E+03  0.12700000000E+01 0.  1.
         25    2    1    2    0    0  0.00000000000E+00  0.00000000000E+00 -0.31629670007E+03  0.34009980874E+03  0.12499710967E+03 0.  0.
    9000005    1    3    3    0    0  0.36275334291E+02 -0.24185564198E+02 -0.36339182436E+02  0.56765989586E+02  0.10000000000E+01 0.  0.
    9000005    1    3    3    0    0 -0.36275334291E+02  0.24185564198E+02 -0.27995751764E+03  0.28333381915E+03  0.10000000000E+01 0.  0.
<mgrwt>
<rscale>  0 0.12499711E+03</rscale>
<asrwt>0</asrwt>
<pdfrwt beam="1">  1        4 0.18310086E-02 0.12499711E+03</pdfrwt>
<pdfrwt beam="2">  1       -4 0.50492032E-01 0.12499711E+03</pdfrwt>
<totfact> 0.70832144E+03</totfact>
</mgrwt>
</event>
<event>
 5    1  0.3337119E-002  0.1250004E+03  0.7818608E-02  0.1235069E+00
          4   -1    0    0  501    0  0.00000000000E+00  0.00000000000E+00  0.84158425662E+02  0.84168007639E+02  0.12700000000E+01 0.  1.
         -4   -1    0    0    0  501 -0.00000000000E+00 -0.00000000000E+00 -0.46394791317E+02  0.46412170401E+02  0.12700000000E+01 0.  1.
         25    2    1    2    0    0  0.00000000000E+00  0.00000000000E+00  0.37763634345E+02  0.13058017804E+03  0.12500036327E+03 0.  0.
    9000005    1    3    3    0    0  0.19041823291E+02 -0.57424399942E+02  0.35236996907E+02  0.70019987818E+02  0.10000000000E+01 0.  0.
    9000005    1    3    3    0    0 -0.19041823291E+02  0.57424399942E+02  0.25266374380E+01  0.60560190222E+02  0.10000000000E+01 0.  0.
<mgrwt>
<rscale>  0 0.12500036E+03</rscale>
<asrwt>0</asrwt>
<pdfrwt beam="1">  1        4 0.12949524E-01 0.12500036E+03</pdfrwt>
<pdfrwt beam="2">  1       -4 0.71397342E-02 0.12500036E+03</pdfrwt>
<totfact> 0.10332013E+04</totfact>
</mgrwt>
</event>
<event>
 5    1  0.3337119E-002  0.1250040E+03  0.7818608E-02  0.1235063E+00
         -4   -1    0    0    0  501 -0.00000000000E+00  0.00000000000E+00  0.20545963227E+03  0.20546355733E+03  0.12700000000E+01 0. -1.
          4   -1    0    0  501    0  0.00000000000E+00 -0.00000000000E+00 -0.18988156716E+02  0.19030580535E+02  0.12700000000E+01 0. -1.
         25    2    1    2    0    0  0.00000000000E+00  0.00000000000E+00  0.18647147555E+03  0.22449413787E+03  0.12500402690E+03 0.  0.
    9000005    1    3    3    0    0 -0.30501669991E+02 -0.49749263775E+02  0.13339962377E+03  0.14560838142E+03  0.10000000000E+01 0.  0.
    9000005    1    3    3    0    0  0.30501669991E+02  0.49749263775E+02  0.53071851784E+02  0.78885756447E+02  0.10000000000E+01 0.  0.
<mgrwt>
<rscale>  0 0.12500403E+03</rscale>
<asrwt>0</asrwt>
<pdfrwt beam="2">  1        4 0.29248200E-02 0.12500403E+03</pdfrwt>
<pdfrwt beam="1">  1       -4 0.31612741E-01 0.12500403E+03</pdfrwt>
<totfact> 0.86154420E+03</totfact>
</mgrwt>
</event>
<event>
 5    1  0.3337119E-002  0.1249991E+03  0.7818608E-02  0.1235071E+00
         -4   -1    0    0    0  501 -0.00000000000E+00  0.00000000000E+00  0.23328253984E+03  0.23328599678E+03  0.12700000000E+01 0. -1.
          4   -1    0    0  501    0  0.00000000000E+00 -0.00000000000E+00 -0.16716805595E+02  0.16764978058E+02  0.12700000000E+01 0. -1.
         25    2    1    2    0    0  0.00000000000E+00  0.00000000000E+00  0.21656573425E+03  0.25005097484E+03  0.12499909107E+03 0.  0.
    9000005    1    3    3    0    0  0.36370105193E+02  0.19092934430E+02  0.14074474734E+02  0.43432885420E+02  0.10000000000E+01 0.  0.
    9000005    1    3    3    0    0 -0.36370105193E+02 -0.19092934430E+02  0.20249125951E+03  0.20661808942E+03  0.10000000000E+01 0.  0.
<mgrwt>
<rscale>  0 0.12499909E+03</rscale>
<asrwt>0</asrwt>
<pdfrwt beam="2">  1        4 0.25757877E-02 0.12499909E+03</pdfrwt>
<pdfrwt beam="1">  1       -4 0.35893593E-01 0.12499909E+03</pdfrwt>
<totfact> 0.82324527E+03</totfact>
</mgrwt>
</event>
<event>
 5    1  0.3337119E-002  0.1250017E+03  0.7818608E-02  0.1235067E+00
         -4   -1    0    0    0  501 -0.00000000000E+00  0.00000000000E+00  0.12381937243E+03  0.12382588537E+03  0.12700000000E+01 0.  1.
          4   -1    0    0  501    0  0.00000000000E+00 -0.00000000000E+00 -0.31528692276E+02  0.31554260197E+02  0.12700000000E+01 0.  1.
         25    2    1    2    0    0  0.00000000000E+00  0.00000000000E+00  0.92290680152E+02  0.15538014557E+03  0.12500167997E+03 0.  0.
    9000005    1    3    3    0    0 -0.59784334605E+02  0.83146299216E+01  0.66267570503E+02  0.89642013785E+02  0.10000000000E+01 0.  0.
    9000005    1    3    3    0    0  0.59784334605E+02 -0.83146299216E+01  0.26023109649E+02  0.65738131786E+02  0.10000000000E+01 0.  0.
<mgrwt>
<rscale>  0 0.12500168E+03</rscale>
<asrwt>0</asrwt>
<pdfrwt beam="2">  1        4 0.48530358E-02 0.12500168E+03</pdfrwt>
<pdfrwt beam="1">  1       -4 0.19051602E-01 0.12500168E+03</pdfrwt>
<totfact> 0.98237212E+03</totfact>
</mgrwt>
</event>
<event>
 5    1  0.3337119E-002  0.1250011E+03  0.7818608E-02  0.1235068E+00
          4   -1    0    0  501    0  0.00000000000E+00  0.00000000000E+00  0.15759315011E+03  0.15759826731E+03  0.12700000000E+01 0.  1.
         -4   -1    0    0    0  501 -0.00000000000E+00 -0.00000000000E+00 -0.24765568499E+02  0.24798110474E+02  0.12700000000E+01 0.  1.
         25    2    1    2    0    0  0.00000000000E+00  0.00000000000E+00  0.13282758161E+03  0.18239637779E+03  0.12500108878E+03 0.  0.
    9000005    1    3    3    0    0  0.36293058658E+02 -0.19650962773E+02  0.13488504307E+03  0.14106140963E+03  0.10000000000E+01 0.  0.
    9000005    1    3    3    0    0 -0.36293058658E+02  0.19650962773E+02 -0.20574614605E+01  0.41334968155E+02  0.10000000000E+01 0.  0.
<mgrwt>
<rscale>  0 0.12500109E+03</rscale>
<asrwt>0</asrwt>
<pdfrwt beam="1">  1        4 0.24247997E-01 0.12500109E+03</pdfrwt>
<pdfrwt beam="2">  1       -4 0.38129844E-02 0.12500109E+03</pdfrwt>
<totfact> 0.93185143E+03</totfact>
</mgrwt>
</event>
<event>
 5    1  0.3337119E-002  0.1249920E+03  0.7818608E-02  0.1235082E+00
         -4   -1    0    0    0  501 -0.00000000000E+00  0.00000000000E+00  0.92309382499E+02  0.92318118468E+02  0.12700000000E+01 0. -1.
          4   -1    0    0  501    0  0.00000000000E+00 -0.00000000000E+00 -0.42291267990E+02  0.42310332641E+02  0.12700000000E+01 0. -1.
         25    2    1    2    0    0  0.00000000000E+00  0.00000000000E+00  0.50018114510E+02  0.13462845111E+03  0.12499203202E+03 0.  0.
    9000005    1    3    3    0    0  0.60188523091E+02 -0.29310565539E-01  0.43099556701E+02  0.74035335880E+02  0.10000000000E+01 0.  0.
    9000005    1    3    3    0    0 -0.60188523091E+02  0.29310565539E-01  0.69185578088E+01  0.60593115229E+02  0.10000000000E+01 0.  0.
<mgrwt>
<rscale>  0 0.12499203E+03</rscale>
<asrwt>0</asrwt>
<pdfrwt beam="2">  1        4 0.65084874E-02 0.12499203E+03</pdfrwt>
<pdfrwt beam="1">  1       -4 0.14203582E-01 0.12499203E+03</pdfrwt>
<totfact> 0.10247750E+04</totfact>
</mgrwt>
</event>
<event>
 5    1  0.3337119E-002  0.1250058E+03  0.7818608E-02  0.1235060E+00
         -4   -1    0    0    0  501 -0.00000000000E+00  0.00000000000E+00  0.75968954488E+02  0.75979569267E+02  0.12700000000E+01 0. -1.
          4   -1    0    0  501    0  0.00000000000E+00 -0.00000000000E+00 -0.51401756091E+02  0.51417442850E+02  0.12700000000E+01 0. -1.
         25    2    1    2    0    0  0.00000000000E+00  0.00000000000E+00  0.24567198397E+02  0.12739701212E+03  0.12500580570E+03 0.  0.
    9000005    1    3    3    0    0 -0.62191996006E+02  0.40319009383E+01  0.75567450314E+01  0.62786981038E+02  0.10000000000E+01 0.  0.
    9000005    1    3    3    0    0  0.62191996006E+02 -0.40319009383E+01  0.17010453366E+02  0.64610031079E+02  0.10000000000E+01 0.  0.
<mgrwt>
<rscale>  0 0.12500581E+03</rscale>
<asrwt>0</asrwt>
<pdfrwt beam="2">  1        4 0.79099857E-02 0.12500581E+03</pdfrwt>
<pdfrwt beam="1">  1       -4 0.11689555E-01 0.12500581E+03</pdfrwt>
<totfact> 0.10399169E+04</totfact>
</mgrwt>
</event>
<event>
 5    1  0.3337119E-002  0.1250011E+03  0.7818608E-02  0.1235068E+00
          4   -1    0    0  501    0  0.00000000000E+00  0.00000000000E+00  0.11907993382E+03  0.11908670597E+03  0.12700000000E+01 0.  1.
         -4   -1    0    0    0  501 -0.00000000000E+00 -0.00000000000E+00 -0.32784151776E+02  0.32808741330E+02  0.12700000000E+01 0.  1.
         25    2    1    2    0    0  0.00000000000E+00  0.00000000000E+00  0.86295782041E+02  0.15189544730E+03  0.12500105964E+03 0.  0.
    9000005    1    3    3    0    0 -0.97796707407E+01  0.55673037385E+02  0.75530920530E+02  0.94345370886E+02  0.10000000000E+01 0.  0.
    9000005    1    3    3    0    0  0.97796707407E+01 -0.55673037385E+02  0.10764861511E+02  0.57550076410E+02  0.10000000000E+01 0.  0.
<mgrwt>
<rscale>  0 0.12500106E+03</rscale>
<asrwt>0</asrwt>
<pdfrwt beam="1">  1        4 0.18322403E-01 0.12500106E+03</pdfrwt>
<pdfrwt beam="2">  1       -4 0.50461280E-02 0.12500106E+03</pdfrwt>
<totfact> 0.98924843E+03</totfact>
</mgrwt>
</event>
<event>
 5    1  0.3337119E-002  0.1250026E+03  0.7818608E-02  0.1235065E+00
          4   -1    0    0  501    0  0.00000000000E+00  0.00000000000E+00  0.37986364497E+01  0.40053138301E+01  0.12700000000E+01 0.  1.
         -4   -1    0    0    0  501 -0.00000000000E+00 -0.00000000000E+00 -0.10009295306E+04  0.10009303363E+04  0.12700000000E+01 0.  1.
         25    2    1    2    0    0  0.00000000000E+00  0.00000000000E+00 -0.99713089410E+03  0.10049356501E+04  0.12500256331E+03 0.  0.
    9000005    1    3    3    0    0  0.40485524424E+02  0.21632211457E+02 -0.83949139764E+03  0.84074600027E+03  0.10000000000E+01 0.  0.
    9000005    1    3    3    0    0 -0.40485524424E+02 -0.21632211457E+02 -0.15763949647E+03  0.16418964981E+03  0.10000000000E+01 0.  0.
<mgrwt>
<rscale>  0 0.12500256E+03</rscale>
<asrwt>0</asrwt>
<pdfrwt beam="1">  1        4 0.60036664E-03 0.12500256E+03</pdfrwt>
<pdfrwt beam="2">  1       -4 0.15400491E+00 0.12500256E+03</pdfrwt>
<totfact> 0.30440411E+03</totfact>
</mgrwt>
</event>
<event>
 5    1  0.3337119E-002  0.1249948E+03  0.7818608E-02  0.1235077E+00
          4   -1    0    0  501    0  0.00000000000E+00  0.00000000000E+00  0.47071894718E+02  0.47089023905E+02  0.12700000000E+01 0. -1.
         -4   -1    0    0    0  501 -0.00000000000E+00 -0.00000000000E+00 -0.82940712417E+02  0.82950435058E+02  0.12700000000E+01 0. -1.
         25    2    1    2    0    0  0.00000000000E+00  0.00000000000E+00 -0.35868817700E+02  0.13003945896E+03  0.12499475511E+03 0.  0.
    9000005    1    3    3    0    0  0.12300749180E+02 -0.11634651568E+02  0.44645160261E+02  0.47758390699E+02  0.10000000000E+01 0.  0.
    9000005    1    3    3    0    0 -0.12300749180E+02  0.11634651568E+02 -0.80513977960E+02  0.82281068263E+02  0.10000000000E+01 0.  0.
<mgrwt>
<rscale>  0 0.12499476E+03</rscale>
<asrwt>0</asrwt>
<pdfrwt beam="1">  1        4 0.72438955E-02 0.12499476E+03</pdfrwt>
<pdfrwt beam="2">  1       -4 0.12762175E-01 0.12499476E+03</pdfrwt>
<totfact> 0.10344888E+04</totfact>
</mgrwt>
</event>
<event>
 5    1  0.3337119E-002  0.1250039E+03  0.7818608E-02  0.1235063E+00
          4   -1    0    0  501    0  0.00000000000E+00  0.00000000000E+00  0.55546417344E+01  0.56979772549E+01  0.12700000000E+01 0. -1.
         -4   -1    0    0    0  501 -0.00000000000E+00 -0.00000000000E+00 -0.69418252772E+03  0.69418368944E+03  0.12700000000E+01 0. -1.
         25    2    1    2    0    0  0.00000000000E+00  0.00000000000E+00 -0.68862788598E+03  0.69988166670E+03  0.12500392804E+03 0.  0.
    9000005    1    3    3    0    0  0.22054602752E+02 -0.57529076730E+02 -0.28572727964E+03  0.29229621705E+03  0.10000000000E+01 0.  0.
    9000005    1    3    3    0    0 -0.22054602752E+02  0.57529076730E+02 -0.40290060634E+03  0.40758544965E+03  0.10000000000E+01 0.  0.
<mgrwt>
<rscale>  0 0.12500393E+03</rscale>
<asrwt>0</asrwt>
<pdfrwt beam="1">  1        4 0.86567599E-03 0.12500393E+03</pdfrwt>
<pdfrwt beam="2">  1       -4 0.10680836E+00 0.12500393E+03</pdfrwt>
<totfact> 0.43089256E+03</totfact>
</mgrwt>
</event>
<event>
 5    1  0.3337119E-002  0.1249985E+03  0.7818608E-02  0.1235072E+00
         -4   -1    0    0    0  501 -0.00000000000E+00  0.00000000000E+00  0.44975976934E+03  0.44976156240E+03  0.12700000000E+01 0. -1.
          4   -1    0    0  501    0  0.00000000000E+00 -0.00000000000E+00 -0.86367368689E+01  0.87296118896E+01  0.12700000000E+01 0. -1.
         25    2    1    2    0    0  0.00000000000E+00  0.00000000000E+00  0.44112303247E+03  0.45849117429E+03  0.12499850851E+03 0.  0.
    9000005    1    3    3    0    0 -0.11338734434E+02 -0.61448331790E+02  0.22361366680E+03  0.23218211895E+03  0.10000000000E+01 0.  0.
    9000005    1    3    3    0    0  0.11338734434E+02  0.61448331790E+02  0.21750936567E+03  0.22630905535E+03  0.10000000000E+01 0.  0.
<mgrwt>
<rscale>  0 0.12499851E+03</rscale>
<asrwt>0</asrwt>
<pdfrwt beam="2">  1        4 0.13360102E-02 0.12499851E+03</pdfrwt>
<pdfrwt beam="1">  1       -4 0.69201130E-01 0.12499851E+03</pdfrwt>
<totfact> 0.59237123E+03</totfact>
</mgrwt>
</event>
<event>
 5    1  0.3337119E-002  0.1249812E+03  0.7818608E-02  0.1235099E+00
          4   -1    0    0  501    0  0.00000000000E+00  0.00000000000E+00  0.35825729403E+03  0.35825954506E+03  0.12700000000E+01 0. -1.
         -4   -1    0    0    0  501 -0.00000000000E+00 -0.00000000000E+00 -0.10860912341E+02  0.10934912752E+02  0.12700000000E+01 0. -1.
         25    2    1    2    0    0  0.00000000000E+00  0.00000000000E+00  0.34739638169E+03  0.36919445781E+03  0.12498120526E+03 0.  0.
    9000005    1    3    3    0    0  0.56654212034E+02  0.25943454584E+02  0.18733557665E+03  0.19742943260E+03  0.10000000000E+01 0.  0.
    9000005    1    3    3    0    0 -0.56654212034E+02 -0.25943454584E+02  0.16006080504E+03  0.17176502522E+03  0.10000000000E+01 0.  0.
<mgrwt>
<rscale>  0 0.12498121E+03</rscale>
<asrwt>0</asrwt>
<pdfrwt beam="1">  1        4 0.55122364E-01 0.12498121E+03</pdfrwt>
<pdfrwt beam="2">  1       -4 0.16767753E-02 0.12498121E+03</pdfrwt>
<totfact> 0.67691423E+03</totfact>
</mgrwt>
</event>
<event>
 5    1  0.3337119E-002  0.1250000E+03  0.7818608E-02  0.1235069E+00
          4   -1    0    0  501    0  0.00000000000E+00  0.00000000000E+00  0.13972594055E+03  0.13973171208E+03  0.12700000000E+01 0.  1.
         -4   -1    0    0    0  501 -0.00000000000E+00 -0.00000000000E+00 -0.27935743332E+02  0.27964596466E+02  0.12700000000E+01 0.  1.
         25    2    1    2    0    0  0.00000000000E+00  0.00000000000E+00  0.11179019722E+03  0.16769630855E+03  0.12500001483E+03 0.  0.
    9000005    1    3    3    0    0 -0.56385396164E+02 -0.24470315000E+02  0.71022260778E+02  0.93932266781E+02  0.10000000000E+01 0.  0.
    9000005    1    3    3    0    0  0.56385396164E+02  0.24470315000E+02  0.40767936439E+02  0.73764041770E+02  0.10000000000E+01 0.  0.
<mgrwt>
<rscale>  0 0.12500001E+03</rscale>
<asrwt>0</asrwt>
<pdfrwt beam="1">  1        4 0.21498962E-01 0.12500001E+03</pdfrwt>
<pdfrwt beam="2">  1       -4 0.43004701E-02 0.12500001E+03</pdfrwt>
<totfact> 0.95879145E+03</totfact>
</mgrwt>
</event>
<event>
 5    1  0.3337119E-002  0.1249958E+03  0.7818608E-02  0.1235076E+00
         -4   -1    0    0    0  501 -0.00000000000E+00  0.00000000000E+00  0.61920406194E+02  0.61933428803E+02  0.12700000000E+01 0.  1.
          4   -1    0    0  501    0  0.00000000000E+00 -0.00000000000E+00 -0.63054740242E+02  0.63067528626E+02  0.12700000000E+01 0.  1.
         25    2    1    2    0    0  0.00000000000E+00  0.00000000000E+00 -0.11343340479E+01  0.12500095743E+03  0.12499581051E+03 0.  0.
    9000005    1    3    3    0    0 -0.20767799990E+02  0.47768141718E+02 -0.35092367094E+02  0.62813781194E+02  0.10000000000E+01 0.  0.
    9000005    1    3    3    0    0  0.20767799990E+02 -0.47768141718E+02  0.33958033046E+02  0.62187176234E+02  0.10000000000E+01 0.  0.
<mgrwt>
<rscale>  0 0.12499581E+03</rscale>
<asrwt>0</asrwt>
<pdfrwt beam="2">  1        4 0.97027147E-02 0.12499581E+03</pdfrwt>
<pdfrwt beam="1">  1       -4 0.95282018E-02 0.12499581E+03</pdfrwt>
<totfact> 0.10453832E+04</totfact>
</mgrwt>
</event>
<event>
 5    1  0.3337119E-002  0.1249948E+03  0.7818608E-02  0.1235077E+00
          4   -1    0    0  501    0  0.00000000000E+00  0.00000000000E+00  0.12093963147E+02  0.12160462351E+02  0.12700000000E+01 0. -1.
         -4   -1    0    0    0  501 -0.00000000000E+00 -0.00000000000E+00 -0.32201167287E+03  0.32201417727E+03  0.12700000000E+01 0. -1.
         25    2    1    2    0    0  0.00000000000E+00  0.00000000000E+00 -0.30991770972E+03  0.33417463962E+03  0.12499481176E+03 0.  0.
    9000005    1    3    3    0    0 -0.29498290517E+02 -0.18739122190E+02 -0.16461281211E+02  0.38642950496E+02  0.10000000000E+01 0.  0.
    9000005    1    3    3    0    0  0.29498290517E+02  0.18739122190E+02 -0.29345642851E+03  0.29553168913E+03  0.10000000000E+01 0.  0.
<mgrwt>
<rscale>  0 0.12499481E+03</rscale>
<asrwt>0</asrwt>
<pdfrwt beam="1">  1        4 0.18659179E-02 0.12499481E+03</pdfrwt>
<pdfrwt beam="2">  1       -4 0.49545559E-01 0.12499481E+03</pdfrwt>
<totfact> 0.71509581E+03</totfact>
</mgrwt>
</event>
<event>
 5    1  0.3337119E-002  0.1250034E+03  0.7818608E-02  0.1235064E+00
          4   -1    0    0  501    0  0.00000000000E+00  0.00000000000E+00  0.52924464981E+02  0.52939700542E+02  0.12700000000E+01 0.  1.
         -4   -1    0    0    0  501 -0.00000000000E+00 -0.00000000000E+00 -0.73780673320E+02  0.73791602880E+02  0.12700000000E+01 0.  1.
         25    2    1    2    0    0  0.00000000000E+00  0.00000000000E+00 -0.20856208340E+02  0.12673130342E+03  0.12500336732E+03 0.  0.
    9000005    1    3    3    0    0 -0.50244419770E+02  0.24865459298E+02  0.17570079588E+02  0.58757982273E+02  0.10000000000E+01 0.  0.
    9000005    1    3    3    0    0  0.50244419770E+02 -0.24865459298E+02 -0.38426287928E+02  0.67973321149E+02  0.10000000000E+01 0.  0.
<mgrwt>
<rscale>  0 0.12500337E+03</rscale>
<asrwt>0</asrwt>
<pdfrwt beam="1">  1        4 0.81442381E-02 0.12500337E+03</pdfrwt>
<pdfrwt beam="2">  1       -4 0.11352885E-01 0.12500337E+03</pdfrwt>
<totfact> 0.10414197E+04</totfact>
</mgrwt>
</event>
<event>
 5    1  0.3337119E-002  0.1250000E+03  0.7818608E-02  0.1235069E+00
         -4   -1    0    0    0  501 -0.00000000000E+00  0.00000000000E+00  0.46868668268E+02  0.46885871701E+02  0.12700000000E+01 0.  1.
          4   -1    0    0  501    0  0.00000000000E+00 -0.00000000000E+00 -0.83307209988E+02  0.83316889860E+02  0.12700000000E+01 0.  1.
         25    2    1    2    0    0  0.00000000000E+00  0.00000000000E+00 -0.36438541720E+02  0.13020276156E+03  0.12499996718E+03 0.  0.
    9000005    1    3    3    0    0 -0.32862779808E+02 -0.27007983414E+02  0.29466725321E+02  0.51755979036E+02  0.10000000000E+01 0.  0.
    9000005    1    3    3    0    0  0.32862779808E+02  0.27007983414E+02 -0.65905267041E+02  0.78446782526E+02  0.10000000000E+01 0.  0.
<mgrwt>
<rscale>  0 0.12499997E+03</rscale>
<asrwt>0</asrwt>
<pdfrwt beam="2">  1        4 0.12818562E-01 0.12499997E+03</pdfrwt>
<pdfrwt beam="1">  1       -4 0.72126323E-02 0.12499997E+03</pdfrwt>
<totfact> 0.10340180E+04</totfact>
</mgrwt>
</event>
<event>
 5    1  0.3337119E-002  0.1249980E+03  0.7818608E-02  0.1235072E+00
         -4   -1    0    0    0  501 -0.00000000000E+00  0.00000000000E+00  0.20499932028E+01  0.24115082690E+01  0.12700000000E+01 0. -1.
          4   -1    0    0  501    0  0.00000000000E+00 -0.00000000000E+00 -0.17506753417E+04  0.17506758023E+04  0.12700000000E+01 0. -1.
         25    2    1    2    0    0  0.00000000000E+00  0.00000000000E+00 -0.17486253485E+04  0.17530873106E+04  0.12499803698E+03 0.  0.
    9000005    1    3    3    0    0  0.49206693972E+02  0.36467982975E+02 -0.10483091862E+04  0.10500973109E+04  0.10000000000E+01 0.  0.
    9000005    1    3    3    0    0 -0.49206693972E+02 -0.36467982975E+02 -0.70031616224E+03  0.70298999965E+03  0.10000000000E+01 0.  0.
<mgrwt>
<rscale>  0 0.12499804E+03</rscale>
<asrwt>0</asrwt>
<pdfrwt beam="2">  1        4 0.26936141E+00 0.12499804E+03</pdfrwt>
<pdfrwt beam="1">  1       -4 0.34322926E-03 0.12499804E+03</pdfrwt>
<totfact> 0.13440980E+03</totfact>
</mgrwt>
</event>
<event>
 5    1  0.3337119E-002  0.1249977E+03  0.7818608E-02  0.1235073E+00
         -4   -1    0    0    0  501 -0.00000000000E+00  0.00000000000E+00  0.12644369917E+03  0.12645007694E+03  0.12700000000E+01 0. -1.
          4   -1    0    0  501    0  0.00000000000E+00 -0.00000000000E+00 -0.30871845535E+02  0.30897956999E+02  0.12700000000E+01 0. -1.
         25    2    1    2    0    0  0.00000000000E+00  0.00000000000E+00  0.95571853631E+02  0.15734803394E+03  0.12499769829E+03 0.  0.
    9000005    1    3    3    0    0 -0.49799866227E+02 -0.13161609429E+02  0.92324439774E+02  0.10572632983E+03  0.10000000000E+01 0.  0.
    9000005    1    3    3    0    0  0.49799866227E+02  0.13161609429E+02  0.32474138569E+01  0.51621704115E+02  0.10000000000E+01 0.  0.
<mgrwt>
<rscale>  0 0.12499770E+03</rscale>
<asrwt>0</asrwt>
<pdfrwt beam="2">  1        4 0.47520139E-02 0.12499770E+03</pdfrwt>
<pdfrwt beam="1">  1       -4 0.19455376E-01 0.12499770E+03</pdfrwt>
<totfact> 0.97861577E+03</totfact>
</mgrwt>
</event>
<event>
 5    1  0.3337119E-002  0.1249973E+03  0.7818608E-02  0.1235073E+00
          4   -1    0    0  501    0  0.00000000000E+00  0.00000000000E+00  0.65106732026E+03  0.65106855891E+03  0.12700000000E+01 0. -1.
         -4   -1    0    0    0  501 -0.00000000000E+00 -0.00000000000E+00 -0.59310365479E+01  0.60654838663E+01  0.12700000000E+01 0. -1.
         25    2    1    2    0    0  0.00000000000E+00  0.00000000000E+00  0.64513628371E+03  0.65713404278E+03  0.12499730246E+03 0.  0.
    9000005    1    3    3    0    0  0.29855692726E+02  0.70112174604E+01  0.36325993205E+02  0.47550997263E+02  0.10000000000E+01 0.  0.
    9000005    1    3    3    0    0 -0.29855692726E+02 -0.70112174604E+01  0.60881029050E+03  0.60958304552E+03  0.10000000000E+01 0.  0.
<mgrwt>
<rscale>  0 0.12499730E+03</rscale>
<asrwt>0</asrwt>
<pdfrwt beam="1">  1        4 0.10017465E+00 0.12499730E+03</pdfrwt>
<pdfrwt beam="2">  1       -4 0.92290448E-03 0.12499730E+03</pdfrwt>
<totfact> 0.45450612E+03</totfact>
</mgrwt>
</event>
<event>
 5    1  0.3337119E-002  0.1250029E+03  0.7818608E-02  0.1235065E+00
          4   -1    0    0  501    0  0.00000000000E+00  0.00000000000E+00  0.61533536853E+03  0.61533667912E+03  0.12700000000E+01 0.  1.
         -4   -1    0    0    0  501 -0.00000000000E+00 -0.00000000000E+00 -0.62836160315E+01  0.64106731652E+01  0.12700000000E+01 0.  1.
         25    2    1    2    0    0  0.00000000000E+00  0.00000000000E+00  0.60905175250E+03  0.62174735228E+03  0.12500293135E+03 0.  0.
    9000005    1    3    3    0    0  0.36869390396E+02  0.46406983158E+02  0.40306274054E+03  0.40739849392E+03  0.10000000000E+01 0.  0.
    9000005    1    3    3    0    0 -0.36869390396E+02 -0.46406983158E+02  0.20598901196E+03  0.21434885836E+03  0.10000000000E+01 0.  0.
<mgrwt>
<rscale>  0 0.12500293E+03</rscale>
<asrwt>0</asrwt>
<pdfrwt beam="1">  1        4 0.94676877E-01 0.12500293E+03</pdfrwt>
<pdfrwt beam="2">  1       -4 0.97658436E-03 0.12500293E+03</pdfrwt>
<totfact> 0.47519950E+03</totfact>
</mgrwt>
</event>
<event>
 5    1  0.3337119E-002  0.1250097E+03  0.7818608E-02  0.1235054E+00
          4   -1    0    0  501    0  0.00000000000E+00  0.00000000000E+00  0.23463397600E+03  0.23463741303E+03  0.12700000000E+01 0. -1.
         -4   -1    0    0    0  501 -0.00000000000E+00 -0.00000000000E+00 -0.16623083027E+02  0.16671526304E+02  0.12700000000E+01 0. -1.
         25    2    1    2    0    0  0.00000000000E+00  0.00000000000E+00  0.21801089298E+03  0.25130893934E+03  0.12500973376E+03 0.  0.
    9000005    1    3    3    0    0  0.11022662199E+02 -0.55587184751E+02  0.56029767906E+02  0.79697986687E+02  0.10000000000E+01 0.  0.
    9000005    1    3    3    0    0 -0.11022662199E+02  0.55587184751E+02  0.16198112507E+03  0.17161095265E+03  0.10000000000E+01 0.  0.
<mgrwt>
<rscale>  0 0.12500973E+03</rscale>
<asrwt>0</asrwt>
<pdfrwt beam="1">  1        4 0.36101523E-01 0.12500973E+03</pdfrwt>
<pdfrwt beam="2">  1       -4 0.25613884E-02 0.12500973E+03</pdfrwt>
<totfact> 0.82123607E+03</totfact>
</mgrwt>
</event>
<event>
 5    1  0.3337119E-002  0.1249981E+03  0.7818608E-02  0.1235072E+00
         -4   -1    0    0    0  501 -0.00000000000E+00  0.00000000000E+00  0.89225895342E+02  0.89234933180E+02  0.12700000000E+01 0. -1.
          4   -1    0    0  501    0  0.00000000000E+00 -0.00000000000E+00 -0.43757558519E+02  0.43775984598E+02  0.12700000000E+01 0. -1.
         25    2    1    2    0    0  0.00000000000E+00  0.00000000000E+00  0.45468336823E+02  0.13301091778E+03  0.12499813837E+03 0.  0.
    9000005    1    3    3    0    0 -0.68321954330E+01  0.42573032030E+02 -0.25398027830E+02  0.50051990653E+02  0.10000000000E+01 0.  0.
    9000005    1    3    3    0    0  0.68321954330E+01 -0.42573032030E+02  0.70866364653E+02  0.82958927126E+02  0.10000000000E+01 0.  0.
<mgrwt>
<rscale>  0 0.12499814E+03</rscale>
<asrwt>0</asrwt>
<pdfrwt beam="2">  1        4 0.67340447E-02 0.12499814E+03</pdfrwt>
<pdfrwt beam="1">  1       -4 0.13729173E-01 0.12499814E+03</pdfrwt>
<totfact> 0.10280600E+04</totfact>
</mgrwt>
</event>
<event>
 5    1  0.3337119E-002  0.1249961E+03  0.7818608E-02  0.1235075E+00
         -4   -1    0    0    0  501 -0.00000000000E+00  0.00000000000E+00  0.12095785369E+02  0.12162274610E+02  0.12700000000E+01 0.  1.
          4   -1    0    0  501    0  0.00000000000E+00 -0.00000000000E+00 -0.32197015630E+03  0.32197266102E+03  0.12700000000E+01 0.  1.
         25    2    1    2    0    0  0.00000000000E+00  0.00000000000E+00 -0.30987437093E+03  0.33413493563E+03  0.12499611775E+03 0.  0.
    9000005    1    3    3    0    0 -0.32848570191E+02 -0.52652622485E+02 -0.17452257446E+03  0.18523081875E+03  0.10000000000E+01 0.  0.
    9000005    1    3    3    0    0  0.32848570191E+02  0.52652622485E+02 -0.13535179647E+03  0.14890411689E+03  0.10000000000E+01 0.  0.
<mgrwt>
<rscale>  0 0.12499612E+03</rscale>
<asrwt>0</asrwt>
<pdfrwt beam="2">  1        4 0.49539171E-01 0.12499612E+03</pdfrwt>
<pdfrwt beam="1">  1       -4 0.18661975E-02 0.12499612E+03</pdfrwt>
<totfact> 0.71512063E+03</totfact>
</mgrwt>
</event>
<event>
 5    1  0.3337119E-002  0.1250006E+03  0.7818608E-02  0.1235068E+00
         -4   -1    0    0    0  501 -0.00000000000E+00  0.00000000000E+00  0.22350546699E+03  0.22350907515E+03  0.12700000000E+01 0.  1.
          4   -1    0    0  501    0  0.00000000000E+00 -0.00000000000E+00 -0.17450547779E+02  0.17496700197E+02  0.12700000000E+01 0.  1.
         25    2    1    2    0    0  0.00000000000E+00  0.00000000000E+00  0.20605491921E+03  0.24100577534E+03  0.12500061608E+03 0.  0.
    9000005    1    3    3    0    0  0.47480832941E+02  0.94038877453E+00  0.24710839594E+02  0.53543808431E+02  0.10000000000E+01 0.  0.
    9000005    1    3    3    0    0 -0.47480832941E+02 -0.94038877453E+00  0.18134407961E+03  0.18746196691E+03  0.10000000000E+01 0.  0.
<mgrwt>
<rscale>  0 0.12500062E+03</rscale>
<asrwt>0</asrwt>
<pdfrwt beam="2">  1        4 0.26885274E-02 0.12500062E+03</pdfrwt>
<pdfrwt beam="1">  1       -4 0.34389285E-01 0.12500062E+03</pdfrwt>
<totfact> 0.83646653E+03</totfact>
</mgrwt>
</event>
<event>
 5    1  0.3337119E-002  0.1250005E+03  0.7818608E-02  0.1235068E+00
         -4   -1    0    0    0  501 -0.00000000000E+00  0.00000000000E+00  0.34006320341E+02  0.34030026787E+02  0.12700000000E+01 0. -1.
          4   -1    0    0  501    0  0.00000000000E+00 -0.00000000000E+00 -0.11480209717E+03  0.11480912166E+03  0.12700000000E+01 0. -1.
         25    2    1    2    0    0  0.00000000000E+00  0.00000000000E+00 -0.80795776833E+02  0.14883914844E+03  0.12500053822E+03 0.  0.
    9000005    1    3    3    0    0  0.30435395814E+02 -0.17798637151E+02  0.21038249536E+02  0.41069608548E+02  0.10000000000E+01 0.  0.
    9000005    1    3    3    0    0 -0.30435395814E+02  0.17798637151E+02 -0.10183402637E+03  0.10776953990E+03  0.10000000000E+01 0.  0.
<mgrwt>
<rscale>  0 0.12500054E+03</rscale>
<asrwt>0</asrwt>
<pdfrwt beam="2">  1        4 0.17664225E-01 0.12500054E+03</pdfrwt>
<pdfrwt beam="1">  1       -4 0.52341056E-02 0.12500054E+03</pdfrwt>
<totfact> 0.99534395E+03</totfact>
</mgrwt>
</event>
<event>
 5    1  0.3337119E-002  0.1250078E+03  0.7818608E-02  0.1235057E+00
          4   -1    0    0  501    0  0.00000000000E+00  0.00000000000E+00  0.34681324317E+02  0.34704569675E+02  0.12700000000E+01 0.  1.
         -4   -1    0    0    0  501 -0.00000000000E+00 -0.00000000000E+00 -0.11258209823E+03  0.11258926122E+03  0.12700000000E+01 0.  1.
         25    2    1    2    0    0  0.00000000000E+00  0.00000000000E+00 -0.77900773910E+02  0.14729383089E+03  0.12500776793E+03 0.  0.
    9000005    1    3    3    0    0 -0.40437395414E+02  0.16192958941E+02 -0.91754316827E+02  0.10157386240E+03  0.10000000000E+01 0.  0.
    9000005    1    3    3    0    0  0.40437395414E+02 -0.16192958941E+02  0.13853542917E+02  0.45719968488E+02  0.10000000000E+01 0.  0.
<mgrwt>
<rscale>  0 0.12500777E+03</rscale>
<asrwt>0</asrwt>
<pdfrwt beam="1">  1        4 0.53379275E-02 0.12500777E+03</pdfrwt>
<pdfrwt beam="2">  1       -4 0.17322662E-01 0.12500777E+03</pdfrwt>
<totfact> 0.99828435E+03</totfact>
</mgrwt>
</event>
<event>
 5    1  0.3337119E-002  0.1249992E+03  0.7818608E-02  0.1235071E+00
          4   -1    0    0  501    0  0.00000000000E+00  0.00000000000E+00  0.33069515863E+03  0.33069759727E+03  0.12700000000E+01 0.  1.
         -4   -1    0    0    0  501 -0.00000000000E+00 -0.00000000000E+00 -0.11775464600E+02  0.11843752216E+02  0.12700000000E+01 0.  1.
         25    2    1    2    0    0  0.00000000000E+00  0.00000000000E+00  0.31891969403E+03  0.34254134948E+03  0.12499921947E+03 0.  0.
    9000005    1    3    3    0    0  0.33978420700E+02  0.51973626992E+02  0.17872241525E+03  0.18920489605E+03  0.10000000000E+01 0.  0.
    9000005    1    3    3    0    0 -0.33978420700E+02 -0.51973626992E+02  0.14019727878E+03  0.15333645344E+03  0.10000000000E+01 0.  0.
<mgrwt>
<rscale>  0 0.12499922E+03</rscale>
<asrwt>0</asrwt>
<pdfrwt beam="1">  1        4 0.50881621E-01 0.12499922E+03</pdfrwt>
<pdfrwt beam="2">  1       -4 0.18170503E-02 0.12499922E+03</pdfrwt>
<totfact> 0.70554184E+03</totfact>
</mgrwt>
</event>
<event>
 5    1  0.3337119E-002  0.1249913E+03  0.7818608E-02  0.1235083E+00
          4   -1    0    0  501    0  0.00000000000E+00  0.00000000000E+00  0.11892879547E+02  0.11960496809E+02  0.12700000000E+01 0.  1.
         -4   -1    0    0    0  501 -0.00000000000E+00 -0.00000000000E+00 -0.32740742051E+03  0.32740988364E+03  0.12700000000E+01 0.  1.
         25    2    1    2    0    0  0.00000000000E+00  0.00000000000E+00 -0.31551454096E+03  0.33937038044E+03  0.12499131796E+03 0.  0.
    9000005    1    3    3    0    0  0.21729503850E+02 -0.44703476799E+02 -0.54934538697E+02  0.74090321348E+02  0.10000000000E+01 0.  0.
    9000005    1    3    3    0    0 -0.21729503850E+02  0.44703476799E+02 -0.26058000226E+03  0.26528005910E+03  0.10000000000E+01 0.  0.
<mgrwt>
<rscale>  0 0.12499132E+03</rscale>
<asrwt>0</asrwt>
<pdfrwt beam="1">  1        4 0.18350648E-02 0.12499132E+03</pdfrwt>
<pdfrwt beam="2">  1       -4 0.50375756E-01 0.12499132E+03</pdfrwt>
<totfact> 0.70923631E+03</totfact>
</mgrwt>
</event>
<event>
 5    1  0.3337119E-002  0.1249992E+03  0.7818608E-02  0.1235071E+00
          4   -1    0    0  501    0  0.00000000000E+00  0.00000000000E+00  0.12946813546E+02  0.13008953878E+02  0.12700000000E+01 0. -1.
         -4   -1    0    0    0  501 -0.00000000000E+00 -0.00000000000E+00 -0.30092538416E+03  0.30092806405E+03  0.12700000000E+01 0. -1.
         25    2    1    2    0    0  0.00000000000E+00  0.00000000000E+00 -0.28797857061E+03  0.31393701793E+03  0.12499917637E+03 0.  0.
    9000005    1    3    3    0    0  0.15176890565E+02 -0.60024119657E+02 -0.16529508195E+03  0.17651259747E+03  0.10000000000E+01 0.  0.
    9000005    1    3    3    0    0 -0.15176890565E+02  0.60024119657E+02 -0.12268348866E+03  0.13742442046E+03  0.10000000000E+01 0.  0.
<mgrwt>
<rscale>  0 0.12499918E+03</rscale>
<asrwt>0</asrwt>
<pdfrwt beam="1">  1        4 0.19968039E-02 0.12499918E+03</pdfrwt>
<pdfrwt beam="2">  1       -4 0.46301194E-01 0.12499918E+03</pdfrwt>
<totfact> 0.73884439E+03</totfact>
</mgrwt>
</event>
<event>
 5    1  0.3337119E-002  0.1249977E+03  0.7818608E-02  0.1235073E+00
         -4   -1    0    0    0  501 -0.00000000000E+00  0.00000000000E+00  0.86113308868E+01  0.87044769885E+01  0.12700000000E+01 0.  1.
          4   -1    0    0  501    0  0.00000000000E+00 -0.00000000000E+00 -0.45106700686E+03  0.45106879473E+03  0.12700000000E+01 0.  1.
         25    2    1    2    0    0  0.00000000000E+00  0.00000000000E+00 -0.44245567597E+03  0.45977327172E+03  0.12499774472E+03 0.  0.
    9000005    1    3    3    0    0 -0.31594461917E+02 -0.45549783380E+02 -0.11512340069E+03  0.12777867653E+03  0.10000000000E+01 0.  0.
    9000005    1    3    3    0    0  0.31594461917E+02  0.45549783380E+02 -0.32733227528E+03  0.33199459519E+03  0.10000000000E+01 0.  0.
<mgrwt>
<rscale>  0 0.12499774E+03</rscale>
<asrwt>0</asrwt>
<pdfrwt beam="2">  1        4 0.69402209E-01 0.12499774E+03</pdfrwt>
<pdfrwt beam="1">  1       -4 0.13321231E-02 0.12499774E+03</pdfrwt>
<totfact> 0.59129334E+03</totfact>
</mgrwt>
</event>
<event>
 5    1  0.3337119E-002  0.1250091E+03  0.7818608E-02  0.1235055E+00
         -4   -1    0    0    0  501 -0.00000000000E+00  0.00000000000E+00  0.13876955816E+03  0.13877536947E+03  0.12700000000E+01 0. -1.
          4   -1    0    0  501    0  0.00000000000E+00 -0.00000000000E+00 -0.28132540333E+02  0.28161191835E+02  0.12700000000E+01 0. -1.
         25    2    1    2    0    0  0.00000000000E+00  0.00000000000E+00  0.11063701782E+03  0.16693656130E+03  0.12500906282E+03 0.  0.
    9000005    1    3    3    0    0  0.55109200293E+02  0.39149024047E+01  0.94330946204E+02  0.10932372949E+03  0.10000000000E+01 0.  0.
    9000005    1    3    3    0    0 -0.55109200293E+02 -0.39149024047E+01  0.16306071619E+02  0.57612831812E+02  0.10000000000E+01 0.  0.
<mgrwt>
<rscale>  0 0.12500906E+03</rscale>
<asrwt>0</asrwt>
<pdfrwt beam="2">  1        4 0.43307340E-02 0.12500906E+03</pdfrwt>
<pdfrwt beam="1">  1       -4 0.21351814E-01 0.12500906E+03</pdfrwt>
<totfact> 0.96002347E+03</totfact>
</mgrwt>
</event>
<event>
 5    1  0.3337119E-002  0.1250142E+03  0.7818608E-02  0.1235047E+00
         -4   -1    0    0    0  501 -0.00000000000E+00  0.00000000000E+00  0.12835819774E+02  0.12898494845E+02  0.12700000000E+01 0.  1.
          4   -1    0    0  501    0  0.00000000000E+00 -0.00000000000E+00 -0.30358787957E+03  0.30359053595E+03  0.12700000000E+01 0.  1.
         25    2    1    2    0    0  0.00000000000E+00  0.00000000000E+00 -0.29075205980E+03  0.31648903080E+03  0.12501418456E+03 0.  0.
    9000005    1    3    3    0    0  0.16965095157E+02  0.53990020386E+02 -0.21251899243E+03  0.21992739460E+03  0.10000000000E+01 0.  0.
    9000005    1    3    3    0    0 -0.16965095157E+02 -0.53990020386E+02 -0.78233067369E+02  0.96561636197E+02  0.10000000000E+01 0.  0.
<mgrwt>
<rscale>  0 0.12501418E+03</rscale>
<asrwt>0</asrwt>
<pdfrwt beam="2">  1        4 0.46710848E-01 0.12501418E+03</pdfrwt>
<pdfrwt beam="1">  1       -4 0.19797672E-02 0.12501418E+03</pdfrwt>
<totfact> 0.73552531E+03</totfact>
</mgrwt>
</event>
<event>
 5    1  0.3337119E-002  0.1250048E+03  0.7818608E-02  0.1235062E+00
          4   -1    0    0  501    0  0.00000000000E+00  0.00000000000E+00  0.19429497391E+03  0.19429912452E+03  0.12700000000E+01 0.  1.
         -4   -1    0    0    0  501 -0.00000000000E+00 -0.00000000000E+00 -0.20081865527E+02  0.20121983576E+02  0.12700000000E+01 0.  1.
         25    2    1    2    0    0  0.00000000000E+00  0.00000000000E+00  0.17421310839E+03  0.21442110809E+03  0.12500481776E+03 0.  0.
    9000005    1    3    3    0    0  0.10183488579E+02  0.12518812937E+02 -0.16454655978E+02  0.23069022960E+02  0.10000000000E+01 0.  0.
    9000005    1    3    3    0    0 -0.10183488579E+02 -0.12518812937E+02  0.19066776437E+03  0.19135208513E+03  0.10000000000E+01 0.  0.
<mgrwt>
<rscale>  0 0.12500482E+03</rscale>
<asrwt>0</asrwt>
<pdfrwt beam="1">  1        4 0.29894940E-01 0.12500482E+03</pdfrwt>
<pdfrwt beam="2">  1       -4 0.30929230E-02 0.12500482E+03</pdfrwt>
<totfact> 0.87749459E+03</totfact>
</mgrwt>
</event>
<event>
 5    1  0.3337119E-002  0.1250003E+03  0.7818608E-02  0.1235069E+00
         -4   -1    0    0    0  501 -0.00000000000E+00  0.00000000000E+00  0.30237771862E+03  0.30238038563E+03  0.12700000000E+01 0. -1.
          4   -1    0    0  501    0  0.00000000000E+00 -0.00000000000E+00 -0.12884567068E+02  0.12947006161E+02  0.12700000000E+01 0. -1.
         25    2    1    2    0    0  0.00000000000E+00  0.00000000000E+00  0.28949315155E+03  0.31532739179E+03  0.12500031689E+03 0.  0.
    9000005    1    3    3    0    0  0.20156568734E+01 -0.21111905837E+02 -0.35413120123E+01  0.21524784121E+02  0.10000000000E+01 0.  0.
    9000005    1    3    3    0    0 -0.20156568734E+01  0.21111905837E+02  0.29303446356E+03  0.29380260767E+03  0.10000000000E+01 0.  0.
<mgrwt>
<rscale>  0 0.12500032E+03</rscale>
<asrwt>0</asrwt>
<pdfrwt beam="2">  1        4 0.19872491E-02 0.12500032E+03</pdfrwt>
<pdfrwt beam="1">  1       -4 0.46524660E-01 0.12500032E+03</pdfrwt>
<totfact> 0.73714816E+03</totfact>
</mgrwt>
</event>
<event>
 5    1  0.3337119E-002  0.1249992E+03  0.7818608E-02  0.1235071E+00
          4   -1    0    0  501    0  0.00000000000E+00  0.00000000000E+00  0.16015781429E+03  0.16016284956E+03  0.12700000000E+01 0.  1.
         -4   -1    0    0    0  501 -0.00000000000E+00 -0.00000000000E+00 -0.24367744653E+02  0.24400817188E+02  0.12700000000E+01 0.  1.
         25    2    1    2    0    0  0.00000000000E+00  0.00000000000E+00  0.13579006964E+03  0.18456366675E+03  0.12499921628E+03 0.  0.
    9000005    1    3    3    0    0  0.53985231295E+02 -0.12686431005E+02  0.11042928627E+03  0.12357579859E+03  0.10000000000E+01 0.  0.
    9000005    1    3    3    0    0 -0.53985231295E+02  0.12686431005E+02  0.25360783364E+02  0.60987868158E+02  0.10000000000E+01 0.  0.
<mgrwt>
<rscale>  0 0.12499922E+03</rscale>
<asrwt>0</asrwt>
<pdfrwt beam="1">  1        4 0.24642596E-01 0.12499922E+03</pdfrwt>
<pdfrwt beam="2">  1       -4 0.37518151E-02 0.12499922E+03</pdfrwt>
<totfact> 0.92803548E+03</totfact>
</mgrwt>
</event>
<event>
 5    1  0.3337119E-002  0.1250003E+03  0.7818608E-02  0.1235069E+00
         -4   -1    0    0    0  501 -0.00000000000E+00  0.00000000000E+00  0.63829393578E+02  0.63842026789E+02  0.12700000000E+01 0.  1.
          4   -1    0    0  501    0  0.00000000000E+00 -0.00000000000E+00 -0.61173348650E+02  0.61186530258E+02  0.12700000000E+01 0.  1.
         25    2    1    2    0    0  0.00000000000E+00  0.00000000000E+00  0.26560449284E+01  0.12502855705E+03  0.12500034201E+03 0.  0.
    9000005    1    3    3    0    0  0.55404323394E+02 -0.27988303846E+02 -0.59045966981E+01  0.62360632334E+02  0.10000000000E+01 0.  0.
    9000005    1    3    3    0    0 -0.55404323394E+02  0.27988303846E+02  0.85606416265E+01  0.62667924714E+02  0.10000000000E+01 0.  0.
<mgrwt>
<rscale>  0 0.12500034E+03</rscale>
<asrwt>0</asrwt>
<pdfrwt beam="2">  1        4 0.94132702E-02 0.12500034E+03</pdfrwt>
<pdfrwt beam="1">  1       -4 0.98218924E-02 0.12500034E+03</pdfrwt>
<totfact> 0.10452162E+04</totfact>
</mgrwt>
</event>
<event>
 5    1  0.3337119E-002  0.1249987E+03  0.7818608E-02  0.1235071E+00
          4   -1    0    0  501    0  0.00000000000E+00  0.00000000000E+00  0.32110614114E+02  0.32135719049E+02  0.12700000000E+01 0. -1.
         -4   -1    0    0    0  501 -0.00000000000E+00 -0.00000000000E+00 -0.12157123757E+03  0.12157787095E+03  0.12700000000E+01 0. -1.
         25    2    1    2    0    0  0.00000000000E+00  0.00000000000E+00 -0.89460623460E+02  0.15371359000E+03  0.12499865840E+03 0.  0.
    9000005    1    3    3    0    0 -0.30104860874E+01  0.26467307929E+02  0.24785257421E+02  0.36399043956E+02  0.10000000000E+01 0.  0.
    9000005    1    3    3    0    0  0.30104860874E+01 -0.26467307929E+02 -0.11424588088E+03  0.11731454605E+03  0.10000000000E+01 0.  0.
<mgrwt>
<rscale>  0 0.12499866E+03</rscale>
<asrwt>0</asrwt>
<pdfrwt beam="1">  1        4 0.49425359E-02 0.12499866E+03</pdfrwt>
<pdfrwt beam="2">  1       -4 0.18705709E-01 0.12499866E+03</pdfrwt>
<totfact> 0.98571509E+03</totfact>
</mgrwt>
</event>
<event>
 4    1  0.3337119E-002  0.1246531E+03  0.7818608E-02  0.1235612E+00
         -4   -1    0    0    0  501 -0.00000000000E+00  0.00000000000E+00  0.22170854981E+02  0.22207199521E+02  0.12700000000E+01 0.  1.
          4   -1    0    0  501    0  0.00000000000E+00 -0.00000000000E+00 -0.17502994208E+03  0.17503454951E+03  0.12700000000E+01 0.  1.
    9000005    1    1    2    0    0 -0.32659185637E+02 -0.15194470301E+02 -0.15689674156E+03  0.16098161959E+03  0.10000000000E+01 0.  0.
    9000005    1    1    2    0    0  0.32659185637E+02  0.15194470301E+02  0.40376544580E+01  0.36260129449E+02  0.10000000000E+01 0.  0.
<mgrwt>
<rscale>  0 0.12465315E+03</rscale>
<asrwt>0</asrwt>
<pdfrwt beam="2">  1        4 0.26930833E-01 0.12465315E+03</pdfrwt>
<pdfrwt beam="1">  1       -4 0.34140510E-02 0.12465315E+03</pdfrwt>
<totfact> 0.91309366E+03</totfact>
</mgrwt>
</event>
<event>
 5    1  0.3337119E-002  0.1249973E+03  0.7818608E-02  0.1235073E+00
          4   -1    0    0  501    0  0.00000000000E+00  0.00000000000E+00  0.70502580044E+03  0.70502694429E+03  0.12700000000E+01 0. -1.
         -4   -1    0    0    0  501 -0.00000000000E+00 -0.00000000000E+00 -0.54663957898E+01  0.56119856496E+01  0.12700000000E+01 0. -1.
         25    2    1    2    0    0  0.00000000000E+00  0.00000000000E+00  0.69955940465E+03  0.71063892994E+03  0.12499731246E+03 0.  0.
    9000005    1    3    3    0    0  0.13057859705E+02 -0.61090653679E+02  0.35878027950E+03  0.36417971474E+03  0.10000000000E+01 0.  0.
    9000005    1    3    3    0    0 -0.13057859705E+02  0.61090653679E+02  0.34077912514E+03  0.34645921521E+03  0.10000000000E+01 0.  0.
<mgrwt>
<rscale>  0 0.12499731E+03</rscale>
<asrwt>0</asrwt>
<pdfrwt beam="1">  1        4 0.10847674E+00 0.12499731E+03</pdfrwt>
<pdfrwt beam="2">  1       -4 0.85227159E-03 0.12499731E+03</pdfrwt>
<totfact> 0.42533520E+03</totfact>
</mgrwt>
</event>
<event>
 5    1  0.3337119E-002  0.1249959E+03  0.7818608E-02  0.1235076E+00
         -4   -1    0    0    0  501 -0.00000000000E+00  0.00000000000E+00  0.14741488574E+02  0.14796093585E+02  0.12700000000E+01 0.  1.
          4   -1    0    0  501    0  0.00000000000E+00 -0.00000000000E+00 -0.26442014929E+03  0.26442319915E+03  0.12700000000E+01 0.  1.
         25    2    1    2    0    0  0.00000000000E+00  0.00000000000E+00 -0.24967866071E+03  0.27921929273E+03  0.12499591921E+03 0.  0.
    9000005    1    3    3    0    0  0.27709010763E+02  0.37897077694E+02 -0.32708722202E+02  0.57226202768E+02  0.10000000000E+01 0.  0.
    9000005    1    3    3    0    0 -0.27709010763E+02 -0.37897077694E+02 -0.21696993851E+03  0.22199308997E+03  0.10000000000E+01 0.  0.
<mgrwt>
<rscale>  0 0.12499592E+03</rscale>
<asrwt>0</asrwt>
<pdfrwt beam="2">  1        4 0.40684455E-01 0.12499592E+03</pdfrwt>
<pdfrwt beam="1">  1       -4 0.22723565E-02 0.12499592E+03</pdfrwt>
<totfact> 0.78288838E+03</totfact>
</mgrwt>
</event>
<event>
 5    1  0.3337119E-002  0.1250153E+03  0.7818608E-02  0.1235045E+00
         -4   -1    0    0    0  501 -0.00000000000E+00  0.00000000000E+00  0.19082203077E+03  0.19082625691E+03  0.12700000000E+01 0. -1.
          4   -1    0    0  501    0  0.00000000000E+00 -0.00000000000E+00 -0.20451512655E+02  0.20490907005E+02  0.12700000000E+01 0. -1.
         25    2    1    2    0    0  0.00000000000E+00  0.00000000000E+00  0.17037051811E+03  0.21131716392E+03  0.12501532036E+03 0.  0.
    9000005    1    3    3    0    0  0.62279715599E+02  0.22301664815E+01  0.77172494521E+02  0.99198440150E+02  0.10000000000E+01 0.  0.
    9000005    1    3    3    0    0 -0.62279715599E+02 -0.22301664815E+01  0.93198023594E+02  0.11211872377E+03  0.10000000000E+01 0.  0.
<mgrwt>
<rscale>  0 0.12501532E+03</rscale>
<asrwt>0</asrwt>
<pdfrwt beam="2">  1        4 0.31497418E-02 0.12501532E+03</pdfrwt>
<pdfrwt beam="1">  1       -4 0.29360592E-01 0.12501532E+03</pdfrwt>
<totfact> 0.88231000E+03</totfact>
</mgrwt>
</event>
<event>
 5    1  0.3337119E-002  0.1250134E+03  0.7818608E-02  0.1235048E+00
          4   -1    0    0  501    0  0.00000000000E+00  0.00000000000E+00  0.95669471249E+02  0.95677900422E+02  0.12700000000E+01 0. -1.
         -4   -1    0    0    0  501 -0.00000000000E+00 -0.00000000000E+00 -0.40819360430E+02  0.40839112208E+02  0.12700000000E+01 0. -1.
         25    2    1    2    0    0  0.00000000000E+00  0.00000000000E+00  0.54850110819E+02  0.13651701263E+03  0.12501343960E+03 0.  0.
    9000005    1    3    3    0    0  0.48548092990E+02  0.38221099935E+02  0.17162391403E+02  0.64135150206E+02  0.10000000000E+01 0.  0.
    9000005    1    3    3    0    0 -0.48548092990E+02 -0.38221099935E+02  0.37687719416E+02  0.72381862425E+02  0.10000000000E+01 0.  0.
<mgrwt>
<rscale>  0 0.12501344E+03</rscale>
<asrwt>0</asrwt>
<pdfrwt beam="1">  1        4 0.14720548E-01 0.12501344E+03</pdfrwt>
<pdfrwt beam="2">  1       -4 0.62820695E-02 0.12501344E+03</pdfrwt>
<totfact> 0.10203102E+04</totfact>
</mgrwt>
</event>
<event>
 5    1  0.3337119E-002  0.1249905E+03  0.7818608E-02  0.1235084E+00
         -4   -1    0    0    0  501 -0.00000000000E+00  0.00000000000E+00  0.12266807417E+02  0.12332374638E+02  0.12700000000E+01 0. -1.
          4   -1    0    0  501    0  0.00000000000E+00 -0.00000000000E+00 -0.31747699976E+03  0.31747953993E+03  0.12700000000E+01 0. -1.
         25    2    1    2    0    0  0.00000000000E+00  0.00000000000E+00 -0.30521019234E+03  0.32981191457E+03  0.12499054958E+03 0.  0.
    9000005    1    3    3    0    0  0.47499091277E+01 -0.54115283589E+02 -0.71119661890E+02  0.89498781344E+02  0.10000000000E+01 0.  0.
    9000005    1    3    3    0    0 -0.47499091277E+01  0.54115283589E+02 -0.23409053045E+03  0.24031313323E+03  0.10000000000E+01 0.  0.
<mgrwt>
<rscale>  0 0.12499055E+03</rscale>
<asrwt>0</asrwt>
<pdfrwt beam="2">  1        4 0.48847848E-01 0.12499055E+03</pdfrwt>
<pdfrwt beam="1">  1       -4 0.18924404E-02 0.12499055E+03</pdfrwt>
<totfact> 0.72019208E+03</totfact>
</mgrwt>
</event>
<event>
 5    1  0.3337119E-002  0.1250032E+03  0.7818608E-02  0.1235064E+00
          4   -1    0    0  501    0  0.00000000000E+00  0.00000000000E+00  0.34098501930E+02  0.34122144333E+02  0.12700000000E+01 0.  1.
         -4   -1    0    0    0  501 -0.00000000000E+00 -0.00000000000E+00 -0.11449688230E+03  0.11450392551E+03  0.12700000000E+01 0.  1.
         25    2    1    2    0    0  0.00000000000E+00  0.00000000000E+00 -0.80398380374E+02  0.14862606984E+03  0.12500323624E+03 0.  0.
    9000005    1    3    3    0    0  0.47019792907E+02 -0.41111674384E+02 -0.37699063086E+02  0.72960606174E+02  0.10000000000E+01 0.  0.
    9000005    1    3    3    0    0 -0.47019792907E+02  0.41111674384E+02 -0.42699317288E+02  0.75665463671E+02  0.10000000000E+01 0.  0.
<mgrwt>
<rscale>  0 0.12500324E+03</rscale>
<asrwt>0</asrwt>
<pdfrwt beam="1">  1        4 0.52482838E-02 0.12500324E+03</pdfrwt>
<pdfrwt beam="2">  1       -4 0.17617265E-01 0.12500324E+03</pdfrwt>
<totfact> 0.99571025E+03</totfact>
</mgrwt>
</event>
<event>
 5    1  0.3337119E-002  0.1249997E+03  0.7818608E-02  0.1235070E+00
         -4   -1    0    0    0  501 -0.00000000000E+00  0.00000000000E+00  0.13317391168E+03  0.13317996716E+03  0.12700000000E+01 0. -1.
          4   -1    0    0  501    0  0.00000000000E+00 -0.00000000000E+00 -0.29311310330E+02  0.29338810699E+02  0.12700000000E+01 0. -1.
         25    2    1    2    0    0  0.00000000000E+00  0.00000000000E+00  0.10386260135E+03  0.16251877786E+03  0.12499965279E+03 0.  0.
    9000005    1    3    3    0    0  0.16373127599E+02  0.53699149894E+02  0.87621655242E+02  0.10406840286E+03  0.10000000000E+01 0.  0.
    9000005    1    3    3    0    0 -0.16373127599E+02 -0.53699149894E+02  0.16240946108E+02  0.58450374996E+02  0.10000000000E+01 0.  0.
<mgrwt>
<rscale>  0 0.12499965E+03</rscale>
<asrwt>0</asrwt>
<pdfrwt beam="2">  1        4 0.45120136E-02 0.12499965E+03</pdfrwt>
<pdfrwt beam="1">  1       -4 0.20490875E-01 0.12499965E+03</pdfrwt>
<totfact> 0.96860126E+03</totfact>
</mgrwt>
</event>
<event>
 5    1  0.3337119E-002  0.1250002E+03  0.7818608E-02  0.1235069E+00
         -4   -1    0    0    0  501 -0.00000000000E+00  0.00000000000E+00  0.78788374523E+01  0.79805375508E+01  0.12700000000E+01 0.  1.
          4   -1    0    0  501    0  0.00000000000E+00 -0.00000000000E+00 -0.49250992284E+03  0.49251156026E+03  0.12700000000E+01 0.  1.
         25    2    1    2    0    0  0.00000000000E+00  0.00000000000E+00 -0.48463108539E+03  0.50049209781E+03  0.12500020421E+03 0.  0.
    9000005    1    3    3    0    0  0.21016557016E+02 -0.33540531682E+02 -0.43594189286E+03  0.43773621839E+03  0.10000000000E+01 0.  0.
    9000005    1    3    3    0    0 -0.21016557016E+02  0.33540531682E+02 -0.48689192523E+02  0.62755879429E+02  0.10000000000E+01 0.  0.
<mgrwt>
<rscale>  0 0.12500020E+03</rscale>
<asrwt>0</asrwt>
<pdfrwt beam="2">  1        4 0.75778683E-01 0.12500020E+03</pdfrwt>
<pdfrwt beam="1">  1       -4 0.12200783E-02 0.12500020E+03</pdfrwt>
<totfact> 0.55825965E+03</totfact>
</mgrwt>
</event>
<event>
 5    1  0.3337119E-002  0.1249997E+03  0.7818608E-02  0.1235070E+00
         -4   -1    0    0    0  501 -0.00000000000E+00  0.00000000000E+00  0.10126524545E+02  0.10205851232E+02  0.12700000000E+01 0.  1.
          4   -1    0    0  501    0  0.00000000000E+00 -0.00000000000E+00 -0.38415708705E+03  0.38415918632E+03  0.12700000000E+01 0.  1.
         25    2    1    2    0    0  0.00000000000E+00  0.00000000000E+00 -0.37403056251E+03  0.39436503755E+03  0.12499968461E+03 0.  0.
    9000005    1    3    3    0    0 -0.47503979897E+02 -0.12536557125E+02 -0.65174708234E+02  0.81624358889E+02  0.10000000000E+01 0.  0.
    9000005    1    3    3    0    0  0.47503979897E+02  0.12536557125E+02 -0.30885585427E+03  0.31274067866E+03  0.10000000000E+01 0.  0.
<mgrwt>
<rscale>  0 0.12499968E+03</rscale>
<asrwt>0</asrwt>
<pdfrwt beam="2">  1        4 0.59107343E-01 0.12499968E+03</pdfrwt>
<pdfrwt beam="1">  1       -4 0.15641907E-02 0.12499968E+03</pdfrwt>
<totfact> 0.65105012E+03</totfact>
</mgrwt>
</event>
<event>
 5    1  0.3337119E-002  0.1250008E+03  0.7818608E-02  0.1235068E+00
          4   -1    0    0  501    0  0.00000000000E+00  0.00000000000E+00  0.32118093816E+02  0.32143192909E+02  0.12700000000E+01 0.  1.
         -4   -1    0    0    0  501 -0.00000000000E+00 -0.00000000000E+00 -0.12154701796E+03  0.12155365266E+03  0.12700000000E+01 0.  1.
         25    2    1    2    0    0  0.00000000000E+00  0.00000000000E+00 -0.89428924142E+02  0.15369684557E+03  0.12500075145E+03 0.  0.
    9000005    1    3    3    0    0  0.37488182177E+02  0.48500068417E+02 -0.29772485021E+02  0.68154393136E+02  0.10000000000E+01 0.  0.
    9000005    1    3    3    0    0 -0.37488182177E+02 -0.48500068417E+02 -0.59656439120E+02  0.85542452431E+02  0.10000000000E+01 0.  0.
<mgrwt>
<rscale>  0 0.12500075E+03</rscale>
<asrwt>0</asrwt>
<pdfrwt beam="1">  1        4 0.49436863E-02 0.12500075E+03</pdfrwt>
<pdfrwt beam="2">  1       -4 0.18701982E-01 0.12500075E+03</pdfrwt>
<totfact> 0.98570160E+03</totfact>
</mgrwt>
</event>
<event>
 5    1  0.3337119E-002  0.1249992E+03  0.7818608E-02  0.1235071E+00
         -4   -1    0    0    0  501 -0.00000000000E+00  0.00000000000E+00  0.48538552541E+02  0.48555164326E+02  0.12700000000E+01 0. -1.
          4   -1    0    0  501    0  0.00000000000E+00 -0.00000000000E+00 -0.80440849194E+02  0.80450873948E+02  0.12700000000E+01 0. -1.
         25    2    1    2    0    0  0.00000000000E+00  0.00000000000E+00 -0.31902296653E+02  0.12900603827E+03  0.12499920552E+03 0.  0.
    9000005    1    3    3    0    0 -0.47817124349E+02 -0.36894864332E+02 -0.32512074212E+02  0.68598421008E+02  0.10000000000E+01 0.  0.
    9000005    1    3    3    0    0  0.47817124349E+02  0.36894864332E+02  0.60977755927E+00  0.60407617267E+02  0.10000000000E+01 0.  0.
<mgrwt>
<rscale>  0 0.12499921E+03</rscale>
<asrwt>0</asrwt>
<pdfrwt beam="2">  1        4 0.12377564E-01 0.12499921E+03</pdfrwt>
<pdfrwt beam="1">  1       -4 0.74695186E-02 0.12499921E+03</pdfrwt>
<totfact> 0.10366003E+04</totfact>
</mgrwt>
</event>
<event>
 5    1  0.3337119E-002  0.1249974E+03  0.7818608E-02  0.1235073E+00
         -4   -1    0    0    0  501 -0.00000000000E+00  0.00000000000E+00  0.32055914350E+02  0.32081062090E+02  0.12700000000E+01 0. -1.
          4   -1    0    0  501    0  0.00000000000E+00 -0.00000000000E+00 -0.12177614133E+03  0.12178276355E+03  0.12700000000E+01 0. -1.
         25    2    1    2    0    0  0.00000000000E+00  0.00000000000E+00 -0.89720226978E+02  0.15386382564E+03  0.12499743081E+03 0.  0.
    9000005    1    3    3    0    0 -0.61711292334E+02 -0.41695853040E+01 -0.33890244721E+02  0.70535223331E+02  0.10000000000E+01 0.  0.
    9000005    1    3    3    0    0  0.61711292334E+02  0.41695853040E+01 -0.55829982257E+02  0.83328602305E+02  0.10000000000E+01 0.  0.
<mgrwt>
<rscale>  0 0.12499743E+03</rscale>
<asrwt>0</asrwt>
<pdfrwt beam="2">  1        4 0.18737235E-01 0.12499743E+03</pdfrwt>
<pdfrwt beam="1">  1       -4 0.49341230E-02 0.12499743E+03</pdfrwt>
<totfact> 0.98544699E+03</totfact>
</mgrwt>
</event>
<event>
 5    1  0.3337119E-002  0.1249998E+03  0.7818608E-02  0.1235070E+00
          4   -1    0    0  501    0  0.00000000000E+00  0.00000000000E+00  0.15407062369E+02  0.15459316635E+02  0.12700000000E+01 0.  1.
         -4   -1    0    0    0  501 -0.00000000000E+00 -0.00000000000E+00 -0.25305246331E+03  0.25305565018E+03  0.12700000000E+01 0.  1.
         25    2    1    2    0    0  0.00000000000E+00  0.00000000000E+00 -0.23764540094E+03  0.26851496682E+03  0.12499980326E+03 0.  0.
    9000005    1    3    3    0    0 -0.22205012142E+02  0.65531589489E+01  0.58652764167E+01  0.23904140308E+02  0.10000000000E+01 0.  0.
    9000005    1    3    3    0    0  0.22205012142E+02 -0.65531589489E+01 -0.24351067736E+03  0.24461082651E+03  0.10000000000E+01 0.  0.
<mgrwt>
<rscale>  0 0.12499980E+03</rscale>
<asrwt>0</asrwt>
<pdfrwt beam="1">  1        4 0.23745822E-02 0.12499980E+03</pdfrwt>
<pdfrwt beam="2">  1       -4 0.38935410E-01 0.12499980E+03</pdfrwt>
<totfact> 0.79726110E+03</totfact>
</mgrwt>
</event>
<event>
 5    1  0.3337119E-002  0.1250010E+03  0.7818608E-02  0.1235068E+00
         -4   -1    0    0    0  501 -0.00000000000E+00  0.00000000000E+00  0.25998857786E+03  0.25999167970E+03  0.12700000000E+01 0.  1.
          4   -1    0    0  501    0  0.00000000000E+00 -0.00000000000E+00 -0.14994912205E+02  0.15048597677E+02  0.12700000000E+01 0.  1.
         25    2    1    2    0    0  0.00000000000E+00  0.00000000000E+00  0.24499366565E+03  0.27504027738E+03  0.12500103189E+03 0.  0.
    9000005    1    3    3    0    0 -0.23910717711E+02 -0.26812957782E+02  0.23500656529E+03  0.23773881226E+03  0.10000000000E+01 0.  0.
    9000005    1    3    3    0    0  0.23910717711E+02  0.26812957782E+02  0.99871003612E+01  0.37301465120E+02  0.10000000000E+01 0.  0.
<mgrwt>
<rscale>  0 0.12500103E+03</rscale>
<asrwt>0</asrwt>
<pdfrwt beam="2">  1        4 0.23112778E-02 0.12500103E+03</pdfrwt>
<pdfrwt beam="1">  1       -4 0.40002611E-01 0.12500103E+03</pdfrwt>
<totfact> 0.78838548E+03</totfact>
</mgrwt>
</event>
<event>
 5    1  0.3337119E-002  0.1250006E+03  0.7818608E-02  0.1235068E+00
          4   -1    0    0  501    0  0.00000000000E+00  0.00000000000E+00  0.34853989035E+02  0.34877119314E+02  0.12700000000E+01 0.  1.
         -4   -1    0    0    0  501 -0.00000000000E+00 -0.00000000000E+00 -0.11201193075E+03  0.11201913020E+03  0.12700000000E+01 0.  1.
         25    2    1    2    0    0  0.00000000000E+00  0.00000000000E+00 -0.77157941718E+02  0.14689624952E+03  0.12500064061E+03 0.  0.
    9000005    1    3    3    0    0  0.57355159686E+02  0.15274614663E+02 -0.61558215130E+02  0.85518080227E+02  0.10000000000E+01 0.  0.
    9000005    1    3    3    0    0 -0.57355159686E+02 -0.15274614663E+02 -0.15599726589E+02  0.61378169290E+02  0.10000000000E+01 0.  0.
<mgrwt>
<rscale>  0 0.12500064E+03</rscale>
<asrwt>0</asrwt>
<pdfrwt beam="1">  1        4 0.53644853E-02 0.12500064E+03</pdfrwt>
<pdfrwt beam="2">  1       -4 0.17234938E-01 0.12500064E+03</pdfrwt>
<totfact> 0.99924581E+03</totfact>
</mgrwt>
</event>
<event>
 5    1  0.3337119E-002  0.1250003E+03  0.7818608E-02  0.1235069E+00
          4   -1    0    0  501    0  0.00000000000E+00  0.00000000000E+00  0.70435494923E+02  0.70446943475E+02  0.12700000000E+01 0. -1.
         -4   -1    0    0    0  501 -0.00000000000E+00 -0.00000000000E+00 -0.55435591582E+02  0.55450137187E+02  0.12700000000E+01 0. -1.
         25    2    1    2    0    0  0.00000000000E+00  0.00000000000E+00  0.14999903340E+02  0.12589708066E+03  0.12500031128E+03 0.  0.
    9000005    1    3    3    0    0  0.55698927943E+02  0.25601175613E+02 -0.47312519975E+01  0.61491263707E+02  0.10000000000E+01 0.  0.
    9000005    1    3    3    0    0 -0.55698927943E+02 -0.25601175613E+02  0.19731155338E+02  0.64405816956E+02  0.10000000000E+01 0.  0.
<mgrwt>
<rscale>  0 0.12500031E+03</rscale>
<asrwt>0</asrwt>
<pdfrwt beam="1">  1        4 0.10838230E-01 0.12500031E+03</pdfrwt>
<pdfrwt beam="2">  1       -4 0.85305521E-02 0.12500031E+03</pdfrwt>
<totfact> 0.10433140E+04</totfact>
</mgrwt>
</event>
<event>
 5    1  0.3337119E-002  0.1249968E+03  0.7818608E-02  0.1235074E+00
          4   -1    0    0  501    0  0.00000000000E+00  0.00000000000E+00  0.34881997542E+01  0.37122011698E+01  0.12700000000E+01 0. -1.
         -4   -1    0    0    0  501 -0.00000000000E+00 -0.00000000000E+00 -0.10847292274E+04  0.10847299709E+04  0.12700000000E+01 0. -1.
         25    2    1    2    0    0  0.00000000000E+00  0.00000000000E+00 -0.10812410277E+04  0.10884421721E+04  0.12499680789E+03 0.  0.
    9000005    1    3    3    0    0 -0.40886950005E+01  0.31528164305E+02 -0.10090872995E+04  0.10095884908E+04  0.10000000000E+01 0.  0.
    9000005    1    3    3    0    0  0.40886950005E+01 -0.31528164305E+02 -0.72153728151E+02  0.78853681318E+02  0.10000000000E+01 0.  0.
<mgrwt>
<rscale>  0 0.12499681E+03</rscale>
<asrwt>0</asrwt>
<pdfrwt beam="1">  1        4 0.55393505E-03 0.12499681E+03</pdfrwt>
<pdfrwt beam="2">  1       -4 0.16689845E+00 0.12499681E+03</pdfrwt>
<totfact> 0.27826122E+03</totfact>
</mgrwt>
</event>
<event>
 5    1  0.3337119E-002  0.1250002E+03  0.7818608E-02  0.1235069E+00
         -4   -1    0    0    0  501 -0.00000000000E+00  0.00000000000E+00  0.36627204379E+03  0.36627424556E+03  0.12700000000E+01 0.  1.
          4   -1    0    0  501    0  0.00000000000E+00 -0.00000000000E+00 -0.10624870644E+02  0.10700503549E+02  0.12700000000E+01 0.  1.
         25    2    1    2    0    0  0.00000000000E+00  0.00000000000E+00  0.35564717314E+03  0.37697474911E+03  0.12500019880E+03 0.  0.
    9000005    1    3    3    0    0  0.24156224486E+02  0.57307591025E+02  0.19631097802E+03  0.20592883057E+03  0.10000000000E+01 0.  0.
    9000005    1    3    3    0    0 -0.24156224486E+02 -0.57307591025E+02  0.15933619513E+03  0.17104591854E+03  0.10000000000E+01 0.  0.
<mgrwt>
<rscale>  0 0.12500020E+03</rscale>
<asrwt>0</asrwt>
<pdfrwt beam="2">  1        4 0.16405832E-02 0.12500020E+03</pdfrwt>
<pdfrwt beam="1">  1       -4 0.56355519E-01 0.12500020E+03</pdfrwt>
<totfact> 0.66855219E+03</totfact>
</mgrwt>
</event>
<event>
 5    1  0.3337119E-002  0.1249990E+03  0.7818608E-02  0.1235071E+00
          4   -1    0    0  501    0  0.00000000000E+00  0.00000000000E+00  0.72253724098E+03  0.72253835711E+03  0.12700000000E+01 0.  1.
         -4   -1    0    0    0  501 -0.00000000000E+00 -0.00000000000E+00 -0.53304856424E+01  0.54796876903E+01  0.12700000000E+01 0.  1.
         25    2    1    2    0    0  0.00000000000E+00  0.00000000000E+00  0.71720675533E+03  0.72801804480E+03  0.12499897464E+03 0.  0.
    9000005    1    3    3    0    0 -0.21932791341E+02  0.31331086246E+02  0.64644468804E+03  0.64757580174E+03  0.10000000000E+01 0.  0.
    9000005    1    3    3    0    0  0.21932791341E+02 -0.31331086246E+02  0.70762067290E+02  0.80442243060E+02  0.10000000000E+01 0.  0.
<mgrwt>
<rscale>  0 0.12499897E+03</rscale>
<asrwt>0</asrwt>
<pdfrwt beam="1">  1        4 0.11117107E+00 0.12499897E+03</pdfrwt>
<pdfrwt beam="2">  1       -4 0.83163819E-03 0.12499897E+03</pdfrwt>
<totfact> 0.41649197E+03</totfact>
</mgrwt>
</event>
<event>
 5    1  0.3337119E-002  0.1250028E+03  0.7818608E-02  0.1235065E+00
          4   -1    0    0  501    0  0.00000000000E+00  0.00000000000E+00  0.70589603310E+03  0.70589717555E+03  0.12700000000E+01 0. -1.
         -4   -1    0    0    0  501 -0.00000000000E+00 -0.00000000000E+00 -0.54599734757E+01  0.56057301358E+01  0.12700000000E+01 0. -1.
         25    2    1    2    0    0  0.00000000000E+00  0.00000000000E+00  0.70043605962E+03  0.71150290568E+03  0.12500284466E+03 0.  0.
    9000005    1    3    3    0    0 -0.28656660331E+02  0.53805226343E+02  0.42851441516E+03  0.43283000193E+03  0.10000000000E+01 0.  0.
    9000005    1    3    3    0    0  0.28656660331E+02 -0.53805226343E+02  0.27192164446E+03  0.27867290376E+03  0.10000000000E+01 0.  0.
<mgrwt>
<rscale>  0 0.12500284E+03</rscale>
<asrwt>0</asrwt>
<pdfrwt beam="1">  1        4 0.10861065E+00 0.12500284E+03</pdfrwt>
<pdfrwt beam="2">  1       -4 0.85129615E-03 0.12500284E+03</pdfrwt>
<totfact> 0.42483760E+03</totfact>
</mgrwt>
</event>
<event>
 5    1  0.3337119E-002  0.1249931E+03  0.7818608E-02  0.1235080E+00
         -4   -1    0    0    0  501 -0.00000000000E+00  0.00000000000E+00  0.12315517446E+03  0.12316172253E+03  0.12700000000E+01 0. -1.
          4   -1    0    0  501    0  0.00000000000E+00 -0.00000000000E+00 -0.31694521350E+02  0.31719955605E+02  0.12700000000E+01 0. -1.
         25    2    1    2    0    0  0.00000000000E+00  0.00000000000E+00  0.91460653110E+02  0.15488167813E+03  0.12499313243E+03 0.  0.
    9000005    1    3    3    0    0 -0.61502157722E+02 -0.10735823224E+02  0.42440818628E+02  0.75498320449E+02  0.10000000000E+01 0.  0.
    9000005    1    3    3    0    0  0.61502157722E+02  0.10735823224E+02  0.49019834482E+02  0.79383357685E+02  0.10000000000E+01 0.  0.
<mgrwt>
<rscale>  0 0.12499313E+03</rscale>
<asrwt>0</asrwt>
<pdfrwt beam="2">  1        4 0.48785403E-02 0.12499313E+03</pdfrwt>
<pdfrwt beam="1">  1       -4 0.18949410E-01 0.12499313E+03</pdfrwt>
<totfact> 0.98353922E+03</totfact>
</mgrwt>
</event>
<event>
 5    1  0.3337119E-002  0.1249981E+03  0.7818608E-02  0.1235072E+00
          4   -1    0    0  501    0  0.00000000000E+00  0.00000000000E+00  0.27911245296E+02  0.27940123729E+02  0.12700000000E+01 0.  1.
         -4   -1    0    0    0  501 -0.00000000000E+00 -0.00000000000E+00 -0.13984411547E+03  0.13984988213E+03  0.12700000000E+01 0.  1.
         25    2    1    2    0    0  0.00000000000E+00  0.00000000000E+00 -0.11193287017E+03  0.16779000586E+03  0.12499807455E+03 0.  0.
    9000005    1    3    3    0    0  0.13971303874E+02 -0.47455042051E+02 -0.47116665630E+01  0.49702898807E+02  0.10000000000E+01 0.  0.
    9000005    1    3    3    0    0 -0.13971303874E+02  0.47455042051E+02 -0.10722120361E+03  0.11808710705E+03  0.10000000000E+01 0.  0.
<mgrwt>
<rscale>  0 0.12499807E+03</rscale>
<asrwt>0</asrwt>
<pdfrwt beam="1">  1        4 0.42967028E-02 0.12499807E+03</pdfrwt>
<pdfrwt beam="2">  1       -4 0.21517144E-01 0.12499807E+03</pdfrwt>
<totfact> 0.95865749E+03</totfact>
</mgrwt>
</event>
<event>
 5    1  0.3337119E-002  0.1249693E+03  0.7818608E-02  0.1235117E+00
         -4   -1    0    0    0  501 -0.00000000000E+00  0.00000000000E+00  0.22230008868E+04  0.22230012496E+04  0.12700000000E+01 0.  1.
          4   -1    0    0  501    0  0.00000000000E+00 -0.00000000000E+00 -0.15263413535E+01  0.19856026610E+01  0.12700000000E+01 0.  1.
         25    2    1    2    0    0  0.00000000000E+00  0.00000000000E+00  0.22214745455E+04  0.22249868523E+04  0.12496934247E+03 0.  0.
    9000005    1    3    3    0    0 -0.29359887107E+02  0.44309573140E+00  0.20925797166E+04  0.20927859588E+04  0.10000000000E+01 0.  0.
    9000005    1    3    3    0    0  0.29359887107E+02 -0.44309573140E+00  0.12889482891E+03  0.13220089344E+03  0.10000000000E+01 0.  0.
<mgrwt>
<rscale>  0 0.12496934E+03</rscale>
<asrwt>0</asrwt>
<pdfrwt beam="2">  1        4 0.27017770E-03 0.12496934E+03</pdfrwt>
<pdfrwt beam="1">  1       -4 0.34203517E+00 0.12496934E+03</pdfrwt>
<totfact> 0.72079710E+02</totfact>
</mgrwt>
</event>
<event>
 5    1  0.3337119E-002  0.1249997E+03  0.7818608E-02  0.1235070E+00
         -4   -1    0    0    0  501 -0.00000000000E+00  0.00000000000E+00  0.36310340754E+02  0.36332543892E+02  0.12700000000E+01 0.  1.
          4   -1    0    0  501    0  0.00000000000E+00 -0.00000000000E+00 -0.10752018603E+03  0.10752768622E+03  0.12700000000E+01 0.  1.
         25    2    1    2    0    0  0.00000000000E+00  0.00000000000E+00 -0.71209845273E+02  0.14386023011E+03  0.12499969497E+03 0.  0.
    9000005    1    3    3    0    0 -0.28779643627E+02  0.31037724274E+02  0.17306024019E+02  0.45739552717E+02  0.10000000000E+01 0.  0.
    9000005    1    3    3    0    0  0.28779643627E+02 -0.31037724274E+02 -0.88515869292E+02  0.98120677393E+02  0.10000000000E+01 0.  0.
<mgrwt>
<rscale>  0 0.12499969E+03</rscale>
<asrwt>0</asrwt>
<pdfrwt beam="2">  1        4 0.16543852E-01 0.12499969E+03</pdfrwt>
<pdfrwt beam="1">  1       -4 0.55884912E-02 0.12499969E+03</pdfrwt>
<totfact> 0.10054267E+04</totfact>
</mgrwt>
</event>
<event>
 5    1  0.3337119E-002  0.1249841E+03  0.7818608E-02  0.1235094E+00
          4   -1    0    0  501    0  0.00000000000E+00  0.00000000000E+00  0.30723432964E+02  0.30749670455E+02  0.12700000000E+01 0.  1.
         -4   -1    0    0    0  501 -0.00000000000E+00 -0.00000000000E+00 -0.12702638965E+03  0.12703273817E+03  0.12700000000E+01 0.  1.
         25    2    1    2    0    0  0.00000000000E+00  0.00000000000E+00 -0.96302956688E+02  0.15778240863E+03  0.12498411501E+03 0.  0.
    9000005    1    3    3    0    0 -0.28703404936E+02 -0.12028460815E+02  0.20248931744E+02  0.37142813050E+02  0.10000000000E+01 0.  0.
    9000005    1    3    3    0    0  0.28703404936E+02  0.12028460815E+02 -0.11655188843E+03  0.12063959558E+03  0.10000000000E+01 0.  0.
<mgrwt>
<rscale>  0 0.12498412E+03</rscale>
<asrwt>0</asrwt>
<pdfrwt beam="1">  1        4 0.47291887E-02 0.12498412E+03</pdfrwt>
<pdfrwt beam="2">  1       -4 0.19545028E-01 0.12498412E+03</pdfrwt>
<totfact> 0.97806957E+03</totfact>
</mgrwt>
</event>
<event>
 5    1  0.3337119E-002  0.1249965E+03  0.7818608E-02  0.1235075E+00
         -4   -1    0    0    0  501 -0.00000000000E+00  0.00000000000E+00  0.21593937476E+03  0.21594310934E+03  0.12700000000E+01 0.  1.
          4   -1    0    0  501    0  0.00000000000E+00 -0.00000000000E+00 -0.18062381115E+02  0.18106974113E+02  0.12700000000E+01 0.  1.
         25    2    1    2    0    0  0.00000000000E+00  0.00000000000E+00  0.19787699365E+03  0.23405008346E+03  0.12499654776E+03 0.  0.
    9000005    1    3    3    0    0 -0.28829815570E+02  0.55442546473E+02  0.98945132959E+02  0.11703065223E+03  0.10000000000E+01 0.  0.
    9000005    1    3    3    0    0  0.28829815570E+02 -0.55442546473E+02  0.98931860690E+02  0.11701943123E+03  0.10000000000E+01 0.  0.
<mgrwt>
<rscale>  0 0.12499655E+03</rscale>
<asrwt>0</asrwt>
<pdfrwt beam="2">  1        4 0.27825455E-02 0.12499655E+03</pdfrwt>
<pdfrwt beam="1">  1       -4 0.33225159E-01 0.12499655E+03</pdfrwt>
<totfact> 0.84698080E+03</totfact>
</mgrwt>
</event>
<event>
 5    1  0.3337119E-002  0.1250014E+03  0.7818608E-02  0.1235067E+00
          4   -1    0    0  501    0  0.00000000000E+00  0.00000000000E+00  0.20829000895E+02  0.20867682629E+02  0.12700000000E+01 0.  1.
         -4   -1    0    0    0  501 -0.00000000000E+00 -0.00000000000E+00 -0.18732827405E+03  0.18733257901E+03  0.12700000000E+01 0.  1.
         25    2    1    2    0    0  0.00000000000E+00  0.00000000000E+00 -0.16649927316E+03  0.20820026164E+03  0.12500136394E+03 0.  0.
    9000005    1    3    3    0    0  0.22478190162E+02  0.16016153311E+02 -0.17663453260E+03  0.17878071570E+03  0.10000000000E+01 0.  0.
    9000005    1    3    3    0    0 -0.22478190162E+02 -0.16016153311E+02  0.10135259437E+02  0.29419545946E+02  0.10000000000E+01 0.  0.
<mgrwt>
<rscale>  0 0.12500136E+03</rscale>
<asrwt>0</asrwt>
<pdfrwt beam="1">  1        4 0.32077685E-02 0.12500136E+03</pdfrwt>
<pdfrwt beam="2">  1       -4 0.28823040E-01 0.12500136E+03</pdfrwt>
<totfact> 0.88767941E+03</totfact>
</mgrwt>
</event>
<event>
 5    1  0.3337119E-002  0.1249985E+03  0.7818608E-02  0.1235072E+00
          4   -1    0    0  501    0  0.00000000000E+00  0.00000000000E+00  0.51906147079E+02  0.51921681449E+02  0.12700000000E+01 0. -1.
         -4   -1    0    0    0  501 -0.00000000000E+00 -0.00000000000E+00 -0.75222077328E+02  0.75232797485E+02  0.12700000000E+01 0. -1.
         25    2    1    2    0    0  0.00000000000E+00  0.00000000000E+00 -0.23315930249E+02  0.12715447893E+03  0.12499851563E+03 0.  0.
    9000005    1    3    3    0    0  0.96941620916E+01  0.43378163076E+02 -0.56341850930E+02  0.71770787767E+02  0.10000000000E+01 0.  0.
    9000005    1    3    3    0    0 -0.96941620916E+01 -0.43378163076E+02  0.33025920681E+02  0.55383691168E+02  0.10000000000E+01 0.  0.
<mgrwt>
<rscale>  0 0.12499852E+03</rscale>
<asrwt>0</asrwt>
<pdfrwt beam="1">  1        4 0.79875807E-02 0.12499852E+03</pdfrwt>
<pdfrwt beam="2">  1       -4 0.11574647E-01 0.12499852E+03</pdfrwt>
<totfact> 0.10406140E+04</totfact>
</mgrwt>
</event>
<event>
 5    1  0.3337119E-002  0.1250285E+03  0.7818608E-02  0.1235025E+00
          4   -1    0    0  501    0  0.00000000000E+00  0.00000000000E+00  0.82828200129E+01  0.83796185692E+01  0.12700000000E+01 0. -1.
         -4   -1    0    0    0  501 -0.00000000000E+00 -0.00000000000E+00 -0.46898497683E+03  0.46898669639E+03  0.12700000000E+01 0. -1.
         25    2    1    2    0    0  0.00000000000E+00  0.00000000000E+00 -0.46070215681E+03  0.47736631496E+03  0.12502848221E+03 0.  0.
    9000005    1    3    3    0    0 -0.76650346000E+01 -0.48583487491E+02 -0.37762740438E+03  0.38081828285E+03  0.10000000000E+01 0.  0.
    9000005    1    3    3    0    0  0.76650346000E+01  0.48583487491E+02 -0.83074752431E+02  0.96548032107E+02  0.10000000000E+01 0.  0.
<mgrwt>
<rscale>  0 0.12502848E+03</rscale>
<asrwt>0</asrwt>
<pdfrwt beam="1">  1        4 0.12818587E-02 0.12502848E+03</pdfrwt>
<pdfrwt beam="2">  1       -4 0.72159093E-01 0.12502848E+03</pdfrwt>
<totfact> 0.57628127E+03</totfact>
</mgrwt>
</event>
<event>
 5    1  0.3337119E-002  0.1249995E+03  0.7818608E-02  0.1235070E+00
          4   -1    0    0  501    0  0.00000000000E+00  0.00000000000E+00  0.32665302708E+02  0.32689981661E+02  0.12700000000E+01 0. -1.
         -4   -1    0    0    0  501 -0.00000000000E+00 -0.00000000000E+00 -0.11950991182E+03  0.11951665961E+03  0.12700000000E+01 0. -1.
         25    2    1    2    0    0  0.00000000000E+00  0.00000000000E+00 -0.86844609113E+02  0.15220664127E+03  0.12499950206E+03 0.  0.
    9000005    1    3    3    0    0 -0.45894238888E+02 -0.92479673671E+01  0.69806882936E+01  0.47344863212E+02  0.10000000000E+01 0.  0.
    9000005    1    3    3    0    0  0.45894238888E+02  0.92479673671E+01 -0.93825297407E+02  0.10486177806E+03  0.10000000000E+01 0.  0.
<mgrwt>
<rscale>  0 0.12499950E+03</rscale>
<asrwt>0</asrwt>
<pdfrwt beam="1">  1        4 0.50278487E-02 0.12499950E+03</pdfrwt>
<pdfrwt beam="2">  1       -4 0.18388558E-01 0.12499950E+03</pdfrwt>
<totfact> 0.98866750E+03</totfact>
</mgrwt>
</event>
<event>
 5    1  0.3337119E-002  0.1250107E+03  0.7818608E-02  0.1235053E+00
          4   -1    0    0  501    0  0.00000000000E+00  0.00000000000E+00  0.18249864953E+03  0.18250306841E+03  0.12700000000E+01 0. -1.
         -4   -1    0    0    0  501 -0.00000000000E+00 -0.00000000000E+00 -0.21384425222E+02  0.21422104053E+02  0.12700000000E+01 0. -1.
         25    2    1    2    0    0  0.00000000000E+00  0.00000000000E+00  0.16111422430E+03  0.20392517246E+03  0.12501073030E+03 0.  0.
    9000005    1    3    3    0    0 -0.22780818059E+02 -0.15926588373E+02 -0.10754172115E+02  0.29820699296E+02  0.10000000000E+01 0.  0.
    9000005    1    3    3    0    0  0.22780818059E+02  0.15926588373E+02  0.17186839642E+03  0.17410447317E+03  0.10000000000E+01 0.  0.
<mgrwt>
<rscale>  0 0.12501073E+03</rscale>
<asrwt>0</asrwt>
<pdfrwt beam="1">  1        4 0.28079953E-01 0.12501073E+03</pdfrwt>
<pdfrwt beam="2">  1       -4 0.32931499E-02 0.12501073E+03</pdfrwt>
<totfact> 0.89456217E+03</totfact>
</mgrwt>
</event>
<event>
 5    1  0.3337119E-002  0.1249694E+03  0.7818608E-02  0.1235117E+00
          4   -1    0    0  501    0  0.00000000000E+00  0.00000000000E+00  0.60026108656E+01  0.61354899726E+01  0.12700000000E+01 0.  1.
         -4   -1    0    0    0  501 -0.00000000000E+00 -0.00000000000E+00 -0.64318545625E+03  0.64318671008E+03  0.12700000000E+01 0.  1.
         25    2    1    2    0    0  0.00000000000E+00  0.00000000000E+00 -0.63718284538E+03  0.64932220006E+03  0.12496936039E+03 0.  0.
    9000005    1    3    3    0    0  0.15487977687E+02 -0.48344093546E+01 -0.51094694997E+01  0.17039825270E+02  0.10000000000E+01 0.  0.
    9000005    1    3    3    0    0 -0.15487977687E+02  0.48344093546E+01 -0.63207337588E+03  0.63228237479E+03  0.10000000000E+01 0.  0.
<mgrwt>
<rscale>  0 0.12496936E+03</rscale>
<asrwt>0</asrwt>
<pdfrwt beam="1">  1        4 0.93379702E-03 0.12496936E+03</pdfrwt>
<pdfrwt beam="2">  1       -4 0.98961873E-01 0.12496936E+03</pdfrwt>
<totfact> 0.45925913E+03</totfact>
</mgrwt>
</event>
<event>
 5    1  0.3337119E-002  0.1250229E+03  0.7818608E-02  0.1235033E+00
          4   -1    0    0  501    0  0.00000000000E+00  0.00000000000E+00  0.10170315141E+03  0.10171108055E+03  0.12700000000E+01 0.  1.
         -4   -1    0    0    0  501 -0.00000000000E+00 -0.00000000000E+00 -0.38402511196E+02  0.38423505387E+02  0.12700000000E+01 0.  1.
         25    2    1    2    0    0  0.00000000000E+00  0.00000000000E+00  0.63300640215E+02  0.14013458594E+03  0.12502292240E+03 0.  0.
    9000005    1    3    3    0    0  0.48420310096E+02  0.47616163766E+01  0.75629101163E+02  0.89933088255E+02  0.10000000000E+01 0.  0.
    9000005    1    3    3    0    0 -0.48420310096E+02 -0.47616163766E+01 -0.12328460948E+02  0.50201497684E+02  0.10000000000E+01 0.  0.
<mgrwt>
<rscale>  0 0.12502292E+03</rscale>
<asrwt>0</asrwt>
<pdfrwt beam="1">  1        4 0.15648864E-01 0.12502292E+03</pdfrwt>
<pdfrwt beam="2">  1       -4 0.59103035E-02 0.12502292E+03</pdfrwt>
<totfact> 0.10125567E+04</totfact>
</mgrwt>
</event>
<event>
 5    1  0.3337119E-002  0.1250029E+03  0.7818608E-02  0.1235065E+00
         -4   -1    0    0    0  501 -0.00000000000E+00  0.00000000000E+00  0.10918374878E+04  0.10918382264E+04  0.12700000000E+01 0. -1.
          4   -1    0    0  501    0  0.00000000000E+00 -0.00000000000E+00 -0.34643872498E+01  0.36898345514E+01  0.12700000000E+01 0. -1.
         25    2    1    2    0    0  0.00000000000E+00  0.00000000000E+00  0.10883731005E+04  0.10955280609E+04  0.12500290544E+03 0.  0.
    9000005    1    3    3    0    0 -0.24940821912E+02 -0.35845360153E+02  0.93597819066E+03  0.93699685583E+03  0.10000000000E+01 0.  0.
    9000005    1    3    3    0    0  0.24940821912E+02  0.35845360153E+02  0.15239490985E+03  0.15853120510E+03  0.10000000000E+01 0.  0.
<mgrwt>
<rscale>  0 0.12500291E+03</rscale>
<asrwt>0</asrwt>
<pdfrwt beam="2">  1        4 0.55038052E-03 0.12500291E+03</pdfrwt>
<pdfrwt beam="1">  1       -4 0.16799272E+00 0.12500291E+03</pdfrwt>
<totfact> 0.27612825E+03</totfact>
</mgrwt>
</event>
<event>
 5    1  0.3337119E-002  0.1249963E+03  0.7818608E-02  0.1235075E+00
          4   -1    0    0  501    0  0.00000000000E+00  0.00000000000E+00  0.29749794360E+03  0.29750065436E+03  0.12700000000E+01 0.  1.
         -4   -1    0    0    0  501 -0.00000000000E+00 -0.00000000000E+00 -0.13096080611E+02  0.13157516003E+02  0.12700000000E+01 0.  1.
         25    2    1    2    0    0  0.00000000000E+00  0.00000000000E+00  0.28440186299E+03  0.31065817037E+03  0.12499631652E+03 0.  0.
    9000005    1    3    3    0    0  0.22181901620E+02 -0.19317555154E+01  0.28731685681E+03  0.28818005595E+03  0.10000000000E+01 0.  0.
    9000005    1    3    3    0    0 -0.22181901620E+02  0.19317555154E+01 -0.29149938197E+01  0.22478114419E+02  0.10000000000E+01 0.  0.
<mgrwt>
<rscale>  0 0.12499632E+03</rscale>
<asrwt>0</asrwt>
<pdfrwt beam="1">  1        4 0.45773847E-01 0.12499632E+03</pdfrwt>
<pdfrwt beam="2">  1       -4 0.20197160E-02 0.12499632E+03</pdfrwt>
<totfact> 0.74287125E+03</totfact>
</mgrwt>
</event>
<event>
 5    1  0.3337119E-002  0.1250026E+03  0.7818608E-02  0.1235065E+00
          4   -1    0    0  501    0  0.00000000000E+00  0.00000000000E+00  0.11050320527E+04  0.11050327825E+04  0.12700000000E+01 0.  1.
         -4   -1    0    0    0  501 -0.00000000000E+00 -0.00000000000E+00 -0.34202932021E+01  0.36484661967E+01  0.12700000000E+01 0.  1.
         25    2    1    2    0    0  0.00000000000E+00  0.00000000000E+00  0.11016117595E+04  0.11086812487E+04  0.12500257014E+03 0.  0.
    9000005    1    3    3    0    0  0.30752618215E+02  0.24774537199E+02  0.98038521228E+03  0.98118075077E+03  0.10000000000E+01 0.  0.
    9000005    1    3    3    0    0 -0.30752618215E+02 -0.24774537199E+02  0.12122654717E+03  0.12750049788E+03  0.10000000000E+01 0.  0.
<mgrwt>
<rscale>  0 0.12500257E+03</rscale>
<asrwt>0</asrwt>
<pdfrwt beam="1">  1        4 0.17002264E+00 0.12500257E+03</pdfrwt>
<pdfrwt beam="2">  1       -4 0.54380654E-03 0.12500257E+03</pdfrwt>
<totfact> 0.27229153E+03</totfact>
</mgrwt>
</event>
<event>
 4    1  0.3337119E-002  0.1253866E+03  0.7818608E-02  0.1234466E+00
         -4   -1    0    0    0  501 -0.00000000000E+00  0.00000000000E+00  0.19810729386E+03  0.19811136459E+03  0.12700000000E+01 0. -1.
          4   -1    0    0  501    0  0.00000000000E+00 -0.00000000000E+00 -0.19815396367E+02  0.19856052810E+02  0.12700000000E+01 0. -1.
    9000005    1    1    2    0    0 -0.39821802262E+02 -0.43462540678E+02  0.12621347019E+03  0.13930401442E+03  0.10000000000E+01 0.  0.
    9000005    1    1    2    0    0  0.39821802262E+02  0.43462540678E+02  0.52078427305E+02  0.78663402979E+02  0.10000000000E+01 0.  0.
<mgrwt>
<rscale>  0 0.12538658E+03</rscale>
<asrwt>0</asrwt>
<pdfrwt beam="2">  1        4 0.30519630E-02 0.12538658E+03</pdfrwt>
<pdfrwt beam="1">  1       -4 0.30481486E-01 0.12538658E+03</pdfrwt>
<totfact> 0.86442242E+03</totfact>
</mgrwt>
</event>
<event>
 5    1  0.3337119E-002  0.1250011E+03  0.7818608E-02  0.1235068E+00
          4   -1    0    0  501    0  0.00000000000E+00  0.00000000000E+00  0.55118570762E+02  0.55133200006E+02  0.12700000000E+01 0.  1.
         -4   -1    0    0    0  501 -0.00000000000E+00 -0.00000000000E+00 -0.70841475350E+02  0.70852858304E+02  0.12700000000E+01 0.  1.
         25    2    1    2    0    0  0.00000000000E+00  0.00000000000E+00 -0.15722904588E+02  0.12598605831E+03  0.12500110863E+03 0.  0.
    9000005    1    3    3    0    0  0.23132801212E+02  0.37821707642E+02  0.36527731927E+02  0.57453313748E+02  0.10000000000E+01 0.  0.
    9000005    1    3    3    0    0 -0.23132801212E+02 -0.37821707642E+02 -0.52250636515E+02  0.68532744562E+02  0.10000000000E+01 0.  0.
<mgrwt>
<rscale>  0 0.12500111E+03</rscale>
<asrwt>0</asrwt>
<pdfrwt beam="1">  1        4 0.84817810E-02 0.12500111E+03</pdfrwt>
<pdfrwt beam="2">  1       -4 0.10900690E-01 0.12500111E+03</pdfrwt>
<totfact> 0.10431001E+04</totfact>
</mgrwt>
</event>
<event>
 5    1  0.3337119E-002  0.1250024E+03  0.7818608E-02  0.1235066E+00
          4   -1    0    0  501    0  0.00000000000E+00  0.00000000000E+00  0.17894360498E+02  0.17939371160E+02  0.12700000000E+01 0. -1.
         -4   -1    0    0    0  501 -0.00000000000E+00 -0.00000000000E+00 -0.21798240686E+03  0.21798610644E+03  0.12700000000E+01 0. -1.
         25    2    1    2    0    0  0.00000000000E+00  0.00000000000E+00 -0.20008804636E+03  0.23592547760E+03  0.12500241871E+03 0.  0.
    9000005    1    3    3    0    0 -0.33072423366E+02 -0.21713316685E+02 -0.19134555754E+03  0.19539543418E+03  0.10000000000E+01 0.  0.
    9000005    1    3    3    0    0  0.33072423366E+02  0.21713316685E+02 -0.87424888239E+01  0.40530043420E+02  0.10000000000E+01 0.  0.
<mgrwt>
<rscale>  0 0.12500242E+03</rscale>
<asrwt>0</asrwt>
<pdfrwt beam="1">  1        4 0.27567256E-02 0.12500242E+03</pdfrwt>
<pdfrwt beam="2">  1       -4 0.33539500E-01 0.12500242E+03</pdfrwt>
<totfact> 0.84403410E+03</totfact>
</mgrwt>
</event>
<event>
 5    1  0.3337119E-002  0.1250017E+03  0.7818608E-02  0.1235067E+00
          4   -1    0    0  501    0  0.00000000000E+00  0.00000000000E+00  0.17352203435E+02  0.17398616728E+02  0.12700000000E+01 0. -1.
         -4   -1    0    0    0  501 -0.00000000000E+00 -0.00000000000E+00 -0.22477290808E+03  0.22477649590E+03  0.12700000000E+01 0. -1.
         25    2    1    2    0    0  0.00000000000E+00  0.00000000000E+00 -0.20742070465E+03  0.24217511263E+03  0.12500174582E+03 0.  0.
    9000005    1    3    3    0    0 -0.34959256249E+01 -0.27620440144E+02 -0.21210375952E+03  0.21392548940E+03  0.10000000000E+01 0.  0.
    9000005    1    3    3    0    0  0.34959256249E+01  0.27620440144E+02  0.46830548734E+01  0.28249623230E+02  0.10000000000E+01 0.  0.
<mgrwt>
<rscale>  0 0.12500175E+03</rscale>
<asrwt>0</asrwt>
<pdfrwt beam="1">  1        4 0.26734162E-02 0.12500175E+03</pdfrwt>
<pdfrwt beam="2">  1       -4 0.34584291E-01 0.12500175E+03</pdfrwt>
<totfact> 0.83471239E+03</totfact>
</mgrwt>
</event>
<event>
 5    1  0.3337119E-002  0.1250030E+03  0.7818608E-02  0.1235065E+00
         -4   -1    0    0    0  501 -0.00000000000E+00  0.00000000000E+00  0.54263585413E+02  0.54278445095E+02  0.12700000000E+01 0. -1.
          4   -1    0    0  501    0  0.00000000000E+00 -0.00000000000E+00 -0.71959769925E+02  0.71970976008E+02  0.12700000000E+01 0. -1.
         25    2    1    2    0    0  0.00000000000E+00  0.00000000000E+00 -0.17696184511E+02  0.12624942110E+03  0.12500304549E+03 0.  0.
    9000005    1    3    3    0    0  0.21648003794E+02 -0.49315888577E+02 -0.40861893870E+02  0.67612035209E+02  0.10000000000E+01 0.  0.
    9000005    1    3    3    0    0 -0.21648003794E+02  0.49315888577E+02  0.23165709359E+02  0.58637385895E+02  0.10000000000E+01 0.  0.
<mgrwt>
<rscale>  0 0.12500305E+03</rscale>
<asrwt>0</asrwt>
<pdfrwt beam="2">  1        4 0.11072739E-01 0.12500305E+03</pdfrwt>
<pdfrwt beam="1">  1       -4 0.83502490E-02 0.12500305E+03</pdfrwt>
<totfact> 0.10424782E+04</totfact>
</mgrwt>
</event>
<event>
 5    1  0.3337119E-002  0.1249897E+03  0.7818608E-02  0.1235085E+00
         -4   -1    0    0    0  501 -0.00000000000E+00  0.00000000000E+00  0.18558431078E+03  0.18558865619E+03  0.12700000000E+01 0.  1.
          4   -1    0    0  501    0  0.00000000000E+00 -0.00000000000E+00 -0.21021166758E+02  0.21059495528E+02  0.12700000000E+01 0.  1.
         25    2    1    2    0    0  0.00000000000E+00  0.00000000000E+00  0.16456314402E+03  0.20664815172E+03  0.12498972054E+03 0.  0.
    9000005    1    3    3    0    0 -0.41155416009E+02  0.39422913422E+02  0.12464897768E+03  0.13706313147E+03  0.10000000000E+01 0.  0.
    9000005    1    3    3    0    0  0.41155416009E+02 -0.39422913422E+02  0.39914166337E+02  0.69585020255E+02  0.10000000000E+01 0.  0.
<mgrwt>
<rscale>  0 0.12498972E+03</rscale>
<asrwt>0</asrwt>
<pdfrwt beam="2">  1        4 0.32373083E-02 0.12498972E+03</pdfrwt>
<pdfrwt beam="1">  1       -4 0.28554715E-01 0.12498972E+03</pdfrwt>
<totfact> 0.89046692E+03</totfact>
</mgrwt>
</event>
<event>
 5    1  0.3337119E-002  0.1250182E+03  0.7818608E-02  0.1235041E+00
          4   -1    0    0  501    0  0.00000000000E+00  0.00000000000E+00  0.13686550364E+02  0.13745346881E+02  0.12700000000E+01 0. -1.
         -4   -1    0    0    0  501 -0.00000000000E+00 -0.00000000000E+00 -0.28481886440E+03  0.28482169584E+03  0.12700000000E+01 0. -1.
         25    2    1    2    0    0  0.00000000000E+00  0.00000000000E+00 -0.27113231404E+03  0.29856704272E+03  0.12501818780E+03 0.  0.
    9000005    1    3    3    0    0  0.58152849049E+02 -0.12887993927E+02 -0.90345904771E+02  0.10821846769E+03  0.10000000000E+01 0.  0.
    9000005    1    3    3    0    0 -0.58152849049E+02  0.12887993927E+02 -0.18078640927E+03  0.19034857503E+03  0.10000000000E+01 0.  0.
<mgrwt>
<rscale>  0 0.12501819E+03</rscale>
<asrwt>0</asrwt>
<pdfrwt beam="1">  1        4 0.21103640E-02 0.12501819E+03</pdfrwt>
<pdfrwt beam="2">  1       -4 0.43823023E-01 0.12501819E+03</pdfrwt>
<totfact> 0.75748350E+03</totfact>
</mgrwt>
</event>
<event>
 5    1  0.3337119E-002  0.1250040E+03  0.7818608E-02  0.1235063E+00
          4   -1    0    0  501    0  0.00000000000E+00  0.00000000000E+00  0.36156725501E+01  0.38322301587E+01  0.12700000000E+01 0. -1.
         -4   -1    0    0    0  501 -0.00000000000E+00 -0.00000000000E+00 -0.10488023617E+04  0.10488031306E+04  0.12700000000E+01 0. -1.
         25    2    1    2    0    0  0.00000000000E+00  0.00000000000E+00 -0.10451866891E+04  0.10526353608E+04  0.12500395032E+03 0.  0.
    9000005    1    3    3    0    0  0.98344354585E+01 -0.47723527373E+02 -0.19307722829E+03  0.19913329021E+03  0.10000000000E+01 0.  0.
    9000005    1    3    3    0    0 -0.98344354585E+01  0.47723527373E+02 -0.85210946085E+03  0.85350207057E+03  0.10000000000E+01 0.  0.
<mgrwt>
<rscale>  0 0.12500395E+03</rscale>
<asrwt>0</asrwt>
<pdfrwt beam="1">  1        4 0.57297558E-03 0.12500395E+03</pdfrwt>
<pdfrwt beam="2">  1       -4 0.16137069E+00 0.12500395E+03</pdfrwt>
<totfact> 0.28910180E+03</totfact>
</mgrwt>
</event>
<event>
 5    1  0.3337119E-002  0.1250028E+03  0.7818608E-02  0.1235065E+00
          4   -1    0    0  501    0  0.00000000000E+00  0.00000000000E+00  0.24497768019E+03  0.24498097210E+03  0.12700000000E+01 0. -1.
         -4   -1    0    0    0  501 -0.00000000000E+00 -0.00000000000E+00 -0.15917341654E+02  0.15967926143E+02  0.12700000000E+01 0. -1.
         25    2    1    2    0    0  0.00000000000E+00  0.00000000000E+00  0.22906033854E+03  0.26094889824E+03  0.12500275519E+03 0.  0.
    9000005    1    3    3    0    0  0.12951852336E+00 -0.60977271386E+02  0.14309048813E+03  0.15554463087E+03  0.10000000000E+01 0.  0.
    9000005    1    3    3    0    0 -0.12951852336E+00  0.60977271386E+02  0.85969850411E+02  0.10540426737E+03  0.10000000000E+01 0.  0.
<mgrwt>
<rscale>  0 0.12500276E+03</rscale>
<asrwt>0</asrwt>
<pdfrwt beam="1">  1        4 0.37693021E-01 0.12500276E+03</pdfrwt>
<pdfrwt beam="2">  1       -4 0.24529659E-02 0.12500276E+03</pdfrwt>
<totfact> 0.80768124E+03</totfact>
</mgrwt>
</event>
<event>
 5    1  0.3337119E-002  0.1249959E+03  0.7818608E-02  0.1235076E+00
         -4   -1    0    0    0  501 -0.00000000000E+00  0.00000000000E+00  0.22570178684E+01  0.25897933621E+01  0.12700000000E+01 0.  1.
          4   -1    0    0  501    0  0.00000000000E+00 -0.00000000000E+00 -0.16114446595E+04  0.16114451599E+04  0.12700000000E+01 0.  1.
         25    2    1    2    0    0  0.00000000000E+00  0.00000000000E+00 -0.16091876416E+04  0.16140349533E+04  0.12499585808E+03 0.  0.
    9000005    1    3    3    0    0 -0.49599896913E+01 -0.14974550438E+02 -0.15853752279E+04  0.15854540207E+04  0.10000000000E+01 0.  0.
    9000005    1    3    3    0    0  0.49599896913E+01  0.14974550438E+02 -0.23812413713E+02  0.28580932549E+02  0.10000000000E+01 0.  0.
<mgrwt>
<rscale>  0 0.12499586E+03</rscale>
<asrwt>0</asrwt>
<pdfrwt beam="2">  1        4 0.24793934E+00 0.12499586E+03</pdfrwt>
<pdfrwt beam="1">  1       -4 0.37287142E-03 0.12499586E+03</pdfrwt>
<totfact> 0.15795339E+03</totfact>
</mgrwt>
</event>
<event>
 5    1  0.3337119E-002  0.1249872E+03  0.7818608E-02  0.1235089E+00
          4   -1    0    0  501    0  0.00000000000E+00  0.00000000000E+00  0.11323503795E+04  0.11323510917E+04  0.12700000000E+01 0.  1.
         -4   -1    0    0    0  501 -0.00000000000E+00 -0.00000000000E+00 -0.33313300771E+01  0.35652012682E+01  0.12700000000E+01 0.  1.
         25    2    1    2    0    0  0.00000000000E+00  0.00000000000E+00  0.11290190494E+04  0.11359162930E+04  0.12498724195E+03 0.  0.
    9000005    1    3    3    0    0  0.40182388912E+02 -0.47536657494E+02  0.51465276461E+03  0.51840411487E+03  0.10000000000E+01 0.  0.
    9000005    1    3    3    0    0 -0.40182388912E+02  0.47536657494E+02  0.61436628482E+03  0.61751217811E+03  0.10000000000E+01 0.  0.
<mgrwt>
<rscale>  0 0.12498724E+03</rscale>
<asrwt>0</asrwt>
<pdfrwt beam="1">  1        4 0.17422596E+00 0.12498724E+03</pdfrwt>
<pdfrwt beam="2">  1       -4 0.53055668E-03 0.12498724E+03</pdfrwt>
<totfact> 0.26461588E+03</totfact>
</mgrwt>
</event>
<event>
 5    1  0.3337119E-002  0.1249925E+03  0.7818608E-02  0.1235081E+00
         -4   -1    0    0    0  501 -0.00000000000E+00  0.00000000000E+00  0.56400673878E+03  0.56400816864E+03  0.12700000000E+01 0.  1.
          4   -1    0    0  501    0  0.00000000000E+00 -0.00000000000E+00 -0.68653836640E+01  0.69818617040E+01  0.12700000000E+01 0.  1.
         25    2    1    2    0    0  0.00000000000E+00  0.00000000000E+00  0.55714135512E+03  0.57099003034E+03  0.12499250045E+03 0.  0.
    9000005    1    3    3    0    0 -0.23283739459E+00 -0.55663120686E+02  0.14885132612E+03  0.15892185031E+03  0.10000000000E+01 0.  0.
    9000005    1    3    3    0    0  0.23283739459E+00  0.55663120686E+02  0.40829002900E+03  0.41206818003E+03  0.10000000000E+01 0.  0.
<mgrwt>
<rscale>  0 0.12499250E+03</rscale>
<asrwt>0</asrwt>
<pdfrwt beam="2">  1        4 0.10652830E-02 0.12499250E+03</pdfrwt>
<pdfrwt beam="1">  1       -4 0.86779318E-01 0.12499250E+03</pdfrwt>
<totfact> 0.50759907E+03</totfact>
</mgrwt>
</event>
<event>
 5    1  0.3337119E-002  0.1249971E+03  0.7818608E-02  0.1235074E+00
          4   -1    0    0  501    0  0.00000000000E+00  0.00000000000E+00  0.12873875065E+02  0.12936365765E+02  0.12700000000E+01 0.  1.
         -4   -1    0    0    0  501 -0.00000000000E+00 -0.00000000000E+00 -0.30261203225E+03  0.30261469720E+03  0.12700000000E+01 0.  1.
         25    2    1    2    0    0  0.00000000000E+00  0.00000000000E+00 -0.28973815718E+03  0.31555106296E+03  0.12499709441E+03 0.  0.
    9000005    1    3    3    0    0  0.60772254949E+02  0.14016109597E+02 -0.15475974089E+03  0.16685711162E+03  0.10000000000E+01 0.  0.
    9000005    1    3    3    0    0 -0.60772254949E+02 -0.14016109597E+02 -0.13497841629E+03  0.14869395134E+03  0.10000000000E+01 0.  0.
<mgrwt>
<rscale>  0 0.12499709E+03</rscale>
<asrwt>0</asrwt>
<pdfrwt beam="1">  1        4 0.19856084E-02 0.12499709E+03</pdfrwt>
<pdfrwt beam="2">  1       -4 0.46560704E-01 0.12499709E+03</pdfrwt>
<totfact> 0.73693160E+03</totfact>
</mgrwt>
</event>
<event>
 5    1  0.3337119E-002  0.1250088E+03  0.7818608E-02  0.1235056E+00
          4   -1    0    0  501    0  0.00000000000E+00  0.00000000000E+00  0.16522656797E+02  0.16571393654E+02  0.12700000000E+01 0.  1.
         -4   -1    0    0    0  501 -0.00000000000E+00 -0.00000000000E+00 -0.23605236971E+03  0.23605578609E+03  0.12700000000E+01 0.  1.
         25    2    1    2    0    0  0.00000000000E+00  0.00000000000E+00 -0.21952971292E+03  0.25262717975E+03  0.12500878806E+03 0.  0.
    9000005    1    3    3    0    0 -0.59501922565E+02 -0.16138766763E+02 -0.89070787686E+02  0.10833071495E+03  0.10000000000E+01 0.  0.
    9000005    1    3    3    0    0  0.59501922565E+02  0.16138766763E+02 -0.13045892523E+03  0.14429646480E+03  0.10000000000E+01 0.  0.
<mgrwt>
<rscale>  0 0.12500879E+03</rscale>
<asrwt>0</asrwt>
<pdfrwt beam="1">  1        4 0.25459592E-02 0.12500879E+03</pdfrwt>
<pdfrwt beam="2">  1       -4 0.36319759E-01 0.12500879E+03</pdfrwt>
<totfact> 0.81935958E+03</totfact>
</mgrwt>
</event>
<event>
 5    1  0.3337119E-002  0.1250005E+03  0.7818608E-02  0.1235069E+00
         -4   -1    0    0    0  501 -0.00000000000E+00  0.00000000000E+00  0.23057364207E+03  0.23057713963E+03  0.12700000000E+01 0.  1.
          4   -1    0    0  501    0  0.00000000000E+00 -0.00000000000E+00 -0.16914144871E+02  0.16961756887E+02  0.12700000000E+01 0.  1.
         25    2    1    2    0    0  0.00000000000E+00  0.00000000000E+00  0.21365949720E+03  0.24753889651E+03  0.12500049817E+03 0.  0.
    9000005    1    3    3    0    0 -0.38153063389E+02 -0.11128268283E+02  0.11326832481E+02  0.41337534215E+02  0.10000000000E+01 0.  0.
    9000005    1    3    3    0    0  0.38153063389E+02  0.11128268283E+02  0.20233266472E+03  0.20620136230E+03  0.10000000000E+01 0.  0.
<mgrwt>
<rscale>  0 0.12500050E+03</rscale>
<asrwt>0</asrwt>
<pdfrwt beam="2">  1        4 0.26061075E-02 0.12500050E+03</pdfrwt>
<pdfrwt beam="1">  1       -4 0.35476801E-01 0.12500050E+03</pdfrwt>
<totfact> 0.82686320E+03</totfact>
</mgrwt>
</event>
<event>
 5    1  0.3337119E-002  0.1249965E+03  0.7818608E-02  0.1235075E+00
         -4   -1    0    0    0  501 -0.00000000000E+00  0.00000000000E+00  0.95695737276E+02  0.95704164136E+02  0.12700000000E+01 0. -1.
          4   -1    0    0  501    0  0.00000000000E+00 -0.00000000000E+00 -0.40797094301E+02  0.40816856854E+02  0.12700000000E+01 0. -1.
         25    2    1    2    0    0  0.00000000000E+00  0.00000000000E+00  0.54898642975E+02  0.13652102099E+03  0.12499651264E+03 0.  0.
    9000005    1    3    3    0    0  0.23323812686E+02  0.44712226174E+02  0.67754982782E+02  0.84468462158E+02  0.10000000000E+01 0.  0.
    9000005    1    3    3    0    0 -0.23323812686E+02 -0.44712226174E+02 -0.12856339807E+02  0.52052558831E+02  0.10000000000E+01 0.  0.
<mgrwt>
<rscale>  0 0.12499651E+03</rscale>
<asrwt>0</asrwt>
<pdfrwt beam="2">  1        4 0.62786445E-02 0.12499651E+03</pdfrwt>
<pdfrwt beam="1">  1       -4 0.14724589E-01 0.12499651E+03</pdfrwt>
<totfact> 0.10206913E+04</totfact>
</mgrwt>
</event>
<event>
 5    1  0.3337119E-002  0.1249957E+03  0.7818608E-02  0.1235076E+00
          4   -1    0    0  501    0  0.00000000000E+00  0.00000000000E+00  0.86529797469E+02  0.86539116878E+02  0.12700000000E+01 0.  1.
         -4   -1    0    0    0  501 -0.00000000000E+00 -0.00000000000E+00 -0.45119647618E+02  0.45137517667E+02  0.12700000000E+01 0.  1.
         25    2    1    2    0    0  0.00000000000E+00  0.00000000000E+00  0.41410149851E+02  0.13167663455E+03  0.12499574223E+03 0.  0.
    9000005    1    3    3    0    0  0.48445309036E+02 -0.37731482745E+02  0.32916504034E+02  0.69678612182E+02  0.10000000000E+01 0.  0.
    9000005    1    3    3    0    0 -0.48445309036E+02  0.37731482745E+02  0.84936458171E+01  0.61998022364E+02  0.10000000000E+01 0.  0.
<mgrwt>
<rscale>  0 0.12499574E+03</rscale>
<asrwt>0</asrwt>
<pdfrwt beam="1">  1        4 0.13314368E-01 0.12499574E+03</pdfrwt>
<pdfrwt beam="2">  1       -4 0.69435757E-02 0.12499574E+03</pdfrwt>
<totfact> 0.10309595E+04</totfact>
</mgrwt>
</event>
<event>
 5    1  0.3337119E-002  0.1250043E+03  0.7818608E-02  0.1235063E+00
         -4   -1    0    0    0  501 -0.00000000000E+00  0.00000000000E+00  0.70865643118E+02  0.70877022190E+02  0.12700000000E+01 0.  1.
          4   -1    0    0  501    0  0.00000000000E+00 -0.00000000000E+00 -0.55102549492E+02  0.55117182988E+02  0.12700000000E+01 0.  1.
         25    2    1    2    0    0  0.00000000000E+00  0.00000000000E+00  0.15763093627E+02  0.12599420518E+03  0.12500425840E+03 0.  0.
    9000005    1    3    3    0    0 -0.28589669909E+02 -0.53355220539E+02 -0.77774899063E+01  0.61038005648E+02  0.10000000000E+01 0.  0.
    9000005    1    3    3    0    0  0.28589669909E+02  0.53355220539E+02  0.23540583533E+02  0.64956199530E+02  0.10000000000E+01 0.  0.
<mgrwt>
<rscale>  0 0.12500426E+03</rscale>
<asrwt>0</asrwt>
<pdfrwt beam="2">  1        4 0.84793163E-02 0.12500426E+03</pdfrwt>
<pdfrwt beam="1">  1       -4 0.10904408E-01 0.12500426E+03</pdfrwt>
<totfact> 0.10430082E+04</totfact>
</mgrwt>
</event>
<event>
 5    1  0.3337119E-002  0.1250029E+03  0.7818608E-02  0.1235065E+00
          4   -1    0    0  501    0  0.00000000000E+00  0.00000000000E+00  0.60337560378E+03  0.60337694035E+03  0.12700000000E+01 0. -1.
         -4   -1    0    0    0  501 -0.00000000000E+00 -0.00000000000E+00 -0.64106537734E+01  0.65352415260E+01  0.12700000000E+01 0. -1.
         25    2    1    2    0    0  0.00000000000E+00  0.00000000000E+00  0.59696495001E+03  0.60991218187E+03  0.12500287219E+03 0.  0.
    9000005    1    3    3    0    0  0.38320972700E+02  0.40457370874E+02  0.43649820883E+03  0.44004202313E+03  0.10000000000E+01 0.  0.
    9000005    1    3    3    0    0 -0.38320972700E+02 -0.40457370874E+02  0.16046674118E+03  0.16987015875E+03  0.10000000000E+01 0.  0.
<mgrwt>
<rscale>  0 0.12500287E+03</rscale>
<asrwt>0</asrwt>
<pdfrwt beam="1">  1        4 0.92836698E-01 0.12500287E+03</pdfrwt>
<pdfrwt beam="2">  1       -4 0.99594096E-03 0.12500287E+03</pdfrwt>
<totfact> 0.48244807E+03</totfact>
</mgrwt>
</event>
<event>
 5    1  0.3337119E-002  0.1249980E+03  0.7818608E-02  0.1235072E+00
          4   -1    0    0  501    0  0.00000000000E+00  0.00000000000E+00  0.97316098463E+01  0.98141291106E+01  0.12700000000E+01 0. -1.
         -4   -1    0    0    0  501 -0.00000000000E+00 -0.00000000000E+00 -0.39960742797E+03  0.39960944607E+03  0.12700000000E+01 0. -1.
         25    2    1    2    0    0  0.00000000000E+00  0.00000000000E+00 -0.38987581813E+03  0.40942357518E+03  0.12499804141E+03 0.  0.
    9000005    1    3    3    0    0  0.12343225802E+02 -0.41884865625E+02 -0.48513273523E+02  0.65278134927E+02  0.10000000000E+01 0.  0.
    9000005    1    3    3    0    0 -0.12343225802E+02  0.41884865625E+02 -0.34136254460E+03  0.34414544026E+03  0.10000000000E+01 0.  0.
<mgrwt>
<rscale>  0 0.12499804E+03</rscale>
<asrwt>0</asrwt>
<pdfrwt beam="1">  1        4 0.15036739E-02 0.12499804E+03</pdfrwt>
<pdfrwt beam="2">  1       -4 0.61484556E-01 0.12499804E+03</pdfrwt>
<totfact> 0.63649225E+03</totfact>
</mgrwt>
</event>
<event>
 5    1  0.3337119E-002  0.1249996E+03  0.7818608E-02  0.1235070E+00
         -4   -1    0    0    0  501 -0.00000000000E+00  0.00000000000E+00  0.45059379339E+01  0.46814929952E+01  0.12700000000E+01 0.  1.
          4   -1    0    0  501    0  0.00000000000E+00 -0.00000000000E+00 -0.85016503971E+03  0.85016598829E+03  0.12700000000E+01 0.  1.
         25    2    1    2    0    0  0.00000000000E+00  0.00000000000E+00 -0.84565910177E+03  0.85484748128E+03  0.12499959937E+03 0.  0.
    9000005    1    3    3    0    0 -0.43989137104E+02  0.44179543550E+02 -0.39353527449E+03  0.39844433553E+03  0.10000000000E+01 0.  0.
    9000005    1    3    3    0    0  0.43989137104E+02 -0.44179543550E+02 -0.45212382729E+03  0.45640314575E+03  0.10000000000E+01 0.  0.
<mgrwt>
<rscale>  0 0.12499960E+03</rscale>
<asrwt>0</asrwt>
<pdfrwt beam="2">  1        4 0.13080807E+00 0.12499960E+03</pdfrwt>
<pdfrwt beam="1">  1       -4 0.70679910E-03 0.12499960E+03</pdfrwt>
<totfact> 0.35930122E+03</totfact>
</mgrwt>
</event>
<event>
 5    1  0.3337119E-002  0.1250010E+03  0.7818608E-02  0.1235068E+00
         -4   -1    0    0    0  501 -0.00000000000E+00  0.00000000000E+00  0.14150764656E+03  0.14151334544E+03  0.12700000000E+01 0. -1.
          4   -1    0    0  501    0  0.00000000000E+00 -0.00000000000E+00 -0.27584092991E+02  0.27613313566E+02  0.12700000000E+01 0. -1.
         25    2    1    2    0    0  0.00000000000E+00  0.00000000000E+00  0.11392355357E+03  0.16912665900E+03  0.12500100290E+03 0.  0.
    9000005    1    3    3    0    0 -0.55869424535E+02 -0.26805919760E+02  0.67900426831E+02  0.91931593568E+02  0.10000000000E+01 0.  0.
    9000005    1    3    3    0    0  0.55869424535E+02  0.26805919760E+02  0.46023126743E+02  0.77195065434E+02  0.10000000000E+01 0.  0.
<mgrwt>
<rscale>  0 0.12500100E+03</rscale>
<asrwt>0</asrwt>
<pdfrwt beam="2">  1        4 0.42463928E-02 0.12500100E+03</pdfrwt>
<pdfrwt beam="1">  1       -4 0.21773093E-01 0.12500100E+03</pdfrwt>
<totfact> 0.95609373E+03</totfact>
</mgrwt>
</event>
<event>
 5    1  0.3337119E-002  0.1250017E+03  0.7818608E-02  0.1235067E+00
          4   -1    0    0  501    0  0.00000000000E+00  0.00000000000E+00  0.85549831625E+02  0.85559257775E+02  0.12700000000E+01 0.  1.
         -4   -1    0    0    0  501 -0.00000000000E+00 -0.00000000000E+00 -0.45640996492E+02  0.45658662494E+02  0.12700000000E+01 0.  1.
         25    2    1    2    0    0  0.00000000000E+00  0.00000000000E+00  0.39908835133E+02  0.13121792027E+03  0.12500170990E+03 0.  0.
    9000005    1    3    3    0    0  0.25403471854E+02 -0.56181959907E+02  0.92694412098E+01  0.62359213767E+02  0.10000000000E+01 0.  0.
    9000005    1    3    3    0    0 -0.25403471854E+02  0.56181959907E+02  0.30639393923E+02  0.68858706503E+02  0.10000000000E+01 0.  0.
<mgrwt>
<rscale>  0 0.12500171E+03</rscale>
<asrwt>0</asrwt>
<pdfrwt beam="1">  1        4 0.13163597E-01 0.12500171E+03</pdfrwt>
<pdfrwt beam="2">  1       -4 0.70237758E-02 0.12500171E+03</pdfrwt>
<totfact> 0.10318022E+04</totfact>
</mgrwt>
</event>
<event>
 5    1  0.3337119E-002  0.1250011E+03  0.7818608E-02  0.1235068E+00
          4   -1    0    0  501    0  0.00000000000E+00  0.00000000000E+00  0.53736816139E+02  0.53751821446E+02  0.12700000000E+01 0. -1.
         -4   -1    0    0    0  501 -0.00000000000E+00 -0.00000000000E+00 -0.72662861342E+02  0.72673959012E+02  0.12700000000E+01 0. -1.
         25    2    1    2    0    0  0.00000000000E+00  0.00000000000E+00 -0.18926045203E+02  0.12642578046E+03  0.12500113110E+03 0.  0.
    9000005    1    3    3    0    0  0.61485460363E+02 -0.83019630825E+01 -0.17027317322E+02  0.64345271483E+02  0.10000000000E+01 0.  0.
    9000005    1    3    3    0    0 -0.61485460363E+02  0.83019630825E+01 -0.18987278810E+01  0.62080508975E+02  0.10000000000E+01 0.  0.
<mgrwt>
<rscale>  0 0.12500113E+03</rscale>
<asrwt>0</asrwt>
<pdfrwt beam="1">  1        4 0.82692104E-02 0.12500113E+03</pdfrwt>
<pdfrwt beam="2">  1       -4 0.11180910E-01 0.12500113E+03</pdfrwt>
<totfact> 0.10421381E+04</totfact>
</mgrwt>
</event>
<event>
 5    1  0.3337119E-002  0.1250008E+03  0.7818608E-02  0.1235068E+00
          4   -1    0    0  501    0  0.00000000000E+00  0.00000000000E+00  0.91791007673E+03  0.91791095530E+03  0.12700000000E+01 0.  1.
         -4   -1    0    0    0  501 -0.00000000000E+00 -0.00000000000E+00 -0.41599953960E+01  0.43495358022E+01  0.12700000000E+01 0.  1.
         25    2    1    2    0    0  0.00000000000E+00  0.00000000000E+00  0.91375008134E+03  0.92226049111E+03  0.12500080925E+03 0.  0.
    9000005    1    3    3    0    0  0.55907584908E+02 -0.26154180373E+02  0.38473558626E+03  0.38965647760E+03  0.10000000000E+01 0.  0.
    9000005    1    3    3    0    0 -0.55907584908E+02  0.26154180373E+02  0.52901449508E+03  0.53260401350E+03  0.10000000000E+01 0.  0.
<mgrwt>
<rscale>  0 0.12500081E+03</rscale>
<asrwt>0</asrwt>
<pdfrwt beam="1">  1        4 0.14123166E+00 0.12500081E+03</pdfrwt>
<pdfrwt beam="2">  1       -4 0.65464654E-03 0.12500081E+03</pdfrwt>
<totfact> 0.33321131E+03</totfact>
</mgrwt>
</event>
<event>
 5    1  0.3337119E-002  0.1250008E+03  0.7818608E-02  0.1235068E+00
         -4   -1    0    0    0  501 -0.00000000000E+00  0.00000000000E+00  0.80118584320E+01  0.81118909962E+01  0.12700000000E+01 0. -1.
          4   -1    0    0  501    0  0.00000000000E+00 -0.00000000000E+00 -0.48443890634E+03  0.48444057104E+03  0.12700000000E+01 0. -1.
         25    2    1    2    0    0  0.00000000000E+00  0.00000000000E+00 -0.47642704791E+03  0.49255246204E+03  0.12500078354E+03 0.  0.
    9000005    1    3    3    0    0 -0.44906395931E+02 -0.41025304743E+02 -0.18170779989E+03  0.19162041792E+03  0.10000000000E+01 0.  0.
    9000005    1    3    3    0    0  0.44906395931E+02  0.41025304743E+02 -0.29471924802E+03  0.30093204412E+03  0.10000000000E+01 0.  0.
<mgrwt>
<rscale>  0 0.12500078E+03</rscale>
<asrwt>0</asrwt>
<pdfrwt beam="2">  1        4 0.74536863E-01 0.12500078E+03</pdfrwt>
<pdfrwt beam="1">  1       -4 0.12404169E-02 0.12500078E+03</pdfrwt>
<totfact> 0.56445906E+03</totfact>
</mgrwt>
</event>
<event>
 5    1  0.3337119E-002  0.1250015E+03  0.7818608E-02  0.1235067E+00
         -4   -1    0    0    0  501 -0.00000000000E+00  0.00000000000E+00  0.38511832718E+02  0.38532767345E+02  0.12700000000E+01 0.  1.
          4   -1    0    0  501    0  0.00000000000E+00 -0.00000000000E+00 -0.10137984442E+03  0.10138779885E+03  0.12700000000E+01 0.  1.
         25    2    1    2    0    0  0.00000000000E+00  0.00000000000E+00 -0.62868011706E+02  0.13992056619E+03  0.12500151178E+03 0.  0.
    9000005    1    3    3    0    0  0.34035202034E+02  0.25008592551E+02 -0.82991266462E+02  0.93125587181E+02  0.10000000000E+01 0.  0.
    9000005    1    3    3    0    0 -0.34035202034E+02 -0.25008592551E+02  0.20123254756E+02  0.46794979013E+02  0.10000000000E+01 0.  0.
<mgrwt>
<rscale>  0 0.12500151E+03</rscale>
<asrwt>0</asrwt>
<pdfrwt beam="2">  1        4 0.15599121E-01 0.12500151E+03</pdfrwt>
<pdfrwt beam="1">  1       -4 0.59271196E-02 0.12500151E+03</pdfrwt>
<totfact> 0.10134887E+04</totfact>
</mgrwt>
</event>
<event>
 5    1  0.3337119E-002  0.1250001E+03  0.7818608E-02  0.1235069E+00
          4   -1    0    0  501    0  0.00000000000E+00  0.00000000000E+00  0.12829261941E+03  0.12829890527E+03  0.12700000000E+01 0.  1.
         -4   -1    0    0    0  501 -0.00000000000E+00 -0.00000000000E+00 -0.30427759073E+02  0.30454251299E+02  0.12700000000E+01 0.  1.
         25    2    1    2    0    0  0.00000000000E+00  0.00000000000E+00  0.97864860335E+02  0.15875315657E+03  0.12500013533E+03 0.  0.
    9000005    1    3    3    0    0 -0.52049307043E+02 -0.33470723727E+02  0.37872370668E+02  0.72558501711E+02  0.10000000000E+01 0.  0.
    9000005    1    3    3    0    0  0.52049307043E+02  0.33470723727E+02  0.59992489666E+02  0.86194654862E+02  0.10000000000E+01 0.  0.
<mgrwt>
<rscale>  0 0.12500014E+03</rscale>
<asrwt>0</asrwt>
<pdfrwt beam="1">  1        4 0.19739847E-01 0.12500014E+03</pdfrwt>
<pdfrwt beam="2">  1       -4 0.46837151E-02 0.12500014E+03</pdfrwt>
<totfact> 0.97583409E+03</totfact>
</mgrwt>
</event>
<event>
 5    1  0.3337119E-002  0.1249981E+03  0.7818608E-02  0.1235072E+00
         -4   -1    0    0    0  501 -0.00000000000E+00  0.00000000000E+00  0.44558139924E+03  0.44558320911E+03  0.12700000000E+01 0.  1.
          4   -1    0    0  501    0  0.00000000000E+00 -0.00000000000E+00 -0.87185343767E+01  0.88105471838E+01  0.12700000000E+01 0.  1.
         25    2    1    2    0    0  0.00000000000E+00  0.00000000000E+00  0.43686286486E+03  0.45439375630E+03  0.12499809227E+03 0.  0.
    9000005    1    3    3    0    0 -0.27791627674E+01  0.11041271431E+02  0.44179691200E+03  0.44194473057E+03  0.10000000000E+01 0.  0.
    9000005    1    3    3    0    0  0.27791627674E+01 -0.11041271431E+02 -0.49340471426E+01  0.12449025733E+02  0.10000000000E+01 0.  0.
<mgrwt>
<rscale>  0 0.12499809E+03</rscale>
<asrwt>0</asrwt>
<pdfrwt beam="2">  1        4 0.13485303E-02 0.12499809E+03</pdfrwt>
<pdfrwt beam="1">  1       -4 0.68558194E-01 0.12499809E+03</pdfrwt>
<totfact> 0.59587551E+03</totfact>
</mgrwt>
</event>
<event>
 5    1  0.3337119E-002  0.1249939E+03  0.7818608E-02  0.1235079E+00
         -4   -1    0    0    0  501 -0.00000000000E+00  0.00000000000E+00  0.33924352446E+01  0.36223634396E+01  0.12700000000E+01 0.  1.
          4   -1    0    0  501    0  0.00000000000E+00 -0.00000000000E+00 -0.11133782955E+04  0.11133790198E+04  0.12700000000E+01 0.  1.
         25    2    1    2    0    0  0.00000000000E+00  0.00000000000E+00 -0.11099858602E+04  0.11170013833E+04  0.12499392086E+03 0.  0.
    9000005    1    3    3    0    0 -0.45161346007E+02 -0.92782739196E+01 -0.93194111985E+03  0.93308139216E+03  0.10000000000E+01 0.  0.
    9000005    1    3    3    0    0  0.45161346007E+02  0.92782739196E+01 -0.17804474040E+03  0.18391999109E+03  0.10000000000E+01 0.  0.
<mgrwt>
<rscale>  0 0.12499392E+03</rscale>
<asrwt>0</asrwt>
<pdfrwt beam="2">  1        4 0.17130643E+00 0.12499392E+03</pdfrwt>
<pdfrwt beam="1">  1       -4 0.53965651E-03 0.12499392E+03</pdfrwt>
<totfact> 0.26994699E+03</totfact>
</mgrwt>
</event>
<event>
 5    1  0.3337119E-002  0.1250020E+03  0.7818608E-02  0.1235066E+00
         -4   -1    0    0    0  501 -0.00000000000E+00  0.00000000000E+00  0.61792219651E+02  0.61805269269E+02  0.12700000000E+01 0.  1.
          4   -1    0    0  501    0  0.00000000000E+00 -0.00000000000E+00 -0.63191854733E+02  0.63204615375E+02  0.12700000000E+01 0.  1.
         25    2    1    2    0    0  0.00000000000E+00  0.00000000000E+00 -0.13996350826E+01  0.12500988464E+03  0.12500204910E+03 0.  0.
    9000005    1    3    3    0    0 -0.27099009909E+02 -0.47263794963E+02  0.29915095644E+02  0.62162171775E+02  0.10000000000E+01 0.  0.
    9000005    1    3    3    0    0  0.27099009909E+02  0.47263794963E+02 -0.31314730727E+02  0.62847712869E+02  0.10000000000E+01 0.  0.
<mgrwt>
<rscale>  0 0.12500205E+03</rscale>
<asrwt>0</asrwt>
<pdfrwt beam="2">  1        4 0.97238093E-02 0.12500205E+03</pdfrwt>
<pdfrwt beam="1">  1       -4 0.95084807E-02 0.12500205E+03</pdfrwt>
<totfact> 0.10452164E+04</totfact>
</mgrwt>
</event>
<event>
 5    1  0.3337119E-002  0.1250023E+03  0.7818608E-02  0.1235066E+00
         -4   -1    0    0    0  501 -0.00000000000E+00  0.00000000000E+00  0.33106894413E+02  0.33131244433E+02  0.12700000000E+01 0. -1.
          4   -1    0    0  501    0  0.00000000000E+00 -0.00000000000E+00 -0.11792224063E+03  0.11792907926E+03  0.12700000000E+01 0. -1.
         25    2    1    2    0    0  0.00000000000E+00  0.00000000000E+00 -0.84815346220E+02  0.15106032370E+03  0.12500231374E+03 0.  0.
    9000005    1    3    3    0    0  0.43064921661E+02  0.15630011497E+02 -0.93770927035E+02  0.10436892015E+03  0.10000000000E+01 0.  0.
    9000005    1    3    3    0    0 -0.43064921661E+02 -0.15630011497E+02  0.89555808150E+01  0.46691403543E+02  0.10000000000E+01 0.  0.
<mgrwt>
<rscale>  0 0.12500231E+03</rscale>
<asrwt>0</asrwt>
<pdfrwt beam="2">  1        4 0.18144282E-01 0.12500231E+03</pdfrwt>
<pdfrwt beam="1">  1       -4 0.50957676E-02 0.12500231E+03</pdfrwt>
<totfact> 0.99087598E+03</totfact>
</mgrwt>
</event>
<event>
 5    1  0.3337119E-002  0.1250042E+03  0.7818608E-02  0.1235063E+00
         -4   -1    0    0    0  501 -0.00000000000E+00  0.00000000000E+00  0.91152485089E+02  0.91161331923E+02  0.12700000000E+01 0. -1.
          4   -1    0    0  501    0  0.00000000000E+00 -0.00000000000E+00 -0.42836547368E+02  0.42855369446E+02  0.12700000000E+01 0. -1.
         25    2    1    2    0    0  0.00000000000E+00  0.00000000000E+00  0.48315937721E+02  0.13401670137E+03  0.12500418556E+03 0.  0.
    9000005    1    3    3    0    0  0.38017503755E+01 -0.52418728517E+02 -0.12093128348E+02  0.53939041135E+02  0.10000000000E+01 0.  0.
    9000005    1    3    3    0    0 -0.38017503755E+01  0.52418728517E+02  0.60409066069E+02  0.80077660235E+02  0.10000000000E+01 0.  0.
<mgrwt>
<rscale>  0 0.12500419E+03</rscale>
<asrwt>0</asrwt>
<pdfrwt beam="2">  1        4 0.65923665E-02 0.12500419E+03</pdfrwt>
<pdfrwt beam="1">  1       -4 0.14025587E-01 0.12500419E+03</pdfrwt>
<totfact> 0.10257870E+04</totfact>
</mgrwt>
</event>
<event>
 5    1  0.3337119E-002  0.1250007E+03  0.7818608E-02  0.1235068E+00
         -4   -1    0    0    0  501 -0.00000000000E+00  0.00000000000E+00  0.32888782053E+02  0.32913293438E+02  0.12700000000E+01 0.  1.
          4   -1    0    0  501    0  0.00000000000E+00 -0.00000000000E+00 -0.11870068588E+03  0.11870747966E+03  0.12700000000E+01 0.  1.
         25    2    1    2    0    0  0.00000000000E+00  0.00000000000E+00 -0.85811903824E+02  0.15162077310E+03  0.12500070399E+03 0.  0.
    9000005    1    3    3    0    0  0.41566271868E+02 -0.46331895182E+02 -0.49647925589E+02  0.79626101145E+02  0.10000000000E+01 0.  0.
    9000005    1    3    3    0    0 -0.41566271868E+02  0.46331895182E+02 -0.36163978234E+02  0.71994671955E+02  0.10000000000E+01 0.  0.
<mgrwt>
<rscale>  0 0.12500070E+03</rscale>
<asrwt>0</asrwt>
<pdfrwt beam="2">  1        4 0.18264052E-01 0.12500070E+03</pdfrwt>
<pdfrwt beam="1">  1       -4 0.50622208E-02 0.12500070E+03</pdfrwt>
<totfact> 0.98980029E+03</totfact>
</mgrwt>
</event>
<event>
 5    1  0.3337119E-002  0.1249998E+03  0.7818608E-02  0.1235070E+00
          4   -1    0    0  501    0  0.00000000000E+00  0.00000000000E+00  0.58585510193E+03  0.58585647847E+03  0.12700000000E+01 0.  1.
         -4   -1    0    0    0  501 -0.00000000000E+00 -0.00000000000E+00 -0.66057094083E+01  0.67266854235E+01  0.12700000000E+01 0.  1.
         25    2    1    2    0    0  0.00000000000E+00  0.00000000000E+00  0.57924939252E+03  0.59258316389E+03  0.12499978954E+03 0.  0.
    9000005    1    3    3    0    0 -0.27468487287E+02  0.24681785826E+02  0.52861898282E+03  0.52990823484E+03  0.10000000000E+01 0.  0.
    9000005    1    3    3    0    0  0.27468487287E+02 -0.24681785826E+02  0.50630409700E+02  0.62674929053E+02  0.10000000000E+01 0.  0.
<mgrwt>
<rscale>  0 0.12499979E+03</rscale>
<asrwt>0</asrwt>
<pdfrwt beam="1">  1        4 0.90140934E-01 0.12499979E+03</pdfrwt>
<pdfrwt beam="2">  1       -4 0.10256751E-02 0.12499979E+03</pdfrwt>
<totfact> 0.49339395E+03</totfact>
</mgrwt>
</event>
<event>
 5    1  0.3337119E-002  0.1249999E+03  0.7818608E-02  0.1235069E+00
          4   -1    0    0  501    0  0.00000000000E+00  0.00000000000E+00  0.14375398132E+03  0.14375959114E+03  0.12700000000E+01 0.  1.
         -4   -1    0    0    0  501 -0.00000000000E+00 -0.00000000000E+00 -0.27152119161E+02  0.27181804115E+02  0.12700000000E+01 0.  1.
         25    2    1    2    0    0  0.00000000000E+00  0.00000000000E+00  0.11660186216E+03  0.17094139526E+03  0.12499986541E+03 0.  0.
    9000005    1    3    3    0    0 -0.97218112708E+00  0.68826725322E+01  0.14323038100E+03  0.14340243498E+03  0.10000000000E+01 0.  0.
    9000005    1    3    3    0    0  0.97218112708E+00 -0.68826725322E+01 -0.26628518842E+02  0.27538960275E+02  0.10000000000E+01 0.  0.
<mgrwt>
<rscale>  0 0.12499987E+03</rscale>
<asrwt>0</asrwt>
<pdfrwt beam="1">  1        4 0.22118712E-01 0.12499987E+03</pdfrwt>
<pdfrwt beam="2">  1       -4 0.41799640E-02 0.12499987E+03</pdfrwt>
<totfact> 0.95273751E+03</totfact>
</mgrwt>
</event>
<event>
 5    1  0.3337119E-002  0.1250204E+03  0.7818608E-02  0.1235037E+00
          4   -1    0    0  501    0  0.00000000000E+00  0.00000000000E+00  0.13856394046E+02  0.13914472895E+02  0.12700000000E+01 0. -1.
         -4   -1    0    0    0  501 -0.00000000000E+00 -0.00000000000E+00 -0.28135217939E+03  0.28135504571E+03  0.12700000000E+01 0. -1.
         25    2    1    2    0    0  0.00000000000E+00  0.00000000000E+00 -0.26749578534E+03  0.29526951860E+03  0.12502037211E+03 0.  0.
    9000005    1    3    3    0    0 -0.52320017287E+02 -0.44441830508E+01 -0.53677634000E+02  0.75096094197E+02  0.10000000000E+01 0.  0.
    9000005    1    3    3    0    0  0.52320017287E+02  0.44441830508E+01 -0.21381815134E+03  0.22017342441E+03  0.10000000000E+01 0.  0.
<mgrwt>
<rscale>  0 0.12502037E+03</rscale>
<asrwt>0</asrwt>
<pdfrwt beam="1">  1        4 0.21364412E-02 0.12502037E+03</pdfrwt>
<pdfrwt beam="2">  1       -4 0.43289635E-01 0.12502037E+03</pdfrwt>
<totfact> 0.76161621E+03</totfact>
</mgrwt>
</event>
<event>
 5    1  0.3337119E-002  0.1249980E+03  0.7818608E-02  0.1235072E+00
          4   -1    0    0  501    0  0.00000000000E+00  0.00000000000E+00  0.68623171330E+02  0.68634922186E+02  0.12700000000E+01 0.  1.
         -4   -1    0    0    0  501 -0.00000000000E+00 -0.00000000000E+00 -0.56897628878E+02  0.56911800815E+02  0.12700000000E+01 0.  1.
         25    2    1    2    0    0  0.00000000000E+00  0.00000000000E+00  0.11725542452E+02  0.12554672300E+03  0.12499796522E+03 0.  0.
    9000005    1    3    3    0    0  0.47645359861E+02  0.27795076339E+02  0.35359646269E+02  0.65528247110E+02  0.10000000000E+01 0.  0.
    9000005    1    3    3    0    0 -0.47645359861E+02 -0.27795076339E+02 -0.23634103817E+02  0.60018475891E+02  0.10000000000E+01 0.  0.
<mgrwt>
<rscale>  0 0.12499797E+03</rscale>
<asrwt>0</asrwt>
<pdfrwt beam="1">  1        4 0.10559405E-01 0.12499797E+03</pdfrwt>
<pdfrwt beam="2">  1       -4 0.87554754E-02 0.12499797E+03</pdfrwt>
<totfact> 0.10441401E+04</totfact>
</mgrwt>
</event>
<event>
 5    1  0.3337119E-002  0.1250006E+03  0.7818608E-02  0.1235068E+00
          4   -1    0    0  501    0  0.00000000000E+00  0.00000000000E+00  0.64499344908E+01  0.65737778283E+01  0.12700000000E+01 0. -1.
         -4   -1    0    0    0  501 -0.00000000000E+00 -0.00000000000E+00 -0.59974897680E+03  0.59975032144E+03  0.12700000000E+01 0. -1.
         25    2    1    2    0    0  0.00000000000E+00  0.00000000000E+00 -0.59329904231E+03  0.60632409927E+03  0.12500063901E+03 0.  0.
    9000005    1    3    3    0    0 -0.59096019871E+02 -0.16080874888E+02 -0.35691298979E+03  0.36213093818E+03  0.10000000000E+01 0.  0.
    9000005    1    3    3    0    0  0.59096019871E+02  0.16080874888E+02 -0.23638605251E+03  0.24419316109E+03  0.10000000000E+01 0.  0.
<mgrwt>
<rscale>  0 0.12500064E+03</rscale>
<asrwt>0</asrwt>
<pdfrwt beam="1">  1        4 0.10019279E-02 0.12500064E+03</pdfrwt>
<pdfrwt beam="2">  1       -4 0.92278660E-01 0.12500064E+03</pdfrwt>
<totfact> 0.48470171E+03</totfact>
</mgrwt>
</event>
<event>
 5    1  0.3337119E-002  0.1250005E+03  0.7818608E-02  0.1235068E+00
          4   -1    0    0  501    0  0.00000000000E+00  0.00000000000E+00  0.50881092196E+02  0.50896939428E+02  0.12700000000E+01 0. -1.
         -4   -1    0    0    0  501 -0.00000000000E+00 -0.00000000000E+00 -0.76739722830E+02  0.76750231010E+02  0.12700000000E+01 0. -1.
         25    2    1    2    0    0  0.00000000000E+00  0.00000000000E+00 -0.25858630634E+02  0.12764717044E+03  0.12500052537E+03 0.  0.
    9000005    1    3    3    0    0 -0.70994024716E+01  0.31592305492E+02 -0.67510109002E+02  0.74880505468E+02  0.10000000000E+01 0.  0.
    9000005    1    3    3    0    0  0.70994024716E+01 -0.31592305492E+02  0.41651478368E+02  0.52766664969E+02  0.10000000000E+01 0.  0.
<mgrwt>
<rscale>  0 0.12500053E+03</rscale>
<asrwt>0</asrwt>
<pdfrwt beam="1">  1        4 0.78298877E-02 0.12500053E+03</pdfrwt>
<pdfrwt beam="2">  1       -4 0.11808138E-01 0.12500053E+03</pdfrwt>
<totfact> 0.10394991E+04</totfact>
</mgrwt>
</event>
<event>
 5    1  0.3337119E-002  0.1250010E+03  0.7818608E-02  0.1235068E+00
          4   -1    0    0  501    0  0.00000000000E+00  0.00000000000E+00  0.37370194741E+02  0.37391768545E+02  0.12700000000E+01 0. -1.
         -4   -1    0    0    0  501 -0.00000000000E+00 -0.00000000000E+00 -0.10447464576E+03  0.10448236458E+03  0.12700000000E+01 0. -1.
         25    2    1    2    0    0  0.00000000000E+00  0.00000000000E+00 -0.67104451024E+02  0.14187413312E+03  0.12500104920E+03 0.  0.
    9000005    1    3    3    0    0 -0.17245103154E+01  0.58231118126E+02 -0.59220889397E+02  0.83077980205E+02  0.10000000000E+01 0.  0.
    9000005    1    3    3    0    0  0.17245103154E+01 -0.58231118126E+02 -0.78835616273E+01  0.58796152918E+02  0.10000000000E+01 0.  0.
<mgrwt>
<rscale>  0 0.12500105E+03</rscale>
<asrwt>0</asrwt>
<pdfrwt beam="1">  1        4 0.57515141E-02 0.12500105E+03</pdfrwt>
<pdfrwt beam="2">  1       -4 0.16075276E-01 0.12500105E+03</pdfrwt>
<totfact> 0.10094652E+04</totfact>
</mgrwt>
</event>
<event>
 5    1  0.3337119E-002  0.1249971E+03  0.7818608E-02  0.1235074E+00
         -4   -1    0    0    0  501 -0.00000000000E+00  0.00000000000E+00  0.11728186446E+01  0.17286999662E+01  0.12700000000E+01 0.  1.
          4   -1    0    0  501    0  0.00000000000E+00 -0.00000000000E+00 -0.26918760716E+04  0.26918763712E+04  0.12700000000E+01 0.  1.
         25    2    1    2    0    0  0.00000000000E+00  0.00000000000E+00 -0.26907032529E+04  0.26936050711E+04  0.12499713547E+03 0.  0.
    9000005    1    3    3    0    0 -0.36596652243E+02  0.47407124727E+02 -0.96087832147E+03  0.96274342330E+03  0.10000000000E+01 0.  0.
    9000005    1    3    3    0    0  0.36596652243E+02 -0.47407124727E+02 -0.17298249315E+04  0.17308616478E+04  0.10000000000E+01 0.  0.
<mgrwt>
<rscale>  0 0.12499714E+03</rscale>
<asrwt>0</asrwt>
<pdfrwt beam="2">  1        4 0.41417357E+00 0.12499714E+03</pdfrwt>
<pdfrwt beam="1">  1       -4 0.22321894E-03 0.12499714E+03</pdfrwt>
<totfact> 0.33210871E+02</totfact>
</mgrwt>
</event>
<event>
 5    1  0.3337119E-002  0.1250319E+03  0.7818608E-02  0.1235019E+00
          4   -1    0    0  501    0  0.00000000000E+00  0.00000000000E+00  0.13449310545E+04  0.13449316542E+04  0.12700000000E+01 0.  1.
         -4   -1    0    0    0  501 -0.00000000000E+00 -0.00000000000E+00 -0.27665167841E+01  0.30440951228E+01  0.12700000000E+01 0.  1.
         25    2    1    2    0    0  0.00000000000E+00  0.00000000000E+00  0.13421645378E+04  0.13479757493E+04  0.12503189293E+03 0.  0.
    9000005    1    3    3    0    0  0.12887124057E+02  0.56098758276E+01  0.13277268561E+04  0.13278016242E+04  0.10000000000E+01 0.  0.
    9000005    1    3    3    0    0 -0.12887124057E+02 -0.56098758276E+01  0.14437681631E+02  0.20174125114E+02  0.10000000000E+01 0.  0.
<mgrwt>
<rscale>  0 0.12503189E+03</rscale>
<asrwt>0</asrwt>
<pdfrwt beam="1">  1        4 0.20693363E+00 0.12503189E+03</pdfrwt>
<pdfrwt beam="2">  1       -4 0.44701678E-03 0.12503189E+03</pdfrwt>
<totfact> 0.21109033E+03</totfact>
</mgrwt>
</event>
<event>
 5    1  0.3337119E-002  0.1250053E+03  0.7818608E-02  0.1235061E+00
         -4   -1    0    0    0  501 -0.00000000000E+00  0.00000000000E+00  0.14583541391E+03  0.14584094367E+03  0.12700000000E+01 0. -1.
          4   -1    0    0  501    0  0.00000000000E+00 -0.00000000000E+00 -0.26766493280E+02  0.26796605429E+02  0.12700000000E+01 0. -1.
         25    2    1    2    0    0  0.00000000000E+00  0.00000000000E+00  0.11906892063E+03  0.17263754909E+03  0.12500526188E+03 0.  0.
    9000005    1    3    3    0    0  0.35491705998E+02  0.49449096998E+02  0.79099715075E+02  0.99813021763E+02  0.10000000000E+01 0.  0.
    9000005    1    3    3    0    0 -0.35491705998E+02 -0.49449096998E+02  0.39969205552E+02  0.72824527331E+02  0.10000000000E+01 0.  0.
<mgrwt>
<rscale>  0 0.12500526E+03</rscale>
<asrwt>0</asrwt>
<pdfrwt beam="2">  1        4 0.41206638E-02 0.12500526E+03</pdfrwt>
<pdfrwt beam="1">  1       -4 0.22438959E-01 0.12500526E+03</pdfrwt>
<totfact> 0.94948096E+03</totfact>
</mgrwt>
</event>
<event>
 5    1  0.3337119E-002  0.1249975E+03  0.7818608E-02  0.1235073E+00
          4   -1    0    0  501    0  0.00000000000E+00  0.00000000000E+00  0.14529748649E+03  0.14530303672E+03  0.12700000000E+01 0.  1.
         -4   -1    0    0    0  501 -0.00000000000E+00 -0.00000000000E+00 -0.26862366577E+02  0.26892371374E+02  0.12700000000E+01 0.  1.
         25    2    1    2    0    0  0.00000000000E+00  0.00000000000E+00  0.11843511991E+03  0.17219540810E+03  0.12499752374E+03 0.  0.
    9000005    1    3    3    0    0 -0.54416827780E+02 -0.83990401696E+01  0.18506082999E+02  0.58096558671E+02  0.10000000000E+01 0.  0.
    9000005    1    3    3    0    0  0.54416827780E+02  0.83990401696E+01  0.99929036916E+02  0.11409884943E+03  0.10000000000E+01 0.  0.
<mgrwt>
<rscale>  0 0.12499752E+03</rscale>
<asrwt>0</asrwt>
<pdfrwt beam="1">  1        4 0.22356195E-01 0.12499752E+03</pdfrwt>
<pdfrwt beam="2">  1       -4 0.41354067E-02 0.12499752E+03</pdfrwt>
<totfact> 0.95046300E+03</totfact>
</mgrwt>
</event>
<event>
 5    1  0.3337119E-002  0.1250151E+03  0.7818608E-02  0.1235046E+00
          4   -1    0    0  501    0  0.00000000000E+00  0.00000000000E+00  0.54085123193E+03  0.54085272300E+03  0.12700000000E+01 0. -1.
         -4   -1    0    0    0  501 -0.00000000000E+00 -0.00000000000E+00 -0.71668303255E+01  0.72784858944E+01  0.12700000000E+01 0. -1.
         25    2    1    2    0    0  0.00000000000E+00  0.00000000000E+00  0.53368440160E+03  0.54813120890E+03  0.12501512569E+03 0.  0.
    9000005    1    3    3    0    0 -0.13492919729E+02 -0.42833512240E+02  0.45742644720E+03  0.45962672165E+03  0.10000000000E+01 0.  0.
    9000005    1    3    3    0    0  0.13492919729E+02  0.42833512240E+02  0.76257954405E+02  0.88504487251E+02  0.10000000000E+01 0.  0.
<mgrwt>
<rscale>  0 0.12501513E+03</rscale>
<asrwt>0</asrwt>
<pdfrwt beam="1">  1        4 0.83216603E-01 0.12501513E+03</pdfrwt>
<pdfrwt beam="2">  1       -4 0.11112926E-02 0.12501513E+03</pdfrwt>
<totfact> 0.52297055E+03</totfact>
</mgrwt>
</event>
<event>
 5    1  0.3337119E-002  0.1250022E+03  0.7818608E-02  0.1235066E+00
         -4   -1    0    0    0  501 -0.00000000000E+00  0.00000000000E+00  0.19103646831E+02  0.19145814745E+02  0.12700000000E+01 0.  1.
          4   -1    0    0  501    0  0.00000000000E+00 -0.00000000000E+00 -0.20421439857E+03  0.20421834757E+03  0.12700000000E+01 0.  1.
         25    2    1    2    0    0  0.00000000000E+00  0.00000000000E+00 -0.18511075174E+03  0.22336416232E+03  0.12500223437E+03 0.  0.
    9000005    1    3    3    0    0  0.15717340882E+02 -0.43850705151E+02 -0.16699502823E+03  0.17337317728E+03  0.10000000000E+01 0.  0.
    9000005    1    3    3    0    0 -0.15717340882E+02  0.43850705151E+02 -0.18115723515E+02  0.49990985039E+02  0.10000000000E+01 0.  0.
<mgrwt>
<rscale>  0 0.12500223E+03</rscale>
<asrwt>0</asrwt>
<pdfrwt beam="2">  1        4 0.31421146E-01 0.12500223E+03</pdfrwt>
<pdfrwt beam="1">  1       -4 0.29425702E-02 0.12500223E+03</pdfrwt>
<totfact> 0.86334491E+03</totfact>
</mgrwt>
</event>
<event>
 5    1  0.3337119E-002  0.1250025E+03  0.7818608E-02  0.1235065E+00
         -4   -1    0    0    0  501 -0.00000000000E+00  0.00000000000E+00  0.57239894470E+01  0.58631864365E+01  0.12700000000E+01 0.  1.
          4   -1    0    0  501    0  0.00000000000E+00 -0.00000000000E+00 -0.67412376094E+03  0.67412495723E+03  0.12700000000E+01 0.  1.
         25    2    1    2    0    0  0.00000000000E+00  0.00000000000E+00 -0.66839977150E+03  0.67998814367E+03  0.12500248397E+03 0.  0.
    9000005    1    3    3    0    0  0.59041577487E+02 -0.10203875576E+02 -0.23759510889E+03  0.24503563561E+03  0.10000000000E+01 0.  0.
    9000005    1    3    3    0    0 -0.59041577487E+02  0.10203875576E+02 -0.43080466260E+03  0.43495250806E+03  0.10000000000E+01 0.  0.
<mgrwt>
<rscale>  0 0.12500248E+03</rscale>
<asrwt>0</asrwt>
<pdfrwt beam="2">  1        4 0.10372209E+00 0.12500248E+03</pdfrwt>
<pdfrwt beam="1">  1       -4 0.89141378E-03 0.12500248E+03</pdfrwt>
<totfact> 0.44161981E+03</totfact>
</mgrwt>
</event>
<event>
 5    1  0.3337119E-002  0.1250005E+03  0.7818608E-02  0.1235069E+00
         -4   -1    0    0    0  501 -0.00000000000E+00  0.00000000000E+00  0.49116836944E+02  0.49133253214E+02  0.12700000000E+01 0. -1.
          4   -1    0    0  501    0  0.00000000000E+00 -0.00000000000E+00 -0.79495585287E+02  0.79505729229E+02  0.12700000000E+01 0. -1.
         25    2    1    2    0    0  0.00000000000E+00  0.00000000000E+00 -0.30378748343E+02  0.12863898244E+03  0.12500047781E+03 0.  0.
    9000005    1    3    3    0    0  0.19963054011E+02  0.53273306600E+01  0.45505103570E+02  0.49986182374E+02  0.10000000000E+01 0.  0.
    9000005    1    3    3    0    0 -0.19963054011E+02 -0.53273306600E+01 -0.75883851913E+02  0.78652800069E+02  0.10000000000E+01 0.  0.
<mgrwt>
<rscale>  0 0.12500048E+03</rscale>
<asrwt>0</asrwt>
<pdfrwt beam="2">  1        4 0.12232133E-01 0.12500048E+03</pdfrwt>
<pdfrwt beam="1">  1       -4 0.75584795E-02 0.12500048E+03</pdfrwt>
<totfact> 0.10373599E+04</totfact>
</mgrwt>
</event>
<event>
 5    1  0.3337119E-002  0.1250016E+03  0.7818608E-02  0.1235067E+00
         -4   -1    0    0    0  501 -0.00000000000E+00  0.00000000000E+00  0.52353546460E+02  0.52368948118E+02  0.12700000000E+01 0.  1.
          4   -1    0    0  501    0  0.00000000000E+00 -0.00000000000E+00 -0.74583002988E+02  0.74593814990E+02  0.12700000000E+01 0.  1.
         25    2    1    2    0    0  0.00000000000E+00  0.00000000000E+00 -0.22229456528E+02  0.12696276311E+03  0.12500157790E+03 0.  0.
    9000005    1    3    3    0    0  0.31223140067E+02 -0.52277040887E+02  0.31619449748E+01  0.60981729850E+02  0.10000000000E+01 0.  0.
    9000005    1    3    3    0    0 -0.31223140067E+02  0.52277040887E+02 -0.25391401503E+02  0.65981033258E+02  0.10000000000E+01 0.  0.
<mgrwt>
<rscale>  0 0.12500158E+03</rscale>
<asrwt>0</asrwt>
<pdfrwt beam="2">  1        4 0.11476325E-01 0.12500158E+03</pdfrwt>
<pdfrwt beam="1">  1       -4 0.80564082E-02 0.12500158E+03</pdfrwt>
<totfact> 0.10409584E+04</totfact>
</mgrwt>
</event>
<event>
 5    1  0.3337119E-002  0.1250030E+03  0.7818608E-02  0.1235065E+00
         -4   -1    0    0    0  501 -0.00000000000E+00  0.00000000000E+00  0.11292303927E+03  0.11293018063E+03  0.12700000000E+01 0.  1.
          4   -1    0    0  501    0  0.00000000000E+00 -0.00000000000E+00 -0.34573898047E+02  0.34597215584E+02  0.12700000000E+01 0.  1.
         25    2    1    2    0    0  0.00000000000E+00  0.00000000000E+00  0.78349141218E+02  0.14752739621E+03  0.12500297878E+03 0.  0.
    9000005    1    3    3    0    0 -0.10790897329E+01 -0.53901174481E+02  0.18735290705E+01  0.53953787228E+02  0.10000000000E+01 0.  0.
    9000005    1    3    3    0    0  0.10790897329E+01  0.53901174481E+02  0.76475612147E+02  0.93573608985E+02  0.10000000000E+01 0.  0.
<mgrwt>
<rscale>  0 0.12500298E+03</rscale>
<asrwt>0</asrwt>
<pdfrwt beam="2">  1        4 0.53214042E-02 0.12500298E+03</pdfrwt>
<pdfrwt beam="1">  1       -4 0.17375118E-01 0.12500298E+03</pdfrwt>
<totfact> 0.99792185E+03</totfact>
</mgrwt>
</event>
<event>
 5    1  0.3337119E-002  0.1249995E+03  0.7818608E-02  0.1235070E+00
          4   -1    0    0  501    0  0.00000000000E+00  0.00000000000E+00  0.94859145451E+03  0.94859230467E+03  0.12700000000E+01 0. -1.
         -4   -1    0    0    0  501 -0.00000000000E+00 -0.00000000000E+00 -0.40191211299E+01  0.42150011455E+01  0.12700000000E+01 0. -1.
         25    2    1    2    0    0  0.00000000000E+00  0.00000000000E+00  0.94457233338E+03  0.95280730581E+03  0.12499947607E+03 0.  0.
    9000005    1    3    3    0    0  0.46283733709E+02 -0.41985016535E+02  0.47640255962E+03  0.48048446847E+03  0.10000000000E+01 0.  0.
    9000005    1    3    3    0    0 -0.46283733709E+02  0.41985016535E+02  0.46816977376E+03  0.47232283735E+03  0.10000000000E+01 0.  0.
<mgrwt>
<rscale>  0 0.12499948E+03</rscale>
<asrwt>0</asrwt>
<pdfrwt beam="1">  1        4 0.14595236E+00 0.12499948E+03</pdfrwt>
<pdfrwt beam="2">  1       -4 0.63345905E-03 0.12499948E+03</pdfrwt>
<totfact> 0.32216856E+03</totfact>
</mgrwt>
</event>
<event>
 5    1  0.3337119E-002  0.1250013E+03  0.7818608E-02  0.1235067E+00
          4   -1    0    0  501    0  0.00000000000E+00  0.00000000000E+00  0.20159634642E+03  0.20160034670E+03  0.12700000000E+01 0. -1.
         -4   -1    0    0    0  501 -0.00000000000E+00 -0.00000000000E+00 -0.19351972135E+02  0.19393600117E+02  0.12700000000E+01 0. -1.
         25    2    1    2    0    0  0.00000000000E+00  0.00000000000E+00  0.18224437428E+03  0.22099394681E+03  0.12500125028E+03 0.  0.
    9000005    1    3    3    0    0  0.11203962397E+02  0.40859830816E+02  0.99073451430E+01  0.43522523312E+02  0.10000000000E+01 0.  0.
    9000005    1    3    3    0    0 -0.11203962397E+02 -0.40859830816E+02  0.17233702914E+03  0.17747142350E+03  0.10000000000E+01 0.  0.
<mgrwt>
<rscale>  0 0.12500125E+03</rscale>
<asrwt>0</asrwt>
<pdfrwt beam="1">  1        4 0.31018332E-01 0.12500125E+03</pdfrwt>
<pdfrwt beam="2">  1       -4 0.29807363E-02 0.12500125E+03</pdfrwt>
<totfact> 0.86708892E+03</totfact>
</mgrwt>
</event>
<event>
 5    1  0.3337119E-002  0.1249992E+03  0.7818608E-02  0.1235070E+00
         -4   -1    0    0    0  501 -0.00000000000E+00  0.00000000000E+00  0.12583103759E+03  0.12583744642E+03  0.12700000000E+01 0. -1.
          4   -1    0    0  501    0  0.00000000000E+00 -0.00000000000E+00 -0.31023038032E+02  0.31049022347E+02  0.12700000000E+01 0. -1.
         25    2    1    2    0    0  0.00000000000E+00  0.00000000000E+00  0.94807999557E+02  0.15688646876E+03  0.12499922920E+03 0.  0.
    9000005    1    3    3    0    0 -0.58760192621E+02 -0.39589300670E+00  0.74096187882E+02  0.94573579961E+02  0.10000000000E+01 0.  0.
    9000005    1    3    3    0    0  0.58760192621E+02  0.39589300670E+00  0.20711811675E+02  0.62312888803E+02  0.10000000000E+01 0.  0.
<mgrwt>
<rscale>  0 0.12499923E+03</rscale>
<asrwt>0</asrwt>
<pdfrwt beam="2">  1        4 0.47752669E-02 0.12499923E+03</pdfrwt>
<pdfrwt beam="1">  1       -4 0.19361113E-01 0.12499923E+03</pdfrwt>
<totfact> 0.97948127E+03</totfact>
</mgrwt>
</event>
<event>
 5    1  0.3337119E-002  0.1249978E+03  0.7818608E-02  0.1235073E+00
          4   -1    0    0  501    0  0.00000000000E+00  0.00000000000E+00  0.25384416416E+03  0.25384734109E+03  0.12700000000E+01 0.  1.
         -4   -1    0    0    0  501 -0.00000000000E+00 -0.00000000000E+00 -0.15358356985E+02  0.15410776401E+02  0.12700000000E+01 0.  1.
         25    2    1    2    0    0  0.00000000000E+00  0.00000000000E+00  0.23848580717E+03  0.26925811749E+03  0.12499781442E+03 0.  0.
    9000005    1    3    3    0    0 -0.70278851324E+01  0.14012911548E+02  0.24955027558E+03  0.25004418190E+03  0.10000000000E+01 0.  0.
    9000005    1    3    3    0    0  0.70278851324E+01 -0.14012911548E+02 -0.11064468411E+02  0.19213935586E+02  0.10000000000E+01 0.  0.
<mgrwt>
<rscale>  0 0.12499781E+03</rscale>
<asrwt>0</asrwt>
<pdfrwt beam="1">  1        4 0.39057224E-01 0.12499781E+03</pdfrwt>
<pdfrwt beam="2">  1       -4 0.23671008E-02 0.12499781E+03</pdfrwt>
<totfact> 0.79627990E+03</totfact>
</mgrwt>
</event>
<event>
 5    1  0.3337119E-002  0.1249973E+03  0.7818608E-02  0.1235074E+00
          4   -1    0    0  501    0  0.00000000000E+00  0.00000000000E+00  0.32506349050E+02  0.32531148589E+02  0.12700000000E+01 0.  1.
         -4   -1    0    0    0  501 -0.00000000000E+00 -0.00000000000E+00 -0.12008956664E+03  0.12009628185E+03  0.12700000000E+01 0.  1.
         25    2    1    2    0    0  0.00000000000E+00  0.00000000000E+00 -0.87583217589E+02  0.15262743044E+03  0.12499725005E+03 0.  0.
    9000005    1    3    3    0    0  0.37319056720E+02 -0.19327851573E+02  0.12678321442E+02  0.43909198074E+02  0.10000000000E+01 0.  0.
    9000005    1    3    3    0    0 -0.37319056720E+02  0.19327851573E+02 -0.10026153903E+03  0.10871823237E+03  0.10000000000E+01 0.  0.
<mgrwt>
<rscale>  0 0.12499725E+03</rscale>
<asrwt>0</asrwt>
<pdfrwt beam="1">  1        4 0.50034011E-02 0.12499725E+03</pdfrwt>
<pdfrwt beam="2">  1       -4 0.18477742E-01 0.12499725E+03</pdfrwt>
<totfact> 0.98788627E+03</totfact>
</mgrwt>
</event>
<event>
 5    1  0.3337119E-002  0.1249925E+03  0.7818608E-02  0.1235081E+00
         -4   -1    0    0    0  501 -0.00000000000E+00  0.00000000000E+00  0.42503147500E+02  0.42522117155E+02  0.12700000000E+01 0. -1.
          4   -1    0    0  501    0  0.00000000000E+00 -0.00000000000E+00 -0.91850035381E+02  0.91858815035E+02  0.12700000000E+01 0. -1.
         25    2    1    2    0    0  0.00000000000E+00  0.00000000000E+00 -0.49346887882E+02  0.13438093219E+03  0.12499247814E+03 0.  0.
    9000005    1    3    3    0    0  0.37593578383E+02  0.99604022051E+01  0.27911445992E+02  0.47880429876E+02  0.10000000000E+01 0.  0.
    9000005    1    3    3    0    0 -0.37593578383E+02 -0.99604022051E+01 -0.77258333873E+02  0.86500502314E+02  0.10000000000E+01 0.  0.
<mgrwt>
<rscale>  0 0.12499248E+03</rscale>
<asrwt>0</asrwt>
<pdfrwt beam="2">  1        4 0.14132909E-01 0.12499248E+03</pdfrwt>
<pdfrwt beam="1">  1       -4 0.65410804E-02 0.12499248E+03</pdfrwt>
<totfact> 0.10252875E+04</totfact>
</mgrwt>
</event>
<event>
 5    1  0.3337119E-002  0.1249988E+03  0.7818608E-02  0.1235071E+00
         -4   -1    0    0    0  501 -0.00000000000E+00  0.00000000000E+00  0.23056798582E+03  0.23057148346E+03  0.12700000000E+01 0.  1.
          4   -1    0    0  501    0  0.00000000000E+00 -0.00000000000E+00 -0.16914094517E+02  0.16961706675E+02  0.12700000000E+01 0.  1.
         25    2    1    2    0    0  0.00000000000E+00  0.00000000000E+00  0.21365389130E+03  0.24753319014E+03  0.12499877979E+03 0.  0.
    9000005    1    3    3    0    0  0.57101016264E+02  0.16140155148E+02  0.14563967352E+03  0.15726711407E+03  0.10000000000E+01 0.  0.
    9000005    1    3    3    0    0 -0.57101016264E+02 -0.16140155148E+02  0.68014217786E+02  0.90266076062E+02  0.10000000000E+01 0.  0.
<mgrwt>
<rscale>  0 0.12499878E+03</rscale>
<asrwt>0</asrwt>
<pdfrwt beam="2">  1        4 0.26060999E-02 0.12499878E+03</pdfrwt>
<pdfrwt beam="1">  1       -4 0.35475930E-01 0.12499878E+03</pdfrwt>
<totfact> 0.82690317E+03</totfact>
</mgrwt>
</event>
<event>
 5    1  0.3337119E-002  0.1249960E+03  0.7818608E-02  0.1235076E+00
         -4   -1    0    0    0  501 -0.00000000000E+00  0.00000000000E+00  0.60982022747E+02  0.60995245703E+02  0.12700000000E+01 0.  1.
          4   -1    0    0  501    0  0.00000000000E+00 -0.00000000000E+00 -0.64025173385E+02  0.64037767974E+02  0.12700000000E+01 0.  1.
         25    2    1    2    0    0  0.00000000000E+00  0.00000000000E+00 -0.30431506382E+01  0.12503301368E+03  0.12499597491E+03 0.  0.
    9000005    1    3    3    0    0  0.55664694731E+02  0.12798259760E+02 -0.26879525875E+02  0.63133688342E+02  0.10000000000E+01 0.  0.
    9000005    1    3    3    0    0 -0.55664694731E+02 -0.12798259760E+02  0.23836375237E+02  0.61899325334E+02  0.10000000000E+01 0.  0.
<mgrwt>
<rscale>  0 0.12499597E+03</rscale>
<asrwt>0</asrwt>
<pdfrwt beam="2">  1        4 0.98520126E-02 0.12499597E+03</pdfrwt>
<pdfrwt beam="1">  1       -4 0.93838357E-02 0.12499597E+03</pdfrwt>
<totfact> 0.10453096E+04</totfact>
</mgrwt>
</event>
<event>
 5    1  0.3337119E-002  0.1250036E+03  0.7818608E-02  0.1235064E+00
         -4   -1    0    0    0  501 -0.00000000000E+00  0.00000000000E+00  0.18273819526E+02  0.18317897807E+02  0.12700000000E+01 0.  1.
          4   -1    0    0  501    0  0.00000000000E+00 -0.00000000000E+00 -0.21347077073E+03  0.21347454849E+03  0.12700000000E+01 0.  1.
         25    2    1    2    0    0  0.00000000000E+00  0.00000000000E+00 -0.19519695120E+03  0.23179244630E+03  0.12500355357E+03 0.  0.
    9000005    1    3    3    0    0  0.51581781889E+02  0.34180884993E+02 -0.81384438290E+02  0.10224206530E+03  0.10000000000E+01 0.  0.
    9000005    1    3    3    0    0 -0.51581781889E+02 -0.34180884993E+02 -0.11381251291E+03  0.12955038100E+03  0.10000000000E+01 0.  0.
<mgrwt>
<rscale>  0 0.12500355E+03</rscale>
<asrwt>0</asrwt>
<pdfrwt beam="2">  1        4 0.32845337E-01 0.12500355E+03</pdfrwt>
<pdfrwt beam="1">  1       -4 0.28150382E-02 0.12500355E+03</pdfrwt>
<totfact> 0.85028383E+03</totfact>
</mgrwt>
</event>
<event>
 5    1  0.3337119E-002  0.1249987E+03  0.7818608E-02  0.1235071E+00
          4   -1    0    0  501    0  0.00000000000E+00  0.00000000000E+00  0.11387120300E+02  0.11457722667E+02  0.12700000000E+01 0. -1.
         -4   -1    0    0    0  501 -0.00000000000E+00 -0.00000000000E+00 -0.34190212945E+03  0.34190448816E+03  0.12700000000E+01 0. -1.
         25    2    1    2    0    0  0.00000000000E+00  0.00000000000E+00 -0.33051500915E+03  0.35336221083E+03  0.12499872306E+03 0.  0.
    9000005    1    3    3    0    0 -0.33152993625E+01 -0.62017986753E+02 -0.18483247602E+03  0.19499042562E+03  0.10000000000E+01 0.  0.
    9000005    1    3    3    0    0  0.33152993625E+01  0.62017986753E+02 -0.14568253313E+03  0.15837178521E+03  0.10000000000E+01 0.  0.
<mgrwt>
<rscale>  0 0.12499872E+03</rscale>
<asrwt>0</asrwt>
<pdfrwt beam="1">  1        4 0.17574773E-02 0.12499872E+03</pdfrwt>
<pdfrwt beam="2">  1       -4 0.52605932E-01 0.12499872E+03</pdfrwt>
<totfact> 0.69358212E+03</totfact>
</mgrwt>
</event>
<event>
 5    1  0.3337119E-002  0.1250003E+03  0.7818608E-02  0.1235069E+00
          4   -1    0    0  501    0  0.00000000000E+00  0.00000000000E+00  0.10751888775E+03  0.10752638803E+03  0.12700000000E+01 0.  1.
         -4   -1    0    0    0  501 -0.00000000000E+00 -0.00000000000E+00 -0.36311113687E+02  0.36333316353E+02  0.12700000000E+01 0.  1.
         25    2    1    2    0    0  0.00000000000E+00  0.00000000000E+00  0.71207774062E+02  0.14385970438E+03  0.12500026983E+03 0.  0.
    9000005    1    3    3    0    0 -0.87254016475E+01  0.60632611491E+02  0.21376693452E+02  0.64887666263E+02  0.10000000000E+01 0.  0.
    9000005    1    3    3    0    0  0.87254016475E+01 -0.60632611491E+02  0.49831080611E+02  0.78972038121E+02  0.10000000000E+01 0.  0.
<mgrwt>
<rscale>  0 0.12500027E+03</rscale>
<asrwt>0</asrwt>
<pdfrwt beam="1">  1        4 0.16543652E-01 0.12500027E+03</pdfrwt>
<pdfrwt beam="2">  1       -4 0.55886101E-02 0.12500027E+03</pdfrwt>
<totfact> 0.10054147E+04</totfact>
</mgrwt>
</event>
<event>
 5    1  0.3337119E-002  0.1249982E+03  0.7818608E-02  0.1235072E+00
          4   -1    0    0  501    0  0.00000000000E+00  0.00000000000E+00  0.94626741415E+01  0.95475181021E+01  0.12700000000E+01 0.  1.
         -4   -1    0    0    0  501 -0.00000000000E+00 -0.00000000000E+00 -0.41086578820E+03  0.41086775100E+03  0.12700000000E+01 0.  1.
         25    2    1    2    0    0  0.00000000000E+00  0.00000000000E+00 -0.40140311406E+03  0.42041526910E+03  0.12499815407E+03 0.  0.
    9000005    1    3    3    0    0  0.47256492607E+02 -0.40181808089E+02 -0.22617914524E+03  0.23453306704E+03  0.10000000000E+01 0.  0.
    9000005    1    3    3    0    0 -0.47256492607E+02  0.40181808089E+02 -0.17522396882E+03  0.18588220206E+03  0.10000000000E+01 0.  0.
<mgrwt>
<rscale>  0 0.12499815E+03</rscale>
<asrwt>0</asrwt>
<pdfrwt beam="1">  1        4 0.14624738E-02 0.12499815E+03</pdfrwt>
<pdfrwt beam="2">  1       -4 0.63216785E-01 0.12499815E+03</pdfrwt>
<totfact> 0.62617058E+03</totfact>
</mgrwt>
</event>
<event>
 5    1  0.3337119E-002  0.1249990E+03  0.7818608E-02  0.1235071E+00
         -4   -1    0    0    0  501 -0.00000000000E+00  0.00000000000E+00  0.97328182562E+02  0.97336468093E+02  0.12700000000E+01 0. -1.
          4   -1    0    0  501    0  0.00000000000E+00 -0.00000000000E+00 -0.40114140812E+02  0.40134239660E+02  0.12700000000E+01 0. -1.
         25    2    1    2    0    0  0.00000000000E+00  0.00000000000E+00  0.57214041750E+02  0.13747070775E+03  0.12499899566E+03 0.  0.
    9000005    1    3    3    0    0 -0.36881284516E+02 -0.46548144930E+02  0.72185051703E+01  0.59833650740E+02  0.10000000000E+01 0.  0.
    9000005    1    3    3    0    0  0.36881284516E+02  0.46548144930E+02  0.49995536580E+02  0.77637057014E+02  0.10000000000E+01 0.  0.
<mgrwt>
<rscale>  0 0.12499900E+03</rscale>
<asrwt>0</asrwt>
<pdfrwt beam="2">  1        4 0.61735898E-02 0.12499900E+03</pdfrwt>
<pdfrwt beam="1">  1       -4 0.14975750E-01 0.12499900E+03</pdfrwt>
<totfact> 0.10186484E+04</totfact>
</mgrwt>
</event>
<event>
 5    1  0.3337119E-002  0.1249980E+03  0.7818608E-02  0.1235072E+00
          4   -1    0    0  501    0  0.00000000000E+00  0.00000000000E+00  0.12873796602E+02  0.12936287680E+02  0.12700000000E+01 0. -1.
         -4   -1    0    0    0  501 -0.00000000000E+00 -0.00000000000E+00 -0.30261848442E+03  0.30262114931E+03  0.12700000000E+01 0. -1.
         25    2    1    2    0    0  0.00000000000E+00  0.00000000000E+00 -0.28974468782E+03  0.31555743699E+03  0.12499804768E+03 0.  0.
    9000005    1    3    3    0    0 -0.17322786127E+02  0.47499690206E+02 -0.23758810243E+03  0.24291028366E+03  0.10000000000E+01 0.  0.
    9000005    1    3    3    0    0  0.17322786127E+02 -0.47499690206E+02 -0.52156585384E+02  0.72647153336E+02  0.10000000000E+01 0.  0.
<mgrwt>
<rscale>  0 0.12499805E+03</rscale>
<asrwt>0</asrwt>
<pdfrwt beam="1">  1        4 0.19855963E-02 0.12499805E+03</pdfrwt>
<pdfrwt beam="2">  1       -4 0.46561697E-01 0.12499805E+03</pdfrwt>
<totfact> 0.73690835E+03</totfact>
</mgrwt>
</event>
<event>
 5    1  0.3337119E-002  0.1250002E+03  0.7818608E-02  0.1235069E+00
         -4   -1    0    0    0  501 -0.00000000000E+00  0.00000000000E+00  0.39318184533E+03  0.39318389642E+03  0.12700000000E+01 0. -1.
          4   -1    0    0  501    0  0.00000000000E+00 -0.00000000000E+00 -0.98923244438E+01  0.99735140699E+01  0.12700000000E+01 0. -1.
         25    2    1    2    0    0  0.00000000000E+00  0.00000000000E+00  0.38328952089E+03  0.40315741049E+03  0.12500016322E+03 0.  0.
    9000005    1    3    3    0    0 -0.16109668446E+02 -0.21256059530E+02  0.93702264164E+01  0.28286792453E+02  0.10000000000E+01 0.  0.
    9000005    1    3    3    0    0  0.16109668446E+02  0.21256059530E+02  0.37391929447E+03  0.37487061803E+03  0.10000000000E+01 0.  0.
<mgrwt>
<rscale>  0 0.12500016E+03</rscale>
<asrwt>0</asrwt>
<pdfrwt beam="2">  1        4 0.15282990E-02 0.12500016E+03</pdfrwt>
<pdfrwt beam="1">  1       -4 0.60495925E-01 0.12500016E+03</pdfrwt>
<totfact> 0.64246620E+03</totfact>
</mgrwt>
</event>
<event>
 5    1  0.3337119E-002  0.1249988E+03  0.7818608E-02  0.1235071E+00
         -4   -1    0    0    0  501 -0.00000000000E+00  0.00000000000E+00  0.29444622342E+01  0.32066739542E+01  0.12700000000E+01 0. -1.
          4   -1    0    0  501    0  0.00000000000E+00 -0.00000000000E+00 -0.12698037548E+04  0.12698043899E+04  0.12700000000E+01 0. -1.
         25    2    1    2    0    0  0.00000000000E+00  0.00000000000E+00 -0.12668592926E+04  0.12730110639E+04  0.12499880611E+03 0.  0.
    9000005    1    3    3    0    0  0.16555772775E+02 -0.44834906499E+02 -0.22340859350E+03  0.22846588827E+03  0.10000000000E+01 0.  0.
    9000005    1    3    3    0    0 -0.16555772775E+02  0.44834906499E+02 -0.10434506991E+04  0.10445451756E+04  0.10000000000E+01 0.  0.
<mgrwt>
<rscale>  0 0.12499881E+03</rscale>
<asrwt>0</asrwt>
<pdfrwt beam="2">  1        4 0.19537422E+00 0.12499881E+03</pdfrwt>
<pdfrwt beam="1">  1       -4 0.47321419E-03 0.12499881E+03</pdfrwt>
<totfact> 0.22875263E+03</totfact>
</mgrwt>
</event>
<event>
 5    1  0.3337119E-002  0.1250025E+03  0.7818608E-02  0.1235065E+00
         -4   -1    0    0    0  501 -0.00000000000E+00  0.00000000000E+00  0.11332785453E+02  0.11403724221E+02  0.12700000000E+01 0. -1.
          4   -1    0    0  501    0  0.00000000000E+00 -0.00000000000E+00 -0.34355186514E+03  0.34355421252E+03  0.12700000000E+01 0. -1.
         25    2    1    2    0    0  0.00000000000E+00  0.00000000000E+00 -0.33221907968E+03  0.35495793674E+03  0.12500247977E+03 0.  0.
    9000005    1    3    3    0    0 -0.53666202181E+02 -0.28977599154E+02 -0.12741969921E+03  0.14126762635E+03  0.10000000000E+01 0.  0.
    9000005    1    3    3    0    0  0.53666202181E+02  0.28977599154E+02 -0.20479938048E+03  0.21369031039E+03  0.10000000000E+01 0.  0.
<mgrwt>
<rscale>  0 0.12500248E+03</rscale>
<asrwt>0</asrwt>
<pdfrwt beam="2">  1        4 0.52859763E-01 0.12500248E+03</pdfrwt>
<pdfrwt beam="1">  1       -4 0.17491431E-02 0.12500248E+03</pdfrwt>
<totfact> 0.69178752E+03</totfact>
</mgrwt>
</event>
<event>
 5    1  0.3337119E-002  0.1250012E+03  0.7818608E-02  0.1235067E+00
          4   -1    0    0  501    0  0.00000000000E+00  0.00000000000E+00  0.12922488041E+02  0.12984744786E+02  0.12700000000E+01 0. -1.
         -4   -1    0    0    0  501 -0.00000000000E+00 -0.00000000000E+00 -0.30149885386E+03  0.30150152865E+03  0.12700000000E+01 0. -1.
         25    2    1    2    0    0  0.00000000000E+00  0.00000000000E+00 -0.28857636582E+03  0.31448627344E+03  0.12500118908E+03 0.  0.
    9000005    1    3    3    0    0  0.51900173619E+02  0.34417099395E+02 -0.13117678619E+03  0.14521196228E+03  0.10000000000E+01 0.  0.
    9000005    1    3    3    0    0 -0.51900173619E+02 -0.34417099395E+02 -0.15739957963E+03  0.16927431116E+03  0.10000000000E+01 0.  0.
<mgrwt>
<rscale>  0 0.12500119E+03</rscale>
<asrwt>0</asrwt>
<pdfrwt beam="1">  1        4 0.19930700E-02 0.12500119E+03</pdfrwt>
<pdfrwt beam="2">  1       -4 0.46389429E-01 0.12500119E+03</pdfrwt>
<totfact> 0.73814800E+03</totfact>
</mgrwt>
</event>
<event>
 5    1  0.3337119E-002  0.1249894E+03  0.7818608E-02  0.1235086E+00
          4   -1    0    0  501    0  0.00000000000E+00  0.00000000000E+00  0.64990910209E+02  0.65003317683E+02  0.12700000000E+01 0.  1.
         -4   -1    0    0    0  501 -0.00000000000E+00 -0.00000000000E+00 -0.60069471971E+02  0.60082895760E+02  0.12700000000E+01 0.  1.
         25    2    1    2    0    0  0.00000000000E+00  0.00000000000E+00  0.49214382383E+01  0.12508621344E+03  0.12498936050E+03 0.  0.
    9000005    1    3    3    0    0 -0.51032244866E+02  0.21475170562E+02 -0.26529159030E+02  0.61402518235E+02  0.10000000000E+01 0.  0.
    9000005    1    3    3    0    0  0.51032244866E+02 -0.21475170562E+02  0.31450597269E+02  0.63683695208E+02  0.10000000000E+01 0.  0.
<mgrwt>
<rscale>  0 0.12498936E+03</rscale>
<asrwt>0</asrwt>
<pdfrwt beam="1">  1        4 0.10000589E-01 0.12498936E+03</pdfrwt>
<pdfrwt beam="2">  1       -4 0.92434442E-02 0.12498936E+03</pdfrwt>
<totfact> 0.10453504E+04</totfact>
</mgrwt>
</event>
<event>
 5    1  0.3337119E-002  0.1250001E+03  0.7818608E-02  0.1235069E+00
          4   -1    0    0  501    0  0.00000000000E+00  0.00000000000E+00  0.66661538813E+03  0.66661659790E+03  0.12700000000E+01 0.  1.
         -4   -1    0    0    0  501 -0.00000000000E+00 -0.00000000000E+00 -0.57897909344E+01  0.59274428773E+01  0.12700000000E+01 0.  1.
         25    2    1    2    0    0  0.00000000000E+00  0.00000000000E+00  0.66082559720E+03  0.67254404077E+03  0.12500006749E+03 0.  0.
    9000005    1    3    3    0    0 -0.25669029125E+02 -0.52471919960E+02  0.21094326005E+03  0.21888412551E+03  0.10000000000E+01 0.  0.
    9000005    1    3    3    0    0  0.25669029125E+02  0.52471919960E+02  0.44988233714E+03  0.45365991526E+03  0.10000000000E+01 0.  0.
<mgrwt>
<rscale>  0 0.12500007E+03</rscale>
<asrwt>0</asrwt>
<pdfrwt beam="1">  1        4 0.10256682E+00 0.12500007E+03</pdfrwt>
<pdfrwt beam="2">  1       -4 0.90141941E-03 0.12500007E+03</pdfrwt>
<totfact> 0.44576181E+03</totfact>
</mgrwt>
</event>
<event>
 5    1  0.3337119E-002  0.1249963E+03  0.7818608E-02  0.1235075E+00
         -4   -1    0    0    0  501 -0.00000000000E+00  0.00000000000E+00  0.68690538335E+02  0.68702277668E+02  0.12700000000E+01 0.  1.
          4   -1    0    0  501    0  0.00000000000E+00 -0.00000000000E+00 -0.56840306913E+02  0.56854493138E+02  0.12700000000E+01 0.  1.
         25    2    1    2    0    0  0.00000000000E+00  0.00000000000E+00  0.11850231422E+02  0.12555677081E+03  0.12499629879E+03 0.  0.
    9000005    1    3    3    0    0  0.21350414661E+02  0.38617739909E+02 -0.38520869811E+02  0.58583508370E+02  0.10000000000E+01 0.  0.
    9000005    1    3    3    0    0 -0.21350414661E+02 -0.38617739909E+02  0.50371101233E+02  0.66973262436E+02  0.10000000000E+01 0.  0.
<mgrwt>
<rscale>  0 0.12499630E+03</rscale>
<asrwt>0</asrwt>
<pdfrwt beam="2">  1        4 0.87466569E-02 0.12499630E+03</pdfrwt>
<pdfrwt beam="1">  1       -4 0.10569769E-01 0.12499630E+03</pdfrwt>
<totfact> 0.10441572E+04</totfact>
</mgrwt>
</event>
<event>
 5    1  0.3337119E-002  0.1250011E+03  0.7818608E-02  0.1235068E+00
          4   -1    0    0  501    0  0.00000000000E+00  0.00000000000E+00  0.20574282552E+02  0.20613442277E+02  0.12700000000E+01 0. -1.
         -4   -1    0    0    0  501 -0.00000000000E+00 -0.00000000000E+00 -0.18964246539E+03  0.18964671782E+03  0.12700000000E+01 0. -1.
         25    2    1    2    0    0  0.00000000000E+00  0.00000000000E+00 -0.16906818284E+03  0.21026016010E+03  0.12500113790E+03 0.  0.
    9000005    1    3    3    0    0  0.21918549757E+02 -0.20922917950E+02 -0.17646680334E+03  0.17905229403E+03  0.10000000000E+01 0.  0.
    9000005    1    3    3    0    0 -0.21918549757E+02  0.20922917950E+02  0.73986204969E+01  0.31207866063E+02  0.10000000000E+01 0.  0.
<mgrwt>
<rscale>  0 0.12500114E+03</rscale>
<asrwt>0</asrwt>
<pdfrwt beam="1">  1        4 0.31686138E-02 0.12500114E+03</pdfrwt>
<pdfrwt beam="2">  1       -4 0.29179102E-01 0.12500114E+03</pdfrwt>
<totfact> 0.88431162E+03</totfact>
</mgrwt>
</event>
<event>
 4    1  0.3337119E-002  0.1260666E+03  0.7818608E-02  0.1233412E+00
          4   -1    0    0  501    0  0.00000000000E+00  0.00000000000E+00  0.18484363180E+04  0.18484367543E+04  0.12700000000E+01 0.  1.
         -4   -1    0    0    0  501 -0.00000000000E+00 -0.00000000000E+00 -0.19614270599E+01  0.23366848550E+01  0.12700000000E+01 0.  1.
    9000005    1    1    2    0    0 -0.26904400033E+02  0.55663449814E+02  0.11030013988E+04  0.11047331588E+04  0.10000000000E+01 0.  0.
    9000005    1    1    2    0    0  0.26904400033E+02 -0.55663449814E+02  0.74347349216E+03  0.74604028036E+03  0.10000000000E+01 0.  0.
<mgrwt>
<rscale>  0 0.12606665E+03</rscale>
<asrwt>0</asrwt>
<pdfrwt beam="1">  1        4 0.28440403E+00 0.12606665E+03</pdfrwt>
<pdfrwt beam="2">  1       -4 0.33065720E-03 0.12606665E+03</pdfrwt>
<totfact> 0.11661920E+03</totfact>
</mgrwt>
</event>
<event>
 5    1  0.3337119E-002  0.1249992E+03  0.7818608E-02  0.1235070E+00
          4   -1    0    0  501    0  0.00000000000E+00  0.00000000000E+00  0.97008572112E+01  0.97836358596E+01  0.12700000000E+01 0.  1.
         -4   -1    0    0    0  501 -0.00000000000E+00 -0.00000000000E+00 -0.40087112370E+03  0.40087313544E+03  0.12700000000E+01 0.  1.
         25    2    1    2    0    0  0.00000000000E+00  0.00000000000E+00 -0.39117026649E+03  0.41065677130E+03  0.12499922571E+03 0.  0.
    9000005    1    3    3    0    0 -0.50102240158E+01 -0.60328423211E+02 -0.24654191375E+03  0.25386716256E+03  0.10000000000E+01 0.  0.
    9000005    1    3    3    0    0  0.50102240158E+01  0.60328423211E+02 -0.14462835274E+03  0.15678960874E+03  0.10000000000E+01 0.  0.
<mgrwt>
<rscale>  0 0.12499923E+03</rscale>
<asrwt>0</asrwt>
<pdfrwt beam="1">  1        4 0.14989622E-02 0.12499923E+03</pdfrwt>
<pdfrwt beam="2">  1       -4 0.61678990E-01 0.12499923E+03</pdfrwt>
<totfact> 0.63530447E+03</totfact>
</mgrwt>
</event>
<event>
 5    1  0.3337119E-002  0.1250012E+03  0.7818608E-02  0.1235067E+00
         -4   -1    0    0    0  501 -0.00000000000E+00  0.00000000000E+00  0.14468103638E+03  0.14468661026E+03  0.12700000000E+01 0. -1.
          4   -1    0    0  501    0  0.00000000000E+00 -0.00000000000E+00 -0.26978548450E+02  0.27008424176E+02  0.12700000000E+01 0. -1.
         25    2    1    2    0    0  0.00000000000E+00  0.00000000000E+00  0.11770248793E+03  0.17169503444E+03  0.12500123673E+03 0.  0.
    9000005    1    3    3    0    0  0.47284215188E+02 -0.22998115683E+02  0.10524006539E+03  0.11764855161E+03  0.10000000000E+01 0.  0.
    9000005    1    3    3    0    0 -0.47284215188E+02  0.22998115683E+02  0.12462422539E+02  0.54046482832E+02  0.10000000000E+01 0.  0.
<mgrwt>
<rscale>  0 0.12500124E+03</rscale>
<asrwt>0</asrwt>
<pdfrwt beam="2">  1        4 0.41532729E-02 0.12500124E+03</pdfrwt>
<pdfrwt beam="1">  1       -4 0.22261348E-01 0.12500124E+03</pdfrwt>
<totfact> 0.95131006E+03</totfact>
</mgrwt>
</event>
<event>
 5    1  0.3337119E-002  0.1249995E+03  0.7818608E-02  0.1235070E+00
         -4   -1    0    0    0  501 -0.00000000000E+00  0.00000000000E+00  0.45753315542E+03  0.45753491802E+03  0.12700000000E+01 0. -1.
          4   -1    0    0  501    0  0.00000000000E+00 -0.00000000000E+00 -0.84885430555E+01  0.85830217992E+01  0.12700000000E+01 0. -1.
         25    2    1    2    0    0  0.00000000000E+00  0.00000000000E+00  0.44904461236E+03  0.46611793982E+03  0.12499947971E+03 0.  0.
    9000005    1    3    3    0    0  0.13073480262E+02  0.13276951663E+02  0.20929736006E+01  0.18776950501E+02  0.10000000000E+01 0.  0.
    9000005    1    3    3    0    0 -0.13073480262E+02 -0.13276951663E+02  0.44695163876E+03  0.44734098932E+03  0.10000000000E+01 0.  0.
<mgrwt>
<rscale>  0 0.12499948E+03</rscale>
<asrwt>0</asrwt>
<pdfrwt beam="2">  1        4 0.13133329E-02 0.12499948E+03</pdfrwt>
<pdfrwt beam="1">  1       -4 0.70397121E-01 0.12499948E+03</pdfrwt>
<totfact> 0.58593162E+03</totfact>
</mgrwt>
</event>
<event>
 5    1  0.3337119E-002  0.1250016E+03  0.7818608E-02  0.1235067E+00
         -4   -1    0    0    0  501 -0.00000000000E+00  0.00000000000E+00  0.56700235257E+02  0.56714456518E+02  0.12700000000E+01 0. -1.
          4   -1    0    0  501    0  0.00000000000E+00 -0.00000000000E+00 -0.68866035086E+02  0.68877744508E+02  0.12700000000E+01 0. -1.
         25    2    1    2    0    0  0.00000000000E+00  0.00000000000E+00 -0.12165799829E+02  0.12559220103E+03  0.12500157708E+03 0.  0.
    9000005    1    3    3    0    0  0.83041875198E+01  0.41600721519E+02 -0.52188379510E+02  0.67262222065E+02  0.10000000000E+01 0.  0.
    9000005    1    3    3    0    0 -0.83041875198E+01 -0.41600721519E+02  0.40022579681E+02  0.58329978961E+02  0.10000000000E+01 0.  0.
<mgrwt>
<rscale>  0 0.12500158E+03</rscale>
<asrwt>0</asrwt>
<pdfrwt beam="2">  1        4 0.10596769E-01 0.12500158E+03</pdfrwt>
<pdfrwt beam="1">  1       -4 0.87251078E-02 0.12500158E+03</pdfrwt>
<totfact> 0.10439548E+04</totfact>
</mgrwt>
</event>
<event>
 5    1  0.3337119E-002  0.1250012E+03  0.7818608E-02  0.1235067E+00
         -4   -1    0    0    0  501 -0.00000000000E+00  0.00000000000E+00  0.64996206405E+03  0.64996330482E+03  0.12700000000E+01 0.  1.
          4   -1    0    0  501    0  0.00000000000E+00 -0.00000000000E+00 -0.59417306407E+01  0.60759413268E+01  0.12700000000E+01 0.  1.
         25    2    1    2    0    0  0.00000000000E+00  0.00000000000E+00  0.64402033341E+03  0.65603924614E+03  0.12500121052E+03 0.  0.
    9000005    1    3    3    0    0 -0.15890507160E+02  0.48345329010E+02  0.13165322407E+03  0.14115009905E+03  0.10000000000E+01 0.  0.
    9000005    1    3    3    0    0  0.15890507160E+02 -0.48345329010E+02  0.51236710934E+03  0.51488914709E+03  0.10000000000E+01 0.  0.
<mgrwt>
<rscale>  0 0.12500121E+03</rscale>
<asrwt>0</asrwt>
<pdfrwt beam="2">  1        4 0.92453217E-03 0.12500121E+03</pdfrwt>
<pdfrwt beam="1">  1       -4 0.10000454E+00 0.12500121E+03</pdfrwt>
<totfact> 0.45509654E+03</totfact>
</mgrwt>
</event>
<event>
 5    1  0.3337119E-002  0.1249991E+03  0.7818608E-02  0.1235071E+00
          4   -1    0    0  501    0  0.00000000000E+00  0.00000000000E+00  0.11205664236E+03  0.11206383893E+03  0.12700000000E+01 0. -1.
         -4   -1    0    0    0  501 -0.00000000000E+00 -0.00000000000E+00 -0.34839224122E+02  0.34862364198E+02  0.12700000000E+01 0. -1.
         25    2    1    2    0    0  0.00000000000E+00  0.00000000000E+00  0.77217418234E+02  0.14692620313E+03  0.12499911795E+03 0.  0.
    9000005    1    3    3    0    0  0.18610170045E+02 -0.59522813015E+02  0.43294363941E+02  0.75925658689E+02  0.10000000000E+01 0.  0.
    9000005    1    3    3    0    0 -0.18610170045E+02  0.59522813015E+02  0.33923054293E+02  0.71000544441E+02  0.10000000000E+01 0.  0.
<mgrwt>
<rscale>  0 0.12499912E+03</rscale>
<asrwt>0</asrwt>
<pdfrwt beam="1">  1        4 0.17241817E-01 0.12499912E+03</pdfrwt>
<pdfrwt beam="2">  1       -4 0.53622143E-02 0.12499912E+03</pdfrwt>
<totfact> 0.99921965E+03</totfact>
</mgrwt>
</event>
<event>
 5    1  0.3337119E-002  0.1249996E+03  0.7818608E-02  0.1235070E+00
         -4   -1    0    0    0  501 -0.00000000000E+00  0.00000000000E+00  0.85732007803E+02  0.85741413926E+02  0.12700000000E+01 0.  1.
          4   -1    0    0  501    0  0.00000000000E+00 -0.00000000000E+00 -0.45542413388E+02  0.45560117616E+02  0.12700000000E+01 0.  1.
         25    2    1    2    0    0  0.00000000000E+00  0.00000000000E+00  0.40189594416E+02  0.13130153154E+03  0.12499955474E+03 0.  0.
    9000005    1    3    3    0    0 -0.34335554930E+02  0.30101007233E+02  0.64909798191E+02  0.79368021709E+02  0.10000000000E+01 0.  0.
    9000005    1    3    3    0    0  0.34335554930E+02 -0.30101007233E+02 -0.24720203776E+02  0.51933509832E+02  0.10000000000E+01 0.  0.
<mgrwt>
<rscale>  0 0.12499955E+03</rscale>
<asrwt>0</asrwt>
<pdfrwt beam="2">  1        4 0.70086106E-02 0.12499955E+03</pdfrwt>
<pdfrwt beam="1">  1       -4 0.13191625E-01 0.12499955E+03</pdfrwt>
<totfact> 0.10316733E+04</totfact>
</mgrwt>
</event>
<event>
 5    1  0.3337119E-002  0.1249998E+03  0.7818608E-02  0.1235070E+00
         -4   -1    0    0    0  501 -0.00000000000E+00  0.00000000000E+00  0.22525002800E+03  0.22525360822E+03  0.12700000000E+01 0.  1.
          4   -1    0    0  501    0  0.00000000000E+00 -0.00000000000E+00 -0.17314806468E+02  0.17361319737E+02  0.12700000000E+01 0.  1.
         25    2    1    2    0    0  0.00000000000E+00  0.00000000000E+00  0.20793522153E+03  0.24261492795E+03  0.12499978765E+03 0.  0.
    9000005    1    3    3    0    0 -0.42863251239E+02  0.45451613212E+02  0.10113540762E+03  0.11888009979E+03  0.10000000000E+01 0.  0.
    9000005    1    3    3    0    0  0.42863251239E+02 -0.45451613212E+02  0.10679981391E+03  0.12373482817E+03  0.10000000000E+01 0.  0.
<mgrwt>
<rscale>  0 0.12499979E+03</rscale>
<asrwt>0</asrwt>
<pdfrwt beam="2">  1        4 0.26676697E-02 0.12499979E+03</pdfrwt>
<pdfrwt beam="1">  1       -4 0.34657704E-01 0.12499979E+03</pdfrwt>
<totfact> 0.83409849E+03</totfact>
</mgrwt>
</event>
<event>
 5    1  0.3337119E-002  0.1249967E+03  0.7818608E-02  0.1235075E+00
          4   -1    0    0  501    0  0.00000000000E+00  0.00000000000E+00  0.18106611553E+02  0.18151095888E+02  0.12700000000E+01 0. -1.
         -4   -1    0    0    0  501 -0.00000000000E+00 -0.00000000000E+00 -0.21541352091E+03  0.21541726461E+03  0.12700000000E+01 0. -1.
         25    2    1    2    0    0  0.00000000000E+00  0.00000000000E+00 -0.19730690936E+03  0.23356836050E+03  0.12499665013E+03 0.  0.
    9000005    1    3    3    0    0 -0.26660099778E+02  0.56254127276E+02 -0.10884594119E+03  0.12539428483E+03  0.10000000000E+01 0.  0.
    9000005    1    3    3    0    0  0.26660099778E+02 -0.56254127276E+02 -0.88460968170E+02  0.10817407566E+03  0.10000000000E+01 0.  0.
<mgrwt>
<rscale>  0 0.12499665E+03</rscale>
<asrwt>0</asrwt>
<pdfrwt beam="1">  1        4 0.27893426E-02 0.12499665E+03</pdfrwt>
<pdfrwt beam="2">  1       -4 0.33144250E-01 0.12499665E+03</pdfrwt>
<totfact> 0.84771002E+03</totfact>
</mgrwt>
</event>
<event>
 5    1  0.3337119E-002  0.1249972E+03  0.7818608E-02  0.1235074E+00
         -4   -1    0    0    0  501 -0.00000000000E+00  0.00000000000E+00  0.34683448057E+02  0.34706691994E+02  0.12700000000E+01 0. -1.
          4   -1    0    0  501    0  0.00000000000E+00 -0.00000000000E+00 -0.11255613040E+03  0.11256329504E+03  0.12700000000E+01 0. -1.
         25    2    1    2    0    0  0.00000000000E+00  0.00000000000E+00 -0.77872682338E+02  0.14726998703E+03  0.12499717767E+03 0.  0.
    9000005    1    3    3    0    0  0.42456138893E+02 -0.27677541971E+01 -0.92861892312E+02  0.10214947497E+03  0.10000000000E+01 0.  0.
    9000005    1    3    3    0    0 -0.42456138893E+02  0.27677541971E+01  0.14989209974E+02  0.45120512061E+02  0.10000000000E+01 0.  0.
<mgrwt>
<rscale>  0 0.12499718E+03</rscale>
<asrwt>0</asrwt>
<pdfrwt beam="2">  1        4 0.17318667E-01 0.12499718E+03</pdfrwt>
<pdfrwt beam="1">  1       -4 0.53382543E-02 0.12499718E+03</pdfrwt>
<totfact> 0.99857040E+03</totfact>
</mgrwt>
</event>
<event>
 5    1  0.3337119E-002  0.1249990E+03  0.7818608E-02  0.1235071E+00
          4   -1    0    0  501    0  0.00000000000E+00  0.00000000000E+00  0.42329496114E+02  0.42348543555E+02  0.12700000000E+01 0.  1.
         -4   -1    0    0    0  501 -0.00000000000E+00 -0.00000000000E+00 -0.92236359675E+02  0.92245102559E+02  0.12700000000E+01 0.  1.
         25    2    1    2    0    0  0.00000000000E+00  0.00000000000E+00 -0.49906863561E+02  0.13459364611E+03  0.12499901817E+03 0.  0.
    9000005    1    3    3    0    0  0.36774280127E+02  0.47682482145E+02 -0.69608842214E+01  0.60625247971E+02  0.10000000000E+01 0.  0.
    9000005    1    3    3    0    0 -0.36774280127E+02 -0.47682482145E+02 -0.42945979339E+02  0.73968398143E+02  0.10000000000E+01 0.  0.
<mgrwt>
<rscale>  0 0.12499902E+03</rscale>
<asrwt>0</asrwt>
<pdfrwt beam="1">  1        4 0.65143679E-02 0.12499902E+03</pdfrwt>
<pdfrwt beam="2">  1       -4 0.14192347E-01 0.12499902E+03</pdfrwt>
<totfact> 0.10246870E+04</totfact>
</mgrwt>
</event>
<event>
 5    1  0.3337119E-002  0.1249991E+03  0.7818608E-02  0.1235071E+00
          4   -1    0    0  501    0  0.00000000000E+00  0.00000000000E+00  0.55463420966E+02  0.55477959274E+02  0.12700000000E+01 0.  1.
         -4   -1    0    0    0  501 -0.00000000000E+00 -0.00000000000E+00 -0.70398800939E+02  0.70410255458E+02  0.12700000000E+01 0.  1.
         25    2    1    2    0    0  0.00000000000E+00  0.00000000000E+00 -0.14935379973E+02  0.12588821473E+03  0.12499910813E+03 0.  0.
    9000005    1    3    3    0    0 -0.43923600029E+02 -0.25755473375E+02 -0.43954755438E+02  0.67272933442E+02  0.10000000000E+01 0.  0.
    9000005    1    3    3    0    0  0.43923600029E+02  0.25755473375E+02  0.29019375465E+02  0.58615281290E+02  0.10000000000E+01 0.  0.
<mgrwt>
<rscale>  0 0.12499911E+03</rscale>
<asrwt>0</asrwt>
<pdfrwt beam="1">  1        4 0.85348334E-02 0.12499911E+03</pdfrwt>
<pdfrwt beam="2">  1       -4 0.10832584E-01 0.12499911E+03</pdfrwt>
<totfact> 0.10433618E+04</totfact>
</mgrwt>
</event>
<event>
 5    1  0.3337119E-002  0.1250015E+03  0.7818608E-02  0.1235067E+00
         -4   -1    0    0    0  501 -0.00000000000E+00  0.00000000000E+00  0.60912281432E+01  0.62222150632E+01  0.12700000000E+01 0. -1.
          4   -1    0    0  501    0  0.00000000000E+00 -0.00000000000E+00 -0.63435261447E+03  0.63435388576E+03  0.12700000000E+01 0. -1.
         25    2    1    2    0    0  0.00000000000E+00  0.00000000000E+00 -0.62826138632E+03  0.64057610082E+03  0.12500148560E+03 0.  0.
    9000005    1    3    3    0    0  0.36861108636E+02 -0.50454323633E+02 -0.31915888414E+03  0.32521957726E+03  0.10000000000E+01 0.  0.
    9000005    1    3    3    0    0 -0.36861108636E+02  0.50454323633E+02 -0.30910250218E+03  0.31535652357E+03  0.10000000000E+01 0.  0.
<mgrwt>
<rscale>  0 0.12500149E+03</rscale>
<asrwt>0</asrwt>
<pdfrwt beam="2">  1        4 0.97602832E-01 0.12500149E+03</pdfrwt>
<pdfrwt beam="1">  1       -4 0.94728623E-03 0.12500149E+03</pdfrwt>
<totfact> 0.46401015E+03</totfact>
</mgrwt>
</event>
<event>
 5    1  0.3337119E-002  0.1250076E+03  0.7818608E-02  0.1235057E+00
         -4   -1    0    0    0  501 -0.00000000000E+00  0.00000000000E+00  0.34558325105E+01  0.36818036803E+01  0.12700000000E+01 0.  1.
          4   -1    0    0  501    0  0.00000000000E+00 -0.00000000000E+00 -0.10944565391E+04  0.10944572760E+04  0.12700000000E+01 0.  1.
         25    2    1    2    0    0  0.00000000000E+00  0.00000000000E+00 -0.10910007066E+04  0.10981390797E+04  0.12500758550E+03 0.  0.
    9000005    1    3    3    0    0 -0.16350653855E+02 -0.30646490266E+02 -0.89110133133E+02  0.95646051011E+02  0.10000000000E+01 0.  0.
    9000005    1    3    3    0    0  0.16350653855E+02  0.30646490266E+02 -0.10018905735E+04  0.10024930286E+04  0.10000000000E+01 0.  0.
<mgrwt>
<rscale>  0 0.12500759E+03</rscale>
<asrwt>0</asrwt>
<pdfrwt beam="2">  1        4 0.16839510E+00 0.12500759E+03</pdfrwt>
<pdfrwt beam="1">  1       -4 0.54910649E-03 0.12500759E+03</pdfrwt>
<totfact> 0.27533410E+03</totfact>
</mgrwt>
</event>
<event>
 5    1  0.3337119E-002  0.1250008E+03  0.7818608E-02  0.1235068E+00
         -4   -1    0    0    0  501 -0.00000000000E+00  0.00000000000E+00  0.74263485301E+03  0.74263593894E+03  0.12700000000E+01 0. -1.
          4   -1    0    0  501    0  0.00000000000E+00 -0.00000000000E+00 -0.51822910751E+01  0.53356387422E+01  0.12700000000E+01 0. -1.
         25    2    1    2    0    0  0.00000000000E+00  0.00000000000E+00  0.73745256194E+03  0.74797157768E+03  0.12500079966E+03 0.  0.
    9000005    1    3    3    0    0 -0.10542686787E+02  0.19783543944E+02  0.71777669929E+03  0.71812737512E+03  0.10000000000E+01 0.  0.
    9000005    1    3    3    0    0  0.10542686787E+02 -0.19783543944E+02  0.19675862647E+02  0.29844202562E+02  0.10000000000E+01 0.  0.
<mgrwt>
<rscale>  0 0.12500080E+03</rscale>
<asrwt>0</asrwt>
<pdfrwt beam="2">  1        4 0.80915546E-03 0.12500080E+03</pdfrwt>
<pdfrwt beam="1">  1       -4 0.11426334E+00 0.12500080E+03</pdfrwt>
<totfact> 0.40670648E+03</totfact>
</mgrwt>
</event>
<event>
 5    1  0.3337119E-002  0.1249973E+03  0.7818608E-02  0.1235073E+00
          4   -1    0    0  501    0  0.00000000000E+00  0.00000000000E+00  0.38512716465E+01  0.40552673519E+01  0.12700000000E+01 0.  1.
         -4   -1    0    0    0  501 -0.00000000000E+00 -0.00000000000E+00 -0.98785911140E+03  0.98785992776E+03  0.12700000000E+01 0.  1.
         25    2    1    2    0    0  0.00000000000E+00  0.00000000000E+00 -0.98400783976E+03  0.99191519512E+03  0.12499730237E+03 0.  0.
    9000005    1    3    3    0    0  0.79262774673E+01  0.16947638345E+02 -0.96515052246E+03  0.96533236728E+03  0.10000000000E+01 0.  0.
    9000005    1    3    3    0    0 -0.79262774673E+01 -0.16947638345E+02 -0.18857317296E+02  0.26582827832E+02  0.10000000000E+01 0.  0.
<mgrwt>
<rscale>  0 0.12499730E+03</rscale>
<asrwt>0</asrwt>
<pdfrwt beam="1">  1        4 0.60825889E-03 0.12499730E+03</pdfrwt>
<pdfrwt beam="2">  1       -4 0.15199388E+00 0.12499730E+03</pdfrwt>
<totfact> 0.30874796E+03</totfact>
</mgrwt>
</event>
<event>
 5    1  0.3337119E-002  0.1250005E+03  0.7818608E-02  0.1235068E+00
         -4   -1    0    0    0  501 -0.00000000000E+00  0.00000000000E+00  0.11692272444E+02  0.11761043105E+02  0.12700000000E+01 0.  1.
          4   -1    0    0  501    0  0.00000000000E+00 -0.00000000000E+00 -0.33304136446E+03  0.33304378592E+03  0.12700000000E+01 0.  1.
         25    2    1    2    0    0  0.00000000000E+00  0.00000000000E+00 -0.32134909201E+03  0.34480482902E+03  0.12500052472E+03 0.  0.
    9000005    1    3    3    0    0  0.27076697215E+02  0.48329672594E+02 -0.24044881007E+03  0.24674994437E+03  0.10000000000E+01 0.  0.
    9000005    1    3    3    0    0 -0.27076697215E+02 -0.48329672594E+02 -0.80900281943E+02  0.98054884649E+02  0.10000000000E+01 0.  0.
<mgrwt>
<rscale>  0 0.12500052E+03</rscale>
<asrwt>0</asrwt>
<pdfrwt beam="2">  1        4 0.51242602E-01 0.12500052E+03</pdfrwt>
<pdfrwt beam="1">  1       -4 0.18042877E-02 0.12500052E+03</pdfrwt>
<totfact> 0.70299081E+03</totfact>
</mgrwt>
</event>
<event>
 5    1  0.3337119E-002  0.1250066E+03  0.7818608E-02  0.1235059E+00
         -4   -1    0    0    0  501 -0.00000000000E+00  0.00000000000E+00  0.18031329314E+02  0.18075998916E+02  0.12700000000E+01 0. -1.
          4   -1    0    0  501    0  0.00000000000E+00 -0.00000000000E+00 -0.21634520802E+03  0.21634893559E+03  0.12700000000E+01 0. -1.
         25    2    1    2    0    0  0.00000000000E+00  0.00000000000E+00 -0.19831387870E+03  0.23442493451E+03  0.12500662156E+03 0.  0.
    9000005    1    3    3    0    0  0.43576260691E+02 -0.44050674898E+02 -0.11442784857E+03  0.13013103006E+03  0.10000000000E+01 0.  0.
    9000005    1    3    3    0    0 -0.43576260691E+02  0.44050674898E+02 -0.83886030132E+02  0.10429390445E+03  0.10000000000E+01 0.  0.
<mgrwt>
<rscale>  0 0.12500662E+03</rscale>
<asrwt>0</asrwt>
<pdfrwt beam="2">  1        4 0.33287599E-01 0.12500662E+03</pdfrwt>
<pdfrwt beam="1">  1       -4 0.27777737E-02 0.12500662E+03</pdfrwt>
<totfact> 0.84622246E+03</totfact>
</mgrwt>
</event>
<event>
 5    1  0.3337119E-002  0.1250080E+03  0.7818608E-02  0.1235057E+00
          4   -1    0    0  501    0  0.00000000000E+00  0.00000000000E+00  0.41461022609E+02  0.41480468847E+02  0.12700000000E+01 0.  1.
         -4   -1    0    0    0  501 -0.00000000000E+00 -0.00000000000E+00 -0.94181244779E+02  0.94189807135E+02  0.12700000000E+01 0.  1.
         25    2    1    2    0    0  0.00000000000E+00  0.00000000000E+00 -0.52720222170E+02  0.13567027598E+03  0.12500800758E+03 0.  0.
    9000005    1    3    3    0    0  0.29097517220E+02 -0.95062585646E+01 -0.85493286895E+02  0.90813746560E+02  0.10000000000E+01 0.  0.
    9000005    1    3    3    0    0 -0.29097517220E+02  0.95062585646E+01  0.32773064725E+02  0.44856529422E+02  0.10000000000E+01 0.  0.
<mgrwt>
<rscale>  0 0.12500801E+03</rscale>
<asrwt>0</asrwt>
<pdfrwt beam="1">  1        4 0.63807734E-02 0.12500801E+03</pdfrwt>
<pdfrwt beam="2">  1       -4 0.14491577E-01 0.12500801E+03</pdfrwt>
<totfact> 0.10222116E+04</totfact>
</mgrwt>
</event>
<event>
 5    1  0.3337119E-002  0.1249979E+03  0.7818608E-02  0.1235072E+00
         -4   -1    0    0    0  501 -0.00000000000E+00  0.00000000000E+00  0.15133016922E+04  0.15133022251E+04  0.12700000000E+01 0. -1.
          4   -1    0    0  501    0  0.00000000000E+00 -0.00000000000E+00 -0.24244092385E+01  0.27369070418E+01  0.12700000000E+01 0. -1.
         25    2    1    2    0    0  0.00000000000E+00  0.00000000000E+00  0.15108772829E+04  0.15160391321E+04  0.12499794414E+03 0.  0.
    9000005    1    3    3    0    0  0.41868838075E+02  0.39029788606E+02  0.10595712225E+04  0.10611166287E+04  0.10000000000E+01 0.  0.
    9000005    1    3    3    0    0 -0.41868838075E+02 -0.39029788606E+02  0.45130606038E+03  0.45492250344E+03  0.10000000000E+01 0.  0.
<mgrwt>
<rscale>  0 0.12499794E+03</rscale>
<asrwt>0</asrwt>
<pdfrwt beam="2">  1        4 0.39706416E-03 0.12499794E+03</pdfrwt>
<pdfrwt beam="1">  1       -4 0.23284040E+00 0.12499794E+03</pdfrwt>
<totfact> 0.17617965E+03</totfact>
</mgrwt>
</event>
<event>
 5    1  0.3337119E-002  0.1250081E+03  0.7818608E-02  0.1235057E+00
          4   -1    0    0  501    0  0.00000000000E+00  0.00000000000E+00  0.53674187328E+03  0.53674337577E+03  0.12700000000E+01 0.  1.
         -4   -1    0    0    0  501 -0.00000000000E+00 -0.00000000000E+00 -0.72217261556E+01  0.73325458516E+01  0.12700000000E+01 0.  1.
         25    2    1    2    0    0  0.00000000000E+00  0.00000000000E+00  0.52952014713E+03  0.54407592162E+03  0.12500808885E+03 0.  0.
    9000005    1    3    3    0    0 -0.47984627376E+01  0.99160936373E+01  0.53250422236E+03  0.53261909559E+03  0.10000000000E+01 0.  0.
    9000005    1    3    3    0    0  0.47984627376E+01 -0.99160936373E+01 -0.29840752351E+01  0.11456826030E+02  0.10000000000E+01 0.  0.
<mgrwt>
<rscale>  0 0.12500809E+03</rscale>
<asrwt>0</asrwt>
<pdfrwt beam="1">  1        4 0.82584320E-01 0.12500809E+03</pdfrwt>
<pdfrwt beam="2">  1       -4 0.11196749E-02 0.12500809E+03</pdfrwt>
<totfact> 0.52590417E+03</totfact>
</mgrwt>
</event>
<event>
 5    1  0.3337119E-002  0.1250019E+03  0.7818608E-02  0.1235066E+00
         -4   -1    0    0    0  501 -0.00000000000E+00  0.00000000000E+00  0.12929040620E+02  0.12991265965E+02  0.12700000000E+01 0. -1.
          4   -1    0    0  501    0  0.00000000000E+00 -0.00000000000E+00 -0.30135033296E+03  0.30135300907E+03  0.12700000000E+01 0. -1.
         25    2    1    2    0    0  0.00000000000E+00  0.00000000000E+00 -0.28842129234E+03  0.31434427503E+03  0.12500192547E+03 0.  0.
    9000005    1    3    3    0    0 -0.12294632425E+02 -0.60453547564E+02 -0.16930505509E+03  0.18019708954E+03  0.10000000000E+01 0.  0.
    9000005    1    3    3    0    0  0.12294632425E+02  0.60453547564E+02 -0.11911623724E+03  0.13414718549E+03  0.10000000000E+01 0.  0.
<mgrwt>
<rscale>  0 0.12500193E+03</rscale>
<asrwt>0</asrwt>
<pdfrwt beam="2">  1        4 0.46366577E-01 0.12500193E+03</pdfrwt>
<pdfrwt beam="1">  1       -4 0.19940758E-02 0.12500193E+03</pdfrwt>
<totfact> 0.73830736E+03</totfact>
</mgrwt>
</event>
<event>
 5    1  0.3337119E-002  0.1250024E+03  0.7818608E-02  0.1235066E+00
          4   -1    0    0  501    0  0.00000000000E+00  0.00000000000E+00  0.28573541805E+01  0.31268791011E+01  0.12700000000E+01 0.  1.
         -4   -1    0    0    0  501 -0.00000000000E+00 -0.00000000000E+00 -0.13052943715E+04  0.13052949894E+04  0.12700000000E+01 0.  1.
         25    2    1    2    0    0  0.00000000000E+00  0.00000000000E+00 -0.13024370174E+04  0.13084218685E+04  0.12500240680E+03 0.  0.
    9000005    1    3    3    0    0  0.14681656108E+02  0.59055467103E+02 -0.80009586711E+03  0.80240731290E+03  0.10000000000E+01 0.  0.
    9000005    1    3    3    0    0 -0.14681656108E+02 -0.59055467103E+02 -0.50234115026E+03  0.50601455558E+03  0.10000000000E+01 0.  0.
<mgrwt>
<rscale>  0 0.12500241E+03</rscale>
<asrwt>0</asrwt>
<pdfrwt beam="1">  1        4 0.46037421E-03 0.12500241E+03</pdfrwt>
<pdfrwt beam="2">  1       -4 0.20083484E+00 0.12500241E+03</pdfrwt>
<totfact> 0.22029525E+03</totfact>
</mgrwt>
</event>
<event>
 5    1  0.3337119E-002  0.1249788E+03  0.7818608E-02  0.1235102E+00
          4   -1    0    0  501    0  0.00000000000E+00  0.00000000000E+00  0.22092136312E+02  0.22128610143E+02  0.12700000000E+01 0. -1.
         -4   -1    0    0    0  501 -0.00000000000E+00 -0.00000000000E+00 -0.17657174991E+03  0.17657631712E+03  0.12700000000E+01 0. -1.
         25    2    1    2    0    0  0.00000000000E+00  0.00000000000E+00 -0.15447961360E+03  0.19870492726E+03  0.12497878660E+03 0.  0.
    9000005    1    3    3    0    0  0.39366690635E+02 -0.18755675407E+02 -0.60940316582E+01  0.44041445405E+02  0.10000000000E+01 0.  0.
    9000005    1    3    3    0    0 -0.39366690635E+02  0.18755675407E+02 -0.14838558194E+03  0.15466348186E+03  0.10000000000E+01 0.  0.
<mgrwt>
<rscale>  0 0.12497879E+03</rscale>
<asrwt>0</asrwt>
<pdfrwt beam="1">  1        4 0.34019473E-02 0.12497879E+03</pdfrwt>
<pdfrwt beam="2">  1       -4 0.27168041E-01 0.12497879E+03</pdfrwt>
<totfact> 0.90397270E+03</totfact>
</mgrwt>
</event>
<event>
 5    1  0.3337119E-002  0.1250019E+03  0.7818608E-02  0.1235066E+00
          4   -1    0    0  501    0  0.00000000000E+00  0.00000000000E+00  0.25408217778E+03  0.25408535173E+03  0.12700000000E+01 0.  1.
         -4   -1    0    0    0  501 -0.00000000000E+00 -0.00000000000E+00 -0.15344934518E+02  0.15397399630E+02  0.12700000000E+01 0.  1.
         25    2    1    2    0    0  0.00000000000E+00  0.00000000000E+00  0.23873724326E+03  0.26948275136E+03  0.12500192783E+03 0.  0.
    9000005    1    3    3    0    0  0.58311706875E+02  0.22449713100E+02  0.11708129488E+03  0.13271501191E+03  0.10000000000E+01 0.  0.
    9000005    1    3    3    0    0 -0.58311706875E+02 -0.22449713100E+02  0.12165594839E+03  0.13676773945E+03  0.10000000000E+01 0.  0.
<mgrwt>
<rscale>  0 0.12500193E+03</rscale>
<asrwt>0</asrwt>
<pdfrwt beam="1">  1        4 0.39093846E-01 0.12500193E+03</pdfrwt>
<pdfrwt beam="2">  1       -4 0.23650391E-02 0.12500193E+03</pdfrwt>
<totfact> 0.79590023E+03</totfact>
</mgrwt>
</event>
<event>
 5    1  0.3337119E-002  0.1250125E+03  0.7818608E-02  0.1235050E+00
         -4   -1    0    0    0  501 -0.00000000000E+00  0.00000000000E+00  0.19218187296E+03  0.19218606920E+03  0.12700000000E+01 0.  1.
          4   -1    0    0  501    0  0.00000000000E+00 -0.00000000000E+00 -0.20305613805E+02  0.20345290659E+02  0.12700000000E+01 0.  1.
         25    2    1    2    0    0  0.00000000000E+00  0.00000000000E+00  0.17187625915E+03  0.21253135986E+03  0.12501252122E+03 0.  0.
    9000005    1    3    3    0    0  0.49637144568E+02  0.37396261878E+02  0.74698797696E+02  0.97176318620E+02  0.10000000000E+01 0.  0.
    9000005    1    3    3    0    0 -0.49637144568E+02 -0.37396261878E+02  0.97177461458E+02  0.11535504124E+03  0.10000000000E+01 0.  0.
<mgrwt>
<rscale>  0 0.12501252E+03</rscale>
<asrwt>0</asrwt>
<pdfrwt beam="2">  1        4 0.31273154E-02 0.12501252E+03</pdfrwt>
<pdfrwt beam="1">  1       -4 0.29569817E-01 0.12501252E+03</pdfrwt>
<totfact> 0.88039496E+03</totfact>
</mgrwt>
</event>
<event>
 5    1  0.3337119E-002  0.1249999E+03  0.7818608E-02  0.1235069E+00
         -4   -1    0    0    0  501 -0.00000000000E+00  0.00000000000E+00  0.29334440574E+02  0.29361919280E+02  0.12700000000E+01 0.  1.
          4   -1    0    0  501    0  0.00000000000E+00 -0.00000000000E+00 -0.13306944847E+03  0.13307550870E+03  0.12700000000E+01 0.  1.
         25    2    1    2    0    0  0.00000000000E+00  0.00000000000E+00 -0.10373500790E+03  0.16243742798E+03  0.12499986459E+03 0.  0.
    9000005    1    3    3    0    0  0.23095178267E+02  0.57190266018E+02 -0.38799425454E+02  0.72873240644E+02  0.10000000000E+01 0.  0.
    9000005    1    3    3    0    0 -0.23095178267E+02 -0.57190266018E+02 -0.64935582445E+02  0.89564187340E+02  0.10000000000E+01 0.  0.
<mgrwt>
<rscale>  0 0.12499986E+03</rscale>
<asrwt>0</asrwt>
<pdfrwt beam="2">  1        4 0.20474803E-01 0.12499986E+03</pdfrwt>
<pdfrwt beam="1">  1       -4 0.45155708E-02 0.12499986E+03</pdfrwt>
<totfact> 0.96875211E+03</totfact>
</mgrwt>
</event>
<event>
 5    1  0.3337119E-002  0.1250007E+03  0.7818608E-02  0.1235068E+00
         -4   -1    0    0    0  501 -0.00000000000E+00  0.00000000000E+00  0.67339627364E+02  0.67351602160E+02  0.12700000000E+01 0. -1.
          4   -1    0    0  501    0  0.00000000000E+00 -0.00000000000E+00 -0.57984756159E+02  0.57998662457E+02  0.12700000000E+01 0. -1.
         25    2    1    2    0    0  0.00000000000E+00  0.00000000000E+00  0.93548712048E+01  0.12535026462E+03  0.12500070090E+03 0.  0.
    9000005    1    3    3    0    0 -0.50421827371E+02 -0.10308545424E+02 -0.30871198315E+02  0.60022143160E+02  0.10000000000E+01 0.  0.
    9000005    1    3    3    0    0  0.50421827371E+02  0.10308545424E+02  0.40226069519E+02  0.65328121457E+02  0.10000000000E+01 0.  0.
<mgrwt>
<rscale>  0 0.12500070E+03</rscale>
<asrwt>0</asrwt>
<pdfrwt beam="2">  1        4 0.89227226E-02 0.12500070E+03</pdfrwt>
<pdfrwt beam="1">  1       -4 0.10361934E-01 0.12500070E+03</pdfrwt>
<totfact> 0.10445094E+04</totfact>
</mgrwt>
</event>
<event>
 5    1  0.3337119E-002  0.1250013E+03  0.7818608E-02  0.1235067E+00
          4   -1    0    0  501    0  0.00000000000E+00  0.00000000000E+00  0.10299723890E+02  0.10377726736E+02  0.12700000000E+01 0.  1.
         -4   -1    0    0    0  501 -0.00000000000E+00 -0.00000000000E+00 -0.37775607685E+03  0.37775821169E+03  0.12700000000E+01 0.  1.
         25    2    1    2    0    0  0.00000000000E+00  0.00000000000E+00 -0.36745635296E+03  0.38813593843E+03  0.12500134145E+03 0.  0.
    9000005    1    3    3    0    0 -0.51875476745E+02  0.15747027623E+02 -0.87206435911E+02  0.10268883304E+03  0.10000000000E+01 0.  0.
    9000005    1    3    3    0    0  0.51875476745E+02 -0.15747027623E+02 -0.28024991705E+03  0.28544710539E+03  0.10000000000E+01 0.  0.
<mgrwt>
<rscale>  0 0.12500134E+03</rscale>
<asrwt>0</asrwt>
<pdfrwt beam="1">  1        4 0.15907376E-02 0.12500134E+03</pdfrwt>
<pdfrwt beam="2">  1       -4 0.58122473E-01 0.12500134E+03</pdfrwt>
<totfact> 0.65721322E+03</totfact>
</mgrwt>
</event>
<event>
 5    1  0.3337119E-002  0.1249986E+03  0.7818608E-02  0.1235072E+00
         -4   -1    0    0    0  501 -0.00000000000E+00  0.00000000000E+00  0.26797336445E+03  0.26797637387E+03  0.12700000000E+01 0. -1.
          4   -1    0    0  501    0  0.00000000000E+00 -0.00000000000E+00 -0.14545916675E+02  0.14601253094E+02  0.12700000000E+01 0. -1.
         25    2    1    2    0    0  0.00000000000E+00  0.00000000000E+00  0.25342744777E+03  0.28257762696E+03  0.12499857590E+03 0.  0.
    9000005    1    3    3    0    0  0.30847569284E+02 -0.41571595580E+02  0.47578463677E+02  0.70316998625E+02  0.10000000000E+01 0.  0.
    9000005    1    3    3    0    0 -0.30847569284E+02  0.41571595580E+02  0.20584898409E+03  0.21226062834E+03  0.10000000000E+01 0.  0.
<mgrwt>
<rscale>  0 0.12499858E+03</rscale>
<asrwt>0</asrwt>
<pdfrwt beam="2">  1        4 0.22423216E-02 0.12499858E+03</pdfrwt>
<pdfrwt beam="1">  1       -4 0.41231156E-01 0.12499858E+03</pdfrwt>
<totfact> 0.77840032E+03</totfact>
</mgrwt>
</event>
<event>
 5    1  0.3337119E-002  0.1250010E+03  0.7818608E-02  0.1235068E+00
          4   -1    0    0  501    0  0.00000000000E+00  0.00000000000E+00  0.35198230185E+01  0.37419318649E+01  0.12700000000E+01 0. -1.
         -4   -1    0    0    0  501 -0.00000000000E+00 -0.00000000000E+00 -0.10756370387E+04  0.10756377884E+04  0.12700000000E+01 0. -1.
         25    2    1    2    0    0  0.00000000000E+00  0.00000000000E+00 -0.10721172157E+04  0.10793797203E+04  0.12500102579E+03 0.  0.
    9000005    1    3    3    0    0 -0.60133401773E+02  0.15684862898E+02 -0.59286145152E+03  0.59611051126E+03  0.10000000000E+01 0.  0.
    9000005    1    3    3    0    0  0.60133401773E+02 -0.15684862898E+02 -0.47925576415E+03  0.48326920904E+03  0.10000000000E+01 0.  0.
<mgrwt>
<rscale>  0 0.12500103E+03</rscale>
<asrwt>0</asrwt>
<pdfrwt beam="1">  1        4 0.55865506E-03 0.12500103E+03</pdfrwt>
<pdfrwt beam="2">  1       -4 0.16549951E+00 0.12500103E+03</pdfrwt>
<totfact> 0.28094280E+03</totfact>
</mgrwt>
</event>
<event>
 5    1  0.3337119E-002  0.1250041E+03  0.7818608E-02  0.1235063E+00
         -4   -1    0    0    0  501 -0.00000000000E+00  0.00000000000E+00  0.56484281054E+02  0.56498556674E+02  0.12700000000E+01 0. -1.
          4   -1    0    0  501    0  0.00000000000E+00 -0.00000000000E+00 -0.69132148356E+02  0.69143812712E+02  0.12700000000E+01 0. -1.
         25    2    1    2    0    0  0.00000000000E+00  0.00000000000E+00 -0.12647867302E+02  0.12564236939E+03  0.12500414568E+03 0.  0.
    9000005    1    3    3    0    0  0.49037460182E+02 -0.24357974662E+02  0.23955040877E+02  0.59773132879E+02  0.10000000000E+01 0.  0.
    9000005    1    3    3    0    0 -0.49037460182E+02  0.24357974662E+02 -0.36602908179E+02  0.65869236506E+02  0.10000000000E+01 0.  0.
<mgrwt>
<rscale>  0 0.12500415E+03</rscale>
<asrwt>0</asrwt>
<pdfrwt beam="2">  1        4 0.10637711E-01 0.12500415E+03</pdfrwt>
<pdfrwt beam="1">  1       -4 0.86918847E-02 0.12500415E+03</pdfrwt>
<totfact> 0.10437837E+04</totfact>
</mgrwt>
</event>
<event>
 5    1  0.3337119E-002  0.1250389E+03  0.7818608E-02  0.1235008E+00
          4   -1    0    0  501    0  0.00000000000E+00  0.00000000000E+00  0.12076370767E+03  0.12077038541E+03  0.12700000000E+01 0. -1.
         -4   -1    0    0    0  501 -0.00000000000E+00 -0.00000000000E+00 -0.32346338549E+02  0.32371260673E+02  0.12700000000E+01 0. -1.
         25    2    1    2    0    0  0.00000000000E+00  0.00000000000E+00  0.88417369125E+02  0.15314164608E+03  0.12503892434E+03 0.  0.
    9000005    1    3    3    0    0  0.52005751247E+02  0.32008596491E+01  0.86508559680E+02  0.10099294314E+03  0.10000000000E+01 0.  0.
    9000005    1    3    3    0    0 -0.52005751247E+02 -0.32008596491E+01  0.19088094450E+01  0.52148702944E+02  0.10000000000E+01 0.  0.
<mgrwt>
<rscale>  0 0.12503892E+03</rscale>
<asrwt>0</asrwt>
<pdfrwt beam="1">  1        4 0.18581463E-01 0.12503892E+03</pdfrwt>
<pdfrwt beam="2">  1       -4 0.49787905E-02 0.12503892E+03</pdfrwt>
<totfact> 0.98594738E+03</totfact>
</mgrwt>
</event>
<event>
 5    1  0.3337119E-002  0.1249976E+03  0.7818608E-02  0.1235073E+00
         -4   -1    0    0    0  501 -0.00000000000E+00  0.00000000000E+00  0.78623348200E+01  0.79642456530E+01  0.12700000000E+01 0. -1.
          4   -1    0    0  501    0  0.00000000000E+00 -0.00000000000E+00 -0.49351008277E+03  0.49351171688E+03  0.12700000000E+01 0. -1.
         25    2    1    2    0    0  0.00000000000E+00  0.00000000000E+00 -0.48564774795E+03  0.50147596253E+03  0.12499762361E+03 0.  0.
    9000005    1    3    3    0    0  0.62570696354E+01  0.36383037854E+02 -0.44510500180E+03  0.44663445790E+03  0.10000000000E+01 0.  0.
    9000005    1    3    3    0    0 -0.62570696354E+01 -0.36383037854E+02 -0.40542746152E+02  0.54841504624E+02  0.10000000000E+01 0.  0.
<mgrwt>
<rscale>  0 0.12499762E+03</rscale>
<asrwt>0</asrwt>
<pdfrwt beam="2">  1        4 0.75932569E-01 0.12499762E+03</pdfrwt>
<pdfrwt beam="1">  1       -4 0.12175554E-02 0.12499762E+03</pdfrwt>
<totfact> 0.55752955E+03</totfact>
</mgrwt>
</event>
<event>
 5    1  0.3337119E-002  0.1250003E+03  0.7818608E-02  0.1235069E+00
          4   -1    0    0  501    0  0.00000000000E+00  0.00000000000E+00  0.46536384705E+01  0.48238212047E+01  0.12700000000E+01 0. -1.
         -4   -1    0    0    0  501 -0.00000000000E+00 -0.00000000000E+00 -0.82415693471E+03  0.82415791322E+03  0.12700000000E+01 0. -1.
         25    2    1    2    0    0  0.00000000000E+00  0.00000000000E+00 -0.81950329624E+03  0.82898173443E+03  0.12500025388E+03 0.  0.
    9000005    1    3    3    0    0 -0.18510003515E+02  0.59569530736E+02 -0.43466888127E+03  0.43912320089E+03  0.10000000000E+01 0.  0.
    9000005    1    3    3    0    0  0.18510003515E+02 -0.59569530736E+02 -0.38483441497E+03  0.38985853353E+03  0.10000000000E+01 0.  0.
<mgrwt>
<rscale>  0 0.12500025E+03</rscale>
<asrwt>0</asrwt>
<pdfrwt beam="1">  1        4 0.72911129E-03 0.12500025E+03</pdfrwt>
<pdfrwt beam="2">  1       -4 0.12680643E+00 0.12500025E+03</pdfrwt>
<totfact> 0.37003000E+03</totfact>
</mgrwt>
</event>
<event>
 5    1  0.3337119E-002  0.1249991E+03  0.7818608E-02  0.1235071E+00
          4   -1    0    0  501    0  0.00000000000E+00  0.00000000000E+00  0.22135635264E+03  0.22135999583E+03  0.12700000000E+01 0. -1.
         -4   -1    0    0    0  501 -0.00000000000E+00 -0.00000000000E+00 -0.17619995701E+02  0.17665705434E+02  0.12700000000E+01 0. -1.
         25    2    1    2    0    0  0.00000000000E+00  0.00000000000E+00  0.20373635694E+03  0.23902570126E+03  0.12499913090E+03 0.  0.
    9000005    1    3    3    0    0 -0.23544529642E+02 -0.31239391782E+02  0.86791136866E+01  0.40082059445E+02  0.10000000000E+01 0.  0.
    9000005    1    3    3    0    0  0.23544529642E+02  0.31239391782E+02  0.19505724325E+03  0.19894364182E+03  0.10000000000E+01 0.  0.
<mgrwt>
<rscale>  0 0.12499913E+03</rscale>
<asrwt>0</asrwt>
<pdfrwt beam="1">  1        4 0.34058620E-01 0.12499913E+03</pdfrwt>
<pdfrwt beam="2">  1       -4 0.27145650E-02 0.12499913E+03</pdfrwt>
<totfact> 0.83944312E+03</totfact>
</mgrwt>
</event>
<event>
 5    1  0.3337119E-002  0.1249990E+03  0.7818608E-02  0.1235071E+00
          4   -1    0    0  501    0  0.00000000000E+00  0.00000000000E+00  0.17328899046E+03  0.17329364419E+03  0.12700000000E+01 0. -1.
         -4   -1    0    0    0  501 -0.00000000000E+00 -0.00000000000E+00 -0.22518624245E+02  0.22554408392E+02  0.12700000000E+01 0. -1.
         25    2    1    2    0    0  0.00000000000E+00  0.00000000000E+00  0.15077036622E+03  0.19584805258E+03  0.12499902548E+03 0.  0.
    9000005    1    3    3    0    0  0.74372628019E+00  0.62484393788E+02  0.76294055563E+02  0.98623706634E+02  0.10000000000E+01 0.  0.
    9000005    1    3    3    0    0 -0.74372628019E+00 -0.62484393788E+02  0.74476310655E+02  0.97224345946E+02  0.10000000000E+01 0.  0.
<mgrwt>
<rscale>  0 0.12499903E+03</rscale>
<asrwt>0</asrwt>
<pdfrwt beam="1">  1        4 0.26662956E-01 0.12499903E+03</pdfrwt>
<pdfrwt beam="2">  1       -4 0.34675143E-02 0.12499903E+03</pdfrwt>
<totfact> 0.90841592E+03</totfact>
</mgrwt>
</event>
<event>
 5    1  0.3337119E-002  0.1249992E+03  0.7818608E-02  0.1235071E+00
          4   -1    0    0  501    0  0.00000000000E+00  0.00000000000E+00  0.32614867443E+03  0.32615114706E+03  0.12700000000E+01 0. -1.
         -4   -1    0    0    0  501 -0.00000000000E+00 -0.00000000000E+00 -0.11940555296E+02  0.12007904096E+02  0.12700000000E+01 0. -1.
         25    2    1    2    0    0  0.00000000000E+00  0.00000000000E+00  0.31420811913E+03  0.33815905116E+03  0.12499920701E+03 0.  0.
    9000005    1    3    3    0    0  0.64018536439E+01 -0.51957062532E+02  0.64779523372E+02  0.83294097782E+02  0.10000000000E+01 0.  0.
    9000005    1    3    3    0    0 -0.64018536439E+01  0.51957062532E+02  0.24942859576E+03  0.25486495337E+03  0.10000000000E+01 0.  0.
<mgrwt>
<rscale>  0 0.12499921E+03</rscale>
<asrwt>0</asrwt>
<pdfrwt beam="1">  1        4 0.50182092E-01 0.12499921E+03</pdfrwt>
<pdfrwt beam="2">  1       -4 0.18423793E-02 0.12499921E+03</pdfrwt>
<totfact> 0.71048399E+03</totfact>
</mgrwt>
</event>
<event>
 5    1  0.3337119E-002  0.1249990E+03  0.7818608E-02  0.1235071E+00
         -4   -1    0    0    0  501 -0.00000000000E+00  0.00000000000E+00  0.58375012531E+02  0.58388825883E+02  0.12700000000E+01 0. -1.
          4   -1    0    0  501    0  0.00000000000E+00 -0.00000000000E+00 -0.66887689418E+02  0.66899745109E+02  0.12700000000E+01 0. -1.
         25    2    1    2    0    0  0.00000000000E+00  0.00000000000E+00 -0.85126768871E+01  0.12528857099E+03  0.12499904141E+03 0.  0.
    9000005    1    3    3    0    0  0.16015830859E+01  0.57375266790E+02 -0.29026000288E+02  0.64327249283E+02  0.10000000000E+01 0.  0.
    9000005    1    3    3    0    0 -0.16015830859E+01 -0.57375266790E+02  0.20513323401E+02  0.60961321709E+02  0.10000000000E+01 0.  0.
<mgrwt>
<rscale>  0 0.12499904E+03</rscale>
<asrwt>0</asrwt>
<pdfrwt beam="2">  1        4 0.10292404E-01 0.12499904E+03</pdfrwt>
<pdfrwt beam="1">  1       -4 0.89827611E-02 0.12499904E+03</pdfrwt>
<totfact> 0.10446824E+04</totfact>
</mgrwt>
</event>
<event>
 5    1  0.3337119E-002  0.1250028E+03  0.7818608E-02  0.1235065E+00
         -4   -1    0    0    0  501 -0.00000000000E+00  0.00000000000E+00  0.19275939811E+03  0.19276358178E+03  0.12700000000E+01 0. -1.
          4   -1    0    0  501    0  0.00000000000E+00 -0.00000000000E+00 -0.20241513052E+02  0.20281315308E+02  0.12700000000E+01 0. -1.
         25    2    1    2    0    0  0.00000000000E+00  0.00000000000E+00  0.17251788506E+03  0.21304489709E+03  0.12500283001E+03 0.  0.
    9000005    1    3    3    0    0  0.22210294318E+02  0.44601343885E+02  0.21970808022E+02  0.54463689328E+02  0.10000000000E+01 0.  0.
    9000005    1    3    3    0    0 -0.22210294318E+02 -0.44601343885E+02  0.15054707704E+03  0.15858120776E+03  0.10000000000E+01 0.  0.
<mgrwt>
<rscale>  0 0.12500283E+03</rscale>
<asrwt>0</asrwt>
<pdfrwt beam="2">  1        4 0.31174624E-02 0.12500283E+03</pdfrwt>
<pdfrwt beam="1">  1       -4 0.29658676E-01 0.12500283E+03</pdfrwt>
<totfact> 0.87975445E+03</totfact>
</mgrwt>
</event>
<event>
 5    1  0.3337119E-002  0.1250018E+03  0.7818608E-02  0.1235066E+00
         -4   -1    0    0    0  501 -0.00000000000E+00  0.00000000000E+00  0.72899175468E+02  0.72910237168E+02  0.12700000000E+01 0.  1.
          4   -1    0    0  501    0  0.00000000000E+00 -0.00000000000E+00 -0.53563193983E+02  0.53578247915E+02  0.12700000000E+01 0.  1.
         25    2    1    2    0    0  0.00000000000E+00  0.00000000000E+00  0.19335981485E+02  0.12648848508E+03  0.12500182670E+03 0.  0.
    9000005    1    3    3    0    0  0.47608278171E+02 -0.14512025233E+01  0.50605414038E+02  0.69502245066E+02  0.10000000000E+01 0.  0.
    9000005    1    3    3    0    0 -0.47608278171E+02  0.14512025233E+01 -0.31269432553E+02  0.56986240018E+02  0.10000000000E+01 0.  0.
<mgrwt>
<rscale>  0 0.12500183E+03</rscale>
<asrwt>0</asrwt>
<pdfrwt beam="2">  1        4 0.82425003E-02 0.12500183E+03</pdfrwt>
<pdfrwt beam="1">  1       -4 0.11217267E-01 0.12500183E+03</pdfrwt>
<totfact> 0.10419850E+04</totfact>
</mgrwt>
</event>
<event>
 5    1  0.3337119E-002  0.1250287E+03  0.7818608E-02  0.1235024E+00
         -4   -1    0    0    0  501 -0.00000000000E+00  0.00000000000E+00  0.11576494940E+02  0.11645949300E+02  0.12700000000E+01 0. -1.
          4   -1    0    0  501    0  0.00000000000E+00 -0.00000000000E+00 -0.33650397970E+03  0.33650637624E+03  0.12700000000E+01 0. -1.
         25    2    1    2    0    0  0.00000000000E+00  0.00000000000E+00 -0.32492748476E+03  0.34815232554E+03  0.12502868243E+03 0.  0.
    9000005    1    3    3    0    0  0.57674928486E+02 -0.12005328851E+02 -0.10428551216E+03  0.11977893530E+03  0.10000000000E+01 0.  0.
    9000005    1    3    3    0    0 -0.57674928486E+02  0.12005328851E+02 -0.22064197260E+03  0.22837339024E+03  0.10000000000E+01 0.  0.
<mgrwt>
<rscale>  0 0.12502868E+03</rscale>
<asrwt>0</asrwt>
<pdfrwt beam="2">  1        4 0.51775363E-01 0.12502868E+03</pdfrwt>
<pdfrwt beam="1">  1       -4 0.17865265E-02 0.12502868E+03</pdfrwt>
<totfact> 0.69883932E+03</totfact>
</mgrwt>
</event>
<event>
 5    1  0.3337119E-002  0.1249997E+03  0.7818608E-02  0.1235070E+00
         -4   -1    0    0    0  501 -0.00000000000E+00  0.00000000000E+00  0.17527213992E+03  0.17527674099E+03  0.12700000000E+01 0.  1.
          4   -1    0    0  501    0  0.00000000000E+00 -0.00000000000E+00 -0.22263682469E+02  0.22299875719E+02  0.12700000000E+01 0.  1.
         25    2    1    2    0    0  0.00000000000E+00  0.00000000000E+00  0.15300845745E+03  0.19757661671E+03  0.12499972567E+03 0.  0.
    9000005    1    3    3    0    0  0.48510089385E+02  0.39349574728E+02  0.79509500222E+02  0.10111566856E+03  0.10000000000E+01 0.  0.
    9000005    1    3    3    0    0 -0.48510089385E+02 -0.39349574728E+02  0.73498957228E+02  0.96460948145E+02  0.10000000000E+01 0.  0.
<mgrwt>
<rscale>  0 0.12499973E+03</rscale>
<asrwt>0</asrwt>
<pdfrwt beam="2">  1        4 0.34283200E-02 0.12499973E+03</pdfrwt>
<pdfrwt beam="1">  1       -4 0.26968082E-01 0.12499973E+03</pdfrwt>
<totfact> 0.90546020E+03</totfact>
</mgrwt>
</event>
<event>
 5    1  0.3337119E-002  0.1249997E+03  0.7818608E-02  0.1235070E+00
         -4   -1    0    0    0  501 -0.00000000000E+00  0.00000000000E+00  0.31856616407E+02  0.31881921349E+02  0.12700000000E+01 0.  1.
          4   -1    0    0  501    0  0.00000000000E+00 -0.00000000000E+00 -0.12254192867E+03  0.12254850950E+03  0.12700000000E+01 0.  1.
         25    2    1    2    0    0  0.00000000000E+00  0.00000000000E+00 -0.90685312260E+02  0.15443043085E+03  0.12499972845E+03 0.  0.
    9000005    1    3    3    0    0 -0.19524988343E+02 -0.10985956476E+02 -0.11741605294E+03  0.11953847036E+03  0.10000000000E+01 0.  0.
    9000005    1    3    3    0    0  0.19524988343E+02  0.10985956476E+02  0.26730740678E+02  0.34891960488E+02  0.10000000000E+01 0.  0.
<mgrwt>
<rscale>  0 0.12499973E+03</rscale>
<asrwt>0</asrwt>
<pdfrwt beam="2">  1        4 0.18855057E-01 0.12499973E+03</pdfrwt>
<pdfrwt beam="1">  1       -4 0.49034707E-02 0.12499973E+03</pdfrwt>
<totfact> 0.98428030E+03</totfact>
</mgrwt>
</event>
<event>
 5    1  0.3337119E-002  0.1249990E+03  0.7818608E-02  0.1235071E+00
         -4   -1    0    0    0  501 -0.00000000000E+00  0.00000000000E+00  0.38608471233E+03  0.38608680112E+03  0.12700000000E+01 0. -1.
          4   -1    0    0  501    0  0.00000000000E+00 -0.00000000000E+00 -0.10075455351E+02  0.10155180970E+02  0.12700000000E+01 0. -1.
         25    2    1    2    0    0  0.00000000000E+00  0.00000000000E+00  0.37600925698E+03  0.39624198209E+03  0.12499898813E+03 0.  0.
    9000005    1    3    3    0    0  0.53918553065E+02 -0.31097586119E+02  0.17037880690E+03  0.18139517101E+03  0.10000000000E+01 0.  0.
    9000005    1    3    3    0    0 -0.53918553065E+02  0.31097586119E+02  0.20563045009E+03  0.21484681108E+03  0.10000000000E+01 0.  0.
<mgrwt>
<rscale>  0 0.12499899E+03</rscale>
<asrwt>0</asrwt>
<pdfrwt beam="2">  1        4 0.15563637E-02 0.12499899E+03</pdfrwt>
<pdfrwt beam="1">  1       -4 0.59403934E-01 0.12499899E+03</pdfrwt>
<totfact> 0.64921391E+03</totfact>
</mgrwt>
</event>
<event>
 5    1  0.3337119E-002  0.1249991E+03  0.7818608E-02  0.1235071E+00
         -4   -1    0    0    0  501 -0.00000000000E+00  0.00000000000E+00  0.10067012938E+03  0.10067813988E+03  0.12700000000E+01 0. -1.
          4   -1    0    0  501    0  0.00000000000E+00 -0.00000000000E+00 -0.38781982183E+02  0.38802771061E+02  0.12700000000E+01 0. -1.
         25    2    1    2    0    0  0.00000000000E+00  0.00000000000E+00  0.61888147199E+02  0.13948091094E+03  0.12499912701E+03 0.  0.
    9000005    1    3    3    0    0  0.11567801893E+02 -0.17688078917E+02  0.96566535261E+02  0.98857361429E+02  0.10000000000E+01 0.  0.
    9000005    1    3    3    0    0 -0.11567801893E+02  0.17688078917E+02 -0.34678388062E+02  0.40623549512E+02  0.10000000000E+01 0.  0.
<mgrwt>
<rscale>  0 0.12499913E+03</rscale>
<asrwt>0</asrwt>
<pdfrwt beam="2">  1        4 0.59686743E-02 0.12499913E+03</pdfrwt>
<pdfrwt beam="1">  1       -4 0.15489927E-01 0.12499913E+03</pdfrwt>
<totfact> 0.10144555E+04</totfact>
</mgrwt>
</event>
<event>
 5    1  0.3337119E-002  0.1250099E+03  0.7818608E-02  0.1235054E+00
          4   -1    0    0  501    0  0.00000000000E+00  0.00000000000E+00  0.22064286204E+02  0.22100805996E+02  0.12700000000E+01 0.  1.
         -4   -1    0    0    0  501 -0.00000000000E+00 -0.00000000000E+00 -0.17688225754E+03  0.17688681673E+03  0.12700000000E+01 0.  1.
         25    2    1    2    0    0  0.00000000000E+00  0.00000000000E+00 -0.15481797134E+03  0.19898762273E+03  0.12500987861E+03 0.  0.
    9000005    1    3    3    0    0 -0.26466765601E+01 -0.36935156646E+02 -0.15754750368E+03  0.16184383401E+03  0.10000000000E+01 0.  0.
    9000005    1    3    3    0    0  0.26466765601E+01  0.36935156646E+02  0.27295323378E+01  0.37143788715E+02  0.10000000000E+01 0.  0.
<mgrwt>
<rscale>  0 0.12500988E+03</rscale>
<asrwt>0</asrwt>
<pdfrwt beam="1">  1        4 0.33976656E-02 0.12500988E+03</pdfrwt>
<pdfrwt beam="2">  1       -4 0.27215814E-01 0.12500988E+03</pdfrwt>
<totfact> 0.90286572E+03</totfact>
</mgrwt>
</event>
<event>
 5    1  0.3337119E-002  0.1249976E+03  0.7818608E-02  0.1235073E+00
          4   -1    0    0  501    0  0.00000000000E+00  0.00000000000E+00  0.32114687940E+02  0.32139789692E+02  0.12700000000E+01 0.  1.
         -4   -1    0    0    0  501 -0.00000000000E+00 -0.00000000000E+00 -0.12155375290E+03  0.12156038723E+03  0.12700000000E+01 0.  1.
         25    2    1    2    0    0  0.00000000000E+00  0.00000000000E+00 -0.89439064957E+02  0.15370017692E+03  0.12499759216E+03 0.  0.
    9000005    1    3    3    0    0 -0.37551077059E+02 -0.48203114658E+02 -0.28617740362E+02  0.67480357990E+02  0.10000000000E+01 0.  0.
    9000005    1    3    3    0    0  0.37551077059E+02  0.48203114658E+02 -0.60821324595E+02  0.86219818932E+02  0.10000000000E+01 0.  0.
<mgrwt>
<rscale>  0 0.12499759E+03</rscale>
<asrwt>0</asrwt>
<pdfrwt beam="1">  1        4 0.49431625E-02 0.12499759E+03</pdfrwt>
<pdfrwt beam="2">  1       -4 0.18703018E-01 0.12499759E+03</pdfrwt>
<totfact> 0.98576511E+03</totfact>
</mgrwt>
</event>
<event>
 5    1  0.3337119E-002  0.1249967E+03  0.7818608E-02  0.1235074E+00
          4   -1    0    0  501    0  0.00000000000E+00  0.00000000000E+00  0.37005861658E+02  0.37027647738E+02  0.12700000000E+01 0.  1.
         -4   -1    0    0    0  501 -0.00000000000E+00 -0.00000000000E+00 -0.10549533323E+03  0.10550297736E+03  0.12700000000E+01 0.  1.
         25    2    1    2    0    0  0.00000000000E+00  0.00000000000E+00 -0.68489471569E+02  0.14253062510E+03  0.12499668546E+03 0.  0.
    9000005    1    3    3    0    0  0.15082180933E+02  0.38148048164E+02  0.19509259768E+02  0.45435195357E+02  0.10000000000E+01 0.  0.
    9000005    1    3    3    0    0 -0.15082180933E+02 -0.38148048164E+02 -0.87998731337E+02  0.97095429745E+02  0.10000000000E+01 0.  0.
<mgrwt>
<rscale>  0 0.12499669E+03</rscale>
<asrwt>0</asrwt>
<pdfrwt beam="1">  1        4 0.56954734E-02 0.12499669E+03</pdfrwt>
<pdfrwt beam="2">  1       -4 0.16232315E-01 0.12499669E+03</pdfrwt>
<totfact> 0.10082157E+04</totfact>
</mgrwt>
</event>
<event>
 5    1  0.3337119E-002  0.1250034E+03  0.7818608E-02  0.1235064E+00
          4   -1    0    0  501    0  0.00000000000E+00  0.00000000000E+00  0.15823217174E+02  0.15874101604E+02  0.12700000000E+01 0. -1.
         -4   -1    0    0    0  501 -0.00000000000E+00 -0.00000000000E+00 -0.24643280947E+03  0.24643608194E+03  0.12700000000E+01 0. -1.
         25    2    1    2    0    0  0.00000000000E+00  0.00000000000E+00 -0.23060959230E+03  0.26231018355E+03  0.12500339329E+03 0.  0.
    9000005    1    3    3    0    0  0.61013496110E+01 -0.27296016053E+02  0.19662185872E+01  0.28056460486E+02  0.10000000000E+01 0.  0.
    9000005    1    3    3    0    0 -0.61013496110E+01  0.27296016053E+02 -0.23257581088E+03  0.23425372306E+03  0.10000000000E+01 0.  0.
<mgrwt>
<rscale>  0 0.12500339E+03</rscale>
<asrwt>0</asrwt>
<pdfrwt beam="1">  1        4 0.24385072E-02 0.12500339E+03</pdfrwt>
<pdfrwt beam="2">  1       -4 0.37916903E-01 0.12500339E+03</pdfrwt>
<totfact> 0.80576864E+03</totfact>
</mgrwt>
</event>
<event>
 5    1  0.3337119E-002  0.1249959E+03  0.7818608E-02  0.1235076E+00
          4   -1    0    0  501    0  0.00000000000E+00  0.00000000000E+00  0.80979388131E+03  0.80979487718E+03  0.12700000000E+01 0. -1.
         -4   -1    0    0    0  501 -0.00000000000E+00 -0.00000000000E+00 -0.47388307710E+01  0.49060592206E+01  0.12700000000E+01 0. -1.
         25    2    1    2    0    0  0.00000000000E+00  0.00000000000E+00  0.80505505054E+03  0.81470093640E+03  0.12499592543E+03 0.  0.
    9000005    1    3    3    0    0  0.28086195703E+02 -0.25074653746E+02  0.72759772295E+03  0.72857190385E+03  0.10000000000E+01 0.  0.
    9000005    1    3    3    0    0 -0.28086195703E+02  0.25074653746E+02  0.77457327594E+02  0.86129032547E+02  0.10000000000E+01 0.  0.
<mgrwt>
<rscale>  0 0.12499593E+03</rscale>
<asrwt>0</asrwt>
<pdfrwt beam="1">  1        4 0.12459659E+00 0.12499593E+03</pdfrwt>
<pdfrwt beam="2">  1       -4 0.74199135E-03 0.12499593E+03</pdfrwt>
<totfact> 0.37620160E+03</totfact>
</mgrwt>
</event>
<event>
 5    1  0.3337119E-002  0.1249942E+03  0.7818608E-02  0.1235078E+00
         -4   -1    0    0    0  501 -0.00000000000E+00  0.00000000000E+00  0.46618732875E+03  0.46618905863E+03  0.12700000000E+01 0.  1.
          4   -1    0    0  501    0  0.00000000000E+00 -0.00000000000E+00 -0.83284809004E+01  0.84247548397E+01  0.12700000000E+01 0.  1.
         25    2    1    2    0    0  0.00000000000E+00  0.00000000000E+00  0.45785884785E+03  0.47461381347E+03  0.12499418940E+03 0.  0.
    9000005    1    3    3    0    0  0.41882054331E+02  0.36020094018E+02  0.33984942635E+03  0.34431117646E+03  0.10000000000E+01 0.  0.
    9000005    1    3    3    0    0 -0.41882054331E+02 -0.36020094018E+02  0.11800942150E+03  0.13030263701E+03  0.10000000000E+01 0.  0.
<mgrwt>
<rscale>  0 0.12499419E+03</rscale>
<asrwt>0</asrwt>
<pdfrwt beam="2">  1        4 0.12888435E-02 0.12499419E+03</pdfrwt>
<pdfrwt beam="1">  1       -4 0.71728666E-01 0.12499419E+03</pdfrwt>
<totfact> 0.57896664E+03</totfact>
</mgrwt>
</event>
<event>
 5    1  0.3337119E-002  0.1250006E+03  0.7818608E-02  0.1235068E+00
          4   -1    0    0  501    0  0.00000000000E+00  0.00000000000E+00  0.13939803296E+03  0.13940381807E+03  0.12700000000E+01 0.  1.
         -4   -1    0    0    0  501 -0.00000000000E+00 -0.00000000000E+00 -0.28001781837E+02  0.28030566995E+02  0.12700000000E+01 0.  1.
         25    2    1    2    0    0  0.00000000000E+00  0.00000000000E+00  0.11139625112E+03  0.16743438507E+03  0.12500059415E+03 0.  0.
    9000005    1    3    3    0    0  0.56393540481E+02  0.24912497362E+02  0.69385844439E+02  0.92823808052E+02  0.10000000000E+01 0.  0.
    9000005    1    3    3    0    0 -0.56393540481E+02 -0.24912497362E+02  0.42010406683E+02  0.74610577015E+02  0.10000000000E+01 0.  0.
<mgrwt>
<rscale>  0 0.12500059E+03</rscale>
<asrwt>0</asrwt>
<pdfrwt beam="1">  1        4 0.21448511E-01 0.12500059E+03</pdfrwt>
<pdfrwt beam="2">  1       -4 0.43106257E-02 0.12500059E+03</pdfrwt>
<totfact> 0.95927054E+03</totfact>
</mgrwt>
</event>
<event>
 5    1  0.3337119E-002  0.1250015E+03  0.7818608E-02  0.1235067E+00
          4   -1    0    0  501    0  0.00000000000E+00  0.00000000000E+00  0.92665759270E+03  0.92665846298E+03  0.12700000000E+01 0. -1.
         -4   -1    0    0    0  501 -0.00000000000E+00 -0.00000000000E+00 -0.41189739807E+01  0.43103186256E+01  0.12700000000E+01 0. -1.
         25    2    1    2    0    0  0.00000000000E+00  0.00000000000E+00  0.92253861872E+03  0.93096878160E+03  0.12500147716E+03 0.  0.
    9000005    1    3    3    0    0 -0.50814720388E+00 -0.20257591708E+02  0.20992512586E+02  0.29194414193E+02  0.10000000000E+01 0.  0.
    9000005    1    3    3    0    0  0.50814720388E+00  0.20257591708E+02  0.90154610613E+03  0.90177436741E+03  0.10000000000E+01 0.  0.
<mgrwt>
<rscale>  0 0.12500148E+03</rscale>
<asrwt>0</asrwt>
<pdfrwt beam="1">  1        4 0.14257753E+00 0.12500148E+03</pdfrwt>
<pdfrwt beam="2">  1       -4 0.64847392E-03 0.12500148E+03</pdfrwt>
<totfact> 0.33000365E+03</totfact>
</mgrwt>
</event>
<event>
 5    1  0.3337119E-002  0.1249983E+03  0.7818608E-02  0.1235072E+00
          4   -1    0    0  501    0  0.00000000000E+00  0.00000000000E+00  0.13641166493E+03  0.13641757669E+03  0.12700000000E+01 0.  1.
         -4   -1    0    0    0  501 -0.00000000000E+00 -0.00000000000E+00 -0.28614352114E+02  0.28642521658E+02  0.12700000000E+01 0.  1.
         25    2    1    2    0    0  0.00000000000E+00  0.00000000000E+00  0.10779731282E+03  0.16506009834E+03  0.12499830165E+03 0.  0.
    9000005    1    3    3    0    0 -0.50464059782E+02  0.31897994362E+02  0.29512634901E+02  0.66604046370E+02  0.10000000000E+01 0.  0.
    9000005    1    3    3    0    0  0.50464059782E+02 -0.31897994362E+02  0.78284677916E+02  0.98456051975E+02  0.10000000000E+01 0.  0.
<mgrwt>
<rscale>  0 0.12499830E+03</rscale>
<asrwt>0</asrwt>
<pdfrwt beam="1">  1        4 0.20989031E-01 0.12499830E+03</pdfrwt>
<pdfrwt beam="2">  1       -4 0.44048298E-02 0.12499830E+03</pdfrwt>
<totfact> 0.96379689E+03</totfact>
</mgrwt>
</event>
<event>
 5    1  0.3337119E-002  0.1250002E+03  0.7818608E-02  0.1235069E+00
          4   -1    0    0  501    0  0.00000000000E+00  0.00000000000E+00  0.13000976518E+02  0.13062859198E+02  0.12700000000E+01 0.  1.
         -4   -1    0    0    0  501 -0.00000000000E+00 -0.00000000000E+00 -0.29968270920E+03  0.29968540020E+03  0.12700000000E+01 0.  1.
         25    2    1    2    0    0  0.00000000000E+00  0.00000000000E+00 -0.28668173268E+03  0.31274825940E+03  0.12500023161E+03 0.  0.
    9000005    1    3    3    0    0 -0.42743100948E+02  0.10922781026E+02 -0.32602120588E+02  0.54865089910E+02  0.10000000000E+01 0.  0.
    9000005    1    3    3    0    0  0.42743100948E+02 -0.10922781026E+02 -0.25407961210E+03  0.25788316949E+03  0.10000000000E+01 0.  0.
<mgrwt>
<rscale>  0 0.12500023E+03</rscale>
<asrwt>0</asrwt>
<pdfrwt beam="1">  1        4 0.20051177E-02 0.12500023E+03</pdfrwt>
<pdfrwt beam="2">  1       -4 0.46109994E-01 0.12500023E+03</pdfrwt>
<totfact> 0.74026629E+03</totfact>
</mgrwt>
</event>
<event>
 5    1  0.3337119E-002  0.1250002E+03  0.7818608E-02  0.1235069E+00
         -4   -1    0    0    0  501 -0.00000000000E+00  0.00000000000E+00  0.31939933452E+02  0.31965172437E+02  0.12700000000E+01 0. -1.
          4   -1    0    0  501    0  0.00000000000E+00 -0.00000000000E+00 -0.12222346634E+03  0.12223006432E+03  0.12700000000E+01 0. -1.
         25    2    1    2    0    0  0.00000000000E+00  0.00000000000E+00 -0.90283532886E+02  0.15419523676E+03  0.12500021891E+03 0.  0.
    9000005    1    3    3    0    0 -0.56887998718E+02 -0.89012728142E+01 -0.15184123189E+02  0.59556986600E+02  0.10000000000E+01 0.  0.
    9000005    1    3    3    0    0  0.56887998718E+02  0.89012728142E+01 -0.75099409697E+02  0.94638250156E+02  0.10000000000E+01 0.  0.
<mgrwt>
<rscale>  0 0.12500022E+03</rscale>
<asrwt>0</asrwt>
<pdfrwt beam="2">  1        4 0.18806059E-01 0.12500022E+03</pdfrwt>
<pdfrwt beam="1">  1       -4 0.49162850E-02 0.12500022E+03</pdfrwt>
<totfact> 0.98473231E+03</totfact>
</mgrwt>
</event>
<event>
 5    1  0.3337119E-002  0.1250027E+03  0.7818608E-02  0.1235065E+00
          4   -1    0    0  501    0  0.00000000000E+00  0.00000000000E+00  0.91418926781E+02  0.91427747833E+02  0.12700000000E+01 0.  1.
         -4   -1    0    0    0  501 -0.00000000000E+00 -0.00000000000E+00 -0.42710618689E+02  0.42729496238E+02  0.12700000000E+01 0.  1.
         25    2    1    2    0    0  0.00000000000E+00  0.00000000000E+00  0.48708308092E+02  0.13415724407E+03  0.12500266741E+03 0.  0.
    9000005    1    3    3    0    0  0.32660435991E+02 -0.41526163629E+02  0.60179800552E+02  0.80085796115E+02  0.10000000000E+01 0.  0.
    9000005    1    3    3    0    0 -0.32660435991E+02  0.41526163629E+02 -0.11471492460E+02  0.54071447956E+02  0.10000000000E+01 0.  0.
<mgrwt>
<rscale>  0 0.12500267E+03</rscale>
<asrwt>0</asrwt>
<pdfrwt beam="1">  1        4 0.14066581E-01 0.12500267E+03</pdfrwt>
<pdfrwt beam="2">  1       -4 0.65729951E-02 0.12500267E+03</pdfrwt>
<totfact> 0.10255248E+04</totfact>
</mgrwt>
</event>
<event>
 5    1  0.3337119E-002  0.1249969E+03  0.7818608E-02  0.1235074E+00
         -4   -1    0    0    0  501 -0.00000000000E+00  0.00000000000E+00  0.52568046547E+02  0.52583385378E+02  0.12700000000E+01 0. -1.
          4   -1    0    0  501    0  0.00000000000E+00 -0.00000000000E+00 -0.74273172597E+02  0.74284029694E+02  0.12700000000E+01 0. -1.
         25    2    1    2    0    0  0.00000000000E+00  0.00000000000E+00 -0.21705126050E+02  0.12686741507E+03  0.12499691400E+03 0.  0.
    9000005    1    3    3    0    0 -0.10113988930E+02 -0.14078951968E+02  0.50083750158E+02  0.53008411507E+02  0.10000000000E+01 0.  0.
    9000005    1    3    3    0    0  0.10113988930E+02  0.14078951968E+02 -0.71788876207E+02  0.73859003566E+02  0.10000000000E+01 0.  0.
<mgrwt>
<rscale>  0 0.12499691E+03</rscale>
<asrwt>0</asrwt>
<pdfrwt beam="2">  1        4 0.11428657E-01 0.12499691E+03</pdfrwt>
<pdfrwt beam="1">  1       -4 0.80894068E-02 0.12499691E+03</pdfrwt>
<totfact> 0.10412753E+04</totfact>
</mgrwt>
</event>
<event>
 5    1  0.3337119E-002  0.1249589E+03  0.7818608E-02  0.1235134E+00
          4   -1    0    0  501    0  0.00000000000E+00  0.00000000000E+00  0.77504182816E+01  0.78537814802E+01  0.12700000000E+01 0. -1.
         -4   -1    0    0    0  501 -0.00000000000E+00 -0.00000000000E+00 -0.50023279339E+03  0.50023440554E+03  0.12700000000E+01 0. -1.
         25    2    1    2    0    0  0.00000000000E+00  0.00000000000E+00 -0.49248237511E+03  0.50808818702E+03  0.12495885720E+03 0.  0.
    9000005    1    3    3    0    0 -0.45451814071E+02 -0.32401162471E+02 -0.13217606522E+03  0.14348245519E+03  0.10000000000E+01 0.  0.
    9000005    1    3    3    0    0  0.45451814071E+02  0.32401162471E+02 -0.36030630989E+03  0.36460573183E+03  0.10000000000E+01 0.  0.
<mgrwt>
<rscale>  0 0.12495886E+03</rscale>
<asrwt>0</asrwt>
<pdfrwt beam="1">  1        4 0.12004475E-02 0.12495886E+03</pdfrwt>
<pdfrwt beam="2">  1       -4 0.76966941E-01 0.12495886E+03</pdfrwt>
<totfact> 0.55292242E+03</totfact>
</mgrwt>
</event>
<event>
 5    1  0.3337119E-002  0.1249989E+03  0.7818608E-02  0.1235071E+00
          4   -1    0    0  501    0  0.00000000000E+00  0.00000000000E+00  0.30188316659E+02  0.30215018827E+02  0.12700000000E+01 0.  1.
         -4   -1    0    0    0  501 -0.00000000000E+00 -0.00000000000E+00 -0.12930669951E+03  0.12931293608E+03  0.12700000000E+01 0.  1.
         25    2    1    2    0    0  0.00000000000E+00  0.00000000000E+00 -0.99118382854E+02  0.15952795491E+03  0.12499885831E+03 0.  0.
    9000005    1    3    3    0    0 -0.52744580261E+02 -0.17837093679E+02 -0.85769789788E+02  0.10226245400E+03  0.10000000000E+01 0.  0.
    9000005    1    3    3    0    0  0.52744580261E+02  0.17837093679E+02 -0.13348593066E+02  0.57265500912E+02  0.10000000000E+01 0.  0.
<mgrwt>
<rscale>  0 0.12499886E+03</rscale>
<asrwt>0</asrwt>
<pdfrwt beam="1">  1        4 0.46468902E-02 0.12499886E+03</pdfrwt>
<pdfrwt beam="2">  1       -4 0.19895872E-01 0.12499886E+03</pdfrwt>
<totfact> 0.97436369E+03</totfact>
</mgrwt>
</event>
<event>
 5    1  0.3337119E-002  0.1250013E+03  0.7818608E-02  0.1235067E+00
          4   -1    0    0  501    0  0.00000000000E+00  0.00000000000E+00  0.34080066657E+03  0.34080303290E+03  0.12700000000E+01 0. -1.
         -4   -1    0    0    0  501 -0.00000000000E+00 -0.00000000000E+00 -0.11424615885E+02  0.11494987956E+02  0.12700000000E+01 0. -1.
         25    2    1    2    0    0  0.00000000000E+00  0.00000000000E+00  0.32937605068E+03  0.35229802086E+03  0.12500125093E+03 0.  0.
    9000005    1    3    3    0    0  0.50570642673E+02 -0.16267384864E+02  0.25745049769E+03  0.26287597165E+03  0.10000000000E+01 0.  0.
    9000005    1    3    3    0    0 -0.50570642673E+02  0.16267384864E+02  0.71925552995E+02  0.89422049206E+02  0.10000000000E+01 0.  0.
<mgrwt>
<rscale>  0 0.12500125E+03</rscale>
<asrwt>0</asrwt>
<pdfrwt beam="1">  1        4 0.52436465E-01 0.12500125E+03</pdfrwt>
<pdfrwt beam="2">  1       -4 0.17632285E-02 0.12500125E+03</pdfrwt>
<totfact> 0.69470559E+03</totfact>
</mgrwt>
</event>
<event>
 5    1  0.3337119E-002  0.1249970E+03  0.7818608E-02  0.1235074E+00
         -4   -1    0    0    0  501 -0.00000000000E+00  0.00000000000E+00  0.48446640407E+02  0.48463283697E+02  0.12700000000E+01 0.  1.
          4   -1    0    0  501    0  0.00000000000E+00 -0.00000000000E+00 -0.80590517550E+02  0.80600523689E+02  0.12700000000E+01 0.  1.
         25    2    1    2    0    0  0.00000000000E+00  0.00000000000E+00 -0.32143877143E+02  0.12906380739E+03  0.12499695012E+03 0.  0.
    9000005    1    3    3    0    0  0.36681871485E+02  0.26646097322E+02  0.28332919343E+02  0.53472689446E+02  0.10000000000E+01 0.  0.
    9000005    1    3    3    0    0 -0.36681871485E+02 -0.26646097322E+02 -0.60476796486E+02  0.75591117939E+02  0.10000000000E+01 0.  0.
<mgrwt>
<rscale>  0 0.12499695E+03</rscale>
<asrwt>0</asrwt>
<pdfrwt beam="2">  1        4 0.12400591E-01 0.12499695E+03</pdfrwt>
<pdfrwt beam="1">  1       -4 0.74553792E-02 0.12499695E+03</pdfrwt>
<totfact> 0.10365289E+04</totfact>
</mgrwt>
</event>
<event>
 5    1  0.3337119E-002  0.1250036E+03  0.7818608E-02  0.1235064E+00
          4   -1    0    0  501    0  0.00000000000E+00  0.00000000000E+00  0.86732896767E+02  0.86742194356E+02  0.12700000000E+01 0. -1.
         -4   -1    0    0    0  501 -0.00000000000E+00 -0.00000000000E+00 -0.45019613150E+02  0.45037522892E+02  0.12700000000E+01 0. -1.
         25    2    1    2    0    0  0.00000000000E+00  0.00000000000E+00  0.41713283617E+02  0.13177971725E+03  0.12500358334E+03 0.  0.
    9000005    1    3    3    0    0  0.54138737007E+02  0.28513499912E+02  0.34251776045E+02  0.70129927165E+02  0.10000000000E+01 0.  0.
    9000005    1    3    3    0    0 -0.54138737007E+02 -0.28513499912E+02  0.74615075723E+01  0.61649790082E+02  0.10000000000E+01 0.  0.
<mgrwt>
<rscale>  0 0.12500358E+03</rscale>
<asrwt>0</asrwt>
<pdfrwt beam="1">  1        4 0.13345615E-01 0.12500358E+03</pdfrwt>
<pdfrwt beam="2">  1       -4 0.69281872E-02 0.12500358E+03</pdfrwt>
<totfact> 0.10305569E+04</totfact>
</mgrwt>
</event>
<event>
 5    1  0.3337119E-002  0.1250010E+03  0.7818608E-02  0.1235068E+00
         -4   -1    0    0    0  501 -0.00000000000E+00  0.00000000000E+00  0.11801907580E+04  0.11801914413E+04  0.12700000000E+01 0.  1.
          4   -1    0    0  501    0  0.00000000000E+00 -0.00000000000E+00 -0.31873633185E+01  0.34310617779E+01  0.12700000000E+01 0.  1.
         25    2    1    2    0    0  0.00000000000E+00  0.00000000000E+00  0.11770033946E+04  0.11836225031E+04  0.12500095500E+03 0.  0.
    9000005    1    3    3    0    0 -0.60242498473E+02  0.16616996201E+02  0.59004320583E+03  0.59334413954E+03  0.10000000000E+01 0.  0.
    9000005    1    3    3    0    0  0.60242498473E+02 -0.16616996201E+02  0.58696018881E+03  0.59027836352E+03  0.10000000000E+01 0.  0.
<mgrwt>
<rscale>  0 0.12500096E+03</rscale>
<asrwt>0</asrwt>
<pdfrwt beam="2">  1        4 0.50916280E-03 0.12500096E+03</pdfrwt>
<pdfrwt beam="1">  1       -4 0.18158639E+00 0.12500096E+03</pdfrwt>
<totfact> 0.25145011E+03</totfact>
</mgrwt>
</event>
<event>
 5    1  0.3337119E-002  0.1250003E+03  0.7818608E-02  0.1235069E+00
          4   -1    0    0  501    0  0.00000000000E+00  0.00000000000E+00  0.18250597674E+04  0.18250602092E+04  0.12700000000E+01 0.  1.
         -4   -1    0    0    0  501 -0.00000000000E+00 -0.00000000000E+00 -0.19514766347E+01  0.23283386901E+01  0.12700000000E+01 0.  1.
         25    2    1    2    0    0  0.00000000000E+00  0.00000000000E+00  0.18231082907E+04  0.18273885479E+04  0.12500026152E+03 0.  0.
    9000005    1    3    3    0    0  0.16313788651E+02  0.60287415138E+02  0.88035612662E+03  0.88256932974E+03  0.10000000000E+01 0.  0.
    9000005    1    3    3    0    0 -0.16313788651E+02 -0.60287415138E+02  0.94275216410E+03  0.94481921818E+03  0.10000000000E+01 0.  0.
<mgrwt>
<rscale>  0 0.12500026E+03</rscale>
<asrwt>0</asrwt>
<pdfrwt beam="1">  1        4 0.28080670E+00 0.12500026E+03</pdfrwt>
<pdfrwt beam="2">  1       -4 0.32925144E-03 0.12500026E+03</pdfrwt>
<totfact> 0.12286248E+03</totfact>
</mgrwt>
</event>
<event>
 5    1  0.3337119E-002  0.1249743E+03  0.7818608E-02  0.1235109E+00
         -4   -1    0    0    0  501 -0.00000000000E+00  0.00000000000E+00  0.14329261060E+03  0.14329823848E+03  0.12700000000E+01 0.  1.
          4   -1    0    0  501    0  0.00000000000E+00 -0.00000000000E+00 -0.27228470821E+02  0.27258072626E+02  0.12700000000E+01 0.  1.
         25    2    1    2    0    0  0.00000000000E+00  0.00000000000E+00  0.11606413978E+03  0.17055631111E+03  0.12497428022E+03 0.  0.
    9000005    1    3    3    0    0  0.46596806520E+02 -0.29916152145E+02  0.18539563007E+02  0.58403372621E+02  0.10000000000E+01 0.  0.
    9000005    1    3    3    0    0 -0.46596806520E+02  0.29916152145E+02  0.97524576768E+02  0.11215293849E+03  0.10000000000E+01 0.  0.
<mgrwt>
<rscale>  0 0.12497428E+03</rscale>
<asrwt>0</asrwt>
<pdfrwt beam="2">  1        4 0.41917055E-02 0.12497428E+03</pdfrwt>
<pdfrwt beam="1">  1       -4 0.22047727E-01 0.12497428E+03</pdfrwt>
<totfact> 0.95400107E+03</totfact>
</mgrwt>
</event>
<event>
 5    1  0.3337119E-002  0.1249964E+03  0.7818608E-02  0.1235075E+00
          4   -1    0    0  501    0  0.00000000000E+00  0.00000000000E+00  0.77360643589E+02  0.77371067438E+02  0.12700000000E+01 0.  1.
         -4   -1    0    0    0  501 -0.00000000000E+00 -0.00000000000E+00 -0.50469301027E+02  0.50485277519E+02  0.12700000000E+01 0.  1.
         25    2    1    2    0    0  0.00000000000E+00  0.00000000000E+00  0.26891342562E+02  0.12785634496E+03  0.12499640251E+03 0.  0.
    9000005    1    3    3    0    0  0.58191513378E+02  0.21026749142E+02  0.44904295348E+01  0.62044664284E+02  0.10000000000E+01 0.  0.
    9000005    1    3    3    0    0 -0.58191513378E+02 -0.21026749142E+02  0.22400913027E+02  0.65811680674E+02  0.10000000000E+01 0.  0.
<mgrwt>
<rscale>  0 0.12499640E+03</rscale>
<asrwt>0</asrwt>
<pdfrwt beam="1">  1        4 0.11903668E-01 0.12499640E+03</pdfrwt>
<pdfrwt beam="2">  1       -4 0.77665386E-02 0.12499640E+03</pdfrwt>
<totfact> 0.10391435E+04</totfact>
</mgrwt>
</event>
<event>
 5    1  0.3337119E-002  0.1250016E+03  0.7818608E-02  0.1235067E+00
          4   -1    0    0  501    0  0.00000000000E+00  0.00000000000E+00  0.21392722397E+03  0.21393099368E+03  0.12700000000E+01 0.  1.
         -4   -1    0    0    0  501 -0.00000000000E+00 -0.00000000000E+00 -0.18234177946E+02  0.18278351823E+02  0.12700000000E+01 0.  1.
         25    2    1    2    0    0  0.00000000000E+00  0.00000000000E+00  0.19569304602E+03  0.23220934550E+03  0.12500164749E+03 0.  0.
    9000005    1    3    3    0    0 -0.33098017989E+02 -0.32940332613E+02  0.17499625463E+03  0.18112215061E+03  0.10000000000E+01 0.  0.
    9000005    1    3    3    0    0  0.33098017989E+02  0.32940332613E+02  0.20696791391E+02  0.51087194887E+02  0.10000000000E+01 0.  0.
<mgrwt>
<rscale>  0 0.12500165E+03</rscale>
<asrwt>0</asrwt>
<pdfrwt beam="1">  1        4 0.32915567E-01 0.12500165E+03</pdfrwt>
<pdfrwt beam="2">  1       -4 0.28089463E-02 0.12500165E+03</pdfrwt>
<totfact> 0.84968378E+03</totfact>
</mgrwt>
</event>
<event>
 5    1  0.3337119E-002  0.1250187E+03  0.7818608E-02  0.1235040E+00
         -4   -1    0    0    0  501 -0.00000000000E+00  0.00000000000E+00  0.87509447301E+02  0.87518662392E+02  0.12700000000E+01 0. -1.
          4   -1    0    0  501    0  0.00000000000E+00 -0.00000000000E+00 -0.44630812410E+02  0.44648878109E+02  0.12700000000E+01 0. -1.
         25    2    1    2    0    0  0.00000000000E+00  0.00000000000E+00  0.42878634891E+02  0.13216754050E+03  0.12501872433E+03 0.  0.
    9000005    1    3    3    0    0 -0.16245625385E+02  0.39066232057E+02  0.70073474263E+02  0.81861973019E+02  0.10000000000E+01 0.  0.
    9000005    1    3    3    0    0  0.16245625385E+02 -0.39066232057E+02 -0.27194839372E+02  0.50305567482E+02  0.10000000000E+01 0.  0.
<mgrwt>
<rscale>  0 0.12501872E+03</rscale>
<asrwt>0</asrwt>
<pdfrwt beam="2">  1        4 0.68683774E-02 0.12501872E+03</pdfrwt>
<pdfrwt beam="1">  1       -4 0.13465090E-01 0.12501872E+03</pdfrwt>
<totfact> 0.10293775E+04</totfact>
</mgrwt>
</event>
<event>
 5    1  0.3337119E-002  0.1250007E+03  0.7818608E-02  0.1235068E+00
          4   -1    0    0  501    0  0.00000000000E+00  0.00000000000E+00  0.15723989825E+03  0.15724502696E+03  0.12700000000E+01 0. -1.
         -4   -1    0    0    0  501 -0.00000000000E+00 -0.00000000000E+00 -0.24821118136E+02  0.24853587377E+02  0.12700000000E+01 0. -1.
         25    2    1    2    0    0  0.00000000000E+00  0.00000000000E+00  0.13241878012E+03  0.18209861433E+03  0.12500068806E+03 0.  0.
    9000005    1    3    3    0    0 -0.30541158117E+02 -0.22529121871E+02  0.13853631446E+03  0.14364412308E+03  0.10000000000E+01 0.  0.
    9000005    1    3    3    0    0  0.30541158117E+02  0.22529121871E+02 -0.61175343389E+01  0.38454491257E+02  0.10000000000E+01 0.  0.
<mgrwt>
<rscale>  0 0.12500069E+03</rscale>
<asrwt>0</asrwt>
<pdfrwt beam="1">  1        4 0.24193645E-01 0.12500069E+03</pdfrwt>
<pdfrwt beam="2">  1       -4 0.38215259E-02 0.12500069E+03</pdfrwt>
<totfact> 0.93239167E+03</totfact>
</mgrwt>
</event>
<event>
 5    1  0.3337119E-002  0.1249929E+03  0.7818608E-02  0.1235080E+00
         -4   -1    0    0    0  501 -0.00000000000E+00  0.00000000000E+00  0.67238784668E+02  0.67250777420E+02  0.12700000000E+01 0.  1.
          4   -1    0    0  501    0  0.00000000000E+00 -0.00000000000E+00 -0.58064473750E+02  0.58078360960E+02  0.12700000000E+01 0.  1.
         25    2    1    2    0    0  0.00000000000E+00  0.00000000000E+00  0.91743109182E+01  0.12532913838E+03  0.12499289958E+03 0.  0.
    9000005    1    3    3    0    0  0.10521218083E+02  0.40370354728E+02  0.51234821807E+02  0.66079259502E+02  0.10000000000E+01 0.  0.
    9000005    1    3    3    0    0 -0.10521218083E+02 -0.40370354728E+02 -0.42060510889E+02  0.59249878878E+02  0.10000000000E+01 0.  0.
<mgrwt>
<rscale>  0 0.12499290E+03</rscale>
<asrwt>0</asrwt>
<pdfrwt beam="2">  1        4 0.89349867E-02 0.12499290E+03</pdfrwt>
<pdfrwt beam="1">  1       -4 0.10346419E-01 0.12499290E+03</pdfrwt>
<totfact> 0.10447394E+04</totfact>
</mgrwt>
</event>
<event>
 5    1  0.3337119E-002  0.1250013E+03  0.7818608E-02  0.1235067E+00
          4   -1    0    0  501    0  0.00000000000E+00  0.00000000000E+00  0.30744556938E+02  0.30770776417E+02  0.12700000000E+01 0.  1.
         -4   -1    0    0    0  501 -0.00000000000E+00 -0.00000000000E+00 -0.12697404361E+03  0.12698039475E+03  0.12700000000E+01 0.  1.
         25    2    1    2    0    0  0.00000000000E+00  0.00000000000E+00 -0.96229486672E+02  0.15775117117E+03  0.12500127159E+03 0.  0.
    9000005    1    3    3    0    0  0.31492289668E+02 -0.41471912554E+02 -0.45138017280E+01  0.52278659561E+02  0.10000000000E+01 0.  0.
    9000005    1    3    3    0    0 -0.31492289668E+02  0.41471912554E+02 -0.91715684944E+02  0.10547251160E+03  0.10000000000E+01 0.  0.
<mgrwt>
<rscale>  0 0.12500127E+03</rscale>
<asrwt>0</asrwt>
<pdfrwt beam="1">  1        4 0.47324373E-02 0.12500127E+03</pdfrwt>
<pdfrwt beam="2">  1       -4 0.19536973E-01 0.12500127E+03</pdfrwt>
<totfact> 0.97775306E+03</totfact>
</mgrwt>
</event>
<event>
 5    1  0.3337119E-002  0.1250041E+03  0.7818608E-02  0.1235063E+00
          4   -1    0    0  501    0  0.00000000000E+00  0.00000000000E+00  0.25707524673E+02  0.25738875749E+02  0.12700000000E+01 0. -1.
         -4   -1    0    0    0  501 -0.00000000000E+00 -0.00000000000E+00 -0.15183310521E+03  0.15183841654E+03  0.12700000000E+01 0. -1.
         25    2    1    2    0    0  0.00000000000E+00  0.00000000000E+00 -0.12612558054E+03  0.17757729229E+03  0.12500413062E+03 0.  0.
    9000005    1    3    3    0    0  0.23317043515E+02 -0.72412700821E+01  0.18658814624E+02  0.30745274008E+02  0.10000000000E+01 0.  0.
    9000005    1    3    3    0    0 -0.23317043515E+02  0.72412700821E+01 -0.14478439516E+03  0.14683201828E+03  0.10000000000E+01 0.  0.
<mgrwt>
<rscale>  0 0.12500413E+03</rscale>
<asrwt>0</asrwt>
<pdfrwt beam="1">  1        4 0.39578241E-02 0.12500413E+03</pdfrwt>
<pdfrwt beam="2">  1       -4 0.23361759E-01 0.12500413E+03</pdfrwt>
<totfact> 0.94046213E+03</totfact>
</mgrwt>
</event>
<event>
 5    1  0.3337119E-002  0.1249970E+03  0.7818608E-02  0.1235074E+00
         -4   -1    0    0    0  501 -0.00000000000E+00  0.00000000000E+00  0.47275392218E+02  0.47292447699E+02  0.12700000000E+01 0. -1.
          4   -1    0    0  501    0  0.00000000000E+00 -0.00000000000E+00 -0.82586808837E+02  0.82596573136E+02  0.12700000000E+01 0. -1.
         25    2    1    2    0    0  0.00000000000E+00  0.00000000000E+00 -0.35311416619E+02  0.12988902084E+03  0.12499704632E+03 0.  0.
    9000005    1    3    3    0    0 -0.60212068537E+02 -0.79172208928E+01 -0.32959261225E+02  0.69104909266E+02  0.10000000000E+01 0.  0.
    9000005    1    3    3    0    0  0.60212068537E+02  0.79172208928E+01 -0.23521553937E+01  0.60784111569E+02  0.10000000000E+01 0.  0.
<mgrwt>
<rscale>  0 0.12499705E+03</rscale>
<asrwt>0</asrwt>
<pdfrwt beam="2">  1        4 0.12707726E-01 0.12499705E+03</pdfrwt>
<pdfrwt beam="1">  1       -4 0.72752003E-02 0.12499705E+03</pdfrwt>
<totfact> 0.10347572E+04</totfact>
</mgrwt>
</event>
<event>
 5    1  0.3337119E-002  0.1249999E+03  0.7818608E-02  0.1235069E+00
          4   -1    0    0  501    0  0.00000000000E+00  0.00000000000E+00  0.11614117618E+03  0.11614811968E+03  0.12700000000E+01 0. -1.
         -4   -1    0    0    0  501 -0.00000000000E+00 -0.00000000000E+00 -0.33613633392E+02  0.33637616590E+02  0.12700000000E+01 0. -1.
         25    2    1    2    0    0  0.00000000000E+00  0.00000000000E+00  0.82527542789E+02  0.14978573627E+03  0.12499988588E+03 0.  0.
    9000005    1    3    3    0    0  0.33726247462E+02 -0.22719197297E+02  0.98123987248E+02  0.10622117758E+03  0.10000000000E+01 0.  0.
    9000005    1    3    3    0    0 -0.33726247462E+02  0.22719197297E+02 -0.15596444459E+02  0.43564558685E+02  0.10000000000E+01 0.  0.
<mgrwt>
<rscale>  0 0.12499989E+03</rscale>
<asrwt>0</asrwt>
<pdfrwt beam="1">  1        4 0.17870252E-01 0.12499989E+03</pdfrwt>
<pdfrwt beam="2">  1       -4 0.51737072E-02 0.12499989E+03</pdfrwt>
<totfact> 0.99346680E+03</totfact>
</mgrwt>
</event>
<event>
 5    1  0.3337119E-002  0.1249961E+03  0.7818608E-02  0.1235075E+00
          4   -1    0    0  501    0  0.00000000000E+00  0.00000000000E+00  0.15355329358E+02  0.15407759074E+02  0.12700000000E+01 0. -1.
         -4   -1    0    0    0  501 -0.00000000000E+00 -0.00000000000E+00 -0.25388694358E+03  0.25389011998E+03  0.12700000000E+01 0. -1.
         25    2    1    2    0    0  0.00000000000E+00  0.00000000000E+00 -0.23853161422E+03  0.26929787905E+03  0.12499606664E+03 0.  0.
    9000005    1    3    3    0    0 -0.50592416957E+02  0.32389754309E+01 -0.40549575296E+02  0.64925739673E+02  0.10000000000E+01 0.  0.
    9000005    1    3    3    0    0  0.50592416957E+02 -0.32389754309E+01 -0.19798203893E+03  0.20437213938E+03  0.10000000000E+01 0.  0.
<mgrwt>
<rscale>  0 0.12499607E+03</rscale>
<asrwt>0</asrwt>
<pdfrwt beam="1">  1        4 0.23666359E-02 0.12499607E+03</pdfrwt>
<pdfrwt beam="2">  1       -4 0.39063804E-01 0.12499607E+03</pdfrwt>
<totfact> 0.79625655E+03</totfact>
</mgrwt>
</event>
<event>
 5    1  0.3337119E-002  0.1250010E+03  0.7818608E-02  0.1235068E+00
         -4   -1    0    0    0  501 -0.00000000000E+00  0.00000000000E+00  0.45267689257E+02  0.45285500887E+02  0.12700000000E+01 0. -1.
          4   -1    0    0  501    0  0.00000000000E+00 -0.00000000000E+00 -0.86254173000E+02  0.86263522186E+02  0.12700000000E+01 0. -1.
         25    2    1    2    0    0  0.00000000000E+00  0.00000000000E+00 -0.40986483743E+02  0.13154902307E+03  0.12500101448E+03 0.  0.
    9000005    1    3    3    0    0  0.49766595601E+02  0.32855131264E+02 -0.40157325728E+02  0.71901213465E+02  0.10000000000E+01 0.  0.
    9000005    1    3    3    0    0 -0.49766595601E+02 -0.32855131264E+02 -0.82915801487E+00  0.59647809608E+02  0.10000000000E+01 0.  0.
<mgrwt>
<rscale>  0 0.12500101E+03</rscale>
<asrwt>0</asrwt>
<pdfrwt beam="2">  1        4 0.13271962E-01 0.12500101E+03</pdfrwt>
<pdfrwt beam="1">  1       -4 0.69663492E-02 0.12500101E+03</pdfrwt>
<totfact> 0.10311098E+04</totfact>
</mgrwt>
</event>
<event>
 5    1  0.3337119E-002  0.1249967E+03  0.7818608E-02  0.1235074E+00
          4   -1    0    0  501    0  0.00000000000E+00  0.00000000000E+00  0.16874802054E+03  0.16875279949E+03  0.12700000000E+01 0.  1.
         -4   -1    0    0    0  501 -0.00000000000E+00 -0.00000000000E+00 -0.23124683342E+02  0.23159531076E+02  0.12700000000E+01 0.  1.
         25    2    1    2    0    0  0.00000000000E+00  0.00000000000E+00  0.14562333720E+03  0.19191233057E+03  0.12499674511E+03 0.  0.
    9000005    1    3    3    0    0  0.18521710072E+01  0.62374491679E+02  0.77912788651E+02  0.99826902111E+02  0.10000000000E+01 0.  0.
    9000005    1    3    3    0    0 -0.18521710072E+01 -0.62374491679E+02  0.67710548550E+02  0.92085428460E+02  0.10000000000E+01 0.  0.
<mgrwt>
<rscale>  0 0.12499675E+03</rscale>
<asrwt>0</asrwt>
<pdfrwt beam="1">  1        4 0.25964283E-01 0.12499675E+03</pdfrwt>
<pdfrwt beam="2">  1       -4 0.35606917E-02 0.12499675E+03</pdfrwt>
<totfact> 0.91522306E+03</totfact>
</mgrwt>
</event>
<event>
 5    1  0.3337119E-002  0.1250031E+03  0.7818608E-02  0.1235064E+00
          4   -1    0    0  501    0  0.00000000000E+00  0.00000000000E+00  0.93423202944E+01  0.94282473707E+01  0.12700000000E+01 0. -1.
         -4   -1    0    0    0  501 -0.00000000000E+00 -0.00000000000E+00 -0.41614397785E+03  0.41614591575E+03  0.12700000000E+01 0. -1.
         25    2    1    2    0    0  0.00000000000E+00  0.00000000000E+00 -0.40680165755E+03  0.42557416312E+03  0.12500311889E+03 0.  0.
    9000005    1    3    3    0    0  0.54450023500E+02 -0.22516538754E+02 -0.13250482516E+03  0.14501837217E+03  0.10000000000E+01 0.  0.
    9000005    1    3    3    0    0 -0.54450023500E+02  0.22516538754E+02 -0.27429683239E+03  0.28055579095E+03  0.10000000000E+01 0.  0.
<mgrwt>
<rscale>  0 0.12500312E+03</rscale>
<asrwt>0</asrwt>
<pdfrwt beam="1">  1        4 0.14440392E-02 0.12500312E+03</pdfrwt>
<pdfrwt beam="2">  1       -4 0.64028895E-01 0.12500312E+03</pdfrwt>
<totfact> 0.62134958E+03</totfact>
</mgrwt>
</event>
<event>
 5    1  0.3337119E-002  0.1249927E+03  0.7818608E-02  0.1235081E+00
         -4   -1    0    0    0  501 -0.00000000000E+00  0.00000000000E+00  0.11071254812E+03  0.11071983206E+03  0.12700000000E+01 0. -1.
          4   -1    0    0  501    0  0.00000000000E+00 -0.00000000000E+00 -0.35258839022E+02  0.35281703887E+02  0.12700000000E+01 0. -1.
         25    2    1    2    0    0  0.00000000000E+00  0.00000000000E+00  0.75453709100E+02  0.14600153595E+03  0.12499274492E+03 0.  0.
    9000005    1    3    3    0    0 -0.74757297933E+01 -0.60217186282E+02  0.55162206174E+02  0.82011371465E+02  0.10000000000E+01 0.  0.
    9000005    1    3    3    0    0  0.74757297933E+01  0.60217186282E+02  0.20291502927E+02  0.63990164484E+02  0.10000000000E+01 0.  0.
<mgrwt>
<rscale>  0 0.12499274E+03</rscale>
<asrwt>0</asrwt>
<pdfrwt beam="2">  1        4 0.54267561E-02 0.12499274E+03</pdfrwt>
<pdfrwt beam="1">  1       -4 0.17035018E-01 0.12499274E+03</pdfrwt>
<totfact> 0.10012315E+04</totfact>
</mgrwt>
</event>
<event>
 5    1  0.3337119E-002  0.1250060E+03  0.7818608E-02  0.1235060E+00
          4   -1    0    0  501    0  0.00000000000E+00  0.00000000000E+00  0.25161296288E+02  0.25193327110E+02  0.12700000000E+01 0.  1.
         -4   -1    0    0    0  501 -0.00000000000E+00 -0.00000000000E+00 -0.15512982977E+03  0.15513502823E+03  0.12700000000E+01 0.  1.
         25    2    1    2    0    0  0.00000000000E+00  0.00000000000E+00 -0.12996853349E+03  0.18032835534E+03  0.12500598404E+03 0.  0.
    9000005    1    3    3    0    0  0.20063585014E+02 -0.50382079365E+02 -0.20178444108E+02  0.57871158372E+02  0.10000000000E+01 0.  0.
    9000005    1    3    3    0    0 -0.20063585014E+02  0.50382079365E+02 -0.10979008938E+03  0.12245719697E+03  0.10000000000E+01 0.  0.
<mgrwt>
<rscale>  0 0.12500598E+03</rscale>
<asrwt>0</asrwt>
<pdfrwt beam="1">  1        4 0.38738325E-02 0.12500598E+03</pdfrwt>
<pdfrwt beam="2">  1       -4 0.23868991E-01 0.12500598E+03</pdfrwt>
<totfact> 0.93545380E+03</totfact>
</mgrwt>
</event>
<event>
 5    1  0.3337119E-002  0.1250008E+03  0.7818608E-02  0.1235068E+00
         -4   -1    0    0    0  501 -0.00000000000E+00  0.00000000000E+00  0.10016408267E+03  0.10017213364E+03  0.12700000000E+01 0.  1.
          4   -1    0    0  501    0  0.00000000000E+00 -0.00000000000E+00 -0.38979053166E+02  0.38999736996E+02  0.12700000000E+01 0.  1.
         25    2    1    2    0    0  0.00000000000E+00  0.00000000000E+00  0.61185029505E+02  0.13917187063E+03  0.12500080696E+03 0.  0.
    9000005    1    3    3    0    0 -0.51622158232E+02  0.19587987687E+02 -0.19963506828E+01  0.55258681654E+02  0.10000000000E+01 0.  0.
    9000005    1    3    3    0    0  0.51622158232E+02 -0.19587987687E+02  0.63181380188E+02  0.83913188979E+02  0.10000000000E+01 0.  0.
<mgrwt>
<rscale>  0 0.12500081E+03</rscale>
<asrwt>0</asrwt>
<pdfrwt beam="2">  1        4 0.59989878E-02 0.12500081E+03</pdfrwt>
<pdfrwt beam="1">  1       -4 0.15412069E-01 0.12500081E+03</pdfrwt>
<totfact> 0.10150593E+04</totfact>
</mgrwt>
</event>
<event>
 5    1  0.3337119E-002  0.1249949E+03  0.7818608E-02  0.1235077E+00
         -4   -1    0    0    0  501 -0.00000000000E+00  0.00000000000E+00  0.18610726524E+02  0.18654008732E+02  0.12700000000E+01 0.  1.
          4   -1    0    0  501    0  0.00000000000E+00 -0.00000000000E+00 -0.20958646370E+03  0.20959031148E+03  0.12700000000E+01 0.  1.
         25    2    1    2    0    0  0.00000000000E+00  0.00000000000E+00 -0.19097573717E+03  0.22824432021E+03  0.12499494997E+03 0.  0.
    9000005    1    3    3    0    0  0.38079242267E+02 -0.45724525737E+02 -0.60641169683E+02  0.84965360036E+02  0.10000000000E+01 0.  0.
    9000005    1    3    3    0    0 -0.38079242267E+02  0.45724525737E+02 -0.13033456749E+03  0.14327896017E+03  0.10000000000E+01 0.  0.
<mgrwt>
<rscale>  0 0.12499495E+03</rscale>
<asrwt>0</asrwt>
<pdfrwt beam="2">  1        4 0.32247695E-01 0.12499495E+03</pdfrwt>
<pdfrwt beam="1">  1       -4 0.28668142E-02 0.12499495E+03</pdfrwt>
<totfact> 0.85589560E+03</totfact>
</mgrwt>
</event>
<event>
 5    1  0.3337119E-002  0.1250009E+03  0.7818608E-02  0.1235068E+00
         -4   -1    0    0    0  501 -0.00000000000E+00  0.00000000000E+00  0.75758384288E+02  0.75769028566E+02  0.12700000000E+01 0. -1.
          4   -1    0    0  501    0  0.00000000000E+00 -0.00000000000E+00 -0.51540591984E+02  0.51556236501E+02  0.12700000000E+01 0. -1.
         25    2    1    2    0    0  0.00000000000E+00  0.00000000000E+00  0.24217792303E+02  0.12732526507E+03  0.12500088664E+03 0.  0.
    9000005    1    3    3    0    0  0.33934715112E+02  0.34483980795E+02 -0.28181593638E+02  0.55999214648E+02  0.10000000000E+01 0.  0.
    9000005    1    3    3    0    0 -0.33934715112E+02 -0.34483980795E+02  0.52399385942E+02  0.71326050419E+02  0.10000000000E+01 0.  0.
<mgrwt>
<rscale>  0 0.12500089E+03</rscale>
<asrwt>0</asrwt>
<pdfrwt beam="2">  1        4 0.79313440E-02 0.12500089E+03</pdfrwt>
<pdfrwt beam="1">  1       -4 0.11657158E-01 0.12500089E+03</pdfrwt>
<totfact> 0.10401878E+04</totfact>
</mgrwt>
</event>
<event>
 5    1  0.3337119E-002  0.1249885E+03  0.7818608E-02  0.1235087E+00
          4   -1    0    0  501    0  0.00000000000E+00  0.00000000000E+00  0.16396336378E+03  0.16396828219E+03  0.12700000000E+01 0. -1.
         -4   -1    0    0    0  501 -0.00000000000E+00 -0.00000000000E+00 -0.23797339751E+02  0.23831203898E+02  0.12700000000E+01 0. -1.
         25    2    1    2    0    0  0.00000000000E+00  0.00000000000E+00  0.14016602403E+03  0.18779948609E+03  0.12498853020E+03 0.  0.
    9000005    1    3    3    0    0  0.38133525433E+02 -0.32222984046E+02  0.13621985508E+02  0.51759491419E+02  0.10000000000E+01 0.  0.
    9000005    1    3    3    0    0 -0.38133525433E+02  0.32222984046E+02  0.12654403853E+03  0.13603999467E+03  0.10000000000E+01 0.  0.
<mgrwt>
<rscale>  0 0.12498853E+03</rscale>
<asrwt>0</asrwt>
<pdfrwt beam="1">  1        4 0.25228115E-01 0.12498853E+03</pdfrwt>
<pdfrwt beam="2">  1       -4 0.36641127E-02 0.12498853E+03</pdfrwt>
<totfact> 0.92255319E+03</totfact>
</mgrwt>
</event>
<event>
 5    1  0.3337119E-002  0.1250011E+03  0.7818608E-02  0.1235068E+00
         -4   -1    0    0    0  501 -0.00000000000E+00  0.00000000000E+00  0.55916290500E+02  0.55930711092E+02  0.12700000000E+01 0.  1.
          4   -1    0    0  501    0  0.00000000000E+00 -0.00000000000E+00 -0.69830885054E+02  0.69842432714E+02  0.12700000000E+01 0.  1.
         25    2    1    2    0    0  0.00000000000E+00  0.00000000000E+00 -0.13914594554E+02  0.12577314381E+03  0.12500107104E+03 0.  0.
    9000005    1    3    3    0    0  0.53487808471E+02  0.19222798872E+02 -0.33095728007E+02  0.65778331264E+02  0.10000000000E+01 0.  0.
    9000005    1    3    3    0    0 -0.53487808471E+02 -0.19222798872E+02  0.19181133452E+02  0.59994812543E+02  0.10000000000E+01 0.  0.
<mgrwt>
<rscale>  0 0.12500107E+03</rscale>
<asrwt>0</asrwt>
<pdfrwt beam="2">  1        4 0.10745211E-01 0.12500107E+03</pdfrwt>
<pdfrwt beam="1">  1       -4 0.86045038E-02 0.12500107E+03</pdfrwt>
<totfact> 0.10435683E+04</totfact>
</mgrwt>
</event>
<event>
 5    1  0.3337119E-002  0.1250195E+03  0.7818608E-02  0.1235039E+00
          4   -1    0    0  501    0  0.00000000000E+00  0.00000000000E+00  0.28606153252E+02  0.28634330861E+02  0.12700000000E+01 0. -1.
         -4   -1    0    0    0  501 -0.00000000000E+00 -0.00000000000E+00 -0.13649704719E+03  0.13650295525E+03  0.12700000000E+01 0. -1.
         25    2    1    2    0    0  0.00000000000E+00  0.00000000000E+00 -0.10789089394E+03  0.16513728611E+03  0.12501951155E+03 0.  0.
    9000005    1    3    3    0    0 -0.88332351801E+01 -0.41963289431E+02  0.61155892600E+01  0.43328329481E+02  0.10000000000E+01 0.  0.
    9000005    1    3    3    0    0  0.88332351801E+01  0.41963289431E+02 -0.11400648320E+03  0.12180895663E+03  0.10000000000E+01 0.  0.
<mgrwt>
<rscale>  0 0.12501951E+03</rscale>
<asrwt>0</asrwt>
<pdfrwt beam="1">  1        4 0.44035687E-02 0.12501951E+03</pdfrwt>
<pdfrwt beam="2">  1       -4 0.21002167E-01 0.12501951E+03</pdfrwt>
<totfact> 0.96319174E+03</totfact>
</mgrwt>
</event>
<event>
 5    1  0.3337119E-002  0.1249950E+03  0.7818608E-02  0.1235077E+00
          4   -1    0    0  501    0  0.00000000000E+00  0.00000000000E+00  0.16302262574E+02  0.16351656339E+02  0.12700000000E+01 0.  1.
         -4   -1    0    0    0  501 -0.00000000000E+00 -0.00000000000E+00 -0.23918119979E+03  0.23918457148E+03  0.12700000000E+01 0.  1.
         25    2    1    2    0    0  0.00000000000E+00  0.00000000000E+00 -0.22287893721E+03  0.25553622781E+03  0.12499497219E+03 0.  0.
    9000005    1    3    3    0    0 -0.12337476145E+02 -0.60701148144E+02 -0.94569612646E+02  0.11305420974E+03  0.10000000000E+01 0.  0.
    9000005    1    3    3    0    0  0.12337476145E+02  0.60701148144E+02 -0.12830932457E+03  0.14248201808E+03  0.10000000000E+01 0.  0.
<mgrwt>
<rscale>  0 0.12499497E+03</rscale>
<asrwt>0</asrwt>
<pdfrwt beam="1">  1        4 0.25120995E-02 0.12499497E+03</pdfrwt>
<pdfrwt beam="2">  1       -4 0.36801164E-01 0.12499497E+03</pdfrwt>
<totfact> 0.81545728E+03</totfact>
</mgrwt>
</event>
<event>
 5    1  0.3337119E-002  0.1249963E+03  0.7818608E-02  0.1235075E+00
          4   -1    0    0  501    0  0.00000000000E+00  0.00000000000E+00  0.29782842831E+03  0.29783113606E+03  0.12700000000E+01 0. -1.
         -4   -1    0    0    0  501 -0.00000000000E+00 -0.00000000000E+00 -0.13081470248E+02  0.13142973935E+02  0.12700000000E+01 0. -1.
         25    2    1    2    0    0  0.00000000000E+00  0.00000000000E+00  0.28474695806E+03  0.31097410999E+03  0.12499626780E+03 0.  0.
    9000005    1    3    3    0    0 -0.59804962613E+02 -0.57523714239E+01  0.18512524567E+03  0.19463319325E+03  0.10000000000E+01 0.  0.
    9000005    1    3    3    0    0  0.59804962613E+02  0.57523714239E+01  0.99621712386E+02  0.11634091674E+03  0.10000000000E+01 0.  0.
<mgrwt>
<rscale>  0 0.12499627E+03</rscale>
<asrwt>0</asrwt>
<pdfrwt beam="1">  1        4 0.45824694E-01 0.12499627E+03</pdfrwt>
<pdfrwt beam="2">  1       -4 0.20174734E-02 0.12499627E+03</pdfrwt>
<totfact> 0.74248717E+03</totfact>
</mgrwt>
</event>
<event>
 5    1  0.3337119E-002  0.1250022E+03  0.7818608E-02  0.1235066E+00
         -4   -1    0    0    0  501 -0.00000000000E+00  0.00000000000E+00  0.14781900551E+03  0.14782446107E+03  0.12700000000E+01 0. -1.
          4   -1    0    0  501    0  0.00000000000E+00 -0.00000000000E+00 -0.26405604279E+02  0.26436127503E+02  0.12700000000E+01 0. -1.
         25    2    1    2    0    0  0.00000000000E+00  0.00000000000E+00  0.12141340123E+03  0.17426058857E+03  0.12500215490E+03 0.  0.
    9000005    1    3    3    0    0 -0.40815750348E+02 -0.36544686908E+02  0.18793319563E+02  0.57927786751E+02  0.10000000000E+01 0.  0.
    9000005    1    3    3    0    0  0.40815750348E+02  0.36544686908E+02  0.10262008167E+03  0.11633280182E+03  0.10000000000E+01 0.  0.
<mgrwt>
<rscale>  0 0.12500215E+03</rscale>
<asrwt>0</asrwt>
<pdfrwt beam="2">  1        4 0.40651683E-02 0.12500215E+03</pdfrwt>
<pdfrwt beam="1">  1       -4 0.22744153E-01 0.12500215E+03</pdfrwt>
<totfact> 0.94655861E+03</totfact>
</mgrwt>
</event>
<event>
 5    1  0.3337119E-002  0.1249627E+03  0.7818608E-02  0.1235128E+00
         -4   -1    0    0    0  501 -0.00000000000E+00  0.00000000000E+00  0.47844282574E+01  0.49501165390E+01  0.12700000000E+01 0. -1.
          4   -1    0    0  501    0  0.00000000000E+00 -0.00000000000E+00 -0.80190952819E+03  0.80191053385E+03  0.12700000000E+01 0. -1.
         25    2    1    2    0    0  0.00000000000E+00  0.00000000000E+00 -0.79712509993E+03  0.80686065039E+03  0.12496273127E+03 0.  0.
    9000005    1    3    3    0    0 -0.49718395598E+02 -0.11607256136E+02 -0.63103227290E+03  0.63309507714E+03  0.10000000000E+01 0.  0.
    9000005    1    3    3    0    0  0.49718395598E+02  0.11607256136E+02 -0.16609282704E+03  0.17376557326E+03  0.10000000000E+01 0.  0.
<mgrwt>
<rscale>  0 0.12496273E+03</rscale>
<asrwt>0</asrwt>
<pdfrwt beam="2">  1        4 0.12338341E+00 0.12496273E+03</pdfrwt>
<pdfrwt beam="1">  1       -4 0.74888913E-03 0.12496273E+03</pdfrwt>
<totfact> 0.37991228E+03</totfact>
</mgrwt>
</event>
<event>
 5    1  0.3337119E-002  0.1250008E+03  0.7818608E-02  0.1235068E+00
          4   -1    0    0  501    0  0.00000000000E+00  0.00000000000E+00  0.11678506809E+03  0.11679197331E+03  0.12700000000E+01 0. -1.
         -4   -1    0    0    0  501 -0.00000000000E+00 -0.00000000000E+00 -0.33428677286E+02  0.33452793083E+02  0.12700000000E+01 0. -1.
         25    2    1    2    0    0  0.00000000000E+00  0.00000000000E+00  0.83356390807E+02  0.15024476639E+03  0.12500080776E+03 0.  0.
    9000005    1    3    3    0    0 -0.27037412674E+02  0.29713961231E+02 -0.15856938945E+02  0.43201663034E+02  0.10000000000E+01 0.  0.
    9000005    1    3    3    0    0  0.27037412674E+02 -0.29713961231E+02  0.99213329752E+02  0.10704310336E+03  0.10000000000E+01 0.  0.
<mgrwt>
<rscale>  0 0.12500081E+03</rscale>
<asrwt>0</asrwt>
<pdfrwt beam="1">  1        4 0.17969320E-01 0.12500081E+03</pdfrwt>
<pdfrwt beam="2">  1       -4 0.51452597E-02 0.12500081E+03</pdfrwt>
<totfact> 0.99253126E+03</totfact>
</mgrwt>
</event>
<event>
 5    1  0.3337119E-002  0.1250046E+03  0.7818608E-02  0.1235062E+00
         -4   -1    0    0    0  501 -0.00000000000E+00  0.00000000000E+00  0.27264301860E+03  0.27264597649E+03  0.12700000000E+01 0.  1.
          4   -1    0    0  501    0  0.00000000000E+00 -0.00000000000E+00 -0.14297215561E+02  0.14353510818E+02  0.12700000000E+01 0.  1.
         25    2    1    2    0    0  0.00000000000E+00  0.00000000000E+00  0.25834580304E+03  0.28699948730E+03  0.12500460697E+03 0.  0.
    9000005    1    3    3    0    0  0.20663140747E+01  0.42271175714E+02  0.23474528321E+03  0.23853190549E+03  0.10000000000E+01 0.  0.
    9000005    1    3    3    0    0 -0.20663140747E+01 -0.42271175714E+02  0.23600519838E+02  0.48467581813E+02  0.10000000000E+01 0.  0.
<mgrwt>
<rscale>  0 0.12500461E+03</rscale>
<asrwt>0</asrwt>
<pdfrwt beam="2">  1        4 0.22041298E-02 0.12500461E+03</pdfrwt>
<pdfrwt beam="1">  1       -4 0.41949633E-01 0.12500461E+03</pdfrwt>
<totfact> 0.77251179E+03</totfact>
</mgrwt>
</event>
<event>
 5    1  0.3337119E-002  0.1250015E+03  0.7818608E-02  0.1235067E+00
         -4   -1    0    0    0  501 -0.00000000000E+00  0.00000000000E+00  0.13711604318E+02  0.13770293859E+02  0.12700000000E+01 0. -1.
          4   -1    0    0  501    0  0.00000000000E+00 -0.00000000000E+00 -0.28422478814E+03  0.28422762550E+03  0.12700000000E+01 0. -1.
         25    2    1    2    0    0  0.00000000000E+00  0.00000000000E+00 -0.27051318383E+03  0.29799791936E+03  0.12500150926E+03 0.  0.
    9000005    1    3    3    0    0  0.33159741630E+02  0.30171251675E+02 -0.31466332535E+02  0.54781410860E+02  0.10000000000E+01 0.  0.
    9000005    1    3    3    0    0 -0.33159741630E+02 -0.30171251675E+02 -0.23904685129E+03  0.24321650850E+03  0.10000000000E+01 0.  0.
<mgrwt>
<rscale>  0 0.12500151E+03</rscale>
<asrwt>0</asrwt>
<pdfrwt beam="2">  1        4 0.43731619E-01 0.12500151E+03</pdfrwt>
<pdfrwt beam="1">  1       -4 0.21142106E-02 0.12500151E+03</pdfrwt>
<totfact> 0.75848125E+03</totfact>
</mgrwt>
</event>
<event>
 5    1  0.3337119E-002  0.1249930E+03  0.7818608E-02  0.1235080E+00
          4   -1    0    0  501    0  0.00000000000E+00  0.00000000000E+00  0.11829513000E+03  0.11830194707E+03  0.12700000000E+01 0. -1.
         -4   -1    0    0    0  501 -0.00000000000E+00 -0.00000000000E+00 -0.32997557898E+02  0.33021988542E+02  0.12700000000E+01 0. -1.
         25    2    1    2    0    0  0.00000000000E+00  0.00000000000E+00  0.85297572099E+02  0.15132393561E+03  0.12499303054E+03 0.  0.
    9000005    1    3    3    0    0 -0.35165734856E+02  0.49706598592E+02  0.59660141822E+02  0.85250849695E+02  0.10000000000E+01 0.  0.
    9000005    1    3    3    0    0  0.35165734856E+02 -0.49706598592E+02  0.25637430277E+02  0.66073085919E+02  0.10000000000E+01 0.  0.
<mgrwt>
<rscale>  0 0.12499303E+03</rscale>
<asrwt>0</asrwt>
<pdfrwt beam="1">  1        4 0.18201655E-01 0.12499303E+03</pdfrwt>
<pdfrwt beam="2">  1       -4 0.50789509E-02 0.12499303E+03</pdfrwt>
<totfact> 0.99055977E+03</totfact>
</mgrwt>
</event>
<event>
 5    1  0.3337119E-002  0.1249972E+03  0.7818608E-02  0.1235074E+00
          4   -1    0    0  501    0  0.00000000000E+00  0.00000000000E+00  0.19551170953E+03  0.19551583430E+03  0.12700000000E+01 0.  1.
         -4   -1    0    0    0  501 -0.00000000000E+00 -0.00000000000E+00 -0.19954207893E+02  0.19994582082E+02  0.12700000000E+01 0.  1.
         25    2    1    2    0    0  0.00000000000E+00  0.00000000000E+00  0.17555750164E+03  0.21551041639E+03  0.12499721273E+03 0.  0.
    9000005    1    3    3    0    0 -0.93628719075E+01 -0.53628702554E+00 -0.18742465810E+02  0.20981682458E+02  0.10000000000E+01 0.  0.
    9000005    1    3    3    0    0  0.93628719075E+01  0.53628702554E+00  0.19429996745E+03  0.19452873393E+03  0.10000000000E+01 0.  0.
<mgrwt>
<rscale>  0 0.12499721E+03</rscale>
<asrwt>0</asrwt>
<pdfrwt beam="1">  1        4 0.30082148E-01 0.12499721E+03</pdfrwt>
<pdfrwt beam="2">  1       -4 0.30733011E-02 0.12499721E+03</pdfrwt>
<totfact> 0.87589245E+03</totfact>
</mgrwt>
</event>
<event>
 5    1  0.3337119E-002  0.1250079E+03  0.7818608E-02  0.1235057E+00
         -4   -1    0    0    0  501 -0.00000000000E+00  0.00000000000E+00  0.21046565248E+03  0.21046948418E+03  0.12700000000E+01 0. -1.
          4   -1    0    0  501    0  0.00000000000E+00 -0.00000000000E+00 -0.18536654670E+02  0.18580109428E+02  0.12700000000E+01 0. -1.
         25    2    1    2    0    0  0.00000000000E+00  0.00000000000E+00  0.19192899781E+03  0.22904959361E+03  0.12500790429E+03 0.  0.
    9000005    1    3    3    0    0 -0.30460357405E+01  0.61510656783E+02  0.76495292110E+02  0.98210839252E+02  0.10000000000E+01 0.  0.
    9000005    1    3    3    0    0  0.30460357405E+01 -0.61510656783E+02  0.11543370570E+03  0.13083875436E+03  0.10000000000E+01 0.  0.
<mgrwt>
<rscale>  0 0.12500790E+03</rscale>
<asrwt>0</asrwt>
<pdfrwt beam="2">  1        4 0.28554305E-02 0.12500790E+03</pdfrwt>
<pdfrwt beam="1">  1       -4 0.32382968E-01 0.12500790E+03</pdfrwt>
<totfact> 0.85440676E+03</totfact>
</mgrwt>
</event>
<event>
 5    1  0.3337119E-002  0.1249993E+03  0.7818608E-02  0.1235070E+00
         -4   -1    0    0    0  501 -0.00000000000E+00  0.00000000000E+00  0.46815531162E+03  0.46815703423E+03  0.12700000000E+01 0. -1.
          4   -1    0    0  501    0  0.00000000000E+00 -0.00000000000E+00 -0.82937506190E+01  0.83904230721E+01  0.12700000000E+01 0. -1.
         25    2    1    2    0    0  0.00000000000E+00  0.00000000000E+00  0.45986156100E+03  0.47654745730E+03  0.12499929509E+03 0.  0.
    9000005    1    3    3    0    0 -0.50677405790E+02  0.73686808224E-01  0.90530236718E+02  0.10375417412E+03  0.10000000000E+01 0.  0.
    9000005    1    3    3    0    0  0.50677405790E+02 -0.73686808224E-01  0.36933132429E+03  0.37279328318E+03  0.10000000000E+01 0.  0.
<mgrwt>
<rscale>  0 0.12499930E+03</rscale>
<asrwt>0</asrwt>
<pdfrwt beam="2">  1        4 0.12835303E-02 0.12499930E+03</pdfrwt>
<pdfrwt beam="1">  1       -4 0.72031474E-01 0.12499930E+03</pdfrwt>
<totfact> 0.57731932E+03</totfact>
</mgrwt>
</event>
<event>
 5    1  0.3337119E-002  0.1250019E+03  0.7818608E-02  0.1235066E+00
         -4   -1    0    0    0  501 -0.00000000000E+00  0.00000000000E+00  0.18320991500E+03  0.18321431673E+03  0.12700000000E+01 0. -1.
          4   -1    0    0  501    0  0.00000000000E+00 -0.00000000000E+00 -0.21298243093E+02  0.21336074119E+02  0.12700000000E+01 0. -1.
         25    2    1    2    0    0  0.00000000000E+00  0.00000000000E+00  0.16191167191E+03  0.20455039085E+03  0.12500189157E+03 0.  0.
    9000005    1    3    3    0    0  0.47420951374E+02  0.24594683617E+02  0.13402404630E+03  0.14428128804E+03  0.10000000000E+01 0.  0.
    9000005    1    3    3    0    0 -0.47420951374E+02 -0.24594683617E+02  0.27887625607E+02  0.60269102809E+02  0.10000000000E+01 0.  0.
<mgrwt>
<rscale>  0 0.12500189E+03</rscale>
<asrwt>0</asrwt>
<pdfrwt beam="2">  1        4 0.32799014E-02 0.12500189E+03</pdfrwt>
<pdfrwt beam="1">  1       -4 0.28189390E-01 0.12500189E+03</pdfrwt>
<totfact> 0.89369898E+03</totfact>
</mgrwt>
</event>
<event>
 5    1  0.3337119E-002  0.1249973E+03  0.7818608E-02  0.1235073E+00
          4   -1    0    0  501    0  0.00000000000E+00  0.00000000000E+00  0.74181478517E+01  0.75260758400E+01  0.12700000000E+01 0.  1.
         -4   -1    0    0    0  501 -0.00000000000E+00 -0.00000000000E+00 -0.52264614305E+03  0.52264768606E+03  0.12700000000E+01 0.  1.
         25    2    1    2    0    0  0.00000000000E+00  0.00000000000E+00 -0.51522799520E+03  0.53017376190E+03  0.12499732306E+03 0.  0.
    9000005    1    3    3    0    0 -0.35905502200E+01 -0.62382648372E+02 -0.25434001314E+03  0.26190519116E+03  0.10000000000E+01 0.  0.
    9000005    1    3    3    0    0  0.35905502200E+01  0.62382648372E+02 -0.26088798205E+03  0.26826857074E+03  0.10000000000E+01 0.  0.
<mgrwt>
<rscale>  0 0.12499732E+03</rscale>
<asrwt>0</asrwt>
<pdfrwt beam="1">  1        4 0.11496748E-02 0.12499732E+03</pdfrwt>
<pdfrwt beam="2">  1       -4 0.80415491E-01 0.12499732E+03</pdfrwt>
<totfact> 0.53600133E+03</totfact>
</mgrwt>
</event>
<event>
 5    1  0.3337119E-002  0.1249990E+03  0.7818608E-02  0.1235071E+00
          4   -1    0    0  501    0  0.00000000000E+00  0.00000000000E+00  0.28641399493E+03  0.28641681060E+03  0.12700000000E+01 0.  1.
         -4   -1    0    0    0  501 -0.00000000000E+00 -0.00000000000E+00 -0.13605806579E+02  0.13664950519E+02  0.12700000000E+01 0.  1.
         25    2    1    2    0    0  0.00000000000E+00  0.00000000000E+00  0.27280818835E+03  0.30008176112E+03  0.12499902289E+03 0.  0.
    9000005    1    3    3    0    0 -0.21803005451E+02  0.30060381346E+02  0.15743320895E+02  0.40346619761E+02  0.10000000000E+01 0.  0.
    9000005    1    3    3    0    0  0.21803005451E+02 -0.30060381346E+02  0.25706486746E+03  0.25973514136E+03  0.10000000000E+01 0.  0.
<mgrwt>
<rscale>  0 0.12499902E+03</rscale>
<asrwt>0</asrwt>
<pdfrwt beam="1">  1        4 0.44068451E-01 0.12499902E+03</pdfrwt>
<pdfrwt beam="2">  1       -4 0.20979674E-02 0.12499902E+03</pdfrwt>
<totfact> 0.75590227E+03</totfact>
</mgrwt>
</event>
<event>
 5    1  0.3337119E-002  0.1250066E+03  0.7818608E-02  0.1235059E+00
          4   -1    0    0  501    0  0.00000000000E+00  0.00000000000E+00  0.19849117199E+02  0.19889704714E+02  0.12700000000E+01 0. -1.
         -4   -1    0    0    0  501 -0.00000000000E+00 -0.00000000000E+00 -0.19657438497E+03  0.19657848744E+03  0.12700000000E+01 0. -1.
         25    2    1    2    0    0  0.00000000000E+00  0.00000000000E+00 -0.17672526777E+03  0.21646819216E+03  0.12500663162E+03 0.  0.
    9000005    1    3    3    0    0 -0.39399048570E+02 -0.89395156859E+01 -0.57958958177E+01  0.40826368651E+02  0.10000000000E+01 0.  0.
    9000005    1    3    3    0    0  0.39399048570E+02  0.89395156859E+01 -0.17092937195E+03  0.17564182351E+03  0.10000000000E+01 0.  0.
<mgrwt>
<rscale>  0 0.12500663E+03</rscale>
<asrwt>0</asrwt>
<pdfrwt beam="1">  1        4 0.30571482E-02 0.12500663E+03</pdfrwt>
<pdfrwt beam="2">  1       -4 0.30245649E-01 0.12500663E+03</pdfrwt>
<totfact> 0.87417362E+03</totfact>
</mgrwt>
</event>
<event>
 5    1  0.3337119E-002  0.1250167E+03  0.7818608E-02  0.1235043E+00
          4   -1    0    0  501    0  0.00000000000E+00  0.00000000000E+00  0.82111096804E+03  0.82111195019E+03  0.12700000000E+01 0. -1.
         -4   -1    0    0    0  501 -0.00000000000E+00 -0.00000000000E+00 -0.46728064683E+01  0.48423155917E+01  0.12700000000E+01 0. -1.
         25    2    1    2    0    0  0.00000000000E+00  0.00000000000E+00  0.81643816158E+03  0.82595426578E+03  0.12501670882E+03 0.  0.
    9000005    1    3    3    0    0  0.12121594561E+02 -0.22151124914E+02  0.78594321856E+03  0.78634938048E+03  0.10000000000E+01 0.  0.
    9000005    1    3    3    0    0 -0.12121594561E+02  0.22151124914E+02  0.30494943016E+02  0.39604885295E+02  0.10000000000E+01 0.  0.
<mgrwt>
<rscale>  0 0.12501671E+03</rscale>
<asrwt>0</asrwt>
<pdfrwt beam="1">  1        4 0.12633778E+00 0.12501671E+03</pdfrwt>
<pdfrwt beam="2">  1       -4 0.73200858E-03 0.12501671E+03</pdfrwt>
<totfact> 0.37118464E+03</totfact>
</mgrwt>
</event>
<event>
 5    1  0.3337119E-002  0.1250011E+03  0.7818608E-02  0.1235068E+00
          4   -1    0    0  501    0  0.00000000000E+00  0.00000000000E+00  0.14426075750E+02  0.14481870098E+02  0.12700000000E+01 0.  1.
         -4   -1    0    0    0  501 -0.00000000000E+00 -0.00000000000E+00 -0.27020185834E+03  0.27020484295E+03  0.12700000000E+01 0.  1.
         25    2    1    2    0    0  0.00000000000E+00  0.00000000000E+00 -0.25577578259E+03  0.28468671305E+03  0.12500109449E+03 0.  0.
    9000005    1    3    3    0    0  0.38915131032E+02  0.42882881599E+02 -0.18139589771E+03  0.19041743792E+03  0.10000000000E+01 0.  0.
    9000005    1    3    3    0    0 -0.38915131032E+02 -0.42882881599E+02 -0.74379884883E+02  0.94269275126E+02  0.10000000000E+01 0.  0.
<mgrwt>
<rscale>  0 0.12500109E+03</rscale>
<asrwt>0</asrwt>
<pdfrwt beam="1">  1        4 0.22239179E-02 0.12500109E+03</pdfrwt>
<pdfrwt beam="2">  1       -4 0.41574035E-01 0.12500109E+03</pdfrwt>
<totfact> 0.77558872E+03</totfact>
</mgrwt>
</event>
<event>
 5    1  0.3337119E-002  0.1249842E+03  0.7818608E-02  0.1235094E+00
         -4   -1    0    0    0  501 -0.00000000000E+00  0.00000000000E+00  0.20163997075E+03  0.20164397016E+03  0.12700000000E+01 0. -1.
          4   -1    0    0  501    0  0.00000000000E+00 -0.00000000000E+00 -0.19342497081E+02  0.19384145411E+02  0.12700000000E+01 0. -1.
         25    2    1    2    0    0  0.00000000000E+00  0.00000000000E+00  0.18229747367E+03  0.22102811557E+03  0.12498423488E+03 0.  0.
    9000005    1    3    3    0    0  0.10914355665E+02  0.40239903981E+02  0.88466864951E+01  0.42633752989E+02  0.10000000000E+01 0.  0.
    9000005    1    3    3    0    0 -0.10914355665E+02 -0.40239903981E+02  0.17345078717E+03  0.17839436259E+03  0.10000000000E+01 0.  0.
<mgrwt>
<rscale>  0 0.12498423E+03</rscale>
<asrwt>0</asrwt>
<pdfrwt beam="2">  1        4 0.29792802E-02 0.12498423E+03</pdfrwt>
<pdfrwt beam="1">  1       -4 0.31025044E-01 0.12498423E+03</pdfrwt>
<totfact> 0.86736462E+03</totfact>
</mgrwt>
</event>
<event>
 5    1  0.3337119E-002  0.1249940E+03  0.7818608E-02  0.1235079E+00
          4   -1    0    0  501    0  0.00000000000E+00  0.00000000000E+00  0.95840370568E+01  0.96678160050E+01  0.12700000000E+01 0.  1.
         -4   -1    0    0    0  501 -0.00000000000E+00 -0.00000000000E+00 -0.40568155275E+03  0.40568354063E+03  0.12700000000E+01 0.  1.
         25    2    1    2    0    0  0.00000000000E+00  0.00000000000E+00 -0.39609751569E+03  0.41535135664E+03  0.12499402995E+03 0.  0.
    9000005    1    3    3    0    0  0.26591751962E+02 -0.55660089395E+02 -0.16486727079E+03  0.17603233737E+03  0.10000000000E+01 0.  0.
    9000005    1    3    3    0    0 -0.26591751962E+02  0.55660089395E+02 -0.23123024491E+03  0.23931901927E+03  0.10000000000E+01 0.  0.
<mgrwt>
<rscale>  0 0.12499403E+03</rscale>
<asrwt>0</asrwt>
<pdfrwt beam="1">  1        4 0.14810650E-02 0.12499403E+03</pdfrwt>
<pdfrwt beam="2">  1       -4 0.62419131E-01 0.12499403E+03</pdfrwt>
<totfact> 0.63094942E+03</totfact>
</mgrwt>
</event>
<event>
 5    1  0.3337119E-002  0.1249990E+03  0.7818608E-02  0.1235071E+00
          4   -1    0    0  501    0  0.00000000000E+00  0.00000000000E+00  0.25755419557E+02  0.25786712403E+02  0.12700000000E+01 0.  1.
         -4   -1    0    0    0  501 -0.00000000000E+00 -0.00000000000E+00 -0.15153856553E+03  0.15154388719E+03  0.12700000000E+01 0.  1.
         25    2    1    2    0    0  0.00000000000E+00  0.00000000000E+00 -0.12578314598E+03  0.17733059959E+03  0.12499896695E+03 0.  0.
    9000005    1    3    3    0    0 -0.48615777466E+02 -0.38181581562E+02 -0.49900331286E+02  0.79450425119E+02  0.10000000000E+01 0.  0.
    9000005    1    3    3    0    0  0.48615777466E+02  0.38181581562E+02 -0.75882814691E+02  0.97880174472E+02  0.10000000000E+01 0.  0.
<mgrwt>
<rscale>  0 0.12499897E+03</rscale>
<asrwt>0</asrwt>
<pdfrwt beam="1">  1        4 0.39651888E-02 0.12499897E+03</pdfrwt>
<pdfrwt beam="2">  1       -4 0.23316442E-01 0.12499897E+03</pdfrwt>
<totfact> 0.94101903E+03</totfact>
</mgrwt>
</event>
<event>
 5    1  0.3337119E-002  0.1249991E+03  0.7818608E-02  0.1235071E+00
          4   -1    0    0  501    0  0.00000000000E+00  0.00000000000E+00  0.44924782844E+03  0.44924962355E+03  0.12700000000E+01 0.  1.
         -4   -1    0    0    0  501 -0.00000000000E+00 -0.00000000000E+00 -0.86467694272E+01  0.87395378326E+01  0.12700000000E+01 0.  1.
         25    2    1    2    0    0  0.00000000000E+00  0.00000000000E+00  0.44060105902E+03  0.45798916138E+03  0.12499911495E+03 0.  0.
    9000005    1    3    3    0    0  0.22705652087E+02 -0.58159073850E+02  0.21048953127E+03  0.21955606865E+03  0.10000000000E+01 0.  0.
    9000005    1    3    3    0    0 -0.22705652087E+02  0.58159073850E+02  0.23011152775E+03  0.23843309274E+03  0.10000000000E+01 0.  0.
<mgrwt>
<rscale>  0 0.12499911E+03</rscale>
<asrwt>0</asrwt>
<pdfrwt beam="1">  1        4 0.69122356E-01 0.12499911E+03</pdfrwt>
<pdfrwt beam="2">  1       -4 0.13375457E-02 0.12499911E+03</pdfrwt>
<totfact> 0.59279026E+03</totfact>
</mgrwt>
</event>
<event>
 5    1  0.3337119E-002  0.1250055E+03  0.7818608E-02  0.1235061E+00
          4   -1    0    0  501    0  0.00000000000E+00  0.00000000000E+00  0.19861053983E+03  0.19861460025E+03  0.12700000000E+01 0. -1.
         -4   -1    0    0    0  501 -0.00000000000E+00 -0.00000000000E+00 -0.19644839875E+02  0.19685848564E+02  0.12700000000E+01 0. -1.
         25    2    1    2    0    0  0.00000000000E+00  0.00000000000E+00  0.17896569995E+03  0.21830044881E+03  0.12500545664E+03 0.  0.
    9000005    1    3    3    0    0 -0.42318578752E+02  0.21118442994E+02  0.16082070313E+03  0.16763397418E+03  0.10000000000E+01 0.  0.
    9000005    1    3    3    0    0  0.42318578752E+02 -0.21118442994E+02  0.18144996819E+02  0.50666474632E+02  0.10000000000E+01 0.  0.
<mgrwt>
<rscale>  0 0.12500546E+03</rscale>
<asrwt>0</asrwt>
<pdfrwt beam="1">  1        4 0.30558936E-01 0.12500546E+03</pdfrwt>
<pdfrwt beam="2">  1       -4 0.30257498E-02 0.12500546E+03</pdfrwt>
<totfact> 0.87127375E+03</totfact>
</mgrwt>
</event>
<event>
 5    1  0.3337119E-002  0.1250000E+03  0.7818608E-02  0.1235069E+00
          4   -1    0    0  501    0  0.00000000000E+00  0.00000000000E+00  0.23364803241E+03  0.23365148394E+03  0.12700000000E+01 0.  1.
         -4   -1    0    0    0  501 -0.00000000000E+00 -0.00000000000E+00 -0.16690832197E+02  0.16739079408E+02  0.12700000000E+01 0.  1.
         25    2    1    2    0    0  0.00000000000E+00  0.00000000000E+00  0.21695720021E+03  0.25039056335E+03  0.12500002997E+03 0.  0.
    9000005    1    3    3    0    0 -0.13723990272E+02  0.27521585883E+02  0.21745050376E+03  0.21961672792E+03  0.10000000000E+01 0.  0.
    9000005    1    3    3    0    0  0.13723990272E+02 -0.27521585883E+02 -0.49330354812E+00  0.30773835427E+02  0.10000000000E+01 0.  0.
<mgrwt>
<rscale>  0 0.12500003E+03</rscale>
<asrwt>0</asrwt>
<pdfrwt beam="1">  1        4 0.35949827E-01 0.12500003E+03</pdfrwt>
<pdfrwt beam="2">  1       -4 0.25717972E-02 0.12500003E+03</pdfrwt>
<totfact> 0.82273757E+03</totfact>
</mgrwt>
</event>
<event>
 5    1  0.3337119E-002  0.1249994E+03  0.7818608E-02  0.1235070E+00
         -4   -1    0    0    0  501 -0.00000000000E+00  0.00000000000E+00  0.46974774329E+02  0.46991938918E+02  0.12700000000E+01 0.  1.
          4   -1    0    0  501    0  0.00000000000E+00 -0.00000000000E+00 -0.83118359980E+02  0.83128061843E+02  0.12700000000E+01 0.  1.
         25    2    1    2    0    0  0.00000000000E+00  0.00000000000E+00 -0.36143585651E+02  0.13012000076E+03  0.12499942326E+03 0.  0.
    9000005    1    3    3    0    0 -0.57983295157E+02 -0.15417758586E+02 -0.36264693918E+02  0.70113463914E+02  0.10000000000E+01 0.  0.
    9000005    1    3    3    0    0  0.57983295157E+02  0.15417758586E+02  0.12110826741E+00  0.60006536847E+02  0.10000000000E+01 0.  0.
<mgrwt>
<rscale>  0 0.12499942E+03</rscale>
<asrwt>0</asrwt>
<pdfrwt beam="2">  1        4 0.12789507E-01 0.12499942E+03</pdfrwt>
<pdfrwt beam="1">  1       -4 0.72289550E-02 0.12499942E+03</pdfrwt>
<totfact> 0.10342076E+04</totfact>
</mgrwt>
</event>
<event>
 5    1  0.3337119E-002  0.1249968E+03  0.7818608E-02  0.1235074E+00
         -4   -1    0    0    0  501 -0.00000000000E+00  0.00000000000E+00  0.41599795893E+02  0.41619177290E+02  0.12700000000E+01 0.  1.
          4   -1    0    0  501    0  0.00000000000E+00 -0.00000000000E+00 -0.93850346111E+02  0.93858938654E+02  0.12700000000E+01 0.  1.
         25    2    1    2    0    0  0.00000000000E+00  0.00000000000E+00 -0.52250550219E+02  0.13547811594E+03  0.12499679957E+03 0.  0.
    9000005    1    3    3    0    0  0.51380945093E+00 -0.30028926850E+02 -0.85520496079E+02  0.90646322030E+02  0.10000000000E+01 0.  0.
    9000005    1    3    3    0    0 -0.51380945093E+00  0.30028926850E+02  0.33269945861E+02  0.44831793914E+02  0.10000000000E+01 0.  0.
<mgrwt>
<rscale>  0 0.12499680E+03</rscale>
<asrwt>0</asrwt>
<pdfrwt beam="2">  1        4 0.14440667E-01 0.12499680E+03</pdfrwt>
<pdfrwt beam="1">  1       -4 0.64021204E-02 0.12499680E+03</pdfrwt>
<totfact> 0.10228741E+04</totfact>
</mgrwt>
</event>
<event>
 5    1  0.3337119E-002  0.1250010E+03  0.7818608E-02  0.1235068E+00
         -4   -1    0    0    0  501 -0.00000000000E+00  0.00000000000E+00  0.16389597192E+02  0.16438728543E+02  0.12700000000E+01 0.  1.
          4   -1    0    0  501    0  0.00000000000E+00 -0.00000000000E+00 -0.23793351633E+03  0.23793690570E+03  0.12700000000E+01 0.  1.
         25    2    1    2    0    0  0.00000000000E+00  0.00000000000E+00 -0.22154391914E+03  0.25437563424E+03  0.12500102075E+03 0.  0.
    9000005    1    3    3    0    0 -0.33469142221E+02 -0.51102265928E+02 -0.83952638859E+02  0.10383000836E+03  0.10000000000E+01 0.  0.
    9000005    1    3    3    0    0  0.33469142221E+02  0.51102265928E+02 -0.13759128028E+03  0.15054562589E+03  0.10000000000E+01 0.  0.
<mgrwt>
<rscale>  0 0.12500102E+03</rscale>
<asrwt>0</asrwt>
<pdfrwt beam="2">  1        4 0.36609194E-01 0.12500102E+03</pdfrwt>
<pdfrwt beam="1">  1       -4 0.25255167E-02 0.12500102E+03</pdfrwt>
<totfact> 0.81700041E+03</totfact>
</mgrwt>
</event>
<event>
 5    1  0.3337119E-002  0.1250053E+03  0.7818608E-02  0.1235061E+00
         -4   -1    0    0    0  501 -0.00000000000E+00  0.00000000000E+00  0.73701830867E+01  0.74788032954E+01  0.12700000000E+01 0. -1.
          4   -1    0    0  501    0  0.00000000000E+00 -0.00000000000E+00 -0.52606507700E+03  0.52606660999E+03  0.12700000000E+01 0. -1.
         25    2    1    2    0    0  0.00000000000E+00  0.00000000000E+00 -0.51869489392E+03  0.53354541328E+03  0.12500526012E+03 0.  0.
    9000005    1    3    3    0    0 -0.47490254967E+02 -0.37158938578E+02 -0.32941169830E+03  0.33488681373E+03  0.10000000000E+01 0.  0.
    9000005    1    3    3    0    0  0.47490254967E+02  0.37158938578E+02 -0.18928319562E+03  0.19865859955E+03  0.10000000000E+01 0.  0.
<mgrwt>
<rscale>  0 0.12500526E+03</rscale>
<asrwt>0</asrwt>
<pdfrwt beam="2">  1        4 0.80941533E-01 0.12500526E+03</pdfrwt>
<pdfrwt beam="1">  1       -4 0.11423481E-02 0.12500526E+03</pdfrwt>
<totfact> 0.53346309E+03</totfact>
</mgrwt>
</event>
<event>
 5    1  0.3337119E-002  0.1250010E+03  0.7818608E-02  0.1235068E+00
         -4   -1    0    0    0  501 -0.00000000000E+00  0.00000000000E+00  0.10071756150E+03  0.10072556823E+03  0.12700000000E+01 0.  1.
          4   -1    0    0  501    0  0.00000000000E+00 -0.00000000000E+00 -0.38764875781E+02  0.38785673828E+02  0.12700000000E+01 0.  1.
         25    2    1    2    0    0  0.00000000000E+00  0.00000000000E+00  0.61952685721E+02  0.13951124206E+03  0.12500100556E+03 0.  0.
    9000005    1    3    3    0    0  0.30813374716E+01  0.51750397461E+02  0.69922844176E+02  0.87050573896E+02  0.10000000000E+01 0.  0.
    9000005    1    3    3    0    0 -0.30813374716E+01 -0.51750397461E+02 -0.79701584544E+01  0.52460668160E+02  0.10000000000E+01 0.  0.
<mgrwt>
<rscale>  0 0.12500101E+03</rscale>
<asrwt>0</asrwt>
<pdfrwt beam="2">  1        4 0.59660429E-02 0.12500101E+03</pdfrwt>
<pdfrwt beam="1">  1       -4 0.15497225E-01 0.12500101E+03</pdfrwt>
<totfact> 0.10143496E+04</totfact>
</mgrwt>
</event>
<event>
 5    1  0.3337119E-002  0.1250013E+03  0.7818608E-02  0.1235067E+00
          4   -1    0    0  501    0  0.00000000000E+00  0.00000000000E+00  0.14794063453E+03  0.14794608560E+03  0.12700000000E+01 0.  1.
         -4   -1    0    0    0  501 -0.00000000000E+00 -0.00000000000E+00 -0.26383514903E+02  0.26414063653E+02  0.12700000000E+01 0.  1.
         25    2    1    2    0    0  0.00000000000E+00  0.00000000000E+00  0.12155711963E+03  0.17436014926E+03  0.12500131326E+03 0.  0.
    9000005    1    3    3    0    0 -0.59630350866E+01  0.48495622835E+02  0.11512376417E+03  0.12506743900E+03  0.10000000000E+01 0.  0.
    9000005    1    3    3    0    0  0.59630350866E+01 -0.48495622835E+02  0.64333554550E+01  0.49292710252E+02  0.10000000000E+01 0.  0.
<mgrwt>
<rscale>  0 0.12500131E+03</rscale>
<asrwt>0</asrwt>
<pdfrwt beam="1">  1        4 0.22762867E-01 0.12500131E+03</pdfrwt>
<pdfrwt beam="2">  1       -4 0.40617715E-02 0.12500131E+03</pdfrwt>
<totfact> 0.94639370E+03</totfact>
</mgrwt>
</event>
<event>
 5    1  0.3337119E-002  0.1250082E+03  0.7818608E-02  0.1235057E+00
         -4   -1    0    0    0  501 -0.00000000000E+00  0.00000000000E+00  0.33751431694E+03  0.33751670631E+03  0.12700000000E+01 0.  1.
          4   -1    0    0  501    0  0.00000000000E+00 -0.00000000000E+00 -0.11537822931E+02  0.11607508690E+02  0.12700000000E+01 0.  1.
         25    2    1    2    0    0  0.00000000000E+00  0.00000000000E+00  0.32597649401E+03  0.34912421500E+03  0.12500817115E+03 0.  0.
    9000005    1    3    3    0    0 -0.52195371887E+02 -0.26047502030E+02  0.10035628860E+03  0.11608278886E+03  0.10000000000E+01 0.  0.
    9000005    1    3    3    0    0  0.52195371887E+02  0.26047502030E+02  0.22562020541E+03  0.23304142615E+03  0.10000000000E+01 0.  0.
<mgrwt>
<rscale>  0 0.12500817E+03</rscale>
<asrwt>0</asrwt>
<pdfrwt beam="2">  1        4 0.17805940E-02 0.12500817E+03</pdfrwt>
<pdfrwt beam="1">  1       -4 0.51930823E-01 0.12500817E+03</pdfrwt>
<totfact> 0.69808384E+03</totfact>
</mgrwt>
</event>
<event>
 5    1  0.3337119E-002  0.1249994E+03  0.7818608E-02  0.1235070E+00
          4   -1    0    0  501    0  0.00000000000E+00  0.00000000000E+00  0.34019253829E+03  0.34019490885E+03  0.12700000000E+01 0. -1.
         -4   -1    0    0    0  501 -0.00000000000E+00 -0.00000000000E+00 -0.11444829579E+02  0.11515078119E+02  0.12700000000E+01 0. -1.
         25    2    1    2    0    0  0.00000000000E+00  0.00000000000E+00  0.32874770871E+03  0.35170998697E+03  0.12499943580E+03 0.  0.
    9000005    1    3    3    0    0  0.27370479689E+02 -0.17922363226E+02  0.31418443669E+03  0.31588481210E+03  0.10000000000E+01 0.  0.
    9000005    1    3    3    0    0 -0.27370479689E+02  0.17922363226E+02  0.14563272022E+02  0.35825174863E+02  0.10000000000E+01 0.  0.
<mgrwt>
<rscale>  0 0.12499944E+03</rscale>
<asrwt>0</asrwt>
<pdfrwt beam="1">  1        4 0.52342901E-01 0.12499944E+03</pdfrwt>
<pdfrwt beam="2">  1       -4 0.17663291E-02 0.12499944E+03</pdfrwt>
<totfact> 0.69537711E+03</totfact>
</mgrwt>
</event>
<event>
 5    1  0.3337119E-002  0.1249967E+03  0.7818608E-02  0.1235074E+00
         -4   -1    0    0    0  501 -0.00000000000E+00  0.00000000000E+00  0.17150575046E+02  0.17197532509E+02  0.12700000000E+01 0.  1.
          4   -1    0    0  501    0  0.00000000000E+00 -0.00000000000E+00 -0.22738995839E+03  0.22739350492E+03  0.12700000000E+01 0.  1.
         25    2    1    2    0    0  0.00000000000E+00  0.00000000000E+00 -0.21023938335E+03  0.24459103742E+03  0.12499670907E+03 0.  0.
    9000005    1    3    3    0    0  0.39121737276E+02  0.47673914122E+02 -0.12485621023E+03  0.13926013661E+03  0.10000000000E+01 0.  0.
    9000005    1    3    3    0    0 -0.39121737276E+02 -0.47673914122E+02 -0.85383173114E+02  0.10533090081E+03  0.10000000000E+01 0.  0.
<mgrwt>
<rscale>  0 0.12499671E+03</rscale>
<asrwt>0</asrwt>
<pdfrwt beam="2">  1        4 0.34986953E-01 0.12499671E+03</pdfrwt>
<pdfrwt beam="1">  1       -4 0.26424351E-02 0.12499671E+03</pdfrwt>
<totfact> 0.83124427E+03</totfact>
</mgrwt>
</event>
<event>
 5    1  0.3337119E-002  0.1250001E+03  0.7818608E-02  0.1235069E+00
          4   -1    0    0  501    0  0.00000000000E+00  0.00000000000E+00  0.78708330981E+03  0.78708433441E+03  0.12700000000E+01 0.  1.
         -4   -1    0    0    0  501 -0.00000000000E+00 -0.00000000000E+00 -0.48806617081E+01  0.50431893390E+01  0.12700000000E+01 0.  1.
         25    2    1    2    0    0  0.00000000000E+00  0.00000000000E+00  0.78220264810E+03  0.79212752375E+03  0.12500012476E+03 0.  0.
    9000005    1    3    3    0    0  0.31384992961E+02  0.52312010987E+02  0.47698914347E+03  0.48087545920E+03  0.10000000000E+01 0.  0.
    9000005    1    3    3    0    0 -0.31384992961E+02 -0.52312010987E+02  0.30521350463E+03  0.31125206455E+03  0.10000000000E+01 0.  0.
<mgrwt>
<rscale>  0 0.12500012E+03</rscale>
<asrwt>0</asrwt>
<pdfrwt beam="1">  1        4 0.12110232E+00 0.12500012E+03</pdfrwt>
<pdfrwt beam="2">  1       -4 0.76345196E-03 0.12500012E+03</pdfrwt>
<totfact> 0.38618493E+03</totfact>
</mgrwt>
</event>
<event>
 5    1  0.3337119E-002  0.1249993E+03  0.7818608E-02  0.1235070E+00
         -4   -1    0    0    0  501 -0.00000000000E+00  0.00000000000E+00  0.23944284478E+02  0.23977941095E+02  0.12700000000E+01 0.  1.
          4   -1    0    0  501    0  0.00000000000E+00 -0.00000000000E+00 -0.16298668308E+03  0.16299163096E+03  0.12700000000E+01 0.  1.
         25    2    1    2    0    0  0.00000000000E+00  0.00000000000E+00 -0.13904239861E+03  0.18696957205E+03  0.12499932905E+03 0.  0.
    9000005    1    3    3    0    0  0.20461550847E+02  0.56034291047E+02 -0.41670591354E+02  0.72773312554E+02  0.10000000000E+01 0.  0.
    9000005    1    3    3    0    0 -0.20461550847E+02 -0.56034291047E+02 -0.97371807253E+02  0.11419625950E+03  0.10000000000E+01 0.  0.
<mgrwt>
<rscale>  0 0.12499933E+03</rscale>
<asrwt>0</asrwt>
<pdfrwt beam="2">  1        4 0.25077843E-01 0.12499933E+03</pdfrwt>
<pdfrwt beam="1">  1       -4 0.36867057E-02 0.12499933E+03</pdfrwt>
<totfact> 0.92378678E+03</totfact>
</mgrwt>
</event>
<event>
 5    1  0.3337119E-002  0.1249957E+03  0.7818608E-02  0.1235076E+00
          4   -1    0    0  501    0  0.00000000000E+00  0.00000000000E+00  0.36180207952E+03  0.36180430850E+03  0.12700000000E+01 0.  1.
         -4   -1    0    0    0  501 -0.00000000000E+00 -0.00000000000E+00 -0.10756292583E+02  0.10831007808E+02  0.12700000000E+01 0.  1.
         25    2    1    2    0    0  0.00000000000E+00  0.00000000000E+00  0.35104578694E+03  0.37263531631E+03  0.12499573765E+03 0.  0.
    9000005    1    3    3    0    0 -0.16960687399E+02 -0.24540575801E+02  0.33921892251E+03  0.34052956137E+03  0.10000000000E+01 0.  0.
    9000005    1    3    3    0    0  0.16960687399E+02  0.24540575801E+02  0.11826864428E+02  0.32105754934E+02  0.10000000000E+01 0.  0.
<mgrwt>
<rscale>  0 0.12499574E+03</rscale>
<asrwt>0</asrwt>
<pdfrwt beam="1">  1        4 0.55667782E-01 0.12499574E+03</pdfrwt>
<pdfrwt beam="2">  1       -4 0.16607329E-02 0.12499574E+03</pdfrwt>
<totfact> 0.67310469E+03</totfact>
</mgrwt>
</event>
<event>
 5    1  0.3337119E-002  0.1249959E+03  0.7818608E-02  0.1235076E+00
          4   -1    0    0  501    0  0.00000000000E+00  0.00000000000E+00  0.43013496178E+02  0.43032240860E+02  0.12700000000E+01 0. -1.
         -4   -1    0    0    0  501 -0.00000000000E+00 -0.00000000000E+00 -0.90765591012E+02  0.90774475552E+02  0.12700000000E+01 0. -1.
         25    2    1    2    0    0  0.00000000000E+00  0.00000000000E+00 -0.47752094835E+02  0.13380671641E+03  0.12499589912E+03 0.  0.
    9000005    1    3    3    0    0 -0.48955638814E+02 -0.38124407628E+02 -0.15946573656E+02  0.64073537752E+02  0.10000000000E+01 0.  0.
    9000005    1    3    3    0    0  0.48955638814E+02  0.38124407628E+02 -0.31805521178E+02  0.69733178660E+02  0.10000000000E+01 0.  0.
<mgrwt>
<rscale>  0 0.12499590E+03</rscale>
<asrwt>0</asrwt>
<pdfrwt beam="1">  1        4 0.66195863E-02 0.12499590E+03</pdfrwt>
<pdfrwt beam="2">  1       -4 0.13966062E-01 0.12499590E+03</pdfrwt>
<totfact> 0.10264233E+04</totfact>
</mgrwt>
</event>
<event>
 5    1  0.3337119E-002  0.1249999E+03  0.7818608E-02  0.1235069E+00
          4   -1    0    0  501    0  0.00000000000E+00  0.00000000000E+00  0.96829179634E+02  0.96837507860E+02  0.12700000000E+01 0. -1.
         -4   -1    0    0    0  501 -0.00000000000E+00 -0.00000000000E+00 -0.40321545363E+02  0.40341540878E+02  0.12700000000E+01 0. -1.
         25    2    1    2    0    0  0.00000000000E+00  0.00000000000E+00  0.56507634272E+02  0.13717904874E+03  0.12499991473E+03 0.  0.
    9000005    1    3    3    0    0  0.22828102961E+02 -0.22508170912E+02 -0.30615105196E+02  0.44339877184E+02  0.10000000000E+01 0.  0.
    9000005    1    3    3    0    0 -0.22828102961E+02  0.22508170912E+02  0.87122739467E+02  0.92839171554E+02  0.10000000000E+01 0.  0.
<mgrwt>
<rscale>  0 0.12499991E+03</rscale>
<asrwt>0</asrwt>
<pdfrwt beam="1">  1        4 0.14898975E-01 0.12499991E+03</pdfrwt>
<pdfrwt beam="2">  1       -4 0.62054935E-02 0.12499991E+03</pdfrwt>
<totfact> 0.10192363E+04</totfact>
</mgrwt>
</event>
<event>
 5    1  0.3337119E-002  0.1250001E+03  0.7818608E-02  0.1235069E+00
         -4   -1    0    0    0  501 -0.00000000000E+00  0.00000000000E+00  0.11686192858E+04  0.11686199759E+04  0.12700000000E+01 0.  1.
          4   -1    0    0  501    0  0.00000000000E+00 -0.00000000000E+00 -0.32212796104E+01  0.34625918512E+01  0.12700000000E+01 0.  1.
         25    2    1    2    0    0  0.00000000000E+00  0.00000000000E+00  0.11653980062E+04  0.11720825678E+04  0.12500013107E+03 0.  0.
    9000005    1    3    3    0    0  0.17913006388E+02 -0.52513116821E+02  0.31308891285E+03  0.31796882015E+03  0.10000000000E+01 0.  0.
    9000005    1    3    3    0    0 -0.17913006388E+02  0.52513116821E+02  0.85230909336E+03  0.85411374761E+03  0.10000000000E+01 0.  0.
<mgrwt>
<rscale>  0 0.12500013E+03</rscale>
<asrwt>0</asrwt>
<pdfrwt beam="2">  1        4 0.51419670E-03 0.12500013E+03</pdfrwt>
<pdfrwt beam="1">  1       -4 0.17980632E+00 0.12500013E+03</pdfrwt>
<totfact> 0.25455309E+03</totfact>
</mgrwt>
</event>
<event>
 5    1  0.3337119E-002  0.1249994E+03  0.7818608E-02  0.1235070E+00
         -4   -1    0    0    0  501 -0.00000000000E+00  0.00000000000E+00  0.71739020921E+02  0.71750261482E+02  0.12700000000E+01 0. -1.
          4   -1    0    0  501    0  0.00000000000E+00 -0.00000000000E+00 -0.54427431382E+02  0.54442246343E+02  0.12700000000E+01 0. -1.
         25    2    1    2    0    0  0.00000000000E+00  0.00000000000E+00  0.17311589539E+02  0.12619250782E+03  0.12499943159E+03 0.  0.
    9000005    1    3    3    0    0 -0.61060117304E+02  0.97315170478E+01  0.17807311509E+02  0.64351695334E+02  0.10000000000E+01 0.  0.
    9000005    1    3    3    0    0  0.61060117304E+02 -0.97315170478E+01 -0.49572197051E+00  0.61840812490E+02  0.10000000000E+01 0.  0.
<mgrwt>
<rscale>  0 0.12499943E+03</rscale>
<asrwt>0</asrwt>
<pdfrwt beam="2">  1        4 0.83754553E-02 0.12499943E+03</pdfrwt>
<pdfrwt beam="1">  1       -4 0.11038777E-01 0.12499943E+03</pdfrwt>
<totfact> 0.10426876E+04</totfact>
</mgrwt>
</event>
<event>
 5    1  0.3337119E-002  0.1250015E+03  0.7818608E-02  0.1235067E+00
         -4   -1    0    0    0  501 -0.00000000000E+00  0.00000000000E+00  0.50616375049E+03  0.50616534374E+03  0.12700000000E+01 0. -1.
          4   -1    0    0  501    0  0.00000000000E+00 -0.00000000000E+00 -0.76636795441E+01  0.77681969694E+01  0.12700000000E+01 0. -1.
         25    2    1    2    0    0  0.00000000000E+00  0.00000000000E+00  0.49850007094E+03  0.51393354071E+03  0.12500145415E+03 0.  0.
    9000005    1    3    3    0    0  0.13533600419E+02 -0.59799283618E+02  0.29896733124E+03  0.30519105132E+03  0.10000000000E+01 0.  0.
    9000005    1    3    3    0    0 -0.13533600419E+02  0.59799283618E+02  0.19953273971E+03  0.20874248939E+03  0.10000000000E+01 0.  0.
<mgrwt>
<rscale>  0 0.12500145E+03</rscale>
<asrwt>0</asrwt>
<pdfrwt beam="2">  1        4 0.11871896E-02 0.12500145E+03</pdfrwt>
<pdfrwt beam="1">  1       -4 0.77879530E-01 0.12500145E+03</pdfrwt>
<totfact> 0.54797509E+03</totfact>
</mgrwt>
</event>
<event>
 5    1  0.3337119E-002  0.1249989E+03  0.7818608E-02  0.1235071E+00
         -4   -1    0    0    0  501 -0.00000000000E+00  0.00000000000E+00  0.34892056514E+02  0.34915161575E+02  0.12700000000E+01 0. -1.
          4   -1    0    0  501    0  0.00000000000E+00 -0.00000000000E+00 -0.11188659870E+03  0.11189380621E+03  0.12700000000E+01 0. -1.
         25    2    1    2    0    0  0.00000000000E+00  0.00000000000E+00 -0.76994542187E+02  0.14680896779E+03  0.12499885398E+03 0.  0.
    9000005    1    3    3    0    0  0.50055843766E+01  0.45837729277E+02  0.11040628484E+02  0.47424137078E+02  0.10000000000E+01 0.  0.
    9000005    1    3    3    0    0 -0.50055843766E+01 -0.45837729277E+02 -0.88035170671E+02  0.99384830711E+02  0.10000000000E+01 0.  0.
<mgrwt>
<rscale>  0 0.12499885E+03</rscale>
<asrwt>0</asrwt>
<pdfrwt beam="2">  1        4 0.17215654E-01 0.12499885E+03</pdfrwt>
<pdfrwt beam="1">  1       -4 0.53703405E-02 0.12499885E+03</pdfrwt>
<totfact> 0.99946208E+03</totfact>
</mgrwt>
</event>
<event>
 5    1  0.3337119E-002  0.1250007E+03  0.7818608E-02  0.1235068E+00
         -4   -1    0    0    0  501 -0.00000000000E+00  0.00000000000E+00  0.73030998665E+02  0.73042040402E+02  0.12700000000E+01 0. -1.
          4   -1    0    0  501    0  0.00000000000E+00 -0.00000000000E+00 -0.53465517029E+02  0.53480598456E+02  0.12700000000E+01 0. -1.
         25    2    1    2    0    0  0.00000000000E+00  0.00000000000E+00  0.19565481636E+02  0.12652263886E+03  0.12500068029E+03 0.  0.
    9000005    1    3    3    0    0  0.10653377331E+02  0.42080650906E+02  0.55285825227E+02  0.70297923869E+02  0.10000000000E+01 0.  0.
    9000005    1    3    3    0    0 -0.10653377331E+02 -0.42080650906E+02 -0.35720343591E+02  0.56224714988E+02  0.10000000000E+01 0.  0.
<mgrwt>
<rscale>  0 0.12500068E+03</rscale>
<asrwt>0</asrwt>
<pdfrwt beam="2">  1        4 0.82274737E-02 0.12500068E+03</pdfrwt>
<pdfrwt beam="1">  1       -4 0.11237548E-01 0.12500068E+03</pdfrwt>
<totfact> 0.10419374E+04</totfact>
</mgrwt>
</event>
<event>
 5    1  0.3337119E-002  0.1249908E+03  0.7818608E-02  0.1235084E+00
          4   -1    0    0  501    0  0.00000000000E+00  0.00000000000E+00  0.46460047882E+02  0.46477402565E+02  0.12700000000E+01 0. -1.
         -4   -1    0    0    0  501 -0.00000000000E+00 -0.00000000000E+00 -0.84027392991E+02  0.84036989908E+02  0.12700000000E+01 0. -1.
         25    2    1    2    0    0  0.00000000000E+00  0.00000000000E+00 -0.37567345108E+02  0.13051439247E+03  0.12499080456E+03 0.  0.
    9000005    1    3    3    0    0 -0.73225387757E+01 -0.10254759479E+02  0.45124761982E+02  0.46861752102E+02  0.10000000000E+01 0.  0.
    9000005    1    3    3    0    0  0.73225387757E+01  0.10254759479E+02 -0.82692107090E+02  0.83652640372E+02  0.10000000000E+01 0.  0.
<mgrwt>
<rscale>  0 0.12499080E+03</rscale>
<asrwt>0</asrwt>
<pdfrwt beam="1">  1        4 0.71497729E-02 0.12499080E+03</pdfrwt>
<pdfrwt beam="2">  1       -4 0.12929364E-01 0.12499080E+03</pdfrwt>
<totfact> 0.10335655E+04</totfact>
</mgrwt>
</event>
<event>
 5    1  0.3337119E-002  0.1250017E+03  0.7818608E-02  0.1235067E+00
          4   -1    0    0  501    0  0.00000000000E+00  0.00000000000E+00  0.55729242590E+02  0.55743711571E+02  0.12700000000E+01 0.  1.
         -4   -1    0    0    0  501 -0.00000000000E+00 -0.00000000000E+00 -0.70065894860E+02  0.70077403794E+02  0.12700000000E+01 0.  1.
         25    2    1    2    0    0  0.00000000000E+00  0.00000000000E+00 -0.14336652270E+02  0.12582111537E+03  0.12500165388E+03 0.  0.
    9000005    1    3    3    0    0  0.24281687023E+02 -0.48465048477E+02 -0.38467060913E+02  0.66476883380E+02  0.10000000000E+01 0.  0.
    9000005    1    3    3    0    0 -0.24281687023E+02  0.48465048477E+02  0.24130408644E+02  0.59344231985E+02  0.10000000000E+01 0.  0.
<mgrwt>
<rscale>  0 0.12500165E+03</rscale>
<asrwt>0</asrwt>
<pdfrwt beam="1">  1        4 0.85757279E-02 0.12500165E+03</pdfrwt>
<pdfrwt beam="2">  1       -4 0.10781367E-01 0.12500165E+03</pdfrwt>
<totfact> 0.10434492E+04</totfact>
</mgrwt>
</event>
<event>
 5    1  0.3337119E-002  0.1249970E+03  0.7818608E-02  0.1235074E+00
          4   -1    0    0  501    0  0.00000000000E+00  0.00000000000E+00  0.64191672810E+02  0.64204234737E+02  0.12700000000E+01 0. -1.
         -4   -1    0    0    0  501 -0.00000000000E+00 -0.00000000000E+00 -0.60824865321E+02  0.60838122434E+02  0.12700000000E+01 0. -1.
         25    2    1    2    0    0  0.00000000000E+00  0.00000000000E+00  0.33668074897E+01  0.12504235717E+03  0.12499702274E+03 0.  0.
    9000005    1    3    3    0    0  0.61356375465E+02  0.44225707706E+01  0.12682844367E+02  0.62817342221E+02  0.10000000000E+01 0.  0.
    9000005    1    3    3    0    0 -0.61356375465E+02 -0.44225707706E+01 -0.93160368774E+01  0.62225014950E+02  0.10000000000E+01 0.  0.
<mgrwt>
<rscale>  0 0.12499702E+03</rscale>
<asrwt>0</asrwt>
<pdfrwt beam="1">  1        4 0.98776281E-02 0.12499702E+03</pdfrwt>
<pdfrwt beam="2">  1       -4 0.93596576E-02 0.12499702E+03</pdfrwt>
<totfact> 0.10452646E+04</totfact>
</mgrwt>
</event>
<event>
 5    1  0.3337119E-002  0.1249974E+03  0.7818608E-02  0.1235073E+00
          4   -1    0    0  501    0  0.00000000000E+00  0.00000000000E+00  0.25389420550E+01  0.28388601161E+01  0.12700000000E+01 0.  1.
         -4   -1    0    0    0  501 -0.00000000000E+00 -0.00000000000E+00 -0.14523712751E+04  0.14523718304E+04  0.12700000000E+01 0.  1.
         25    2    1    2    0    0  0.00000000000E+00  0.00000000000E+00 -0.14498323330E+04  0.14552106905E+04  0.12499743896E+03 0.  0.
    9000005    1    3    3    0    0  0.11070388872E+02  0.36443585477E+02 -0.14815293585E+03  0.15297379132E+03  0.10000000000E+01 0.  0.
    9000005    1    3    3    0    0 -0.11070388872E+02 -0.36443585477E+02 -0.13016793972E+04  0.13022368992E+04  0.10000000000E+01 0.  0.
<mgrwt>
<rscale>  0 0.12499744E+03</rscale>
<asrwt>0</asrwt>
<pdfrwt beam="1">  1        4 0.41372096E-03 0.12499744E+03</pdfrwt>
<pdfrwt beam="2">  1       -4 0.22346422E+00 0.12499744E+03</pdfrwt>
<totfact> 0.18827396E+03</totfact>
</mgrwt>
</event>
<event>
 5    1  0.3337119E-002  0.1249991E+03  0.7818608E-02  0.1235071E+00
         -4   -1    0    0    0  501 -0.00000000000E+00  0.00000000000E+00  0.13079609152E+03  0.13080225708E+03  0.12700000000E+01 0. -1.
          4   -1    0    0  501    0  0.00000000000E+00 -0.00000000000E+00 -0.29844404424E+02  0.29871414018E+02  0.12700000000E+01 0. -1.
         25    2    1    2    0    0  0.00000000000E+00  0.00000000000E+00  0.10095168709E+03  0.16067367110E+03  0.12499914182E+03 0.  0.
    9000005    1    3    3    0    0 -0.41322236448E+02 -0.43925320745E+02  0.71527955950E+02  0.93563932741E+02  0.10000000000E+01 0.  0.
    9000005    1    3    3    0    0  0.41322236448E+02  0.43925320745E+02  0.29423731145E+02  0.67109738355E+02  0.10000000000E+01 0.  0.
<mgrwt>
<rscale>  0 0.12499914E+03</rscale>
<asrwt>0</asrwt>
<pdfrwt beam="2">  1        4 0.45939987E-02 0.12499914E+03</pdfrwt>
<pdfrwt beam="1">  1       -4 0.20125028E-01 0.12499914E+03</pdfrwt>
<totfact> 0.97214938E+03</totfact>
</mgrwt>
</event>
<event>
 5    1  0.3337119E-002  0.1250155E+03  0.7818608E-02  0.1235045E+00
         -4   -1    0    0    0  501 -0.00000000000E+00  0.00000000000E+00  0.18443954717E+03  0.18444391955E+03  0.12700000000E+01 0. -1.
          4   -1    0    0  501    0  0.00000000000E+00 -0.00000000000E+00 -0.21160619025E+02  0.21198695656E+02  0.12700000000E+01 0. -1.
         25    2    1    2    0    0  0.00000000000E+00  0.00000000000E+00  0.16327892815E+03  0.20564261521E+03  0.12501550629E+03 0.  0.
    9000005    1    3    3    0    0  0.39115254251E+02 -0.36818927121E+02  0.29089389811E+02  0.61096882973E+02  0.10000000000E+01 0.  0.
    9000005    1    3    3    0    0 -0.39115254251E+02  0.36818927121E+02  0.13418953834E+03  0.14454573224E+03  0.10000000000E+01 0.  0.
<mgrwt>
<rscale>  0 0.12501551E+03</rscale>
<asrwt>0</asrwt>
<pdfrwt beam="2">  1        4 0.32587451E-02 0.12501551E+03</pdfrwt>
<pdfrwt beam="1">  1       -4 0.28378581E-01 0.12501551E+03</pdfrwt>
<totfact> 0.89161554E+03</totfact>
</mgrwt>
</event>
<event>
 5    1  0.3337119E-002  0.1249981E+03  0.7818608E-02  0.1235072E+00
         -4   -1    0    0    0  501 -0.00000000000E+00  0.00000000000E+00  0.46429993565E+03  0.46430167257E+03  0.12700000000E+01 0. -1.
          4   -1    0    0  501    0  0.00000000000E+00 -0.00000000000E+00 -0.83632526175E+01  0.84591308267E+01  0.12700000000E+01 0. -1.
         25    2    1    2    0    0  0.00000000000E+00  0.00000000000E+00  0.45593668304E+03  0.47276080339E+03  0.12499807313E+03 0.  0.
    9000005    1    3    3    0    0  0.27987442295E+02  0.55585762082E+02  0.24938199502E+03  0.25703200834E+03  0.10000000000E+01 0.  0.
    9000005    1    3    3    0    0 -0.27987442295E+02 -0.55585762082E+02  0.20655468802E+03  0.21572879505E+03  0.10000000000E+01 0.  0.
<mgrwt>
<rscale>  0 0.12499807E+03</rscale>
<asrwt>0</asrwt>
<pdfrwt beam="2">  1        4 0.12941632E-02 0.12499807E+03</pdfrwt>
<pdfrwt beam="1">  1       -4 0.71438263E-01 0.12499807E+03</pdfrwt>
<totfact> 0.58043979E+03</totfact>
</mgrwt>
</event>
<event>
 5    1  0.3337119E-002  0.1250027E+03  0.7818608E-02  0.1235065E+00
          4   -1    0    0  501    0  0.00000000000E+00  0.00000000000E+00  0.98207203490E+01  0.99024970675E+01  0.12700000000E+01 0. -1.
         -4   -1    0    0    0  501 -0.00000000000E+00 -0.00000000000E+00 -0.39604091264E+03  0.39604294892E+03  0.12700000000E+01 0. -1.
         25    2    1    2    0    0  0.00000000000E+00  0.00000000000E+00 -0.38622019229E+03  0.40594544598E+03  0.12500267269E+03 0.  0.
    9000005    1    3    3    0    0  0.19969267635E+02  0.47401442186E+02 -0.30837320520E+03  0.31263509409E+03  0.10000000000E+01 0.  0.
    9000005    1    3    3    0    0 -0.19969267635E+02 -0.47401442186E+02 -0.77846987097E+02  0.93310351898E+02  0.10000000000E+01 0.  0.
<mgrwt>
<rscale>  0 0.12500267E+03</rscale>
<asrwt>0</asrwt>
<pdfrwt beam="1">  1        4 0.15173275E-02 0.12500267E+03</pdfrwt>
<pdfrwt beam="2">  1       -4 0.60935806E-01 0.12500267E+03</pdfrwt>
<totfact> 0.63974853E+03</totfact>
</mgrwt>
</event>
<event>
 5    1  0.3337119E-002  0.1250066E+03  0.7818608E-02  0.1235059E+00
          4   -1    0    0  501    0  0.00000000000E+00  0.00000000000E+00  0.62222396363E+02  0.62235355780E+02  0.12700000000E+01 0. -1.
         -4   -1    0    0    0  501 -0.00000000000E+00 -0.00000000000E+00 -0.62759577808E+02  0.62772426325E+02  0.12700000000E+01 0. -1.
         25    2    1    2    0    0  0.00000000000E+00  0.00000000000E+00 -0.53718144556E+00  0.12500778211E+03  0.12500662792E+03 0.  0.
    9000005    1    3    3    0    0  0.50910388442E+02 -0.29664567708E+02 -0.21096889691E+02  0.62593394086E+02  0.10000000000E+01 0.  0.
    9000005    1    3    3    0    0 -0.50910388442E+02  0.29664567708E+02  0.20559708245E+02  0.62414388019E+02  0.10000000000E+01 0.  0.
<mgrwt>
<rscale>  0 0.12500663E+03</rscale>
<asrwt>0</asrwt>
<pdfrwt beam="1">  1        4 0.95746616E-02 0.12500663E+03</pdfrwt>
<pdfrwt beam="2">  1       -4 0.96573049E-02 0.12500663E+03</pdfrwt>
<totfact> 0.10451128E+04</totfact>
</mgrwt>
</event>
<event>
 5    1  0.3337119E-002  0.1250009E+03  0.7818608E-02  0.1235068E+00
         -4   -1    0    0    0  501 -0.00000000000E+00  0.00000000000E+00  0.19704448005E+02  0.19745332896E+02  0.12700000000E+01 0. -1.
          4   -1    0    0  501    0  0.00000000000E+00 -0.00000000000E+00 -0.19799641318E+03  0.19800048619E+03  0.12700000000E+01 0. -1.
         25    2    1    2    0    0  0.00000000000E+00  0.00000000000E+00 -0.17829196518E+03  0.21774581909E+03  0.12500086753E+03 0.  0.
    9000005    1    3    3    0    0 -0.49855696555E+02 -0.16758308920E+02 -0.30359914576E+02  0.60738421200E+02  0.10000000000E+01 0.  0.
    9000005    1    3    3    0    0  0.49855696555E+02  0.16758308920E+02 -0.14793205060E+03  0.15700739789E+03  0.10000000000E+01 0.  0.
<mgrwt>
<rscale>  0 0.12500087E+03</rscale>
<asrwt>0</asrwt>
<pdfrwt beam="2">  1        4 0.30464444E-01 0.12500087E+03</pdfrwt>
<pdfrwt beam="1">  1       -4 0.30349120E-02 0.12500087E+03</pdfrwt>
<totfact> 0.87224616E+03</totfact>
</mgrwt>
</event>
<event>
 5    1  0.3337119E-002  0.1249801E+03  0.7818608E-02  0.1235100E+00
          4   -1    0    0  501    0  0.00000000000E+00  0.00000000000E+00  0.42317779857E+02  0.42336832569E+02  0.12700000000E+01 0. -1.
         -4   -1    0    0    0  501 -0.00000000000E+00 -0.00000000000E+00 -0.92233946244E+02  0.92242689356E+02  0.12700000000E+01 0. -1.
         25    2    1    2    0    0  0.00000000000E+00  0.00000000000E+00 -0.49916166387E+02  0.13457952193E+03  0.12498009463E+03 0.  0.
    9000005    1    3    3    0    0 -0.53474327536E+02 -0.31593058637E+02 -0.17624639329E+02  0.64569752756E+02  0.10000000000E+01 0.  0.
    9000005    1    3    3    0    0  0.53474327536E+02  0.31593058637E+02 -0.32291527058E+02  0.70009769170E+02  0.10000000000E+01 0.  0.
<mgrwt>
<rscale>  0 0.12498009E+03</rscale>
<asrwt>0</asrwt>
<pdfrwt beam="1">  1        4 0.65125658E-02 0.12498009E+03</pdfrwt>
<pdfrwt beam="2">  1       -4 0.14191976E-01 0.12498009E+03</pdfrwt>
<totfact> 0.10251543E+04</totfact>
</mgrwt>
</event>
<event>
 5    1  0.3337119E-002  0.1250017E+03  0.7818608E-02  0.1235067E+00
          4   -1    0    0  501    0  0.00000000000E+00  0.00000000000E+00  0.18339515585E+03  0.18339955314E+03  0.12700000000E+01 0.  1.
         -4   -1    0    0    0  501 -0.00000000000E+00 -0.00000000000E+00 -0.21276635856E+02  0.21314505233E+02  0.12700000000E+01 0.  1.
         25    2    1    2    0    0  0.00000000000E+00  0.00000000000E+00  0.16211852000E+03  0.20471405837E+03  0.12500172466E+03 0.  0.
    9000005    1    3    3    0    0 -0.55998046286E+02  0.72838977495E+01  0.12489680829E+03  0.13707315228E+03  0.10000000000E+01 0.  0.
    9000005    1    3    3    0    0  0.55998046286E+02 -0.72838977495E+01  0.37221711705E+02  0.67640906089E+02  0.10000000000E+01 0.  0.
<mgrwt>
<rscale>  0 0.12500172E+03</rscale>
<asrwt>0</asrwt>
<pdfrwt beam="1">  1        4 0.28217891E-01 0.12500172E+03</pdfrwt>
<pdfrwt beam="2">  1       -4 0.32765799E-02 0.12500172E+03</pdfrwt>
<totfact> 0.89343040E+03</totfact>
</mgrwt>
</event>
<event>
 5    1  0.3337119E-002  0.1249944E+03  0.7818608E-02  0.1235078E+00
          4   -1    0    0  501    0  0.00000000000E+00  0.00000000000E+00  0.23548971153E+02  0.23583191946E+02  0.12700000000E+01 0.  1.
         -4   -1    0    0    0  501 -0.00000000000E+00 -0.00000000000E+00 -0.16570582784E+03  0.16571069452E+03  0.12700000000E+01 0.  1.
         25    2    1    2    0    0  0.00000000000E+00  0.00000000000E+00 -0.14215685668E+03  0.18929388647E+03  0.12499441408E+03 0.  0.
    9000005    1    3    3    0    0 -0.78500368972E+01 -0.60454470743E+02 -0.91872604443E+02  0.11026305618E+03  0.10000000000E+01 0.  0.
    9000005    1    3    3    0    0  0.78500368972E+01  0.60454470743E+02 -0.50284252241E+02  0.79030830285E+02  0.10000000000E+01 0.  0.
<mgrwt>
<rscale>  0 0.12499441E+03</rscale>
<asrwt>0</asrwt>
<pdfrwt beam="1">  1        4 0.36259255E-02 0.12499441E+03</pdfrwt>
<pdfrwt beam="2">  1       -4 0.25496210E-01 0.12499441E+03</pdfrwt>
<totfact> 0.91981831E+03</totfact>
</mgrwt>
</event>
<event>
 5    1  0.3337119E-002  0.1249997E+03  0.7818608E-02  0.1235070E+00
          4   -1    0    0  501    0  0.00000000000E+00  0.00000000000E+00  0.73000889016E+03  0.73000999487E+03  0.12700000000E+01 0.  1.
         -4   -1    0    0    0  501 -0.00000000000E+00 -0.00000000000E+00 -0.52744535172E+01  0.54251967619E+01  0.12700000000E+01 0.  1.
         25    2    1    2    0    0  0.00000000000E+00  0.00000000000E+00  0.72473443664E+03  0.73543519163E+03  0.12499966975E+03 0.  0.
    9000005    1    3    3    0    0  0.24780278857E+02 -0.14030769961E+02  0.68964541677E+03  0.69023381951E+03  0.10000000000E+01 0.  0.
    9000005    1    3    3    0    0 -0.24780278857E+02  0.14030769961E+02  0.35089019865E+02  0.45201372114E+02  0.10000000000E+01 0.  0.
<mgrwt>
<rscale>  0 0.12499967E+03</rscale>
<asrwt>0</asrwt>
<pdfrwt beam="1">  1        4 0.11232078E+00 0.12499967E+03</pdfrwt>
<pdfrwt beam="2">  1       -4 0.82313474E-03 0.12499967E+03</pdfrwt>
<totfact> 0.41280935E+03</totfact>
</mgrwt>
</event>
<event>
 5    1  0.3337119E-002  0.1250096E+03  0.7818608E-02  0.1235054E+00
          4   -1    0    0  501    0  0.00000000000E+00  0.00000000000E+00  0.19770649773E+03  0.19771057671E+03  0.12700000000E+01 0.  1.
         -4   -1    0    0    0  501 -0.00000000000E+00 -0.00000000000E+00 -0.19736164520E+02  0.19776983844E+02  0.12700000000E+01 0.  1.
         25    2    1    2    0    0  0.00000000000E+00  0.00000000000E+00  0.17797033321E+03  0.21748756055E+03  0.12500959761E+03 0.  0.
    9000005    1    3    3    0    0  0.56457726209E+02 -0.25582286137E+02  0.75075552220E+02  0.97361526045E+02  0.10000000000E+01 0.  0.
    9000005    1    3    3    0    0 -0.56457726209E+02  0.25582286137E+02  0.10289478099E+03  0.12012603451E+03  0.10000000000E+01 0.  0.
<mgrwt>
<rscale>  0 0.12500960E+03</rscale>
<asrwt>0</asrwt>
<pdfrwt beam="1">  1        4 0.30419839E-01 0.12500960E+03</pdfrwt>
<pdfrwt beam="2">  1       -4 0.30397866E-02 0.12500960E+03</pdfrwt>
<totfact> 0.87248767E+03</totfact>
</mgrwt>
</event>
<event>
 5    1  0.3337119E-002  0.1250067E+03  0.7818608E-02  0.1235059E+00
          4   -1    0    0  501    0  0.00000000000E+00  0.00000000000E+00  0.51639169775E+01  0.53177945194E+01  0.12700000000E+01 0.  1.
         -4   -1    0    0    0  501 -0.00000000000E+00 -0.00000000000E+00 -0.74527186527E+03  0.74527294736E+03  0.12700000000E+01 0.  1.
         25    2    1    2    0    0  0.00000000000E+00  0.00000000000E+00 -0.74010794829E+03  0.75059074188E+03  0.12500674648E+03 0.  0.
    9000005    1    3    3    0    0 -0.61830243943E+02  0.90935002778E+01 -0.36987859917E+03  0.37512244526E+03  0.10000000000E+01 0.  0.
    9000005    1    3    3    0    0  0.61830243943E+02 -0.90935002778E+01 -0.37022934912E+03  0.37546829662E+03  0.10000000000E+01 0.  0.
<mgrwt>
<rscale>  0 0.12500675E+03</rscale>
<asrwt>0</asrwt>
<pdfrwt beam="1">  1        4 0.80636933E-03 0.12500675E+03</pdfrwt>
<pdfrwt beam="2">  1       -4 0.11466905E+00 0.12500675E+03</pdfrwt>
<totfact> 0.40539941E+03</totfact>
</mgrwt>
</event>
<event>
 5    1  0.3337119E-002  0.1249925E+03  0.7818608E-02  0.1235081E+00
         -4   -1    0    0    0  501 -0.00000000000E+00  0.00000000000E+00  0.33297967991E+02  0.33322178385E+02  0.12700000000E+01 0. -1.
          4   -1    0    0  501    0  0.00000000000E+00 -0.00000000000E+00 -0.11722758680E+03  0.11723446595E+03  0.12700000000E+01 0. -1.
         25    2    1    2    0    0  0.00000000000E+00  0.00000000000E+00 -0.83929618807E+02  0.15055664433E+03  0.12499248874E+03 0.  0.
    9000005    1    3    3    0    0 -0.14390190544E+01 -0.37843580224E+02  0.17905965031E+02  0.41902636238E+02  0.10000000000E+01 0.  0.
    9000005    1    3    3    0    0  0.14390190544E+01  0.37843580224E+02 -0.10183558384E+03  0.10865400810E+03  0.10000000000E+01 0.  0.
<mgrwt>
<rscale>  0 0.12499249E+03</rscale>
<asrwt>0</asrwt>
<pdfrwt beam="2">  1        4 0.18037405E-01 0.12499249E+03</pdfrwt>
<pdfrwt beam="1">  1       -4 0.51251559E-02 0.12499249E+03</pdfrwt>
<totfact> 0.99209624E+03</totfact>
</mgrwt>
</event>
<event>
 5    1  0.3337119E-002  0.1249885E+03  0.7818608E-02  0.1235087E+00
          4   -1    0    0  501    0  0.00000000000E+00  0.00000000000E+00  0.24622043721E+03  0.24622371250E+03  0.12700000000E+01 0. -1.
         -4   -1    0    0    0  501 -0.00000000000E+00 -0.00000000000E+00 -0.15833131251E+02  0.15883983921E+02  0.12700000000E+01 0. -1.
         25    2    1    2    0    0  0.00000000000E+00  0.00000000000E+00  0.23038730595E+03  0.26210769642E+03  0.12498853459E+03 0.  0.
    9000005    1    3    3    0    0 -0.25279681466E+02 -0.35092725424E+02  0.20976989600E+03  0.21418443207E+03  0.10000000000E+01 0.  0.
    9000005    1    3    3    0    0  0.25279681466E+02  0.35092725424E+02  0.20617409950E+02  0.47923264348E+02  0.10000000000E+01 0.  0.
<mgrwt>
<rscale>  0 0.12498853E+03</rscale>
<asrwt>0</asrwt>
<pdfrwt beam="1">  1        4 0.37884230E-01 0.12498853E+03</pdfrwt>
<pdfrwt beam="2">  1       -4 0.24400301E-02 0.12498853E+03</pdfrwt>
<totfact> 0.80631756E+03</totfact>
</mgrwt>
</event>
<event>
 5    1  0.3337119E-002  0.1250123E+03  0.7818608E-02  0.1235050E+00
          4   -1    0    0  501    0  0.00000000000E+00  0.00000000000E+00  0.10569693752E+03  0.10570456708E+03  0.12700000000E+01 0.  1.
         -4   -1    0    0    0  501 -0.00000000000E+00 -0.00000000000E+00 -0.36944452787E+02  0.36966275059E+02  0.12700000000E+01 0.  1.
         25    2    1    2    0    0  0.00000000000E+00  0.00000000000E+00  0.68752484735E+02  0.14267084214E+03  0.12501225956E+03 0.  0.
    9000005    1    3    3    0    0  0.29631414482E+02  0.17194997111E+02 -0.25279053653E+02  0.42587782326E+02  0.10000000000E+01 0.  0.
    9000005    1    3    3    0    0 -0.29631414482E+02 -0.17194997111E+02  0.94031538387E+02  0.10008305981E+03  0.10000000000E+01 0.  0.
<mgrwt>
<rscale>  0 0.12501226E+03</rscale>
<asrwt>0</asrwt>
<pdfrwt beam="1">  1        4 0.16263333E-01 0.12501226E+03</pdfrwt>
<pdfrwt beam="2">  1       -4 0.56860276E-02 0.12501226E+03</pdfrwt>
<totfact> 0.10075746E+04</totfact>
</mgrwt>
</event>
<event>
 5    1  0.3337119E-002  0.1249967E+03  0.7818608E-02  0.1235074E+00
          4   -1    0    0  501    0  0.00000000000E+00  0.00000000000E+00  0.80456334838E+03  0.80456435072E+03  0.12700000000E+01 0.  1.
         -4   -1    0    0    0  501 -0.00000000000E+00 -0.00000000000E+00 -0.47707853328E+01  0.49369315057E+01  0.12700000000E+01 0.  1.
         25    2    1    2    0    0  0.00000000000E+00  0.00000000000E+00  0.79979256305E+03  0.80950128223E+03  0.12499672806E+03 0.  0.
    9000005    1    3    3    0    0 -0.41923941938E+02 -0.70942938814E+01  0.69646710565E+03  0.69776455569E+03  0.10000000000E+01 0.  0.
    9000005    1    3    3    0    0  0.41923941938E+02  0.70942938814E+01  0.10332545739E+03  0.11173672654E+03  0.10000000000E+01 0.  0.
<mgrwt>
<rscale>  0 0.12499673E+03</rscale>
<asrwt>0</asrwt>
<pdfrwt beam="1">  1        4 0.12379172E+00 0.12499673E+03</pdfrwt>
<pdfrwt beam="2">  1       -4 0.74682527E-03 0.12499673E+03</pdfrwt>
<totfact> 0.37846806E+03</totfact>
</mgrwt>
</event>
<event>
 5    1  0.3337119E-002  0.1249915E+03  0.7818608E-02  0.1235083E+00
          4   -1    0    0  501    0  0.00000000000E+00  0.00000000000E+00  0.11378504633E+02  0.11449160130E+02  0.12700000000E+01 0. -1.
         -4   -1    0    0    0  501 -0.00000000000E+00 -0.00000000000E+00 -0.34211978256E+03  0.34212213977E+03  0.12700000000E+01 0. -1.
         25    2    1    2    0    0  0.00000000000E+00  0.00000000000E+00 -0.33074127793E+03  0.35357129990E+03  0.12499148446E+03 0.  0.
    9000005    1    3    3    0    0 -0.69482073427E+01 -0.16141571107E+02  0.42582321309E+01  0.18109678185E+02  0.10000000000E+01 0.  0.
    9000005    1    3    3    0    0  0.69482073427E+01  0.16141571107E+02 -0.33499951006E+03  0.33546162171E+03  0.10000000000E+01 0.  0.
<mgrwt>
<rscale>  0 0.12499148E+03</rscale>
<asrwt>0</asrwt>
<pdfrwt beam="1">  1        4 0.17561558E-02 0.12499148E+03</pdfrwt>
<pdfrwt beam="2">  1       -4 0.52639421E-01 0.12499148E+03</pdfrwt>
<totfact> 0.69346517E+03</totfact>
</mgrwt>
</event>
<event>
 5    1  0.3337119E-002  0.1250075E+03  0.7818608E-02  0.1235058E+00
         -4   -1    0    0    0  501 -0.00000000000E+00  0.00000000000E+00  0.27316373365E+02  0.27345880015E+02  0.12700000000E+01 0. -1.
          4   -1    0    0  501    0  0.00000000000E+00 -0.00000000000E+00 -0.14290799700E+03  0.14291364003E+03  0.12700000000E+01 0. -1.
         25    2    1    2    0    0  0.00000000000E+00  0.00000000000E+00 -0.11559162363E+03  0.17025952004E+03  0.12500752262E+03 0.  0.
    9000005    1    3    3    0    0 -0.30013752438E+02 -0.54000931438E+02 -0.70629978301E+02  0.93843059234E+02  0.10000000000E+01 0.  0.
    9000005    1    3    3    0    0  0.30013752438E+02  0.54000931438E+02 -0.44961645331E+02  0.76416460808E+02  0.10000000000E+01 0.  0.
<mgrwt>
<rscale>  0 0.12500752E+03</rscale>
<asrwt>0</asrwt>
<pdfrwt beam="2">  1        4 0.21988549E-01 0.12500752E+03</pdfrwt>
<pdfrwt beam="1">  1       -4 0.42052229E-02 0.12500752E+03</pdfrwt>
<totfact> 0.95384182E+03</totfact>
</mgrwt>
</event>
<event>
 5    1  0.3337119E-002  0.1249978E+03  0.7818608E-02  0.1235073E+00
         -4   -1    0    0    0  501 -0.00000000000E+00  0.00000000000E+00  0.62683315040E+02  0.62696179185E+02  0.12700000000E+01 0.  1.
          4   -1    0    0  501    0  0.00000000000E+00 -0.00000000000E+00 -0.62289325872E+02  0.62302271368E+02  0.12700000000E+01 0.  1.
         25    2    1    2    0    0  0.00000000000E+00  0.00000000000E+00  0.39398916743E+00  0.12499845055E+03  0.12499782963E+03 0.  0.
    9000005    1    3    3    0    0 -0.46658336612E+02  0.39672171094E+02 -0.12222117734E+02  0.62460080825E+02  0.10000000000E+01 0.  0.
    9000005    1    3    3    0    0  0.46658336612E+02 -0.39672171094E+02  0.12616106902E+02  0.62538369727E+02  0.10000000000E+01 0.  0.
<mgrwt>
<rscale>  0 0.12499783E+03</rscale>
<asrwt>0</asrwt>
<pdfrwt beam="2">  1        4 0.95849585E-02 0.12499783E+03</pdfrwt>
<pdfrwt beam="1">  1       -4 0.96455723E-02 0.12499783E+03</pdfrwt>
<totfact> 0.10453409E+04</totfact>
</mgrwt>
</event>
<event>
 5    1  0.3337119E-002  0.1250000E+03  0.7818608E-02  0.1235069E+00
          4   -1    0    0  501    0  0.00000000000E+00  0.00000000000E+00  0.12565360473E+02  0.12629377808E+02  0.12700000000E+01 0. -1.
         -4   -1    0    0    0  501 -0.00000000000E+00 -0.00000000000E+00 -0.31001936728E+03  0.31002196856E+03  0.12700000000E+01 0. -1.
         25    2    1    2    0    0  0.00000000000E+00  0.00000000000E+00 -0.29745400681E+03  0.32265134637E+03  0.12500002059E+03 0.  0.
    9000005    1    3    3    0    0  0.40572335431E+02 -0.14089024595E+02 -0.26589906387E+03  0.26934722420E+03  0.10000000000E+01 0.  0.
    9000005    1    3    3    0    0 -0.40572335431E+02  0.14089024595E+02 -0.31554942940E+02  0.53304122170E+02  0.10000000000E+01 0.  0.
<mgrwt>
<rscale>  0 0.12500002E+03</rscale>
<asrwt>0</asrwt>
<pdfrwt beam="1">  1        4 0.19382571E-02 0.12500002E+03</pdfrwt>
<pdfrwt beam="2">  1       -4 0.47700406E-01 0.12500002E+03</pdfrwt>
<totfact> 0.72841858E+03</totfact>
</mgrwt>
</event>
<event>
 5    1  0.3337119E-002  0.1249984E+03  0.7818608E-02  0.1235072E+00
         -4   -1    0    0    0  501 -0.00000000000E+00  0.00000000000E+00  0.18233205609E+03  0.18233647901E+03  0.12700000000E+01 0.  1.
          4   -1    0    0  501    0  0.00000000000E+00 -0.00000000000E+00 -0.21399767438E+02  0.21437419303E+02  0.12700000000E+01 0.  1.
         25    2    1    2    0    0  0.00000000000E+00  0.00000000000E+00  0.16093228865E+03  0.20377389831E+03  0.12499840040E+03 0.  0.
    9000005    1    3    3    0    0  0.63523462874E+01 -0.10496717505E+01  0.18179790007E+03  0.18191462444E+03  0.10000000000E+01 0.  0.
    9000005    1    3    3    0    0 -0.63523462874E+01  0.10496717505E+01 -0.20865611423E+02  0.21859273872E+02  0.10000000000E+01 0.  0.
<mgrwt>
<rscale>  0 0.12499840E+03</rscale>
<asrwt>0</asrwt>
<pdfrwt beam="2">  1        4 0.32955083E-02 0.12499840E+03</pdfrwt>
<pdfrwt beam="1">  1       -4 0.28054323E-01 0.12499840E+03</pdfrwt>
<totfact> 0.89506089E+03</totfact>
</mgrwt>
</event>
<event>
 5    1  0.3337119E-002  0.1249967E+03  0.7818608E-02  0.1235074E+00
          4   -1    0    0  501    0  0.00000000000E+00  0.00000000000E+00  0.17150360620E+03  0.17150830837E+03  0.12700000000E+01 0. -1.
         -4   -1    0    0    0  501 -0.00000000000E+00 -0.00000000000E+00 -0.22752557245E+02  0.22787974047E+02  0.12700000000E+01 0. -1.
         25    2    1    2    0    0  0.00000000000E+00  0.00000000000E+00  0.14875104895E+03  0.19429628241E+03  0.12499668314E+03 0.  0.
    9000005    1    3    3    0    0 -0.56816531920E+02  0.25241285896E+02  0.64568938814E+02  0.89640329499E+02  0.10000000000E+01 0.  0.
    9000005    1    3    3    0    0  0.56816531920E+02 -0.25241285896E+02  0.84182110139E+02  0.10465595292E+03  0.10000000000E+01 0.  0.
<mgrwt>
<rscale>  0 0.12499668E+03</rscale>
<asrwt>0</asrwt>
<pdfrwt beam="1">  1        4 0.26388256E-01 0.12499668E+03</pdfrwt>
<pdfrwt beam="2">  1       -4 0.35034795E-02 0.12499668E+03</pdfrwt>
<totfact> 0.91111869E+03</totfact>
</mgrwt>
</event>
<event>
 5    1  0.3337119E-002  0.1249993E+03  0.7818608E-02  0.1235070E+00
         -4   -1    0    0    0  501 -0.00000000000E+00  0.00000000000E+00  0.79903446639E+03  0.79903547567E+03  0.12700000000E+01 0.  1.
          4   -1    0    0  501    0  0.00000000000E+00 -0.00000000000E+00 -0.48051448924E+01  0.49701425972E+01  0.12700000000E+01 0.  1.
         25    2    1    2    0    0  0.00000000000E+00  0.00000000000E+00  0.79422932150E+03  0.80400561827E+03  0.12499927631E+03 0.  0.
    9000005    1    3    3    0    0  0.14033414179E+02 -0.30008124811E+01  0.78832398719E+03  0.78845523041E+03  0.10000000000E+01 0.  0.
    9000005    1    3    3    0    0 -0.14033414179E+02  0.30008124811E+01  0.59053343076E+01  0.15550387853E+02  0.10000000000E+01 0.  0.
<mgrwt>
<rscale>  0 0.12499928E+03</rscale>
<asrwt>0</asrwt>
<pdfrwt beam="2">  1        4 0.75202287E-03 0.12499928E+03</pdfrwt>
<pdfrwt beam="1">  1       -4 0.12294114E+00 0.12499928E+03</pdfrwt>
<totfact> 0.38087130E+03</totfact>
</mgrwt>
</event>
<event>
 5    1  0.3337119E-002  0.1250016E+03  0.7818608E-02  0.1235067E+00
          4   -1    0    0  501    0  0.00000000000E+00  0.00000000000E+00  0.45537268919E+03  0.45537446015E+03  0.12700000000E+01 0.  1.
         -4   -1    0    0    0  501 -0.00000000000E+00 -0.00000000000E+00 -0.85295589268E+01  0.86235883185E+01  0.12700000000E+01 0.  1.
         25    2    1    2    0    0  0.00000000000E+00  0.00000000000E+00  0.44684313026E+03  0.46399804847E+03  0.12500162368E+03 0.  0.
    9000005    1    3    3    0    0  0.37250303707E+01 -0.60809601529E+02  0.17176453623E+03  0.18225185705E+03  0.10000000000E+01 0.  0.
    9000005    1    3    3    0    0 -0.37250303707E+01  0.60809601529E+02  0.27507859403E+03  0.28174619142E+03  0.10000000000E+01 0.  0.
<mgrwt>
<rscale>  0 0.12500162E+03</rscale>
<asrwt>0</asrwt>
<pdfrwt beam="1">  1        4 0.70064728E-01 0.12500162E+03</pdfrwt>
<pdfrwt beam="2">  1       -4 0.13196087E-02 0.12500162E+03</pdfrwt>
<totfact> 0.58767926E+03</totfact>
</mgrwt>
</event>
<event>
 5    1  0.3337119E-002  0.1249802E+03  0.7818608E-02  0.1235100E+00
          4   -1    0    0  501    0  0.00000000000E+00  0.00000000000E+00  0.60747587713E+02  0.60760861687E+02  0.12700000000E+01 0.  1.
         -4   -1    0    0    0  501 -0.00000000000E+00 -0.00000000000E+00 -0.64256071183E+02  0.64268620523E+02  0.12700000000E+01 0.  1.
         25    2    1    2    0    0  0.00000000000E+00  0.00000000000E+00 -0.35084834703E+01  0.12502948221E+03  0.12498024630E+03 0.  0.
    9000005    1    3    3    0    0  0.58964020286E+02  0.20590862927E+02  0.56489818943E-01  0.62463929715E+02  0.10000000000E+01 0.  0.
    9000005    1    3    3    0    0 -0.58964020286E+02 -0.20590862927E+02 -0.35649732892E+01  0.62565552495E+02  0.10000000000E+01 0.  0.
<mgrwt>
<rscale>  0 0.12498025E+03</rscale>
<asrwt>0</asrwt>
<pdfrwt beam="1">  1        4 0.93477692E-02 0.12498025E+03</pdfrwt>
<pdfrwt beam="2">  1       -4 0.98875357E-02 0.12498025E+03</pdfrwt>
<totfact> 0.10456890E+04</totfact>
</mgrwt>
</event>
<event>
 5    1  0.3337119E-002  0.1249994E+03  0.7818608E-02  0.1235070E+00
          4   -1    0    0  501    0  0.00000000000E+00  0.00000000000E+00  0.41231624118E+02  0.41251178497E+02  0.12700000000E+01 0.  1.
         -4   -1    0    0    0  501 -0.00000000000E+00 -0.00000000000E+00 -0.94691992307E+02  0.94700508484E+02  0.12700000000E+01 0.  1.
         25    2    1    2    0    0  0.00000000000E+00  0.00000000000E+00 -0.53460368189E+02  0.13595168698E+03  0.12499940090E+03 0.  0.
    9000005    1    3    3    0    0 -0.45619111760E+02 -0.11914807374E+02  0.17877387979E+02  0.50434779602E+02  0.10000000000E+01 0.  0.
    9000005    1    3    3    0    0  0.45619111760E+02  0.11914807374E+02 -0.71337756168E+02  0.85516907379E+02  0.10000000000E+01 0.  0.
<mgrwt>
<rscale>  0 0.12499940E+03</rscale>
<asrwt>0</asrwt>
<pdfrwt beam="1">  1        4 0.63454861E-02 0.12499940E+03</pdfrwt>
<pdfrwt beam="2">  1       -4 0.14570158E-01 0.12499940E+03</pdfrwt>
<totfact> 0.10218189E+04</totfact>
</mgrwt>
</event>
<event>
 5    1  0.3337119E-002  0.1250021E+03  0.7818608E-02  0.1235066E+00
          4   -1    0    0  501    0  0.00000000000E+00  0.00000000000E+00  0.21199736474E+02  0.21237742972E+02  0.12700000000E+01 0.  1.
         -4   -1    0    0    0  501 -0.00000000000E+00 -0.00000000000E+00 -0.18406041984E+03  0.18406480123E+03  0.12700000000E+01 0.  1.
         25    2    1    2    0    0  0.00000000000E+00  0.00000000000E+00 -0.16286068337E+03  0.20530254420E+03  0.12500212986E+03 0.  0.
    9000005    1    3    3    0    0 -0.53344341456E+02  0.10264312795E+02 -0.30691095884E+02  0.62401268009E+02  0.10000000000E+01 0.  0.
    9000005    1    3    3    0    0  0.53344341456E+02 -0.10264312795E+02 -0.13216958748E+03  0.14290127619E+03  0.10000000000E+01 0.  0.
<mgrwt>
<rscale>  0 0.12500213E+03</rscale>
<asrwt>0</asrwt>
<pdfrwt beam="1">  1        4 0.32647586E-02 0.12500213E+03</pdfrwt>
<pdfrwt beam="2">  1       -4 0.28320247E-01 0.12500213E+03</pdfrwt>
<totfact> 0.89244579E+03</totfact>
</mgrwt>
</event>
<event>
 5    1  0.3337119E-002  0.1249999E+03  0.7818608E-02  0.1235070E+00
         -4   -1    0    0    0  501 -0.00000000000E+00  0.00000000000E+00  0.46582177030E+03  0.46582350153E+03  0.12700000000E+01 0.  1.
          4   -1    0    0  501    0  0.00000000000E+00 -0.00000000000E+00 -0.83358561078E+01  0.84320458401E+01  0.12700000000E+01 0.  1.
         25    2    1    2    0    0  0.00000000000E+00  0.00000000000E+00  0.45748591419E+03  0.47425554738E+03  0.12499985014E+03 0.  0.
    9000005    1    3    3    0    0  0.23372515732E+02 -0.56631448349E+02  0.27549530877E+03  0.28222696645E+03  0.10000000000E+01 0.  0.
    9000005    1    3    3    0    0 -0.23372515732E+02  0.56631448349E+02  0.18199060542E+03  0.19202858093E+03  0.10000000000E+01 0.  0.
<mgrwt>
<rscale>  0 0.12499985E+03</rscale>
<asrwt>0</asrwt>
<pdfrwt beam="2">  1        4 0.12899715E-02 0.12499985E+03</pdfrwt>
<pdfrwt beam="1">  1       -4 0.71672439E-01 0.12499985E+03</pdfrwt>
<totfact> 0.57918830E+03</totfact>
</mgrwt>
</event>
<event>
 5    1  0.3337119E-002  0.1249997E+03  0.7818608E-02  0.1235070E+00
         -4   -1    0    0    0  501 -0.00000000000E+00  0.00000000000E+00  0.54217032302E+02  0.54231904739E+02  0.12700000000E+01 0. -1.
          4   -1    0    0  501    0  0.00000000000E+00 -0.00000000000E+00 -0.72017711031E+02  0.72028908100E+02  0.12700000000E+01 0. -1.
         25    2    1    2    0    0  0.00000000000E+00  0.00000000000E+00 -0.17800678729E+02  0.12626081284E+03  0.12499971478E+03 0.  0.
    9000005    1    3    3    0    0 -0.36929277497E+02 -0.48657861203E+02 -0.22219469373E+02  0.65008182659E+02  0.10000000000E+01 0.  0.
    9000005    1    3    3    0    0  0.36929277497E+02  0.48657861203E+02  0.44187906444E+01  0.61252630181E+02  0.10000000000E+01 0.  0.
<mgrwt>
<rscale>  0 0.12499971E+03</rscale>
<asrwt>0</asrwt>
<pdfrwt beam="2">  1        4 0.11081653E-01 0.12499971E+03</pdfrwt>
<pdfrwt beam="1">  1       -4 0.83430873E-02 0.12499971E+03</pdfrwt>
<totfact> 0.10425317E+04</totfact>
</mgrwt>
</event>
<event>
 5    1  0.3337119E-002  0.1249966E+03  0.7818608E-02  0.1235075E+00
          4   -1    0    0  501    0  0.00000000000E+00  0.00000000000E+00  0.26892662001E+02  0.26922633035E+02  0.12700000000E+01 0.  1.
         -4   -1    0    0    0  501 -0.00000000000E+00 -0.00000000000E+00 -0.14513184631E+03  0.14513740287E+03  0.12700000000E+01 0.  1.
         25    2    1    2    0    0  0.00000000000E+00  0.00000000000E+00 -0.11823918430E+03  0.17206003591E+03  0.12499660496E+03 0.  0.
    9000005    1    3    3    0    0 -0.28798969308E+02  0.52098465033E+02 -0.85288171405E+02  0.10401299377E+03  0.10000000000E+01 0.  0.
    9000005    1    3    3    0    0  0.28798969308E+02 -0.52098465033E+02 -0.32951012900E+02  0.68047042134E+02  0.10000000000E+01 0.  0.
<mgrwt>
<rscale>  0 0.12499660E+03</rscale>
<asrwt>0</asrwt>
<pdfrwt beam="1">  1        4 0.41400656E-02 0.12499660E+03</pdfrwt>
<pdfrwt beam="2">  1       -4 0.22330709E-01 0.12499660E+03</pdfrwt>
<totfact> 0.95073306E+03</totfact>
</mgrwt>
</event>
<event>
 5    1  0.3337119E-002  0.1250004E+03  0.7818608E-02  0.1235069E+00
          4   -1    0    0  501    0  0.00000000000E+00  0.00000000000E+00  0.31972940848E+03  0.31973193075E+03  0.12700000000E+01 0.  1.
         -4   -1    0    0    0  501 -0.00000000000E+00 -0.00000000000E+00 -0.12181858548E+02  0.12247880538E+02  0.12700000000E+01 0.  1.
         25    2    1    2    0    0  0.00000000000E+00  0.00000000000E+00  0.30754754993E+03  0.33197981129E+03  0.12500039856E+03 0.  0.
    9000005    1    3    3    0    0 -0.96168143751E+01  0.86220185995E+01 -0.86113390216E+01  0.15555625452E+02  0.10000000000E+01 0.  0.
    9000005    1    3    3    0    0  0.96168143751E+01 -0.86220185995E+01  0.31615888895E+03  0.31642418584E+03  0.10000000000E+01 0.  0.
<mgrwt>
<rscale>  0 0.12500040E+03</rscale>
<asrwt>0</asrwt>
<pdfrwt beam="1">  1        4 0.49194416E-01 0.12500040E+03</pdfrwt>
<pdfrwt beam="2">  1       -4 0.18794046E-02 0.12500040E+03</pdfrwt>
<totfact> 0.71752942E+03</totfact>
</mgrwt>
</event>
<event>
 5    1  0.3337119E-002  0.1249964E+03  0.7818608E-02  0.1235075E+00
          4   -1    0    0  501    0  0.00000000000E+00  0.00000000000E+00  0.27595679925E+02  0.27624888244E+02  0.12700000000E+01 0.  1.
         -4   -1    0    0    0  501 -0.00000000000E+00 -0.00000000000E+00 -0.14143787889E+03  0.14144358057E+03  0.12700000000E+01 0.  1.
         25    2    1    2    0    0  0.00000000000E+00  0.00000000000E+00 -0.11384219896E+03  0.16906846881E+03  0.12499640348E+03 0.  0.
    9000005    1    3    3    0    0  0.57864099275E+02  0.33101232649E+01 -0.25321064391E+02  0.63256360967E+02  0.10000000000E+01 0.  0.
    9000005    1    3    3    0    0 -0.57864099275E+02 -0.33101232649E+01 -0.88521134572E+02  0.10581210785E+03  0.10000000000E+01 0.  0.
<mgrwt>
<rscale>  0 0.12499640E+03</rscale>
<asrwt>0</asrwt>
<pdfrwt beam="1">  1        4 0.42481747E-02 0.12499640E+03</pdfrwt>
<pdfrwt beam="2">  1       -4 0.21762359E-01 0.12499640E+03</pdfrwt>
<totfact> 0.95630111E+03</totfact>
</mgrwt>
</event>
<event>
 5    1  0.3337119E-002  0.1250017E+03  0.7818608E-02  0.1235067E+00
          4   -1    0    0  501    0  0.00000000000E+00  0.00000000000E+00  0.89543951800E+02  0.89552957539E+02  0.12700000000E+01 0.  1.
         -4   -1    0    0    0  501 -0.00000000000E+00 -0.00000000000E+00 -0.43604558066E+02  0.43623048772E+02  0.12700000000E+01 0.  1.
         25    2    1    2    0    0  0.00000000000E+00  0.00000000000E+00  0.45939393734E+02  0.13317600631E+03  0.12500168303E+03 0.  0.
    9000005    1    3    3    0    0  0.35130151971E+02 -0.51235953919E+02  0.30203762379E+02  0.69083411999E+02  0.10000000000E+01 0.  0.
    9000005    1    3    3    0    0 -0.35130151971E+02  0.51235953919E+02  0.15735631355E+02  0.64092594312E+02  0.10000000000E+01 0.  0.
<mgrwt>
<rscale>  0 0.12500168E+03</rscale>
<asrwt>0</asrwt>
<pdfrwt beam="1">  1        4 0.13778107E-01 0.12500168E+03</pdfrwt>
<pdfrwt beam="2">  1       -4 0.67105088E-02 0.12500168E+03</pdfrwt>
<totfact> 0.10276271E+04</totfact>
</mgrwt>
</event>
<event>
 5    1  0.3337119E-002  0.1250055E+03  0.7818608E-02  0.1235061E+00
          4   -1    0    0  501    0  0.00000000000E+00  0.00000000000E+00  0.13085823560E+02  0.13147306882E+02  0.12700000000E+01 0. -1.
         -4   -1    0    0    0  501 -0.00000000000E+00 -0.00000000000E+00 -0.29777372309E+03  0.29777643134E+03  0.12700000000E+01 0. -1.
         25    2    1    2    0    0  0.00000000000E+00  0.00000000000E+00 -0.28468789953E+03  0.31092373822E+03  0.12500548329E+03 0.  0.
    9000005    1    3    3    0    0  0.50429752365E+02  0.24543134553E+02 -0.21091658688E+03  0.21824832645E+03  0.10000000000E+01 0.  0.
    9000005    1    3    3    0    0 -0.50429752365E+02 -0.24543134553E+02 -0.73771312648E+02  0.92675411772E+02  0.10000000000E+01 0.  0.
<mgrwt>
<rscale>  0 0.12500548E+03</rscale>
<asrwt>0</asrwt>
<pdfrwt beam="1">  1        4 0.20181417E-02 0.12500548E+03</pdfrwt>
<pdfrwt beam="2">  1       -4 0.45816275E-01 0.12500548E+03</pdfrwt>
<totfact> 0.74239673E+03</totfact>
</mgrwt>
</event>
<event>
 5    1  0.3337119E-002  0.1250057E+03  0.7818608E-02  0.1235060E+00
          4   -1    0    0  501    0  0.00000000000E+00  0.00000000000E+00  0.87375359794E+02  0.87384589025E+02  0.12700000000E+01 0.  1.
         -4   -1    0    0    0  501 -0.00000000000E+00 -0.00000000000E+00 -0.44690035454E+02  0.44708077222E+02  0.12700000000E+01 0.  1.
         25    2    1    2    0    0  0.00000000000E+00  0.00000000000E+00  0.42685324340E+02  0.13209266625E+03  0.12500574212E+03 0.  0.
    9000005    1    3    3    0    0  0.39851577849E+02 -0.39725668838E+02  0.50074834135E+02  0.75331042973E+02  0.10000000000E+01 0.  0.
    9000005    1    3    3    0    0 -0.39851577849E+02  0.39725668838E+02 -0.73895097953E+01  0.56761623274E+02  0.10000000000E+01 0.  0.
<mgrwt>
<rscale>  0 0.12500574E+03</rscale>
<asrwt>0</asrwt>
<pdfrwt beam="1">  1        4 0.13444460E-01 0.12500574E+03</pdfrwt>
<pdfrwt beam="2">  1       -4 0.68774880E-02 0.12500574E+03</pdfrwt>
<totfact> 0.10298387E+04</totfact>
</mgrwt>
</event>
<event>
 5    1  0.3337119E-002  0.1250027E+03  0.7818608E-02  0.1235065E+00
         -4   -1    0    0    0  501 -0.00000000000E+00  0.00000000000E+00  0.31619764660E+02  0.31645259000E+02  0.12700000000E+01 0.  1.
          4   -1    0    0  501    0  0.00000000000E+00 -0.00000000000E+00 -0.12346512200E+03  0.12347165363E+03  0.12700000000E+01 0.  1.
         25    2    1    2    0    0  0.00000000000E+00  0.00000000000E+00 -0.91845357335E+02  0.15511691263E+03  0.12500274764E+03 0.  0.
    9000005    1    3    3    0    0 -0.81240281062E+01 -0.61962906991E+02 -0.45746949891E+02  0.77454406587E+02  0.10000000000E+01 0.  0.
    9000005    1    3    3    0    0  0.81240281062E+01  0.61962906991E+02 -0.46098407444E+02  0.77662506039E+02  0.10000000000E+01 0.  0.
<mgrwt>
<rscale>  0 0.12500275E+03</rscale>
<asrwt>0</asrwt>
<pdfrwt beam="2">  1        4 0.18997097E-01 0.12500275E+03</pdfrwt>
<pdfrwt beam="1">  1       -4 0.48670428E-02 0.12500275E+03</pdfrwt>
<totfact> 0.98286479E+03</totfact>
</mgrwt>
</event>
<event>
 5    1  0.3337119E-002  0.1250007E+03  0.7818608E-02  0.1235068E+00
          4   -1    0    0  501    0  0.00000000000E+00  0.00000000000E+00  0.90650351010E+02  0.90659246843E+02  0.12700000000E+01 0. -1.
         -4   -1    0    0    0  501 -0.00000000000E+00 -0.00000000000E+00 -0.43071513760E+02  0.43090233204E+02  0.12700000000E+01 0. -1.
         25    2    1    2    0    0  0.00000000000E+00  0.00000000000E+00  0.47578837250E+02  0.13374948005E+03  0.12500071063E+03 0.  0.
    9000005    1    3    3    0    0 -0.26687893265E+02  0.56006602869E+02  0.15760130873E+02  0.64018473404E+02  0.10000000000E+01 0.  0.
    9000005    1    3    3    0    0  0.26687893265E+02 -0.56006602869E+02  0.31818706377E+02  0.69731006643E+02  0.10000000000E+01 0.  0.
<mgrwt>
<rscale>  0 0.12500071E+03</rscale>
<asrwt>0</asrwt>
<pdfrwt beam="1">  1        4 0.13948332E-01 0.12500071E+03</pdfrwt>
<pdfrwt beam="2">  1       -4 0.66285110E-02 0.12500071E+03</pdfrwt>
<totfact> 0.10264332E+04</totfact>
</mgrwt>
</event>
<event>
 5    1  0.3337119E-002  0.1250032E+03  0.7818608E-02  0.1235064E+00
         -4   -1    0    0    0  501 -0.00000000000E+00  0.00000000000E+00  0.96756452486E+02  0.96764786972E+02  0.12700000000E+01 0. -1.
          4   -1    0    0  501    0  0.00000000000E+00 -0.00000000000E+00 -0.40353957856E+02  0.40373937319E+02  0.12700000000E+01 0. -1.
         25    2    1    2    0    0  0.00000000000E+00  0.00000000000E+00  0.56402494630E+02  0.13713872429E+03  0.12500315316E+03 0.  0.
    9000005    1    3    3    0    0  0.53103228198E+02 -0.12183287590E+02  0.61784537232E+02  0.82381517239E+02  0.10000000000E+01 0.  0.
    9000005    1    3    3    0    0 -0.53103228198E+02  0.12183287590E+02 -0.53820426019E+01  0.54757207052E+02  0.10000000000E+01 0.  0.
<mgrwt>
<rscale>  0 0.12500315E+03</rscale>
<asrwt>0</asrwt>
<pdfrwt beam="2">  1        4 0.62104794E-02 0.12500315E+03</pdfrwt>
<pdfrwt beam="1">  1       -4 0.14887786E-01 0.12500315E+03</pdfrwt>
<totfact> 0.10192461E+04</totfact>
</mgrwt>
</event>
<event>
 5    1  0.3337119E-002  0.1250165E+03  0.7818608E-02  0.1235043E+00
         -4   -1    0    0    0  501 -0.00000000000E+00  0.00000000000E+00  0.11501907019E+02  0.11571809066E+02  0.12700000000E+01 0.  1.
          4   -1    0    0  501    0  0.00000000000E+00 -0.00000000000E+00 -0.33860702569E+03  0.33860940735E+03  0.12700000000E+01 0.  1.
         25    2    1    2    0    0  0.00000000000E+00  0.00000000000E+00 -0.32710511867E+03  0.35018121642E+03  0.12501650159E+03 0.  0.
    9000005    1    3    3    0    0 -0.55406091855E+02  0.27402424120E+02 -0.18946119456E+03  0.19929192685E+03  0.10000000000E+01 0.  0.
    9000005    1    3    3    0    0  0.55406091855E+02 -0.27402424120E+02 -0.13764392411E+03  0.15088928957E+03  0.10000000000E+01 0.  0.
<mgrwt>
<rscale>  0 0.12501650E+03</rscale>
<asrwt>0</asrwt>
<pdfrwt beam="2">  1        4 0.52098941E-01 0.12501650E+03</pdfrwt>
<pdfrwt beam="1">  1       -4 0.17750847E-02 0.12501650E+03</pdfrwt>
<totfact> 0.69679179E+03</totfact>
</mgrwt>
</event>
<event>
 5    1  0.3337119E-002  0.1249966E+03  0.7818608E-02  0.1235075E+00
          4   -1    0    0  501    0  0.00000000000E+00  0.00000000000E+00  0.12340340972E+03  0.12340994462E+03  0.12700000000E+01 0.  1.
         -4   -1    0    0    0  501 -0.00000000000E+00 -0.00000000000E+00 -0.31632463257E+02  0.31657947370E+02  0.12700000000E+01 0.  1.
         25    2    1    2    0    0  0.00000000000E+00  0.00000000000E+00  0.91770946465E+02  0.15506789199E+03  0.12499657800E+03 0.  0.
    9000005    1    3    3    0    0  0.15982705861E+02 -0.21003320103E+02 -0.24384758033E+02  0.35947221955E+02  0.10000000000E+01 0.  0.
    9000005    1    3    3    0    0 -0.15982705861E+02  0.21003320103E+02  0.11615570450E+03  0.11912067003E+03  0.10000000000E+01 0.  0.
<mgrwt>
<rscale>  0 0.12499658E+03</rscale>
<asrwt>0</asrwt>
<pdfrwt beam="1">  1        4 0.18987603E-01 0.12499658E+03</pdfrwt>
<pdfrwt beam="2">  1       -4 0.48689958E-02 0.12499658E+03</pdfrwt>
<totfact> 0.98309738E+03</totfact>
</mgrwt>
</event>
<event>
 5    1  0.3337119E-002  0.1249989E+03  0.7818608E-02  0.1235071E+00
          4   -1    0    0  501    0  0.00000000000E+00  0.00000000000E+00  0.18703684336E+02  0.18746751925E+02  0.12700000000E+01 0.  1.
         -4   -1    0    0    0  501 -0.00000000000E+00 -0.00000000000E+00 -0.20856042532E+03  0.20856429203E+03  0.12700000000E+01 0.  1.
         25    2    1    2    0    0  0.00000000000E+00  0.00000000000E+00 -0.18985674098E+03  0.22731104396E+03  0.12499891442E+03 0.  0.
    9000005    1    3    3    0    0 -0.94339107531E+00 -0.61678857801E+02 -0.76742359321E+02  0.98466040849E+02  0.10000000000E+01 0.  0.
    9000005    1    3    3    0    0  0.94339107531E+00  0.61678857801E+02 -0.11311438166E+03  0.12884500311E+03  0.10000000000E+01 0.  0.
<mgrwt>
<rscale>  0 0.12499891E+03</rscale>
<asrwt>0</asrwt>
<pdfrwt beam="1">  1        4 0.28811004E-02 0.12499891E+03</pdfrwt>
<pdfrwt beam="2">  1       -4 0.32089828E-01 0.12499891E+03</pdfrwt>
<totfact> 0.85726284E+03</totfact>
</mgrwt>
</event>
<event>
 5    1  0.3337119E-002  0.1250228E+03  0.7818608E-02  0.1235034E+00
          4   -1    0    0  501    0  0.00000000000E+00  0.00000000000E+00  0.15043486874E+02  0.15096999613E+02  0.12700000000E+01 0.  1.
         -4   -1    0    0    0  501 -0.00000000000E+00 -0.00000000000E+00 -0.25924233806E+03  0.25924544884E+03  0.12700000000E+01 0.  1.
         25    2    1    2    0    0  0.00000000000E+00  0.00000000000E+00 -0.24419885119E+03  0.27434244845E+03  0.12502279833E+03 0.  0.
    9000005    1    3    3    0    0 -0.19883178444E+02 -0.56644430986E+02 -0.16027983840E+03  0.17115653345E+03  0.10000000000E+01 0.  0.
    9000005    1    3    3    0    0  0.19883178444E+02  0.56644430986E+02 -0.83919012793E+02  0.10318591500E+03  0.10000000000E+01 0.  0.
<mgrwt>
<rscale>  0 0.12502280E+03</rscale>
<asrwt>0</asrwt>
<pdfrwt beam="1">  1        4 0.23187385E-02 0.12502280E+03</pdfrwt>
<pdfrwt beam="2">  1       -4 0.39887789E-01 0.12502280E+03</pdfrwt>
<totfact> 0.78894283E+03</totfact>
</mgrwt>
</event>
<event>
 5    1  0.3337119E-002  0.1250043E+03  0.7818608E-02  0.1235063E+00
         -4   -1    0    0    0  501 -0.00000000000E+00  0.00000000000E+00  0.22485959179E+03  0.22486317822E+03  0.12700000000E+01 0.  1.
          4   -1    0    0  501    0  0.00000000000E+00 -0.00000000000E+00 -0.17346197300E+02  0.17392626621E+02  0.12700000000E+01 0.  1.
         25    2    1    2    0    0  0.00000000000E+00  0.00000000000E+00  0.20751339449E+03  0.24225580484E+03  0.12500426428E+03 0.  0.
    9000005    1    3    3    0    0  0.20918898638E+02 -0.18186903207E+02  0.21230354022E+03  0.21410781620E+03  0.10000000000E+01 0.  0.
    9000005    1    3    3    0    0 -0.20918898638E+02  0.18186903207E+02 -0.47901457293E+01  0.28147988642E+02  0.10000000000E+01 0.  0.
<mgrwt>
<rscale>  0 0.12500426E+03</rscale>
<asrwt>0</asrwt>
<pdfrwt beam="2">  1        4 0.26724933E-02 0.12500426E+03</pdfrwt>
<pdfrwt beam="1">  1       -4 0.34597628E-01 0.12500426E+03</pdfrwt>
<totfact> 0.83454617E+03</totfact>
</mgrwt>
</event>
<event>
 5    1  0.3337119E-002  0.1249994E+03  0.7818608E-02  0.1235070E+00
          4   -1    0    0  501    0  0.00000000000E+00  0.00000000000E+00  0.44220949482E+02  0.44239182554E+02  0.12700000000E+01 0.  1.
         -4   -1    0    0    0  501 -0.00000000000E+00 -0.00000000000E+00 -0.88292933320E+02  0.88302066648E+02  0.12700000000E+01 0.  1.
         25    2    1    2    0    0  0.00000000000E+00  0.00000000000E+00 -0.44071983839E+02  0.13254124920E+03  0.12499937192E+03 0.  0.
    9000005    1    3    3    0    0  0.72055226661E+01 -0.19981990939E+02 -0.84352785761E+02  0.86991907580E+02  0.10000000000E+01 0.  0.
    9000005    1    3    3    0    0 -0.72055226661E+01  0.19981990939E+02  0.40280801922E+02  0.45549341623E+02  0.10000000000E+01 0.  0.
<mgrwt>
<rscale>  0 0.12499937E+03</rscale>
<asrwt>0</asrwt>
<pdfrwt beam="1">  1        4 0.68053281E-02 0.12499937E+03</pdfrwt>
<pdfrwt beam="2">  1       -4 0.13585633E-01 0.12499937E+03</pdfrwt>
<totfact> 0.10290305E+04</totfact>
</mgrwt>
</event>
<event>
 5    1  0.3337119E-002  0.1250011E+03  0.7818608E-02  0.1235068E+00
          4   -1    0    0  501    0  0.00000000000E+00  0.00000000000E+00  0.69433880799E+02  0.69445494474E+02  0.12700000000E+01 0. -1.
         -4   -1    0    0    0  501 -0.00000000000E+00 -0.00000000000E+00 -0.56236044355E+02  0.56250382974E+02  0.12700000000E+01 0. -1.
         25    2    1    2    0    0  0.00000000000E+00  0.00000000000E+00  0.13197836444E+02  0.12569587745E+03  0.12500108288E+03 0.  0.
    9000005    1    3    3    0    0  0.38601724651E+02 -0.21664581878E+02 -0.37758291331E+02  0.58190513129E+02  0.10000000000E+01 0.  0.
    9000005    1    3    3    0    0 -0.38601724651E+02  0.21664581878E+02  0.50956127774E+02  0.67505364319E+02  0.10000000000E+01 0.  0.
<mgrwt>
<rscale>  0 0.12500108E+03</rscale>
<asrwt>0</asrwt>
<pdfrwt beam="1">  1        4 0.10684132E-01 0.12500108E+03</pdfrwt>
<pdfrwt beam="2">  1       -4 0.86536955E-02 0.12500108E+03</pdfrwt>
<totfact> 0.10437380E+04</totfact>
</mgrwt>
</event>
<event>
 5    1  0.3337119E-002  0.1249964E+03  0.7818608E-02  0.1235075E+00
         -4   -1    0    0    0  501 -0.00000000000E+00  0.00000000000E+00  0.13408649613E+04  0.13408655627E+04  0.12700000000E+01 0.  1.
          4   -1    0    0  501    0  0.00000000000E+00 -0.00000000000E+00 -0.27740118870E+01  0.30509083810E+01  0.12700000000E+01 0.  1.
         25    2    1    2    0    0  0.00000000000E+00  0.00000000000E+00  0.13380909494E+04  0.13439164711E+04  0.12499636975E+03 0.  0.
    9000005    1    3    3    0    0  0.40164685128E+02 -0.75011237858E+01  0.11774009323E+04  0.11781101070E+04  0.10000000000E+01 0.  0.
    9000005    1    3    3    0    0 -0.40164685128E+02  0.75011237858E+01  0.16069001710E+03  0.16580636413E+03  0.10000000000E+01 0.  0.
<mgrwt>
<rscale>  0 0.12499637E+03</rscale>
<asrwt>0</asrwt>
<pdfrwt beam="2">  1        4 0.44811817E-03 0.12499637E+03</pdfrwt>
<pdfrwt beam="1">  1       -4 0.20630775E+00 0.12499637E+03</pdfrwt>
<totfact> 0.21216868E+03</totfact>
</mgrwt>
</event>
<event>
 5    1  0.3337119E-002  0.1249996E+03  0.7818608E-02  0.1235070E+00
         -4   -1    0    0    0  501 -0.00000000000E+00  0.00000000000E+00  0.31265513682E+03  0.31265771617E+03  0.12700000000E+01 0.  1.
          4   -1    0    0  501    0  0.00000000000E+00 -0.00000000000E+00 -0.12458812201E+02  0.12523374204E+02  0.12700000000E+01 0.  1.
         25    2    1    2    0    0  0.00000000000E+00  0.00000000000E+00  0.30019632462E+03  0.32518109037E+03  0.12499963288E+03 0.  0.
    9000005    1    3    3    0    0 -0.49651060617E+02  0.92113682755E+00  0.51408948694E+02  0.71483958475E+02  0.10000000000E+01 0.  0.
    9000005    1    3    3    0    0  0.49651060617E+02 -0.92113682755E+00  0.24878737592E+03  0.25369713190E+03  0.10000000000E+01 0.  0.
<mgrwt>
<rscale>  0 0.12499963E+03</rscale>
<asrwt>0</asrwt>
<pdfrwt beam="2">  1        4 0.19219052E-02 0.12499963E+03</pdfrwt>
<pdfrwt beam="1">  1       -4 0.48105951E-01 0.12499963E+03</pdfrwt>
<totfact> 0.72544703E+03</totfact>
</mgrwt>
</event>
<event>
 5    1  0.3337119E-002  0.1250077E+03  0.7818608E-02  0.1235057E+00
         -4   -1    0    0    0  501 -0.00000000000E+00  0.00000000000E+00  0.14941064208E+03  0.14941603953E+03  0.12700000000E+01 0. -1.
          4   -1    0    0  501    0  0.00000000000E+00 -0.00000000000E+00 -0.26126318445E+02  0.26157167574E+02  0.12700000000E+01 0. -1.
         25    2    1    2    0    0  0.00000000000E+00  0.00000000000E+00  0.12328432364E+03  0.17557320710E+03  0.12500770615E+03 0.  0.
    9000005    1    3    3    0    0 -0.28785946029E+02 -0.53605926510E+02  0.41606225529E+02  0.73717732253E+02  0.10000000000E+01 0.  0.
    9000005    1    3    3    0    0  0.28785946029E+02  0.53605926510E+02  0.81678098109E+02  0.10185547485E+03  0.10000000000E+01 0.  0.
<mgrwt>
<rscale>  0 0.12500771E+03</rscale>
<asrwt>0</asrwt>
<pdfrwt beam="2">  1        4 0.40222218E-02 0.12500771E+03</pdfrwt>
<pdfrwt beam="1">  1       -4 0.22989041E-01 0.12500771E+03</pdfrwt>
<totfact> 0.94403644E+03</totfact>
</mgrwt>
</event>
<event>
 5    1  0.3337119E-002  0.1250105E+03  0.7818608E-02  0.1235053E+00
          4   -1    0    0  501    0  0.00000000000E+00  0.00000000000E+00  0.22880490788E+02  0.22915709867E+02  0.12700000000E+01 0.  1.
         -4   -1    0    0    0  501 -0.00000000000E+00 -0.00000000000E+00 -0.17058371891E+03  0.17058844643E+03  0.12700000000E+01 0.  1.
         25    2    1    2    0    0  0.00000000000E+00  0.00000000000E+00 -0.14770322812E+03  0.19350415630E+03  0.12501045919E+03 0.  0.
    9000005    1    3    3    0    0  0.32536132406E+02 -0.19671226911E+02 -0.15063055151E+03  0.15535803851E+03  0.10000000000E+01 0.  0.
    9000005    1    3    3    0    0 -0.32536132406E+02  0.19671226911E+02  0.29273233952E+01  0.38146117789E+02  0.10000000000E+01 0.  0.
<mgrwt>
<rscale>  0 0.12501046E+03</rscale>
<asrwt>0</asrwt>
<pdfrwt beam="1">  1        4 0.35231484E-02 0.12501046E+03</pdfrwt>
<pdfrwt beam="2">  1       -4 0.26246721E-01 0.12501046E+03</pdfrwt>
<totfact> 0.91219787E+03</totfact>
</mgrwt>
</event>
<event>
 5    1  0.3337119E-002  0.1249987E+03  0.7818608E-02  0.1235071E+00
         -4   -1    0    0    0  501 -0.00000000000E+00  0.00000000000E+00  0.28624228930E+02  0.28652388764E+02  0.12700000000E+01 0.  1.
          4   -1    0    0  501    0  0.00000000000E+00 -0.00000000000E+00 -0.13636554398E+03  0.13637145774E+03  0.12700000000E+01 0.  1.
         25    2    1    2    0    0  0.00000000000E+00  0.00000000000E+00 -0.10774131505E+03  0.16502384650E+03  0.12499871577E+03 0.  0.
    9000005    1    3    3    0    0 -0.26798259527E+02  0.24705108712E+02 -0.12088556938E+03  0.12626484069E+03  0.10000000000E+01 0.  0.
    9000005    1    3    3    0    0  0.26798259527E+02 -0.24705108712E+02  0.13144254323E+02  0.38759005816E+02  0.10000000000E+01 0.  0.
<mgrwt>
<rscale>  0 0.12499872E+03</rscale>
<asrwt>0</asrwt>
<pdfrwt beam="2">  1        4 0.20981935E-01 0.12499872E+03</pdfrwt>
<pdfrwt beam="1">  1       -4 0.44063486E-02 0.12499872E+03</pdfrwt>
<totfact> 0.96385657E+03</totfact>
</mgrwt>
</event>
<event>
 5    1  0.3337119E-002  0.1249936E+03  0.7818608E-02  0.1235079E+00
          4   -1    0    0  501    0  0.00000000000E+00  0.00000000000E+00  0.15219449561E+03  0.15219979433E+03  0.12700000000E+01 0. -1.
         -4   -1    0    0    0  501 -0.00000000000E+00 -0.00000000000E+00 -0.25642081727E+02  0.25673512719E+02  0.12700000000E+01 0. -1.
         25    2    1    2    0    0  0.00000000000E+00  0.00000000000E+00  0.12655241388E+03  0.17787330705E+03  0.12499359944E+03 0.  0.
    9000005    1    3    3    0    0  0.29522912147E+02  0.51452292522E+02  0.91231598952E+02  0.10882621649E+03  0.10000000000E+01 0.  0.
    9000005    1    3    3    0    0 -0.29522912147E+02 -0.51452292522E+02  0.35320814928E+02  0.69047090559E+02  0.10000000000E+01 0.  0.
<mgrwt>
<rscale>  0 0.12499360E+03</rscale>
<asrwt>0</asrwt>
<pdfrwt beam="1">  1        4 0.23417363E-01 0.12499360E+03</pdfrwt>
<pdfrwt beam="2">  1       -4 0.39477610E-02 0.12499360E+03</pdfrwt>
<totfact> 0.94014716E+03</totfact>
</mgrwt>
</event>
<event>
 5    1  0.3337119E-002  0.1250104E+03  0.7818608E-02  0.1235053E+00
         -4   -1    0    0    0  501 -0.00000000000E+00  0.00000000000E+00  0.35048031224E+03  0.35048261322E+03  0.12700000000E+01 0. -1.
          4   -1    0    0  501    0  0.00000000000E+00 -0.00000000000E+00 -0.11108763292E+02  0.11181123462E+02  0.12700000000E+01 0. -1.
         25    2    1    2    0    0  0.00000000000E+00  0.00000000000E+00  0.33937154895E+03  0.36166373668E+03  0.12501044034E+03 0.  0.
    9000005    1    3    3    0    0 -0.20717451085E+02  0.55313282245E+02  0.11059839998E+03  0.12538651463E+03  0.10000000000E+01 0.  0.
    9000005    1    3    3    0    0  0.20717451085E+02 -0.55313282245E+02  0.22877314897E+03  0.23627722205E+03  0.10000000000E+01 0.  0.
<mgrwt>
<rscale>  0 0.12501044E+03</rscale>
<asrwt>0</asrwt>
<pdfrwt beam="2">  1        4 0.17147839E-02 0.12501044E+03</pdfrwt>
<pdfrwt beam="1">  1       -4 0.53925783E-01 0.12501044E+03</pdfrwt>
<totfact> 0.68444377E+03</totfact>
</mgrwt>
</event>
<event>
 5    1  0.3337119E-002  0.1250009E+03  0.7818608E-02  0.1235068E+00
         -4   -1    0    0    0  501 -0.00000000000E+00  0.00000000000E+00  0.17311748428E+02  0.17358269892E+02  0.12700000000E+01 0.  1.
          4   -1    0    0  501    0  0.00000000000E+00 -0.00000000000E+00 -0.22529357247E+03  0.22529715199E+03  0.12700000000E+01 0.  1.
         25    2    1    2    0    0  0.00000000000E+00  0.00000000000E+00 -0.20798182404E+03  0.24265542188E+03  0.12500085855E+03 0.  0.
    9000005    1    3    3    0    0  0.26492725922E+02 -0.28562502585E+02 -0.19884582770E+03  0.20262858701E+03  0.10000000000E+01 0.  0.
    9000005    1    3    3    0    0 -0.26492725922E+02  0.28562502585E+02 -0.91359963400E+01  0.40026834871E+02  0.10000000000E+01 0.  0.
<mgrwt>
<rscale>  0 0.12500086E+03</rscale>
<asrwt>0</asrwt>
<pdfrwt beam="2">  1        4 0.34664401E-01 0.12500086E+03</pdfrwt>
<pdfrwt beam="1">  1       -4 0.26672000E-02 0.12500086E+03</pdfrwt>
<totfact> 0.83401877E+03</totfact>
</mgrwt>
</event>
<event>
 5    1  0.3337119E-002  0.1249983E+03  0.7818608E-02  0.1235072E+00
         -4   -1    0    0    0  501 -0.00000000000E+00  0.00000000000E+00  0.11959354123E+02  0.12026597651E+02  0.12700000000E+01 0.  1.
          4   -1    0    0  501    0  0.00000000000E+00 -0.00000000000E+00 -0.32563439541E+03  0.32563687195E+03  0.12700000000E+01 0.  1.
         25    2    1    2    0    0  0.00000000000E+00  0.00000000000E+00 -0.31367504129E+03  0.33766346960E+03  0.12499834870E+03 0.  0.
    9000005    1    3    3    0    0 -0.58457287976E+02  0.67776216258E+01 -0.21362719521E+03  0.22158693374E+03  0.10000000000E+01 0.  0.
    9000005    1    3    3    0    0  0.58457287976E+02 -0.67776216258E+01 -0.10004784608E+03  0.11607653586E+03  0.10000000000E+01 0.  0.
<mgrwt>
<rscale>  0 0.12499835E+03</rscale>
<asrwt>0</asrwt>
<pdfrwt beam="2">  1        4 0.50102956E-01 0.12499835E+03</pdfrwt>
<pdfrwt beam="1">  1       -4 0.18452640E-02 0.12499835E+03</pdfrwt>
<totfact> 0.71105996E+03</totfact>
</mgrwt>
</event>
<event>
 5    1  0.3337119E-002  0.1249961E+03  0.7818608E-02  0.1235075E+00
          4   -1    0    0  501    0  0.00000000000E+00  0.00000000000E+00  0.68291497352E+02  0.68303305268E+02  0.12700000000E+01 0. -1.
         -4   -1    0    0    0  501 -0.00000000000E+00 -0.00000000000E+00 -0.57172234424E+02  0.57186338308E+02  0.12700000000E+01 0. -1.
         25    2    1    2    0    0  0.00000000000E+00  0.00000000000E+00  0.11119262927E+02  0.12548964358E+03  0.12499605048E+03 0.  0.
    9000005    1    3    3    0    0 -0.69307150335E+01  0.80141990061E+01 -0.56268793902E+02  0.57266389477E+02  0.10000000000E+01 0.  0.
    9000005    1    3    3    0    0  0.69307150335E+01 -0.80141990061E+01  0.67388056829E+02  0.68223254099E+02  0.10000000000E+01 0.  0.
<mgrwt>
<rscale>  0 0.12499605E+03</rscale>
<asrwt>0</asrwt>
<pdfrwt beam="1">  1        4 0.10508377E-01 0.12499605E+03</pdfrwt>
<pdfrwt beam="2">  1       -4 0.87977216E-02 0.12499605E+03</pdfrwt>
<totfact> 0.10443113E+04</totfact>
</mgrwt>
</event>
<event>
 5    1  0.3337119E-002  0.1249942E+03  0.7818608E-02  0.1235078E+00
         -4   -1    0    0    0  501 -0.00000000000E+00  0.00000000000E+00  0.32554794626E+02  0.32579557288E+02  0.12700000000E+01 0.  1.
          4   -1    0    0  501    0  0.00000000000E+00 -0.00000000000E+00 -0.11990514563E+03  0.11991187118E+03  0.12700000000E+01 0.  1.
         25    2    1    2    0    0  0.00000000000E+00  0.00000000000E+00 -0.87350351008E+02  0.15249142847E+03  0.12499420760E+03 0.  0.
    9000005    1    3    3    0    0  0.57260878659E+02 -0.19591611378E+02 -0.62663476763E+02  0.87122619228E+02  0.10000000000E+01 0.  0.
    9000005    1    3    3    0    0 -0.57260878659E+02  0.19591611378E+02 -0.24686874245E+02  0.65368809238E+02  0.10000000000E+01 0.  0.
<mgrwt>
<rscale>  0 0.12499421E+03</rscale>
<asrwt>0</asrwt>
<pdfrwt beam="2">  1        4 0.18449367E-01 0.12499421E+03</pdfrwt>
<pdfrwt beam="1">  1       -4 0.50108522E-02 0.12499421E+03</pdfrwt>
<totfact> 0.98822246E+03</totfact>
</mgrwt>
</event>
<event>
 5    1  0.3337119E-002  0.1249983E+03  0.7818608E-02  0.1235072E+00
          4   -1    0    0  501    0  0.00000000000E+00  0.00000000000E+00  0.83279533372E+02  0.83289216461E+02  0.12700000000E+01 0.  1.
         -4   -1    0    0    0  501 -0.00000000000E+00 -0.00000000000E+00 -0.46882986729E+02  0.46900184910E+02  0.12700000000E+01 0.  1.
         25    2    1    2    0    0  0.00000000000E+00  0.00000000000E+00  0.36396546643E+02  0.13018940137E+03  0.12499828647E+03 0.  0.
    9000005    1    3    3    0    0 -0.32404739403E+02  0.53219228670E+02  0.23170359847E+02  0.66484727655E+02  0.10000000000E+01 0.  0.
    9000005    1    3    3    0    0  0.32404739403E+02 -0.53219228670E+02  0.13226186797E+02  0.63704673715E+02  0.10000000000E+01 0.  0.
<mgrwt>
<rscale>  0 0.12499829E+03</rscale>
<asrwt>0</asrwt>
<pdfrwt beam="1">  1        4 0.12814304E-01 0.12499829E+03</pdfrwt>
<pdfrwt beam="2">  1       -4 0.72148350E-02 0.12499829E+03</pdfrwt>
<totfact> 0.10340857E+04</totfact>
</mgrwt>
</event>
<event>
 5    1  0.3337119E-002  0.1249991E+03  0.7818608E-02  0.1235071E+00
          4   -1    0    0  501    0  0.00000000000E+00  0.00000000000E+00  0.61078391352E+02  0.61091593449E+02  0.12700000000E+01 0. -1.
         -4   -1    0    0    0  501 -0.00000000000E+00 -0.00000000000E+00 -0.63927398903E+02  0.63940012750E+02  0.12700000000E+01 0. -1.
         25    2    1    2    0    0  0.00000000000E+00  0.00000000000E+00 -0.28490075506E+01  0.12503160620E+03  0.12499914282E+03 0.  0.
    9000005    1    3    3    0    0 -0.33458319207E+01  0.53745123791E+02 -0.33141783403E+02  0.63238522513E+02  0.10000000000E+01 0.  0.
    9000005    1    3    3    0    0  0.33458319207E+01 -0.53745123791E+02  0.30292775852E+02  0.61793083686E+02  0.10000000000E+01 0.  0.
<mgrwt>
<rscale>  0 0.12499914E+03</rscale>
<asrwt>0</asrwt>
<pdfrwt beam="1">  1        4 0.93986614E-02 0.12499914E+03</pdfrwt>
<pdfrwt beam="2">  1       -4 0.98369704E-02 0.12499914E+03</pdfrwt>
<totfact> 0.10452379E+04</totfact>
</mgrwt>
</event>
<event>
 5    1  0.3337119E-002  0.1250012E+03  0.7818608E-02  0.1235067E+00
          4   -1    0    0  501    0  0.00000000000E+00  0.00000000000E+00  0.36411038316E+02  0.36433180086E+02  0.12700000000E+01 0. -1.
         -4   -1    0    0    0  501 -0.00000000000E+00 -0.00000000000E+00 -0.10722549874E+03  0.10723301954E+03  0.12700000000E+01 0. -1.
         25    2    1    2    0    0  0.00000000000E+00  0.00000000000E+00 -0.70814460426E+02  0.14366619963E+03  0.12500115644E+03 0.  0.
    9000005    1    3    3    0    0  0.12118056624E+02 -0.67052255589E+01 -0.10544513734E+03  0.10635546217E+03  0.10000000000E+01 0.  0.
    9000005    1    3    3    0    0 -0.12118056624E+02  0.67052255589E+01  0.34630676912E+02  0.37310737456E+02  0.10000000000E+01 0.  0.
<mgrwt>
<rscale>  0 0.12500116E+03</rscale>
<asrwt>0</asrwt>
<pdfrwt beam="1">  1        4 0.56039800E-02 0.12500116E+03</pdfrwt>
<pdfrwt beam="2">  1       -4 0.16498512E-01 0.12500116E+03</pdfrwt>
<totfact> 0.10057897E+04</totfact>
</mgrwt>
</event>
<event>
 5    1  0.3337119E-002  0.1250025E+03  0.7818608E-02  0.1235065E+00
          4   -1    0    0  501    0  0.00000000000E+00  0.00000000000E+00  0.30644462337E+02  0.30670767384E+02  0.12700000000E+01 0. -1.
         -4   -1    0    0    0  501 -0.00000000000E+00 -0.00000000000E+00 -0.12739101956E+03  0.12739734991E+03  0.12700000000E+01 0. -1.
         25    2    1    2    0    0  0.00000000000E+00  0.00000000000E+00 -0.96746557220E+02  0.15806811729E+03  0.12500253346E+03 0.  0.
    9000005    1    3    3    0    0 -0.93694223011E+00  0.62461657184E+02 -0.50589567851E+02  0.80390552021E+02  0.10000000000E+01 0.  0.
    9000005    1    3    3    0    0  0.93694223011E+00 -0.62461657184E+02 -0.46156989369E+02  0.77677565271E+02  0.10000000000E+01 0.  0.
<mgrwt>
<rscale>  0 0.12500253E+03</rscale>
<asrwt>0</asrwt>
<pdfrwt beam="1">  1        4 0.47170432E-02 0.12500253E+03</pdfrwt>
<pdfrwt beam="2">  1       -4 0.19601129E-01 0.12500253E+03</pdfrwt>
<totfact> 0.97710969E+03</totfact>
</mgrwt>
</event>
<event>
 5    1  0.3337119E-002  0.1250005E+03  0.7818608E-02  0.1235069E+00
          4   -1    0    0  501    0  0.00000000000E+00  0.00000000000E+00  0.64127249966E+02  0.64139824510E+02  0.12700000000E+01 0. -1.
         -4   -1    0    0    0  501 -0.00000000000E+00 -0.00000000000E+00 -0.60889333560E+02  0.60902576640E+02  0.12700000000E+01 0. -1.
         25    2    1    2    0    0  0.00000000000E+00  0.00000000000E+00  0.32379164053E+01  0.12504240115E+03  0.12500047193E+03 0.  0.
    9000005    1    3    3    0    0 -0.12994859425E+02 -0.19966796443E+02 -0.56173599386E+02  0.61024688443E+02  0.10000000000E+01 0.  0.
    9000005    1    3    3    0    0  0.12994859425E+02  0.19966796443E+02  0.59411515791E+02  0.64017712707E+02  0.10000000000E+01 0.  0.
<mgrwt>
<rscale>  0 0.12500047E+03</rscale>
<asrwt>0</asrwt>
<pdfrwt beam="1">  1        4 0.98677168E-02 0.12500047E+03</pdfrwt>
<pdfrwt beam="2">  1       -4 0.93695757E-02 0.12500047E+03</pdfrwt>
<totfact> 0.10451830E+04</totfact>
</mgrwt>
</event>
<event>
 5    1  0.3337119E-002  0.1249992E+03  0.7818608E-02  0.1235071E+00
         -4   -1    0    0    0  501 -0.00000000000E+00  0.00000000000E+00  0.31185507106E+02  0.31211356162E+02  0.12700000000E+01 0.  1.
          4   -1    0    0  501    0  0.00000000000E+00 -0.00000000000E+00 -0.12517593094E+03  0.12518237331E+03  0.12700000000E+01 0.  1.
         25    2    1    2    0    0  0.00000000000E+00  0.00000000000E+00 -0.93990423838E+02  0.15639372947E+03  0.12499919538E+03 0.  0.
    9000005    1    3    3    0    0  0.12337605248E+02 -0.35142440137E+02 -0.10977781252E+03  0.11592832149E+03  0.10000000000E+01 0.  0.
    9000005    1    3    3    0    0 -0.12337605248E+02  0.35142440137E+02  0.15787388679E+02  0.40465407984E+02  0.10000000000E+01 0.  0.
<mgrwt>
<rscale>  0 0.12499920E+03</rscale>
<asrwt>0</asrwt>
<pdfrwt beam="2">  1        4 0.19260319E-01 0.12499920E+03</pdfrwt>
<pdfrwt beam="1">  1       -4 0.48002543E-02 0.12499920E+03</pdfrwt>
<totfact> 0.98044359E+03</totfact>
</mgrwt>
</event>
<event>
 5    1  0.3337119E-002  0.1249977E+03  0.7818608E-02  0.1235073E+00
          4   -1    0    0  501    0  0.00000000000E+00  0.00000000000E+00  0.10394127805E+04  0.10394135564E+04  0.12700000000E+01 0.  1.
         -4   -1    0    0    0  501 -0.00000000000E+00 -0.00000000000E+00 -0.36498951362E+01  0.38645354838E+01  0.12700000000E+01 0.  1.
         25    2    1    2    0    0  0.00000000000E+00  0.00000000000E+00  0.10357628854E+04  0.10432780919E+04  0.12499768896E+03 0.  0.
    9000005    1    3    3    0    0  0.10102967196E+02  0.31507778509E+02  0.96034152794E+03  0.96091189000E+03  0.10000000000E+01 0.  0.
    9000005    1    3    3    0    0 -0.10102967196E+02 -0.31507778509E+02  0.75421357433E+02  0.82366201866E+02  0.10000000000E+01 0.  0.
<mgrwt>
<rscale>  0 0.12499769E+03</rscale>
<asrwt>0</asrwt>
<pdfrwt beam="1">  1        4 0.15992621E+00 0.12499769E+03</pdfrwt>
<pdfrwt beam="2">  1       -4 0.57809289E-03 0.12499769E+03</pdfrwt>
<totfact> 0.29207059E+03</totfact>
</mgrwt>
</event>
<event>
 5    1  0.3337119E-002  0.1249976E+03  0.7818608E-02  0.1235073E+00
          4   -1    0    0  501    0  0.00000000000E+00  0.00000000000E+00  0.19649016307E+03  0.19649426731E+03  0.12700000000E+01 0. -1.
         -4   -1    0    0    0  501 -0.00000000000E+00 -0.00000000000E+00 -0.19854773375E+02  0.19895349351E+02  0.12700000000E+01 0. -1.
         25    2    1    2    0    0  0.00000000000E+00  0.00000000000E+00  0.17663538970E+03  0.21638961666E+03  0.12499762119E+03 0.  0.
    9000005    1    3    3    0    0  0.15863342679E+02 -0.59714658531E+02  0.10452177940E+03  0.12142194387E+03  0.10000000000E+01 0.  0.
    9000005    1    3    3    0    0 -0.15863342679E+02  0.59714658531E+02  0.72113610303E+02  0.94967672791E+02  0.10000000000E+01 0.  0.
<mgrwt>
<rscale>  0 0.12499762E+03</rscale>
<asrwt>0</asrwt>
<pdfrwt beam="1">  1        4 0.30232692E-01 0.12499762E+03</pdfrwt>
<pdfrwt beam="2">  1       -4 0.30580175E-02 0.12499762E+03</pdfrwt>
<totfact> 0.87447537E+03</totfact>
</mgrwt>
</event>
<event>
 5    1  0.3337119E-002  0.1250006E+03  0.7818608E-02  0.1235068E+00
          4   -1    0    0  501    0  0.00000000000E+00  0.00000000000E+00  0.18800186793E+02  0.18843033817E+02  0.12700000000E+01 0.  1.
         -4   -1    0    0    0  501 -0.00000000000E+00 -0.00000000000E+00 -0.20749778580E+03  0.20750167231E+03  0.12700000000E+01 0.  1.
         25    2    1    2    0    0  0.00000000000E+00  0.00000000000E+00 -0.18869759900E+03  0.22634470613E+03  0.12500056848E+03 0.  0.
    9000005    1    3    3    0    0  0.36067624408E+01  0.12477892073E+02  0.16337900059E+02  0.20895777187E+02  0.10000000000E+01 0.  0.
    9000005    1    3    3    0    0 -0.36067624408E+01 -0.12477892073E+02 -0.20503549906E+03  0.20544892894E+03  0.10000000000E+01 0.  0.
<mgrwt>
<rscale>  0 0.12500057E+03</rscale>
<asrwt>0</asrwt>
<pdfrwt beam="1">  1        4 0.28959315E-02 0.12500057E+03</pdfrwt>
<pdfrwt beam="2">  1       -4 0.31926330E-01 0.12500057E+03</pdfrwt>
<totfact> 0.85872961E+03</totfact>
</mgrwt>
</event>
<event>
 5    1  0.3337119E-002  0.1249953E+03  0.7818608E-02  0.1235077E+00
          4   -1    0    0  501    0  0.00000000000E+00  0.00000000000E+00  0.70980404955E+03  0.70980518570E+03  0.12700000000E+01 0.  1.
         -4   -1    0    0    0  501 -0.00000000000E+00 -0.00000000000E+00 -0.54284339339E+01  0.55750152444E+01  0.12700000000E+01 0.  1.
         25    2    1    2    0    0  0.00000000000E+00  0.00000000000E+00  0.70437561561E+03  0.71538020095E+03  0.12499529607E+03 0.  0.
    9000005    1    3    3    0    0 -0.45985472879E+02 -0.38593296239E+02  0.25291779099E+03  0.25994713930E+03  0.10000000000E+01 0.  0.
    9000005    1    3    3    0    0  0.45985472879E+02  0.38593296239E+02  0.45145782462E+03  0.45543306165E+03  0.10000000000E+01 0.  0.
<mgrwt>
<rscale>  0 0.12499530E+03</rscale>
<asrwt>0</asrwt>
<pdfrwt beam="1">  1        4 0.10921201E+00 0.12499530E+03</pdfrwt>
<pdfrwt beam="2">  1       -4 0.84650637E-03 0.12499530E+03</pdfrwt>
<totfact> 0.42291477E+03</totfact>
</mgrwt>
</event>
<event>
 5    1  0.3337119E-002  0.1250035E+03  0.7818608E-02  0.1235064E+00
         -4   -1    0    0    0  501 -0.00000000000E+00  0.00000000000E+00  0.16164970699E+03  0.16165469578E+03  0.12700000000E+01 0.  1.
          4   -1    0    0  501    0  0.00000000000E+00 -0.00000000000E+00 -0.24144210679E+02  0.24177588989E+02  0.12700000000E+01 0.  1.
         25    2    1    2    0    0  0.00000000000E+00  0.00000000000E+00  0.13750549631E+03  0.18583228477E+03  0.12500350615E+03 0.  0.
    9000005    1    3    3    0    0  0.43134787706E+02 -0.38279459865E+02  0.10454108339E+03  0.11939750866E+03  0.10000000000E+01 0.  0.
    9000005    1    3    3    0    0 -0.43134787706E+02  0.38279459865E+02  0.32964412918E+02  0.66434776112E+02  0.10000000000E+01 0.  0.
<mgrwt>
<rscale>  0 0.12500351E+03</rscale>
<asrwt>0</asrwt>
<pdfrwt beam="2">  1        4 0.37174452E-02 0.12500351E+03</pdfrwt>
<pdfrwt beam="1">  1       -4 0.24872137E-01 0.12500351E+03</pdfrwt>
<totfact> 0.92570309E+03</totfact>
</mgrwt>
</event>
<event>
 5    1  0.3337119E-002  0.1250005E+03  0.7818608E-02  0.1235069E+00
         -4   -1    0    0    0  501 -0.00000000000E+00  0.00000000000E+00  0.11050825152E+03  0.11051554893E+03  0.12700000000E+01 0. -1.
          4   -1    0    0  501    0  0.00000000000E+00 -0.00000000000E+00 -0.35328428525E+02  0.35351248380E+02  0.12700000000E+01 0. -1.
         25    2    1    2    0    0  0.00000000000E+00  0.00000000000E+00  0.75179822999E+02  0.14586679731E+03  0.12500046708E+03 0.  0.
    9000005    1    3    3    0    0 -0.35190687179E+02  0.22908376542E+02  0.91598743466E+02  0.10076957867E+03  0.10000000000E+01 0.  0.
    9000005    1    3    3    0    0  0.35190687179E+02 -0.22908376542E+02 -0.16418920467E+02  0.45097218642E+02  0.10000000000E+01 0.  0.
<mgrwt>
<rscale>  0 0.12500047E+03</rscale>
<asrwt>0</asrwt>
<pdfrwt beam="2">  1        4 0.54374596E-02 0.12500047E+03</pdfrwt>
<pdfrwt beam="1">  1       -4 0.17003586E-01 0.12500047E+03</pdfrwt>
<totfact> 0.10013301E+04</totfact>
</mgrwt>
</event>
<event>
 5    1  0.3337119E-002  0.1249895E+03  0.7818608E-02  0.1235086E+00
          4   -1    0    0  501    0  0.00000000000E+00  0.00000000000E+00  0.14596242518E+02  0.14651388864E+02  0.12700000000E+01 0.  1.
         -4   -1    0    0    0  501 -0.00000000000E+00 -0.00000000000E+00 -0.26701396610E+03  0.26701698634E+03  0.12700000000E+01 0.  1.
         25    2    1    2    0    0  0.00000000000E+00  0.00000000000E+00 -0.25241772358E+03  0.28166837520E+03  0.12498946520E+03 0.  0.
    9000005    1    3    3    0    0 -0.87199782537E+01  0.28063154405E+02 -0.19367114231E+01  0.29467431293E+02  0.10000000000E+01 0.  0.
    9000005    1    3    3    0    0  0.87199782537E+01 -0.28063154405E+02 -0.25048101216E+03  0.25220094391E+03  0.10000000000E+01 0.  0.
<mgrwt>
<rscale>  0 0.12498947E+03</rscale>
<asrwt>0</asrwt>
<pdfrwt beam="1">  1        4 0.22500503E-02 0.12498947E+03</pdfrwt>
<pdfrwt beam="2">  1       -4 0.41083542E-01 0.12498947E+03</pdfrwt>
<totfact> 0.77975668E+03</totfact>
</mgrwt>
</event>
<event>
 5    1  0.3337119E-002  0.1250049E+03  0.7818608E-02  0.1235062E+00
          4   -1    0    0  501    0  0.00000000000E+00  0.00000000000E+00  0.30325329108E+02  0.30351910739E+02  0.12700000000E+01 0. -1.
         -4   -1    0    0    0  501 -0.00000000000E+00 -0.00000000000E+00 -0.12873540001E+03  0.12874166426E+03  0.12700000000E+01 0. -1.
         25    2    1    2    0    0  0.00000000000E+00  0.00000000000E+00 -0.98410070905E+02  0.15909357500E+03  0.12500489411E+03 0.  0.
    9000005    1    3    3    0    0 -0.45247906887E+02 -0.37926042077E+02 -0.23128740747E+02  0.63416846294E+02  0.10000000000E+01 0.  0.
    9000005    1    3    3    0    0  0.45247906887E+02  0.37926042077E+02 -0.75281330158E+02  0.95676728705E+02  0.10000000000E+01 0.  0.
<mgrwt>
<rscale>  0 0.12500489E+03</rscale>
<asrwt>0</asrwt>
<pdfrwt beam="1">  1        4 0.46679619E-02 0.12500489E+03</pdfrwt>
<pdfrwt beam="2">  1       -4 0.19807972E-01 0.12500489E+03</pdfrwt>
<totfact> 0.97507094E+03</totfact>
</mgrwt>
</event>
<event>
 5    1  0.3337119E-002  0.1249998E+03  0.7818608E-02  0.1235070E+00
         -4   -1    0    0    0  501 -0.00000000000E+00  0.00000000000E+00  0.36600216893E+03  0.36600437233E+03  0.12700000000E+01 0. -1.
          4   -1    0    0  501    0  0.00000000000E+00 -0.00000000000E+00 -0.10632691310E+02  0.10708268977E+02  0.12700000000E+01 0. -1.
         25    2    1    2    0    0  0.00000000000E+00  0.00000000000E+00  0.35536947762E+03  0.37671264130E+03  0.12499979397E+03 0.  0.
    9000005    1    3    3    0    0  0.30456013012E+02 -0.29739588463E+01  0.13477189248E+02  0.33452171676E+02  0.10000000000E+01 0.  0.
    9000005    1    3    3    0    0 -0.30456013012E+02  0.29739588463E+01  0.34189228837E+03  0.34326046963E+03  0.10000000000E+01 0.  0.
<mgrwt>
<rscale>  0 0.12499979E+03</rscale>
<asrwt>0</asrwt>
<pdfrwt beam="2">  1        4 0.16417822E-02 0.12499979E+03</pdfrwt>
<pdfrwt beam="1">  1       -4 0.56313997E-01 0.12499979E+03</pdfrwt>
<totfact> 0.66882778E+03</totfact>
</mgrwt>
</event>
<event>
 5    1  0.3337119E-002  0.1249995E+03  0.7818608E-02  0.1235070E+00
          4   -1    0    0  501    0  0.00000000000E+00  0.00000000000E+00  0.86413931018E+02  0.86423262922E+02  0.12700000000E+01 0. -1.
         -4   -1    0    0    0  501 -0.00000000000E+00 -0.00000000000E+00 -0.45182861467E+02  0.45200706525E+02  0.12700000000E+01 0. -1.
         25    2    1    2    0    0  0.00000000000E+00  0.00000000000E+00  0.41231069551E+02  0.13162396945E+03  0.12499947294E+03 0.  0.
    9000005    1    3    3    0    0  0.28003946748E+02  0.47149435849E+02  0.52169013812E+02  0.75696078739E+02  0.10000000000E+01 0.  0.
    9000005    1    3    3    0    0 -0.28003946748E+02 -0.47149435849E+02 -0.10937944260E+02  0.55927890707E+02  0.10000000000E+01 0.  0.
<mgrwt>
<rscale>  0 0.12499947E+03</rscale>
<asrwt>0</asrwt>
<pdfrwt beam="1">  1        4 0.13296541E-01 0.12499947E+03</pdfrwt>
<pdfrwt beam="2">  1       -4 0.69533000E-02 0.12499947E+03</pdfrwt>
<totfact> 0.10309854E+04</totfact>
</mgrwt>
</event>
<event>
 5    1  0.3337119E-002  0.1250007E+03  0.7818608E-02  0.1235068E+00
         -4   -1    0    0    0  501 -0.00000000000E+00  0.00000000000E+00  0.10848452357E+03  0.10849195709E+03  0.12700000000E+01 0. -1.
          4   -1    0    0  501    0  0.00000000000E+00 -0.00000000000E+00 -0.35987947450E+02  0.36010349369E+02  0.12700000000E+01 0. -1.
         25    2    1    2    0    0  0.00000000000E+00  0.00000000000E+00  0.72496576117E+02  0.14450230646E+03  0.12500065209E+03 0.  0.
    9000005    1    3    3    0    0  0.21308360301E+01 -0.52755972509E+02  0.74893658086E+02  0.91639473586E+02  0.10000000000E+01 0.  0.
    9000005    1    3    3    0    0 -0.21308360301E+01  0.52755972509E+02 -0.23970819688E+01  0.52862832874E+02  0.10000000000E+01 0.  0.
<mgrwt>
<rscale>  0 0.12500065E+03</rscale>
<asrwt>0</asrwt>
<pdfrwt beam="2">  1        4 0.55389024E-02 0.12500065E+03</pdfrwt>
<pdfrwt beam="1">  1       -4 0.16692222E-01 0.12500065E+03</pdfrwt>
<totfact> 0.10040963E+04</totfact>
</mgrwt>
</event>
<event>
 5    1  0.3337119E-002  0.1249987E+03  0.7818608E-02  0.1235071E+00
         -4   -1    0    0    0  501 -0.00000000000E+00  0.00000000000E+00  0.62171666521E+03  0.62171796235E+03  0.12700000000E+01 0. -1.
          4   -1    0    0  501    0  0.00000000000E+00 -0.00000000000E+00 -0.62173836732E+01  0.63457670726E+01  0.12700000000E+01 0. -1.
         25    2    1    2    0    0  0.00000000000E+00  0.00000000000E+00  0.61549928154E+03  0.62806372942E+03  0.12499873053E+03 0.  0.
    9000005    1    3    3    0    0 -0.73521168773E+01  0.21063550002E+02  0.14449367036E+02  0.26599078349E+02  0.10000000000E+01 0.  0.
    9000005    1    3    3    0    0  0.73521168773E+01 -0.21063550002E+02  0.60104991450E+03  0.60146465107E+03  0.10000000000E+01 0.  0.
<mgrwt>
<rscale>  0 0.12499873E+03</rscale>
<asrwt>0</asrwt>
<pdfrwt beam="2">  1        4 0.96649538E-03 0.12499873E+03</pdfrwt>
<pdfrwt beam="1">  1       -4 0.95658754E-01 0.12499873E+03</pdfrwt>
<totfact> 0.47144035E+03</totfact>
</mgrwt>
</event>
<event>
 5    1  0.3337119E-002  0.1249995E+03  0.7818608E-02  0.1235070E+00
          4   -1    0    0  501    0  0.00000000000E+00  0.00000000000E+00  0.20256675568E+03  0.20257073680E+03  0.12700000000E+01 0. -1.
         -4   -1    0    0    0  501 -0.00000000000E+00 -0.00000000000E+00 -0.19258517611E+02  0.19300347162E+02  0.12700000000E+01 0. -1.
         25    2    1    2    0    0  0.00000000000E+00  0.00000000000E+00  0.18330823807E+03  0.22187108396E+03  0.12499947101E+03 0.  0.
    9000005    1    3    3    0    0 -0.25371294230E+02 -0.41945850737E+02  0.22862399285E+02  0.54100335174E+02  0.10000000000E+01 0.  0.
    9000005    1    3    3    0    0  0.25371294230E+02  0.41945850737E+02  0.16044583878E+03  0.16777074878E+03  0.10000000000E+01 0.  0.
<mgrwt>
<rscale>  0 0.12499947E+03</rscale>
<asrwt>0</asrwt>
<pdfrwt beam="1">  1        4 0.31167638E-01 0.12499947E+03</pdfrwt>
<pdfrwt beam="2">  1       -4 0.29663730E-02 0.12499947E+03</pdfrwt>
<totfact> 0.86574162E+03</totfact>
</mgrwt>
</event>
<event>
 5    1  0.3337119E-002  0.1250013E+03  0.7818608E-02  0.1235067E+00
         -4   -1    0    0    0  501 -0.00000000000E+00  0.00000000000E+00  0.27263325656E+03  0.27263621455E+03  0.12700000000E+01 0.  1.
          4   -1    0    0  501    0  0.00000000000E+00 -0.00000000000E+00 -0.14296967316E+02  0.14353263546E+02  0.12700000000E+01 0.  1.
         25    2    1    2    0    0  0.00000000000E+00  0.00000000000E+00  0.25833628924E+03  0.28698947809E+03  0.12500128878E+03 0.  0.
    9000005    1    3    3    0    0 -0.47945165850E+02 -0.39035662419E+02  0.10827569254E+03  0.12468820098E+03  0.10000000000E+01 0.  0.
    9000005    1    3    3    0    0  0.47945165850E+02  0.39035662419E+02  0.15006059670E+03  0.16230127711E+03  0.10000000000E+01 0.  0.
<mgrwt>
<rscale>  0 0.12500129E+03</rscale>
<asrwt>0</asrwt>
<pdfrwt beam="2">  1        4 0.22040916E-02 0.12500129E+03</pdfrwt>
<pdfrwt beam="1">  1       -4 0.41948133E-01 0.12500129E+03</pdfrwt>
<totfact> 0.77258174E+03</totfact>
</mgrwt>
</event>
<event>
 5    1  0.3337119E-002  0.1250017E+03  0.7818608E-02  0.1235067E+00
          4   -1    0    0  501    0  0.00000000000E+00  0.00000000000E+00  0.41006133279E+01  0.42927764518E+01  0.12700000000E+01 0.  1.
         -4   -1    0    0    0  501 -0.00000000000E+00 -0.00000000000E+00 -0.93062410717E+03  0.93062497374E+03  0.12700000000E+01 0.  1.
         25    2    1    2    0    0  0.00000000000E+00  0.00000000000E+00 -0.92652349384E+03  0.93491775019E+03  0.12500165991E+03 0.  0.
    9000005    1    3    3    0    0  0.49946468265E+02  0.23115973072E+02 -0.68467207131E+03  0.68688124383E+03  0.10000000000E+01 0.  0.
    9000005    1    3    3    0    0 -0.49946468265E+02 -0.23115973072E+02 -0.24185142254E+03  0.24803650636E+03  0.10000000000E+01 0.  0.
<mgrwt>
<rscale>  0 0.12500166E+03</rscale>
<asrwt>0</asrwt>
<pdfrwt beam="1">  1        4 0.64571277E-03 0.12500166E+03</pdfrwt>
<pdfrwt beam="2">  1       -4 0.14318762E+00 0.12500166E+03</pdfrwt>
<totfact> 0.32856425E+03</totfact>
</mgrwt>
</event>
<event>
 5    1  0.3337119E-002  0.1250028E+03  0.7818608E-02  0.1235065E+00
          4   -1    0    0  501    0  0.00000000000E+00  0.00000000000E+00  0.11053824174E+03  0.11054553717E+03  0.12700000000E+01 0.  1.
         -4   -1    0    0    0  501 -0.00000000000E+00 -0.00000000000E+00 -0.35320165934E+02  0.35342991124E+02  0.12700000000E+01 0.  1.
         25    2    1    2    0    0  0.00000000000E+00  0.00000000000E+00  0.75218075807E+02  0.14588852829E+03  0.12500281500E+03 0.  0.
    9000005    1    3    3    0    0  0.13599220871E+02  0.32925231801E+02  0.97534078820E+02  0.10384077344E+03  0.10000000000E+01 0.  0.
    9000005    1    3    3    0    0 -0.13599220871E+02 -0.32925231801E+02 -0.22316003013E+02  0.42047754850E+02  0.10000000000E+01 0.  0.
<mgrwt>
<rscale>  0 0.12500282E+03</rscale>
<asrwt>0</asrwt>
<pdfrwt beam="1">  1        4 0.17008200E-01 0.12500282E+03</pdfrwt>
<pdfrwt beam="2">  1       -4 0.54361888E-02 0.12500282E+03</pdfrwt>
<totfact> 0.10012332E+04</totfact>
</mgrwt>
</event>
<event>
 5    1  0.3337119E-002  0.1250021E+03  0.7818608E-02  0.1235066E+00
          4   -1    0    0  501    0  0.00000000000E+00  0.00000000000E+00  0.11689806282E+02  0.11758591366E+02  0.12700000000E+01 0.  1.
         -4   -1    0    0    0  501 -0.00000000000E+00 -0.00000000000E+00 -0.33311941316E+03  0.33312183406E+03  0.12700000000E+01 0.  1.
         25    2    1    2    0    0  0.00000000000E+00  0.00000000000E+00 -0.32142960688E+03  0.34488042542E+03  0.12500206263E+03 0.  0.
    9000005    1    3    3    0    0  0.29338814898E+02  0.46504936055E+02 -0.24264839035E+03  0.24880256525E+03  0.10000000000E+01 0.  0.
    9000005    1    3    3    0    0 -0.29338814898E+02 -0.46504936055E+02 -0.78781216536E+02  0.96077860176E+02  0.10000000000E+01 0.  0.
<mgrwt>
<rscale>  0 0.12500206E+03</rscale>
<asrwt>0</asrwt>
<pdfrwt beam="1">  1        4 0.18039094E-02 0.12500206E+03</pdfrwt>
<pdfrwt beam="2">  1       -4 0.51254611E-01 0.12500206E+03</pdfrwt>
<totfact> 0.70288262E+03</totfact>
</mgrwt>
</event>
<event>
 5    1  0.3337119E-002  0.1249984E+03  0.7818608E-02  0.1235072E+00
         -4   -1    0    0    0  501 -0.00000000000E+00  0.00000000000E+00  0.10763919569E+03  0.10764668758E+03  0.12700000000E+01 0.  1.
          4   -1    0    0  501    0  0.00000000000E+00 -0.00000000000E+00 -0.36269409188E+02  0.36291637368E+02  0.12700000000E+01 0.  1.
         25    2    1    2    0    0  0.00000000000E+00  0.00000000000E+00  0.71369786498E+02  0.14393832495E+03  0.12499837985E+03 0.  0.
    9000005    1    3    3    0    0  0.28467018678E+02 -0.12159211805E+01 -0.28359780806E+02  0.40213514944E+02  0.10000000000E+01 0.  0.
    9000005    1    3    3    0    0 -0.28467018678E+02  0.12159211805E+01  0.99729567304E+02  0.10372481001E+03  0.10000000000E+01 0.  0.
<mgrwt>
<rscale>  0 0.12499838E+03</rscale>
<asrwt>0</asrwt>
<pdfrwt beam="2">  1        4 0.55821952E-02 0.12499838E+03</pdfrwt>
<pdfrwt beam="1">  1       -4 0.16562163E-01 0.12499838E+03</pdfrwt>
<totfact> 0.10052971E+04</totfact>
</mgrwt>
</event>
<event>
 5    1  0.3337119E-002  0.1250032E+03  0.7818608E-02  0.1235064E+00
         -4   -1    0    0    0  501 -0.00000000000E+00  0.00000000000E+00  0.19281039424E+03  0.19281457680E+03  0.12700000000E+01 0.  1.
          4   -1    0    0  501    0  0.00000000000E+00 -0.00000000000E+00 -0.20236253515E+02  0.20276066096E+02  0.12700000000E+01 0.  1.
         25    2    1    2    0    0  0.00000000000E+00  0.00000000000E+00  0.17257414073E+03  0.21309064290E+03  0.12500315213E+03 0.  0.
    9000005    1    3    3    0    0 -0.23489475932E+02  0.39480376770E+02  0.15850991650E+03  0.16503590294E+03  0.10000000000E+01 0.  0.
    9000005    1    3    3    0    0  0.23489475932E+02 -0.39480376770E+02  0.14064224223E+02  0.48054739958E+02  0.10000000000E+01 0.  0.
<mgrwt>
<rscale>  0 0.12500315E+03</rscale>
<asrwt>0</asrwt>
<pdfrwt beam="2">  1        4 0.31166540E-02 0.12500315E+03</pdfrwt>
<pdfrwt beam="1">  1       -4 0.29666522E-01 0.12500315E+03</pdfrwt>
<totfact> 0.87967415E+03</totfact>
</mgrwt>
</event>
<event>
 5    1  0.3337119E-002  0.1250025E+03  0.7818608E-02  0.1235065E+00
          4   -1    0    0  501    0  0.00000000000E+00  0.00000000000E+00  0.46157730061E+01  0.47873020004E+01  0.12700000000E+01 0. -1.
         -4   -1    0    0    0  501 -0.00000000000E+00 -0.00000000000E+00 -0.83070677214E+03  0.83070774294E+03  0.12700000000E+01 0. -1.
         25    2    1    2    0    0  0.00000000000E+00  0.00000000000E+00 -0.82609099914E+03  0.83549504494E+03  0.12500252505E+03 0.  0.
    9000005    1    3    3    0    0 -0.50414605160E+02  0.31062959905E+02 -0.27955829141E+03  0.28576280056E+03  0.10000000000E+01 0.  0.
    9000005    1    3    3    0    0  0.50414605160E+02 -0.31062959905E+02 -0.54653270773E+03  0.54973224438E+03  0.10000000000E+01 0.  0.
<mgrwt>
<rscale>  0 0.12500253E+03</rscale>
<asrwt>0</asrwt>
<pdfrwt beam="1">  1        4 0.72338880E-03 0.12500253E+03</pdfrwt>
<pdfrwt beam="2">  1       -4 0.12781419E+00 0.12500253E+03</pdfrwt>
<totfact> 0.36726348E+03</totfact>
</mgrwt>
</event>
<event>
 5    1  0.3337119E-002  0.1250012E+03  0.7818608E-02  0.1235067E+00
         -4   -1    0    0    0  501 -0.00000000000E+00  0.00000000000E+00  0.30236995935E+02  0.30263655153E+02  0.12700000000E+01 0. -1.
          4   -1    0    0  501    0  0.00000000000E+00 -0.00000000000E+00 -0.12910358848E+03  0.12910983487E+03  0.12700000000E+01 0. -1.
         25    2    1    2    0    0  0.00000000000E+00  0.00000000000E+00 -0.98866592548E+02  0.15937349002E+03  0.12500122479E+03 0.  0.
    9000005    1    3    3    0    0 -0.57886747375E+02 -0.14793568956E+02 -0.72790113460E+02  0.94176036345E+02  0.10000000000E+01 0.  0.
    9000005    1    3    3    0    0  0.57886747375E+02  0.14793568956E+02 -0.26076479088E+02  0.65197453675E+02  0.10000000000E+01 0.  0.
<mgrwt>
<rscale>  0 0.12500122E+03</rscale>
<asrwt>0</asrwt>
<pdfrwt beam="2">  1        4 0.19864621E-01 0.12500122E+03</pdfrwt>
<pdfrwt beam="1">  1       -4 0.46543768E-02 0.12500122E+03</pdfrwt>
<totfact> 0.97461024E+03</totfact>
</mgrwt>
</event>
<event>
 5    1  0.3337119E-002  0.1249996E+03  0.7818608E-02  0.1235070E+00
          4   -1    0    0  501    0  0.00000000000E+00  0.00000000000E+00  0.17518702025E+02  0.17564675363E+02  0.12700000000E+01 0.  1.
         -4   -1    0    0    0  501 -0.00000000000E+00 -0.00000000000E+00 -0.22263450379E+03  0.22263812606E+03  0.12700000000E+01 0.  1.
         25    2    1    2    0    0  0.00000000000E+00  0.00000000000E+00 -0.20511580176E+03  0.24020280142E+03  0.12499957472E+03 0.  0.
    9000005    1    3    3    0    0 -0.30661481720E+02 -0.14643484505E+02 -0.20334116239E+03  0.20616300935E+03  0.10000000000E+01 0.  0.
    9000005    1    3    3    0    0  0.30661481720E+02  0.14643484505E+02 -0.17746393666E+01  0.34039792076E+02  0.10000000000E+01 0.  0.
<mgrwt>
<rscale>  0 0.12499957E+03</rscale>
<asrwt>0</asrwt>
<pdfrwt beam="1">  1        4 0.26990001E-02 0.12499957E+03</pdfrwt>
<pdfrwt beam="2">  1       -4 0.34255275E-01 0.12499957E+03</pdfrwt>
<totfact> 0.83767968E+03</totfact>
</mgrwt>
</event>
<event>
 5    1  0.3337119E-002  0.1249996E+03  0.7818608E-02  0.1235070E+00
          4   -1    0    0  501    0  0.00000000000E+00  0.00000000000E+00  0.19699959346E+02  0.19740853533E+02  0.12700000000E+01 0.  1.
         -4   -1    0    0    0  501 -0.00000000000E+00 -0.00000000000E+00 -0.19803750918E+03  0.19804158134E+03  0.12700000000E+01 0.  1.
         25    2    1    2    0    0  0.00000000000E+00  0.00000000000E+00 -0.17833754983E+03  0.21778243488E+03  0.12499962904E+03 0.  0.
    9000005    1    3    3    0    0 -0.31297139386E+02  0.12771056565E+02  0.24056892033E+01  0.33902775109E+02  0.10000000000E+01 0.  0.
    9000005    1    3    3    0    0  0.31297139386E+02 -0.12771056565E+02 -0.18074323904E+03  0.18387965977E+03  0.10000000000E+01 0.  0.
<mgrwt>
<rscale>  0 0.12499963E+03</rscale>
<asrwt>0</asrwt>
<pdfrwt beam="1">  1        4 0.30342221E-02 0.12499963E+03</pdfrwt>
<pdfrwt beam="2">  1       -4 0.30470767E-01 0.12499963E+03</pdfrwt>
<totfact> 0.87221194E+03</totfact>
</mgrwt>
</event>
<event>
 5    1  0.3337119E-002  0.1249981E+03  0.7818608E-02  0.1235072E+00
          4   -1    0    0  501    0  0.00000000000E+00  0.00000000000E+00  0.16947866940E+02  0.16995384486E+02  0.12700000000E+01 0.  1.
         -4   -1    0    0    0  501 -0.00000000000E+00 -0.00000000000E+00 -0.23010734351E+03  0.23011084815E+03  0.12700000000E+01 0.  1.
         25    2    1    2    0    0  0.00000000000E+00  0.00000000000E+00 -0.21315947657E+03  0.24710623264E+03  0.12499811101E+03 0.  0.
    9000005    1    3    3    0    0 -0.32549128284E+02 -0.42457318074E+02 -0.17042598622E+03  0.17862834710E+03  0.10000000000E+01 0.  0.
    9000005    1    3    3    0    0  0.32549128284E+02  0.42457318074E+02 -0.42733490357E+02  0.68477885541E+02  0.10000000000E+01 0.  0.
<mgrwt>
<rscale>  0 0.12499811E+03</rscale>
<asrwt>0</asrwt>
<pdfrwt beam="1">  1        4 0.26112891E-02 0.12499811E+03</pdfrwt>
<pdfrwt beam="2">  1       -4 0.35405052E-01 0.12499811E+03</pdfrwt>
<totfact> 0.82753758E+03</totfact>
</mgrwt>
</event>
<event>
 5    1  0.3337119E-002  0.1250009E+03  0.7818608E-02  0.1235068E+00
          4   -1    0    0  501    0  0.00000000000E+00  0.00000000000E+00  0.12097669150E+04  0.12097675816E+04  0.12700000000E+01 0.  1.
         -4   -1    0    0    0  501 -0.00000000000E+00 -0.00000000000E+00 -0.31034016287E+01  0.33532076686E+01  0.12700000000E+01 0.  1.
         25    2    1    2    0    0  0.00000000000E+00  0.00000000000E+00  0.12066635134E+04  0.12131207893E+04  0.12500085957E+03 0.  0.
    9000005    1    3    3    0    0  0.14303969656E+02  0.12208089360E+02  0.24960229497E+02  0.31267459927E+02  0.10000000000E+01 0.  0.
    9000005    1    3    3    0    0 -0.14303969656E+02 -0.12208089360E+02  0.11817032839E+04  0.11818533293E+04  0.10000000000E+01 0.  0.
<mgrwt>
<rscale>  0 0.12500086E+03</rscale>
<asrwt>0</asrwt>
<pdfrwt beam="1">  1        4 0.18613756E+00 0.12500086E+03</pdfrwt>
<pdfrwt beam="2">  1       -4 0.49671272E-03 0.12500086E+03</pdfrwt>
<totfact> 0.24371369E+03</totfact>
</mgrwt>
</event>
<event>
 5    1  0.3337119E-002  0.1250036E+03  0.7818608E-02  0.1235064E+00
         -4   -1    0    0    0  501 -0.00000000000E+00  0.00000000000E+00  0.82834919319E+03  0.82835016675E+03  0.12700000000E+01 0. -1.
          4   -1    0    0  501    0  0.00000000000E+00 -0.00000000000E+00 -0.46294831786E+01  0.48005223154E+01  0.12700000000E+01 0. -1.
         25    2    1    2    0    0  0.00000000000E+00  0.00000000000E+00  0.82371971001E+03  0.83315068907E+03  0.12500364008E+03 0.  0.
    9000005    1    3    3    0    0 -0.44523319991E+02  0.43756062288E+02  0.39236142334E+03  0.39729762840E+03  0.10000000000E+01 0.  0.
    9000005    1    3    3    0    0  0.44523319991E+02 -0.43756062288E+02  0.43135828667E+03  0.43585306066E+03  0.10000000000E+01 0.  0.
<mgrwt>
<rscale>  0 0.12500364E+03</rscale>
<asrwt>0</asrwt>
<pdfrwt beam="2">  1        4 0.72546003E-03 0.12500364E+03</pdfrwt>
<pdfrwt beam="1">  1       -4 0.12745155E+00 0.12500364E+03</pdfrwt>
<totfact> 0.36823981E+03</totfact>
</mgrwt>
</event>
<event>
 5    1  0.3337119E-002  0.1249992E+03  0.7818608E-02  0.1235071E+00
         -4   -1    0    0    0  501 -0.00000000000E+00  0.00000000000E+00  0.45148992326E+02  0.45166850765E+02  0.12700000000E+01 0.  1.
          4   -1    0    0  501    0  0.00000000000E+00 -0.00000000000E+00 -0.86478332701E+02  0.86487657656E+02  0.12700000000E+01 0.  1.
         25    2    1    2    0    0  0.00000000000E+00  0.00000000000E+00 -0.41329340375E+02  0.13165450842E+03  0.12499918084E+03 0.  0.
    9000005    1    3    3    0    0  0.61636255313E+02  0.67661968937E+00 -0.98355591150E+01  0.62427750290E+02  0.10000000000E+01 0.  0.
    9000005    1    3    3    0    0 -0.61636255313E+02 -0.67661968937E+00 -0.31493781260E+02  0.69226758131E+02  0.10000000000E+01 0.  0.
<mgrwt>
<rscale>  0 0.12499918E+03</rscale>
<asrwt>0</asrwt>
<pdfrwt beam="2">  1        4 0.13306450E-01 0.12499918E+03</pdfrwt>
<pdfrwt beam="1">  1       -4 0.69480899E-02 0.12499918E+03</pdfrwt>
<totfact> 0.10309269E+04</totfact>
</mgrwt>
</event>
<event>
 5    1  0.3337119E-002  0.1249997E+03  0.7818608E-02  0.1235070E+00
          4   -1    0    0  501    0  0.00000000000E+00  0.00000000000E+00  0.71927304270E+02  0.71938515411E+02  0.12700000000E+01 0.  1.
         -4   -1    0    0    0  501 -0.00000000000E+00 -0.00000000000E+00 -0.54285189380E+02  0.54300043149E+02  0.12700000000E+01 0.  1.
         25    2    1    2    0    0  0.00000000000E+00  0.00000000000E+00  0.17642114890E+02  0.12623855856E+03  0.12499971780E+03 0.  0.
    9000005    1    3    3    0    0  0.17456394548E+02 -0.12410369629E+01  0.69407003696E+02  0.71586297889E+02  0.10000000000E+01 0.  0.
    9000005    1    3    3    0    0 -0.17456394548E+02  0.12410369629E+01 -0.51764888806E+02  0.54652260671E+02  0.10000000000E+01 0.  0.
<mgrwt>
<rscale>  0 0.12499972E+03</rscale>
<asrwt>0</asrwt>
<pdfrwt beam="1">  1        4 0.11067744E-01 0.12499972E+03</pdfrwt>
<pdfrwt beam="2">  1       -4 0.83535726E-02 0.12499972E+03</pdfrwt>
<totfact> 0.10425802E+04</totfact>
</mgrwt>
</event>
<event>
 5    1  0.3337119E-002  0.1250114E+03  0.7818608E-02  0.1235051E+00
          4   -1    0    0  501    0  0.00000000000E+00  0.00000000000E+00  0.41501241776E+02  0.41520669177E+02  0.12700000000E+01 0.  1.
         -4   -1    0    0    0  501 -0.00000000000E+00 -0.00000000000E+00 -0.94095187922E+02  0.94103758109E+02  0.12700000000E+01 0.  1.
         25    2    1    2    0    0  0.00000000000E+00  0.00000000000E+00 -0.52593946147E+02  0.13562442729E+03  0.12501144790E+03 0.  0.
    9000005    1    3    3    0    0  0.99915900744E+01  0.41916204238E+02 -0.75407732195E+02  0.86856929054E+02  0.10000000000E+01 0.  0.
    9000005    1    3    3    0    0 -0.99915900744E+01 -0.41916204238E+02  0.22813786048E+02  0.48767498231E+02  0.10000000000E+01 0.  0.
<mgrwt>
<rscale>  0 0.12501145E+03</rscale>
<asrwt>0</asrwt>
<pdfrwt beam="1">  1        4 0.63869601E-02 0.12501145E+03</pdfrwt>
<pdfrwt beam="2">  1       -4 0.14478336E-01 0.12501145E+03</pdfrwt>
<totfact> 0.10222287E+04</totfact>
</mgrwt>
</event>
<event>
 5    1  0.3337119E-002  0.1250024E+03  0.7818608E-02  0.1235066E+00
         -4   -1    0    0    0  501 -0.00000000000E+00  0.00000000000E+00  0.79886453162E+03  0.79886554111E+03  0.12700000000E+01 0.  1.
          4   -1    0    0  501    0  0.00000000000E+00 -0.00000000000E+00 -0.48064495315E+01  0.49714039364E+01  0.12700000000E+01 0.  1.
         25    2    1    2    0    0  0.00000000000E+00  0.00000000000E+00  0.79405808209E+03  0.80383694505E+03  0.12500238597E+03 0.  0.
    9000005    1    3    3    0    0 -0.40913720474E+02 -0.33207647214E+02  0.18098487990E+03  0.18850253873E+03  0.10000000000E+01 0.  0.
    9000005    1    3    3    0    0  0.40913720474E+02  0.33207647214E+02  0.61307320219E+03  0.61533440632E+03  0.10000000000E+01 0.  0.
<mgrwt>
<rscale>  0 0.12500239E+03</rscale>
<asrwt>0</asrwt>
<pdfrwt beam="2">  1        4 0.75221917E-03 0.12500239E+03</pdfrwt>
<pdfrwt beam="1">  1       -4 0.12291518E+00 0.12500239E+03</pdfrwt>
<totfact> 0.38091970E+03</totfact>
</mgrwt>
</event>
<event>
 5    1  0.3337119E-002  0.1250057E+03  0.7818608E-02  0.1235060E+00
          4   -1    0    0  501    0  0.00000000000E+00  0.00000000000E+00  0.11048263869E+03  0.11048993779E+03  0.12700000000E+01 0.  1.
         -4   -1    0    0    0  501 -0.00000000000E+00 -0.00000000000E+00 -0.35339558554E+02  0.35362371227E+02  0.12700000000E+01 0.  1.
         25    2    1    2    0    0  0.00000000000E+00  0.00000000000E+00  0.75143080137E+02  0.14585230901E+03  0.12500565408E+03 0.  0.
    9000005    1    3    3    0    0 -0.59628946832E+02  0.82527104443E+01  0.17982212616E+02  0.62833736961E+02  0.10000000000E+01 0.  0.
    9000005    1    3    3    0    0  0.59628946832E+02 -0.82527104443E+01  0.57160867522E+02  0.83018572053E+02  0.10000000000E+01 0.  0.
<mgrwt>
<rscale>  0 0.12500565E+03</rscale>
<asrwt>0</asrwt>
<pdfrwt beam="1">  1        4 0.16999645E-01 0.12500565E+03</pdfrwt>
<pdfrwt beam="2">  1       -4 0.54391715E-02 0.12500565E+03</pdfrwt>
<totfact> 0.10012425E+04</totfact>
</mgrwt>
</event>
<event>
 5    1  0.3337119E-002  0.1250071E+03  0.7818608E-02  0.1235058E+00
          4   -1    0    0  501    0  0.00000000000E+00  0.00000000000E+00  0.75729726572E+02  0.75740374878E+02  0.12700000000E+01 0. -1.
         -4   -1    0    0    0  501 -0.00000000000E+00 -0.00000000000E+00 -0.51565189282E+02  0.51580826337E+02  0.12700000000E+01 0. -1.
         25    2    1    2    0    0  0.00000000000E+00  0.00000000000E+00  0.24164537290E+02  0.12732120122E+03  0.12500705347E+03 0.  0.
    9000005    1    3    3    0    0  0.25933119357E+02  0.53754014635E+02  0.30963793909E+02  0.67244161845E+02  0.10000000000E+01 0.  0.
    9000005    1    3    3    0    0 -0.25933119357E+02 -0.53754014635E+02 -0.67992566186E+01  0.60077039371E+02  0.10000000000E+01 0.  0.
<mgrwt>
<rscale>  0 0.12500705E+03</rscale>
<asrwt>0</asrwt>
<pdfrwt beam="1">  1        4 0.11652749E-01 0.12500705E+03</pdfrwt>
<pdfrwt beam="2">  1       -4 0.79351279E-02 0.12500705E+03</pdfrwt>
<totfact> 0.10400519E+04</totfact>
</mgrwt>
</event>
<event>
 5    1  0.3337119E-002  0.1249826E+03  0.7818608E-02  0.1235096E+00
          4   -1    0    0  501    0  0.00000000000E+00  0.00000000000E+00  0.29756975602E+02  0.29784064480E+02  0.12700000000E+01 0. -1.
         -4   -1    0    0    0  501 -0.00000000000E+00 -0.00000000000E+00 -0.13114538154E+03  0.13115153068E+03  0.12700000000E+01 0. -1.
         25    2    1    2    0    0  0.00000000000E+00  0.00000000000E+00 -0.10138840594E+03  0.16093559516E+03  0.12498262651E+03 0.  0.
    9000005    1    3    3    0    0 -0.14242646530E+02 -0.50490686739E+02 -0.69894124401E+01  0.52934056276E+02  0.10000000000E+01 0.  0.
    9000005    1    3    3    0    0  0.14242646530E+02  0.50490686739E+02 -0.94398993498E+02  0.10800153888E+03  0.10000000000E+01 0.  0.
<mgrwt>
<rscale>  0 0.12498263E+03</rscale>
<asrwt>0</asrwt>
<pdfrwt beam="1">  1        4 0.45805531E-02 0.12498263E+03</pdfrwt>
<pdfrwt beam="2">  1       -4 0.20178769E-01 0.12498263E+03</pdfrwt>
<totfact> 0.97200661E+03</totfact>
</mgrwt>
</event>
<event>
 5    1  0.3337119E-002  0.1250022E+03  0.7818608E-02  0.1235066E+00
          4   -1    0    0  501    0  0.00000000000E+00  0.00000000000E+00  0.36726130674E+01  0.38859988089E+01  0.12700000000E+01 0.  1.
         -4   -1    0    0    0  501 -0.00000000000E+00 -0.00000000000E+00 -0.10334123034E+04  0.10334130838E+04  0.12700000000E+01 0.  1.
         25    2    1    2    0    0  0.00000000000E+00  0.00000000000E+00 -0.10297396904E+04  0.10372990826E+04  0.12500222752E+03 0.  0.
    9000005    1    3    3    0    0  0.22247278714E+02 -0.47508542109E+02 -0.79669102206E+03  0.79841692594E+03  0.10000000000E+01 0.  0.
    9000005    1    3    3    0    0 -0.22247278714E+02  0.47508542109E+02 -0.23304866829E+03  0.23888215667E+03  0.10000000000E+01 0.  0.
<mgrwt>
<rscale>  0 0.12500223E+03</rscale>
<asrwt>0</asrwt>
<pdfrwt beam="1">  1        4 0.58149254E-03 0.12500223E+03</pdfrwt>
<pdfrwt beam="2">  1       -4 0.15900276E+00 0.12500223E+03</pdfrwt>
<totfact> 0.29393294E+03</totfact>
</mgrwt>
</event>
<event>
 5    1  0.3337119E-002  0.1250014E+03  0.7818608E-02  0.1235067E+00
          4   -1    0    0  501    0  0.00000000000E+00  0.00000000000E+00  0.15144217234E+03  0.15144749738E+03  0.12700000000E+01 0. -1.
         -4   -1    0    0    0  501 -0.00000000000E+00 -0.00000000000E+00 -0.25772834638E+02  0.25804106364E+02  0.12700000000E+01 0. -1.
         25    2    1    2    0    0  0.00000000000E+00  0.00000000000E+00  0.12566933770E+03  0.17725160375E+03  0.12500139436E+03 0.  0.
    9000005    1    3    3    0    0 -0.45629232053E+02 -0.48567060347E+01  0.26787842572E+01  0.45975975208E+02  0.10000000000E+01 0.  0.
    9000005    1    3    3    0    0  0.45629232053E+02  0.48567060347E+01  0.12299055345E+03  0.13127562854E+03  0.10000000000E+01 0.  0.
<mgrwt>
<rscale>  0 0.12500139E+03</rscale>
<asrwt>0</asrwt>
<pdfrwt beam="1">  1        4 0.23301611E-01 0.12500139E+03</pdfrwt>
<pdfrwt beam="2">  1       -4 0.39678667E-02 0.12500139E+03</pdfrwt>
<totfact> 0.94111132E+03</totfact>
</mgrwt>
</event>
<event>
 5    1  0.3337119E-002  0.1250007E+03  0.7818608E-02  0.1235068E+00
         -4   -1    0    0    0  501 -0.00000000000E+00  0.00000000000E+00  0.12789619314E+04  0.12789625620E+04  0.12700000000E+01 0.  1.
          4   -1    0    0  501    0  0.00000000000E+00 -0.00000000000E+00 -0.29215905585E+01  0.31856853880E+01  0.12700000000E+01 0.  1.
         25    2    1    2    0    0  0.00000000000E+00  0.00000000000E+00  0.12760403409E+04  0.12821482474E+04  0.12500070679E+03 0.  0.
    9000005    1    3    3    0    0  0.34350337561E+02 -0.43930977797E+02  0.34873685068E+03  0.35316889377E+03  0.10000000000E+01 0.  0.
    9000005    1    3    3    0    0 -0.34350337561E+02  0.43930977797E+02  0.92730349020E+03  0.92897935361E+03  0.10000000000E+01 0.  0.
<mgrwt>
<rscale>  0 0.12500071E+03</rscale>
<asrwt>0</asrwt>
<pdfrwt beam="2">  1        4 0.46983808E-03 0.12500071E+03</pdfrwt>
<pdfrwt beam="1">  1       -4 0.19678411E+00 0.12500071E+03</pdfrwt>
<totfact> 0.22653402E+03</totfact>
</mgrwt>
</event>
<event>
 5    1  0.3337119E-002  0.1249838E+03  0.7818608E-02  0.1235095E+00
          4   -1    0    0  501    0  0.00000000000E+00  0.00000000000E+00  0.87257514443E+02  0.87266756138E+02  0.12700000000E+01 0.  1.
         -4   -1    0    0    0  501 -0.00000000000E+00 -0.00000000000E+00 -0.44734675741E+02  0.44752699512E+02  0.12700000000E+01 0.  1.
         25    2    1    2    0    0  0.00000000000E+00  0.00000000000E+00  0.42522838703E+02  0.13201945565E+03  0.12498377838E+03 0.  0.
    9000005    1    3    3    0    0  0.52761660955E+02 -0.33470212227E+02  0.21719711085E+02  0.66157341413E+02  0.10000000000E+01 0.  0.
    9000005    1    3    3    0    0 -0.52761660955E+02  0.33470212227E+02  0.20803127617E+02  0.65862114237E+02  0.10000000000E+01 0.  0.
<mgrwt>
<rscale>  0 0.12498378E+03</rscale>
<asrwt>0</asrwt>
<pdfrwt beam="1">  1        4 0.13426330E-01 0.12498378E+03</pdfrwt>
<pdfrwt beam="2">  1       -4 0.68843551E-02 0.12498378E+03</pdfrwt>
<totfact> 0.10305054E+04</totfact>
</mgrwt>
</event>
<event>
 5    1  0.3337119E-002  0.1249989E+03  0.7818608E-02  0.1235071E+00
         -4   -1    0    0    0  501 -0.00000000000E+00  0.00000000000E+00  0.18957571581E+01  0.22818403105E+01  0.12700000000E+01 0.  1.
          4   -1    0    0  501    0  0.00000000000E+00 -0.00000000000E+00 -0.18696752789E+04  0.18696757103E+04  0.12700000000E+01 0.  1.
         25    2    1    2    0    0  0.00000000000E+00  0.00000000000E+00 -0.18677795218E+04  0.18719575506E+04  0.12499891677E+03 0.  0.
    9000005    1    3    3    0    0  0.25325795476E+02 -0.31690282205E+02 -0.16457538925E+04  0.16462540948E+04  0.10000000000E+01 0.  0.
    9000005    1    3    3    0    0 -0.25325795476E+02  0.31690282205E+02 -0.22202562929E+03  0.22570345581E+03  0.10000000000E+01 0.  0.
<mgrwt>
<rscale>  0 0.12499892E+03</rscale>
<asrwt>0</asrwt>
<pdfrwt beam="2">  1        4 0.28767074E+00 0.12499892E+03</pdfrwt>
<pdfrwt beam="1">  1       -4 0.32138833E-03 0.12499892E+03</pdfrwt>
<totfact> 0.11626909E+03</totfact>
</mgrwt>
</event>
<event>
 5    1  0.3337119E-002  0.1249965E+03  0.7818608E-02  0.1235075E+00
          4   -1    0    0  501    0  0.00000000000E+00  0.00000000000E+00  0.18243943874E+01  0.22229068538E+01  0.12700000000E+01 0. -1.
         -4   -1    0    0    0  501 -0.00000000000E+00 -0.00000000000E+00 -0.19297907673E+04  0.19297911852E+04  0.12700000000E+01 0. -1.
         25    2    1    2    0    0  0.00000000000E+00  0.00000000000E+00 -0.19279663730E+04  0.19320140921E+04  0.12499646713E+03 0.  0.
    9000005    1    3    3    0    0 -0.57179631554E+02 -0.19247048273E+02 -0.71233552723E+03  0.71488660813E+03  0.10000000000E+01 0.  0.
    9000005    1    3    3    0    0  0.57179631554E+02  0.19247048273E+02 -0.12156308457E+04  0.12171274840E+04  0.10000000000E+01 0.  0.
<mgrwt>
<rscale>  0 0.12499647E+03</rscale>
<asrwt>0</asrwt>
<pdfrwt beam="1">  1        4 0.31136455E-03 0.12499647E+03</pdfrwt>
<pdfrwt beam="2">  1       -4 0.29692010E+00 0.12499647E+03</pdfrwt>
<totfact> 0.10775784E+03</totfact>
</mgrwt>
</event>
<event>
 5    1  0.3337119E-002  0.1250011E+03  0.7818608E-02  0.1235068E+00
          4   -1    0    0  501    0  0.00000000000E+00  0.00000000000E+00  0.45746472381E+02  0.45764097668E+02  0.12700000000E+01 0.  1.
         -4   -1    0    0    0  501 -0.00000000000E+00 -0.00000000000E+00 -0.85351846702E+02  0.85361294715E+02  0.12700000000E+01 0.  1.
         25    2    1    2    0    0  0.00000000000E+00  0.00000000000E+00 -0.39605374320E+02  0.13112539238E+03  0.12500113140E+03 0.  0.
    9000005    1    3    3    0    0 -0.10305125155E+02  0.28198074974E+02 -0.77296665889E+02  0.82928291881E+02  0.10000000000E+01 0.  0.
    9000005    1    3    3    0    0  0.10305125155E+02 -0.28198074974E+02  0.37691291569E+02  0.48197100502E+02  0.10000000000E+01 0.  0.
<mgrwt>
<rscale>  0 0.12500113E+03</rscale>
<asrwt>0</asrwt>
<pdfrwt beam="1">  1        4 0.70400014E-02 0.12500113E+03</pdfrwt>
<pdfrwt beam="2">  1       -4 0.13133136E-01 0.12500113E+03</pdfrwt>
<totfact> 0.10320138E+04</totfact>
</mgrwt>
</event>
<event>
 5    1  0.3337119E-002  0.1249907E+03  0.7818608E-02  0.1235084E+00
          4   -1    0    0  501    0  0.00000000000E+00  0.00000000000E+00  0.61585817020E+01  0.62881657565E+01  0.12700000000E+01 0.  1.
         -4   -1    0    0    0  501 -0.00000000000E+00 -0.00000000000E+00 -0.62745029185E+03  0.62745157713E+03  0.12700000000E+01 0.  1.
         25    2    1    2    0    0  0.00000000000E+00  0.00000000000E+00 -0.62129171015E+03  0.63373974288E+03  0.12499069011E+03 0.  0.
    9000005    1    3    3    0    0  0.39840038234E+02 -0.81972416643E+00 -0.55469343707E+03  0.55612382589E+03  0.10000000000E+01 0.  0.
    9000005    1    3    3    0    0 -0.39840038234E+02  0.81972416643E+00 -0.66598273077E+02  0.77615916995E+02  0.10000000000E+01 0.  0.
<mgrwt>
<rscale>  0 0.12499069E+03</rscale>
<asrwt>0</asrwt>
<pdfrwt beam="1">  1        4 0.95754148E-03 0.12499069E+03</pdfrwt>
<pdfrwt beam="2">  1       -4 0.96540830E-01 0.12499069E+03</pdfrwt>
<totfact> 0.46814413E+03</totfact>
</mgrwt>
</event>
<event>
 5    1  0.3337119E-002  0.1249990E+03  0.7818608E-02  0.1235071E+00
          4   -1    0    0  501    0  0.00000000000E+00  0.00000000000E+00  0.25403336151E+02  0.25435062171E+02  0.12700000000E+01 0. -1.
         -4   -1    0    0    0  501 -0.00000000000E+00 -0.00000000000E+00 -0.15363634124E+03  0.15364159023E+03  0.12700000000E+01 0. -1.
         25    2    1    2    0    0  0.00000000000E+00  0.00000000000E+00 -0.12823300509E+03  0.17907665240E+03  0.12499897536E+03 0.  0.
    9000005    1    3    3    0    0  0.36673663630E+02  0.63590284755E+01 -0.13603072417E+03  0.14103458003E+03  0.10000000000E+01 0.  0.
    9000005    1    3    3    0    0 -0.36673663630E+02 -0.63590284755E+01  0.77977190828E+01  0.38042072369E+02  0.10000000000E+01 0.  0.
<mgrwt>
<rscale>  0 0.12499898E+03</rscale>
<asrwt>0</asrwt>
<pdfrwt beam="1">  1        4 0.39110499E-02 0.12499898E+03</pdfrwt>
<pdfrwt beam="2">  1       -4 0.23639204E-01 0.12499898E+03</pdfrwt>
<totfact> 0.93785628E+03</totfact>
</mgrwt>
</event>
<event>
 5    1  0.3337119E-002  0.1250006E+03  0.7818608E-02  0.1235068E+00
         -4   -1    0    0    0  501 -0.00000000000E+00  0.00000000000E+00  0.16834501086E+03  0.16834980125E+03  0.12700000000E+01 0.  1.
          4   -1    0    0  501    0  0.00000000000E+00 -0.00000000000E+00 -0.23181555622E+02  0.23216317991E+02  0.12700000000E+01 0.  1.
         25    2    1    2    0    0  0.00000000000E+00  0.00000000000E+00  0.14516345524E+03  0.19156611924E+03  0.12500059722E+03 0.  0.
    9000005    1    3    3    0    0 -0.37361044877E+02 -0.27523949922E+02  0.13672598453E+03  0.14438978613E+03  0.10000000000E+01 0.  0.
    9000005    1    3    3    0    0  0.37361044877E+02  0.27523949922E+02  0.84374707050E+01  0.47176333107E+02  0.10000000000E+01 0.  0.
<mgrwt>
<rscale>  0 0.12500060E+03</rscale>
<asrwt>0</asrwt>
<pdfrwt beam="2">  1        4 0.35694357E-02 0.12500060E+03</pdfrwt>
<pdfrwt beam="1">  1       -4 0.25902275E-01 0.12500060E+03</pdfrwt>
<totfact> 0.91574302E+03</totfact>
</mgrwt>
</event>
<event>
 5    1  0.3337119E-002  0.1250008E+03  0.7818608E-02  0.1235068E+00
         -4   -1    0    0    0  501 -0.00000000000E+00  0.00000000000E+00  0.75253391885E+02  0.75264107582E+02  0.12700000000E+01 0. -1.
          4   -1    0    0  501    0  0.00000000000E+00 -0.00000000000E+00 -0.51886453787E+02  0.51901994052E+02  0.12700000000E+01 0. -1.
         25    2    1    2    0    0  0.00000000000E+00  0.00000000000E+00  0.23366938098E+02  0.12716610163E+03  0.12500081443E+03 0.  0.
    9000005    1    3    3    0    0  0.58010180778E+02 -0.22642304119E+02  0.17013100697E+02  0.64562377628E+02  0.10000000000E+01 0.  0.
    9000005    1    3    3    0    0 -0.58010180778E+02  0.22642304119E+02  0.63538374014E+01  0.62603724006E+02  0.10000000000E+01 0.  0.
<mgrwt>
<rscale>  0 0.12500081E+03</rscale>
<asrwt>0</asrwt>
<pdfrwt beam="2">  1        4 0.79845511E-02 0.12500081E+03</pdfrwt>
<pdfrwt beam="1">  1       -4 0.11579465E-01 0.12500081E+03</pdfrwt>
<totfact> 0.10405348E+04</totfact>
</mgrwt>
</event>
<event>
 5    1  0.3337119E-002  0.1250009E+03  0.7818608E-02  0.1235068E+00
         -4   -1    0    0    0  501 -0.00000000000E+00  0.00000000000E+00  0.30357469234E+03  0.30357734884E+03  0.12700000000E+01 0.  1.
          4   -1    0    0  501    0  0.00000000000E+00 -0.00000000000E+00 -0.12833646189E+02  0.12896331823E+02  0.12700000000E+01 0.  1.
         25    2    1    2    0    0  0.00000000000E+00  0.00000000000E+00  0.29074104616E+03  0.31647368067E+03  0.12500093854E+03 0.  0.
    9000005    1    3    3    0    0  0.45324208425E+02  0.19751487883E+01  0.25418139743E+03  0.25820024764E+03  0.10000000000E+01 0.  0.
    9000005    1    3    3    0    0 -0.45324208425E+02 -0.19751487883E+01  0.36559648728E+02  0.58273433031E+02  0.10000000000E+01 0.  0.
<mgrwt>
<rscale>  0 0.12500094E+03</rscale>
<asrwt>0</asrwt>
<pdfrwt beam="2">  1        4 0.19794335E-02 0.12500094E+03</pdfrwt>
<pdfrwt beam="1">  1       -4 0.46708824E-01 0.12500094E+03</pdfrwt>
<totfact> 0.73575974E+03</totfact>
</mgrwt>
</event>
<event>
 5    1  0.3337119E-002  0.1249927E+03  0.7818608E-02  0.1235081E+00
          4   -1    0    0  501    0  0.00000000000E+00  0.00000000000E+00  0.48459086337E+03  0.48459252755E+03  0.12700000000E+01 0. -1.
         -4   -1    0    0    0  501 -0.00000000000E+00 -0.00000000000E+00 -0.80082645231E+01  0.81083414254E+01  0.12700000000E+01 0. -1.
         25    2    1    2    0    0  0.00000000000E+00  0.00000000000E+00  0.47658259885E+03  0.49270086898E+03  0.12499269087E+03 0.  0.
    9000005    1    3    3    0    0  0.13224823649E+02  0.35459545639E+02  0.42285722369E+02  0.56757005328E+02  0.10000000000E+01 0.  0.
    9000005    1    3    3    0    0 -0.13224823649E+02 -0.35459545639E+02  0.43429687648E+03  0.43594386365E+03  0.10000000000E+01 0.  0.
<mgrwt>
<rscale>  0 0.12499269E+03</rscale>
<asrwt>0</asrwt>
<pdfrwt beam="1">  1        4 0.74560246E-01 0.12499269E+03</pdfrwt>
<pdfrwt beam="2">  1       -4 0.12398673E-02 0.12499269E+03</pdfrwt>
<totfact> 0.56444252E+03</totfact>
</mgrwt>
</event>
<event>
 5    1  0.3337119E-002  0.1250010E+03  0.7818608E-02  0.1235068E+00
          4   -1    0    0  501    0  0.00000000000E+00  0.00000000000E+00  0.27042942261E+02  0.27072746927E+02  0.12700000000E+01 0. -1.
         -4   -1    0    0    0  501 -0.00000000000E+00 -0.00000000000E+00 -0.14433640280E+03  0.14434198999E+03  0.12700000000E+01 0. -1.
         25    2    1    2    0    0  0.00000000000E+00  0.00000000000E+00 -0.11729346054E+03  0.17141473692E+03  0.12500102458E+03 0.  0.
    9000005    1    3    3    0    0  0.28774789592E+02  0.14735087958E+02 -0.13198539358E+03  0.13589060104E+03  0.10000000000E+01 0.  0.
    9000005    1    3    3    0    0 -0.28774789592E+02 -0.14735087958E+02  0.14691933038E+02  0.35524135874E+02  0.10000000000E+01 0.  0.
<mgrwt>
<rscale>  0 0.12500102E+03</rscale>
<asrwt>0</asrwt>
<pdfrwt beam="1">  1        4 0.41631752E-02 0.12500102E+03</pdfrwt>
<pdfrwt beam="2">  1       -4 0.22208322E-01 0.12500102E+03</pdfrwt>
<totfact> 0.95183416E+03</totfact>
</mgrwt>
</event>
<event>
 5    1  0.3337119E-002  0.1249994E+03  0.7818608E-02  0.1235070E+00
         -4   -1    0    0    0  501 -0.00000000000E+00  0.00000000000E+00  0.79112776879E+03  0.79112878816E+03  0.12700000000E+01 0. -1.
          4   -1    0    0  501    0  0.00000000000E+00 -0.00000000000E+00 -0.48548224792E+01  0.50181870536E+01  0.12700000000E+01 0. -1.
         25    2    1    2    0    0  0.00000000000E+00  0.00000000000E+00  0.78627294631E+03  0.79614697521E+03  0.12499944015E+03 0.  0.
    9000005    1    3    3    0    0  0.32853927643E+01  0.89633643664E+01  0.78648727600E+03  0.78654584801E+03  0.10000000000E+01 0.  0.
    9000005    1    3    3    0    0 -0.32853927643E+01 -0.89633643664E+01 -0.21432968884E+00  0.96011272044E+01  0.10000000000E+01 0.  0.
<mgrwt>
<rscale>  0 0.12499944E+03</rscale>
<asrwt>0</asrwt>
<pdfrwt beam="2">  1        4 0.75954058E-03 0.12499944E+03</pdfrwt>
<pdfrwt beam="1">  1       -4 0.12172463E+00 0.12499944E+03</pdfrwt>
<totfact> 0.38437779E+03</totfact>
</mgrwt>
</event>
<event>
 5    1  0.3337119E-002  0.1249997E+03  0.7818608E-02  0.1235070E+00
         -4   -1    0    0    0  501 -0.00000000000E+00  0.00000000000E+00  0.43912828716E+02  0.43931189670E+02  0.12700000000E+01 0. -1.
          4   -1    0    0  501    0  0.00000000000E+00 -0.00000000000E+00 -0.88912764420E+02  0.88921834084E+02  0.12700000000E+01 0. -1.
         25    2    1    2    0    0  0.00000000000E+00  0.00000000000E+00 -0.44999935704E+02  0.13285302375E+03  0.12499972683E+03 0.  0.
    9000005    1    3    3    0    0  0.40061305153E+02  0.21202932857E+02  0.23223322762E+02  0.50939132820E+02  0.10000000000E+01 0.  0.
    9000005    1    3    3    0    0 -0.40061305153E+02 -0.21202932857E+02 -0.68223258466E+02  0.81913890935E+02  0.10000000000E+01 0.  0.
<mgrwt>
<rscale>  0 0.12499973E+03</rscale>
<asrwt>0</asrwt>
<pdfrwt beam="2">  1        4 0.13680997E-01 0.12499973E+03</pdfrwt>
<pdfrwt beam="1">  1       -4 0.67579299E-02 0.12499973E+03</pdfrwt>
<totfact> 0.10283588E+04</totfact>
</mgrwt>
</event>
<event>
 5    1  0.3337119E-002  0.1250016E+03  0.7818608E-02  0.1235067E+00
         -4   -1    0    0    0  501 -0.00000000000E+00  0.00000000000E+00  0.51985871665E+03  0.51986026793E+03  0.12700000000E+01 0.  1.
          4   -1    0    0  501    0  0.00000000000E+00 -0.00000000000E+00 -0.74590176697E+01  0.75663627059E+01  0.12700000000E+01 0.  1.
         25    2    1    2    0    0  0.00000000000E+00  0.00000000000E+00  0.51239969898E+03  0.52742663064E+03  0.12500159676E+03 0.  0.
    9000005    1    3    3    0    0 -0.43983210277E+02  0.56350968410E+01  0.44199892088E+03  0.44421877848E+03  0.10000000000E+01 0.  0.
    9000005    1    3    3    0    0  0.43983210277E+02 -0.56350968410E+01  0.70400778102E+02  0.83207852154E+02  0.10000000000E+01 0.  0.
<mgrwt>
<rscale>  0 0.12500160E+03</rscale>
<asrwt>0</asrwt>
<pdfrwt beam="2">  1        4 0.11559176E-02 0.12500160E+03</pdfrwt>
<pdfrwt beam="1">  1       -4 0.79986656E-01 0.12500160E+03</pdfrwt>
<totfact> 0.53795573E+03</totfact>
</mgrwt>
</event>
<event>
 5    1  0.3337119E-002  0.1249994E+03  0.7818608E-02  0.1235070E+00
          4   -1    0    0  501    0  0.00000000000E+00  0.00000000000E+00  0.11497675842E+02  0.11567603458E+02  0.12700000000E+01 0.  1.
         -4   -1    0    0    0  501 -0.00000000000E+00 -0.00000000000E+00 -0.33863817368E+03  0.33864055513E+03  0.12700000000E+01 0.  1.
         25    2    1    2    0    0  0.00000000000E+00  0.00000000000E+00 -0.32714049784E+03  0.35020815858E+03  0.12499939604E+03 0.  0.
    9000005    1    3    3    0    0 -0.18897454528E+02 -0.59059327999E+02 -0.14185150160E+03  0.15481591171E+03  0.10000000000E+01 0.  0.
    9000005    1    3    3    0    0  0.18897454528E+02  0.59059327999E+02 -0.18528899624E+03  0.19539224687E+03  0.10000000000E+01 0.  0.
<mgrwt>
<rscale>  0 0.12499940E+03</rscale>
<asrwt>0</asrwt>
<pdfrwt beam="1">  1        4 0.17744357E-02 0.12499940E+03</pdfrwt>
<pdfrwt beam="2">  1       -4 0.52103735E-01 0.12499940E+03</pdfrwt>
<totfact> 0.69702597E+03</totfact>
</mgrwt>
</event>
<event>
 5    1  0.3337119E-002  0.1250014E+03  0.7818608E-02  0.1235067E+00
          4   -1    0    0  501    0  0.00000000000E+00  0.00000000000E+00  0.11040838445E+03  0.11041568845E+03  0.12700000000E+01 0.  1.
         -4   -1    0    0    0  501 -0.00000000000E+00 -0.00000000000E+00 -0.35360917598E+02  0.35383716501E+02  0.12700000000E+01 0.  1.
         25    2    1    2    0    0  0.00000000000E+00  0.00000000000E+00  0.75047466848E+02  0.14579940495E+03  0.12500137681E+03 0.  0.
    9000005    1    3    3    0    0  0.14359022309E+01  0.43950622317E+02  0.89314487664E+02  0.99558006830E+02  0.10000000000E+01 0.  0.
    9000005    1    3    3    0    0 -0.14359022309E+01 -0.43950622317E+02 -0.14267020817E+02  0.46241398121E+02  0.10000000000E+01 0.  0.
<mgrwt>
<rscale>  0 0.12500138E+03</rscale>
<asrwt>0</asrwt>
<pdfrwt beam="1">  1        4 0.16988221E-01 0.12500138E+03</pdfrwt>
<pdfrwt beam="2">  1       -4 0.54424568E-02 0.12500138E+03</pdfrwt>
<totfact> 0.10014461E+04</totfact>
</mgrwt>
</event>
<event>
 5    1  0.3337119E-002  0.1250160E+03  0.7818608E-02  0.1235044E+00
          4   -1    0    0  501    0  0.00000000000E+00  0.00000000000E+00  0.91933964648E+01  0.92807024820E+01  0.12700000000E+01 0.  1.
         -4   -1    0    0    0  501 -0.00000000000E+00 -0.00000000000E+00 -0.42290945836E+03  0.42291136526E+03  0.12700000000E+01 0.  1.
         25    2    1    2    0    0  0.00000000000E+00  0.00000000000E+00 -0.41371606189E+03  0.43219206774E+03  0.12501601319E+03 0.  0.
    9000005    1    3    3    0    0 -0.27698798933E+02 -0.15272026875E+02 -0.39321406316E+03  0.39448543412E+03  0.10000000000E+01 0.  0.
    9000005    1    3    3    0    0  0.27698798933E+02  0.15272026875E+02 -0.20501998733E+02  0.37706633624E+02  0.10000000000E+01 0.  0.
<mgrwt>
<rscale>  0 0.12501601E+03</rscale>
<asrwt>0</asrwt>
<pdfrwt beam="1">  1        4 0.14212315E-02 0.12501601E+03</pdfrwt>
<pdfrwt beam="2">  1       -4 0.65069841E-01 0.12501601E+03</pdfrwt>
<totfact> 0.61516082E+03</totfact>
</mgrwt>
</event>
<event>
 5    1  0.3337119E-002  0.1250198E+03  0.7818608E-02  0.1235038E+00
          4   -1    0    0  501    0  0.00000000000E+00  0.00000000000E+00  0.63181600994E+02  0.63194363706E+02  0.12700000000E+01 0. -1.
         -4   -1    0    0    0  501 -0.00000000000E+00 -0.00000000000E+00 -0.61819828478E+02  0.61832872269E+02  0.12700000000E+01 0. -1.
         25    2    1    2    0    0  0.00000000000E+00  0.00000000000E+00  0.13617725166E+01  0.12502723597E+03  0.12501981967E+03 0.  0.
    9000005    1    3    3    0    0  0.48446742515E+02 -0.36362065299E+02 -0.14721396610E+02  0.62345859296E+02  0.10000000000E+01 0.  0.
    9000005    1    3    3    0    0 -0.48446742515E+02  0.36362065299E+02  0.16083169127E+02  0.62681376679E+02  0.10000000000E+01 0.  0.
<mgrwt>
<rscale>  0 0.12501982E+03</rscale>
<asrwt>0</asrwt>
<pdfrwt beam="1">  1        4 0.97222315E-02 0.12501982E+03</pdfrwt>
<pdfrwt beam="2">  1       -4 0.95127279E-02 0.12501982E+03</pdfrwt>
<totfact> 0.10447590E+04</totfact>
</mgrwt>
</event>
<event>
 5    1  0.3337119E-002  0.1250003E+03  0.7818608E-02  0.1235069E+00
          4   -1    0    0  501    0  0.00000000000E+00  0.00000000000E+00  0.67876918490E+02  0.67888798514E+02  0.12700000000E+01 0. -1.
         -4   -1    0    0    0  501 -0.00000000000E+00 -0.00000000000E+00 -0.57525336285E+02  0.57539353617E+02  0.12700000000E+01 0. -1.
         25    2    1    2    0    0  0.00000000000E+00  0.00000000000E+00  0.10351582205E+02  0.12542815213E+03  0.12500026437E+03 0.  0.
    9000005    1    3    3    0    0 -0.51525189299E+02 -0.34166229389E+02 -0.39707921320E+01  0.61959208784E+02  0.10000000000E+01 0.  0.
    9000005    1    3    3    0    0  0.51525189299E+02  0.34166229389E+02  0.14322374337E+02  0.63468943347E+02  0.10000000000E+01 0.  0.
<mgrwt>
<rscale>  0 0.12500026E+03</rscale>
<asrwt>0</asrwt>
<pdfrwt beam="1">  1        4 0.10444595E-01 0.12500026E+03</pdfrwt>
<pdfrwt beam="2">  1       -4 0.88520439E-02 0.12500026E+03</pdfrwt>
<totfact> 0.10443481E+04</totfact>
</mgrwt>
</event>
<event>
 5    1  0.3337119E-002  0.1250006E+03  0.7818608E-02  0.1235068E+00
          4   -1    0    0  501    0  0.00000000000E+00  0.00000000000E+00  0.61766389895E+01  0.63058519810E+01  0.12700000000E+01 0.  1.
         -4   -1    0    0    0  501 -0.00000000000E+00 -0.00000000000E+00 -0.62575236115E+03  0.62575364992E+03  0.12700000000E+01 0.  1.
         25    2    1    2    0    0  0.00000000000E+00  0.00000000000E+00 -0.61957572216E+03  0.63205950190E+03  0.12500055380E+03 0.  0.
    9000005    1    3    3    0    0  0.40751382626E+02  0.37075363480E+02 -0.16064160532E+03  0.16982927640E+03  0.10000000000E+01 0.  0.
    9000005    1    3    3    0    0 -0.40751382626E+02 -0.37075363480E+02 -0.45893411684E+03  0.46223022550E+03  0.10000000000E+01 0.  0.
<mgrwt>
<rscale>  0 0.12500055E+03</rscale>
<asrwt>0</asrwt>
<pdfrwt beam="1">  1        4 0.96029124E-03 0.12500055E+03</pdfrwt>
<pdfrwt beam="2">  1       -4 0.96279583E-01 0.12500055E+03</pdfrwt>
<totfact> 0.46903950E+03</totfact>
</mgrwt>
</event>
<event>
 5    1  0.3337119E-002  0.1250014E+03  0.7818608E-02  0.1235067E+00
         -4   -1    0    0    0  501 -0.00000000000E+00  0.00000000000E+00  0.36307910009E+03  0.36308132122E+03  0.12700000000E+01 0. -1.
          4   -1    0    0  501    0  0.00000000000E+00 -0.00000000000E+00 -0.10719168151E+02  0.10794140348E+02  0.12700000000E+01 0. -1.
         25    2    1    2    0    0  0.00000000000E+00  0.00000000000E+00  0.35235993193E+03  0.37387546157E+03  0.12500135651E+03 0.  0.
    9000005    1    3    3    0    0 -0.30436075100E+02 -0.52169831881E+02  0.22415581181E+03  0.23215269542E+03  0.10000000000E+01 0.  0.
    9000005    1    3    3    0    0  0.30436075100E+02  0.52169831881E+02  0.12820412013E+03  0.14172276615E+03  0.10000000000E+01 0.  0.
<mgrwt>
<rscale>  0 0.12500136E+03</rscale>
<asrwt>0</asrwt>
<pdfrwt beam="2">  1        4 0.16550408E-02 0.12500136E+03</pdfrwt>
<pdfrwt beam="1">  1       -4 0.55864259E-01 0.12500136E+03</pdfrwt>
<totfact> 0.67173417E+03</totfact>
</mgrwt>
</event>
<event>
 5    1  0.3337119E-002  0.1249999E+03  0.7818608E-02  0.1235069E+00
         -4   -1    0    0    0  501 -0.00000000000E+00  0.00000000000E+00  0.21518031985E+02  0.21555477274E+02  0.12700000000E+01 0.  1.
          4   -1    0    0  501    0  0.00000000000E+00 -0.00000000000E+00 -0.18133609211E+03  0.18134053932E+03  0.12700000000E+01 0.  1.
         25    2    1    2    0    0  0.00000000000E+00  0.00000000000E+00 -0.15981806013E+03  0.20289601660E+03  0.12499992483E+03 0.  0.
    9000005    1    3    3    0    0 -0.31640658300E+02 -0.24121770638E+02 -0.16888791015E+01  0.39835202886E+02  0.10000000000E+01 0.  0.
    9000005    1    3    3    0    0  0.31640658300E+02  0.24121770638E+02 -0.15812918103E+03  0.16306081371E+03  0.10000000000E+01 0.  0.
<mgrwt>
<rscale>  0 0.12499992E+03</rscale>
<asrwt>0</asrwt>
<pdfrwt beam="2">  1        4 0.27901082E-01 0.12499992E+03</pdfrwt>
<pdfrwt beam="1">  1       -4 0.33136891E-02 0.12499992E+03</pdfrwt>
<totfact> 0.89649509E+03</totfact>
</mgrwt>
</event>
<event>
 5    1  0.3337119E-002  0.1249995E+03  0.7818608E-02  0.1235070E+00
          4   -1    0    0  501    0  0.00000000000E+00  0.00000000000E+00  0.39071981275E+02  0.39092615936E+02  0.12700000000E+01 0. -1.
         -4   -1    0    0    0  501 -0.00000000000E+00 -0.00000000000E+00 -0.99923843740E+02  0.99931914060E+02  0.12700000000E+01 0. -1.
         25    2    1    2    0    0  0.00000000000E+00  0.00000000000E+00 -0.60851862465E+02  0.13902453000E+03  0.12499948310E+03 0.  0.
    9000005    1    3    3    0    0  0.16391363779E+02  0.13069318479E+02 -0.95901732138E+02  0.98171411924E+02  0.10000000000E+01 0.  0.
    9000005    1    3    3    0    0 -0.16391363779E+02 -0.13069318479E+02  0.35049869673E+02  0.40853118072E+02  0.10000000000E+01 0.  0.
<mgrwt>
<rscale>  0 0.12499948E+03</rscale>
<asrwt>0</asrwt>
<pdfrwt beam="1">  1        4 0.60132822E-02 0.12499948E+03</pdfrwt>
<pdfrwt beam="2">  1       -4 0.15375107E-01 0.12499948E+03</pdfrwt>
<totfact> 0.10153961E+04</totfact>
</mgrwt>
</event>
<event>
 5    1  0.3337119E-002  0.1250015E+03  0.7818608E-02  0.1235067E+00
          4   -1    0    0  501    0  0.00000000000E+00  0.00000000000E+00  0.39525934146E+03  0.39526138176E+03  0.12700000000E+01 0.  1.
         -4   -1    0    0    0  501 -0.00000000000E+00 -0.00000000000E+00 -0.98401070175E+01  0.99217239487E+01  0.12700000000E+01 0.  1.
         25    2    1    2    0    0  0.00000000000E+00  0.00000000000E+00  0.38541923444E+03  0.40518310571E+03  0.12500145149E+03 0.  0.
    9000005    1    3    3    0    0  0.72948480896E+01 -0.13636941832E+02 -0.35549785678E+01  0.15900278734E+02  0.10000000000E+01 0.  0.
    9000005    1    3    3    0    0 -0.72948480896E+01  0.13636941832E+02  0.38897421301E+03  0.38928282698E+03  0.10000000000E+01 0.  0.
<mgrwt>
<rscale>  0 0.12500145E+03</rscale>
<asrwt>0</asrwt>
<pdfrwt beam="1">  1        4 0.60815575E-01 0.12500145E+03</pdfrwt>
<pdfrwt beam="2">  1       -4 0.15202975E-02 0.12500145E+03</pdfrwt>
<totfact> 0.64049729E+03</totfact>
</mgrwt>
</event>
<event>
 5    1  0.3337119E-002  0.1250010E+03  0.7818608E-02  0.1235068E+00
         -4   -1    0    0    0  501 -0.00000000000E+00  0.00000000000E+00  0.16757469560E+02  0.16805525462E+02  0.12700000000E+01 0. -1.
          4   -1    0    0  501    0  0.00000000000E+00 -0.00000000000E+00 -0.23272523112E+03  0.23272869634E+03  0.12700000000E+01 0. -1.
         25    2    1    2    0    0  0.00000000000E+00  0.00000000000E+00 -0.21596776156E+03  0.24953422180E+03  0.12500101526E+03 0.  0.
    9000005    1    3    3    0    0  0.20738566659E+01  0.52171237613E+02 -0.39434170985E+02  0.65438465422E+02  0.10000000000E+01 0.  0.
    9000005    1    3    3    0    0 -0.20738566659E+01 -0.52171237613E+02 -0.17653359057E+03  0.18409575638E+03  0.10000000000E+01 0.  0.
<mgrwt>
<rscale>  0 0.12500102E+03</rscale>
<asrwt>0</asrwt>
<pdfrwt beam="2">  1        4 0.35807843E-01 0.12500102E+03</pdfrwt>
<pdfrwt beam="1">  1       -4 0.25820356E-02 0.12500102E+03</pdfrwt>
<totfact> 0.82395731E+03</totfact>
</mgrwt>
</event>
<event>
 5    1  0.3337119E-002  0.1250001E+03  0.7818608E-02  0.1235069E+00
          4   -1    0    0  501    0  0.00000000000E+00  0.00000000000E+00  0.19966057660E+02  0.20006407935E+02  0.12700000000E+01 0. -1.
         -4   -1    0    0    0  501 -0.00000000000E+00 -0.00000000000E+00 -0.19540482531E+03  0.19540895234E+03  0.12700000000E+01 0. -1.
         25    2    1    2    0    0  0.00000000000E+00  0.00000000000E+00 -0.17543876765E+03  0.21541536028E+03  0.12500006499E+03 0.  0.
    9000005    1    3    3    0    0 -0.49209568004E+01  0.36914948668E+02 -0.12380655972E+01  0.37275488694E+02  0.10000000000E+01 0.  0.
    9000005    1    3    3    0    0  0.49209568004E+01 -0.36914948668E+02 -0.17420070206E+03  0.17813987158E+03  0.10000000000E+01 0.  0.
<mgrwt>
<rscale>  0 0.12500006E+03</rscale>
<asrwt>0</asrwt>
<pdfrwt beam="1">  1        4 0.30751226E-02 0.12500006E+03</pdfrwt>
<pdfrwt beam="2">  1       -4 0.30065701E-01 0.12500006E+03</pdfrwt>
<totfact> 0.87598922E+03</totfact>
</mgrwt>
</event>
<event>
 5    1  0.3337119E-002  0.1250033E+03  0.7818608E-02  0.1235064E+00
          4   -1    0    0  501    0  0.00000000000E+00  0.00000000000E+00  0.78926883760E+02  0.78937100783E+02  0.12700000000E+01 0. -1.
         -4   -1    0    0    0  501 -0.00000000000E+00 -0.00000000000E+00 -0.49473055572E+02  0.49489353679E+02  0.12700000000E+01 0. -1.
         25    2    1    2    0    0  0.00000000000E+00  0.00000000000E+00  0.29453828188E+02  0.12842645446E+03  0.12500330480E+03 0.  0.
    9000005    1    3    3    0    0  0.60693092748E+02  0.89681103948E+01  0.25110560206E+01  0.61411594294E+02  0.10000000000E+01 0.  0.
    9000005    1    3    3    0    0 -0.60693092748E+02 -0.89681103948E+01  0.26942772167E+02  0.67014860169E+02  0.10000000000E+01 0.  0.
<mgrwt>
<rscale>  0 0.12500330E+03</rscale>
<asrwt>0</asrwt>
<pdfrwt beam="1">  1        4 0.12144637E-01 0.12500330E+03</pdfrwt>
<pdfrwt beam="2">  1       -4 0.76132790E-02 0.12500330E+03</pdfrwt>
<totfact> 0.10377514E+04</totfact>
</mgrwt>
</event>
<event>
 5    1  0.3337119E-002  0.1249942E+03  0.7818608E-02  0.1235078E+00
          4   -1    0    0  501    0  0.00000000000E+00  0.00000000000E+00  0.38502133999E+02  0.38523073897E+02  0.12700000000E+01 0. -1.
         -4   -1    0    0    0  501 -0.00000000000E+00 -0.00000000000E+00 -0.10139351929E+03  0.10140147264E+03  0.12700000000E+01 0. -1.
         25    2    1    2    0    0  0.00000000000E+00  0.00000000000E+00 -0.62891385289E+02  0.13992454654E+03  0.12499420939E+03 0.  0.
    9000005    1    3    3    0    0  0.38579331567E+02  0.30244850199E+02 -0.74827342036E+02  0.89460868003E+02  0.10000000000E+01 0.  0.
    9000005    1    3    3    0    0 -0.38579331567E+02 -0.30244850199E+02  0.11935956747E+02  0.50463678534E+02  0.10000000000E+01 0.  0.
<mgrwt>
<rscale>  0 0.12499421E+03</rscale>
<asrwt>0</asrwt>
<pdfrwt beam="1">  1        4 0.59256278E-02 0.12499421E+03</pdfrwt>
<pdfrwt beam="2">  1       -4 0.15601225E-01 0.12499421E+03</pdfrwt>
<totfact> 0.10136472E+04</totfact>
</mgrwt>
</event>
<event>
 5    1  0.3337119E-002  0.1250155E+03  0.7818608E-02  0.1235045E+00
         -4   -1    0    0    0  501 -0.00000000000E+00  0.00000000000E+00  0.14724333098E+02  0.14779001494E+02  0.12700000000E+01 0. -1.
          4   -1    0    0  501    0  0.00000000000E+00 -0.00000000000E+00 -0.26480998784E+03  0.26481303321E+03  0.12700000000E+01 0. -1.
         25    2    1    2    0    0  0.00000000000E+00  0.00000000000E+00 -0.25008565474E+03  0.27959203471E+03  0.12501548370E+03 0.  0.
    9000005    1    3    3    0    0  0.36615184866E+02 -0.34920998790E+02 -0.42989765633E+02  0.66402318246E+02  0.10000000000E+01 0.  0.
    9000005    1    3    3    0    0 -0.36615184866E+02  0.34920998790E+02 -0.20709588911E+03  0.21318971646E+03  0.10000000000E+01 0.  0.
<mgrwt>
<rscale>  0 0.12501548E+03</rscale>
<asrwt>0</asrwt>
<pdfrwt beam="2">  1        4 0.40744434E-01 0.12501548E+03</pdfrwt>
<pdfrwt beam="1">  1       -4 0.22697217E-02 0.12501548E+03</pdfrwt>
<totfact> 0.78205311E+03</totfact>
</mgrwt>
</event>
<event>
 5    1  0.3337119E-002  0.1250016E+03  0.7818608E-02  0.1235067E+00
          4   -1    0    0  501    0  0.00000000000E+00  0.00000000000E+00  0.55668738997E+02  0.55683223699E+02  0.12700000000E+01 0. -1.
         -4   -1    0    0    0  501 -0.00000000000E+00 -0.00000000000E+00 -0.70141990796E+02  0.70153487246E+02  0.12700000000E+01 0. -1.
         25    2    1    2    0    0  0.00000000000E+00  0.00000000000E+00 -0.14473251798E+02  0.12583671095E+03  0.12500161121E+03 0.  0.
    9000005    1    3    3    0    0 -0.43197041871E+00 -0.36752144785E+02  0.43642534606E+02  0.57066431215E+02  0.10000000000E+01 0.  0.
    9000005    1    3    3    0    0  0.43197041871E+00  0.36752144785E+02 -0.58115786405E+02  0.68770279730E+02  0.10000000000E+01 0.  0.
<mgrwt>
<rscale>  0 0.12500161E+03</rscale>
<asrwt>0</asrwt>
<pdfrwt beam="1">  1        4 0.85664200E-02 0.12500161E+03</pdfrwt>
<pdfrwt beam="2">  1       -4 0.10793074E-01 0.12500161E+03</pdfrwt>
<totfact> 0.10434160E+04</totfact>
</mgrwt>
</event>
<event>
 5    1  0.3337119E-002  0.1250005E+03  0.7818608E-02  0.1235068E+00
         -4   -1    0    0    0  501 -0.00000000000E+00  0.00000000000E+00  0.59497977005E+02  0.59511529704E+02  0.12700000000E+01 0. -1.
          4   -1    0    0  501    0  0.00000000000E+00 -0.00000000000E+00 -0.65626848942E+02  0.65639136207E+02  0.12700000000E+01 0. -1.
         25    2    1    2    0    0  0.00000000000E+00  0.00000000000E+00 -0.61288719368E+01  0.12515066591E+03  0.12500050443E+03 0.  0.
    9000005    1    3    3    0    0 -0.49926580327E+02  0.10090160844E+02  0.33184122067E+02  0.60800170447E+02  0.10000000000E+01 0.  0.
    9000005    1    3    3    0    0  0.49926580327E+02 -0.10090160844E+02 -0.39312994004E+02  0.64350495465E+02  0.10000000000E+01 0.  0.
<mgrwt>
<rscale>  0 0.12500050E+03</rscale>
<asrwt>0</asrwt>
<pdfrwt beam="2">  1        4 0.10098426E-01 0.12500050E+03</pdfrwt>
<pdfrwt beam="1">  1       -4 0.91555226E-02 0.12500050E+03</pdfrwt>
<totfact> 0.10449472E+04</totfact>
</mgrwt>
</event>
<event>
 5    1  0.3337119E-002  0.1249969E+03  0.7818608E-02  0.1235074E+00
         -4   -1    0    0    0  501 -0.00000000000E+00  0.00000000000E+00  0.14158544350E+03  0.14159113924E+03  0.12700000000E+01 0. -1.
          4   -1    0    0  501    0  0.00000000000E+00 -0.00000000000E+00 -0.27567105164E+02  0.27596343727E+02  0.12700000000E+01 0. -1.
         25    2    1    2    0    0  0.00000000000E+00  0.00000000000E+00  0.11401833833E+03  0.16918748296E+03  0.12499689162E+03 0.  0.
    9000005    1    3    3    0    0 -0.24326635607E+02 -0.67092958957E+01  0.13438886915E+03  0.13674124470E+03  0.10000000000E+01 0.  0.
    9000005    1    3    3    0    0  0.24326635607E+02  0.67092958957E+01 -0.20370530818E+02  0.32446238260E+02  0.10000000000E+01 0.  0.
<mgrwt>
<rscale>  0 0.12499689E+03</rscale>
<asrwt>0</asrwt>
<pdfrwt beam="2">  1        4 0.42437803E-02 0.12499689E+03</pdfrwt>
<pdfrwt beam="1">  1       -4 0.21785064E-01 0.12499689E+03</pdfrwt>
<totfact> 0.95606846E+03</totfact>
</mgrwt>
</event>
<event>
 5    1  0.3337119E-002  0.1250025E+03  0.7818608E-02  0.1235065E+00
         -4   -1    0    0    0  501 -0.00000000000E+00  0.00000000000E+00  0.83492046900E+01  0.84452423858E+01  0.12700000000E+01 0.  1.
          4   -1    0    0  501    0  0.00000000000E+00 -0.00000000000E+00 -0.46510523075E+03  0.46510696466E+03  0.12700000000E+01 0.  1.
         25    2    1    2    0    0  0.00000000000E+00  0.00000000000E+00 -0.45675602606E+03  0.47355220704E+03  0.12500250178E+03 0.  0.
    9000005    1    3    3    0    0 -0.44178103985E+02  0.43091582612E+02 -0.19110238503E+03  0.20082258571E+03  0.10000000000E+01 0.  0.
    9000005    1    3    3    0    0  0.44178103985E+02 -0.43091582612E+02 -0.26565364103E+03  0.27272962134E+03  0.10000000000E+01 0.  0.
<mgrwt>
<rscale>  0 0.12500250E+03</rscale>
<asrwt>0</asrwt>
<pdfrwt beam="2">  1        4 0.71562152E-01 0.12500250E+03</pdfrwt>
<pdfrwt beam="1">  1       -4 0.12920143E-02 0.12500250E+03</pdfrwt>
<totfact> 0.57973231E+03</totfact>
</mgrwt>
</event>
<event>
 5    1  0.3337119E-002  0.1250016E+03  0.7818608E-02  0.1235067E+00
         -4   -1    0    0    0  501 -0.00000000000E+00  0.00000000000E+00  0.15368711094E+03  0.15369235820E+03  0.12700000000E+01 0.  1.
          4   -1    0    0  501    0  0.00000000000E+00 -0.00000000000E+00 -0.25396015716E+02  0.25427750869E+02  0.12700000000E+01 0.  1.
         25    2    1    2    0    0  0.00000000000E+00  0.00000000000E+00  0.12829109522E+03  0.17912010907E+03  0.12500163343E+03 0.  0.
    9000005    1    3    3    0    0  0.61842120835E+02 -0.60489689189E+01  0.73684482739E+02  0.96392120689E+02  0.10000000000E+01 0.  0.
    9000005    1    3    3    0    0 -0.61842120835E+02  0.60489689189E+01  0.54606612486E+02  0.82727988381E+02  0.10000000000E+01 0.  0.
<mgrwt>
<rscale>  0 0.12500163E+03</rscale>
<asrwt>0</asrwt>
<pdfrwt beam="2">  1        4 0.39099241E-02 0.12500163E+03</pdfrwt>
<pdfrwt beam="1">  1       -4 0.23647016E-01 0.12500163E+03</pdfrwt>
<totfact> 0.93772192E+03</totfact>
</mgrwt>
</event>
<event>
 5    1  0.3337119E-002  0.1250023E+03  0.7818608E-02  0.1235066E+00
          4   -1    0    0  501    0  0.00000000000E+00  0.00000000000E+00  0.68665685704E+02  0.68677429285E+02  0.12700000000E+01 0. -1.
         -4   -1    0    0    0  501 -0.00000000000E+00 -0.00000000000E+00 -0.56866354159E+02  0.56880533887E+02  0.12700000000E+01 0. -1.
         25    2    1    2    0    0  0.00000000000E+00  0.00000000000E+00  0.11799331545E+02  0.12555796317E+03  0.12500231154E+03 0.  0.
    9000005    1    3    3    0    0 -0.60241173173E+02  0.48892045876E+01  0.21860270646E+02  0.64278882220E+02  0.10000000000E+01 0.  0.
    9000005    1    3    3    0    0  0.60241173173E+02 -0.48892045876E+01 -0.10060939101E+02  0.61279080952E+02  0.10000000000E+01 0.  0.
<mgrwt>
<rscale>  0 0.12500231E+03</rscale>
<asrwt>0</asrwt>
<pdfrwt beam="1">  1        4 0.10565946E-01 0.12500231E+03</pdfrwt>
<pdfrwt beam="2">  1       -4 0.87506640E-02 0.12500231E+03</pdfrwt>
<totfact> 0.10440130E+04</totfact>
</mgrwt>
</event>
<event>
 5    1  0.3337119E-002  0.1250041E+03  0.7818608E-02  0.1235063E+00
         -4   -1    0    0    0  501 -0.00000000000E+00  0.00000000000E+00  0.22948736248E+02  0.22983850752E+02  0.12700000000E+01 0.  1.
          4   -1    0    0  501    0  0.00000000000E+00 -0.00000000000E+00 -0.17006001410E+03  0.17006475618E+03  0.12700000000E+01 0.  1.
         25    2    1    2    0    0  0.00000000000E+00  0.00000000000E+00 -0.14711127785E+03  0.19304860694E+03  0.12500414621E+03 0.  0.
    9000005    1    3    3    0    0  0.54476189228E+02  0.19918853916E+02 -0.37632167701E+02  0.69149085171E+02  0.10000000000E+01 0.  0.
    9000005    1    3    3    0    0 -0.54476189228E+02 -0.19918853916E+02 -0.10947911015E+03  0.12389952177E+03  0.10000000000E+01 0.  0.
<mgrwt>
<rscale>  0 0.12500415E+03</rscale>
<asrwt>0</asrwt>
<pdfrwt beam="2">  1        4 0.26166144E-01 0.12500415E+03</pdfrwt>
<pdfrwt beam="1">  1       -4 0.35336408E-02 0.12500415E+03</pdfrwt>
<totfact> 0.91311079E+03</totfact>
</mgrwt>
</event>
<event>
 5    1  0.3337119E-002  0.1250087E+03  0.7818608E-02  0.1235056E+00
          4   -1    0    0  501    0  0.00000000000E+00  0.00000000000E+00  0.28694563135E+03  0.28694844180E+03  0.12700000000E+01 0. -1.
         -4   -1    0    0    0  501 -0.00000000000E+00 -0.00000000000E+00 -0.13582600286E+02  0.13641844836E+02  0.12700000000E+01 0. -1.
         25    2    1    2    0    0  0.00000000000E+00  0.00000000000E+00  0.27336303106E+03  0.30059028663E+03  0.12500869436E+03 0.  0.
    9000005    1    3    3    0    0 -0.19593744530E+02 -0.23957231941E+01  0.27926451521E+03  0.27996307573E+03  0.10000000000E+01 0.  0.
    9000005    1    3    3    0    0  0.19593744530E+02  0.23957231941E+01 -0.59014841536E+01  0.20627210901E+02  0.10000000000E+01 0.  0.
<mgrwt>
<rscale>  0 0.12500869E+03</rscale>
<asrwt>0</asrwt>
<pdfrwt beam="1">  1        4 0.44150254E-01 0.12500869E+03</pdfrwt>
<pdfrwt beam="2">  1       -4 0.20944043E-02 0.12500869E+03</pdfrwt>
<totfact> 0.75510278E+03</totfact>
</mgrwt>
</event>
<event>
 5    1  0.3337119E-002  0.1250003E+03  0.7818608E-02  0.1235069E+00
          4   -1    0    0  501    0  0.00000000000E+00  0.00000000000E+00  0.67761995792E+03  0.67762114804E+03  0.12700000000E+01 0.  1.
         -4   -1    0    0    0  501 -0.00000000000E+00 -0.00000000000E+00 -0.56935282689E+01  0.58334521639E+01  0.12700000000E+01 0.  1.
         25    2    1    2    0    0  0.00000000000E+00  0.00000000000E+00  0.67192642965E+03  0.68345460020E+03  0.12500025471E+03 0.  0.
    9000005    1    3    3    0    0 -0.53167529087E+02  0.20117082152E+02  0.47788815681E+03  0.48125832311E+03  0.10000000000E+01 0.  0.
    9000005    1    3    3    0    0  0.53167529087E+02 -0.20117082152E+02  0.19403827284E+03  0.20219627709E+03  0.10000000000E+01 0.  0.
<mgrwt>
<rscale>  0 0.12500025E+03</rscale>
<asrwt>0</asrwt>
<pdfrwt beam="1">  1        4 0.10426004E+00 0.12500025E+03</pdfrwt>
<pdfrwt beam="2">  1       -4 0.88678270E-03 0.12500025E+03</pdfrwt>
<totfact> 0.43974384E+03</totfact>
</mgrwt>
</event>
<event>
 5    1  0.3337119E-002  0.1249979E+03  0.7818608E-02  0.1235073E+00
         -4   -1    0    0    0  501 -0.00000000000E+00  0.00000000000E+00  0.18301103248E+02  0.18345115974E+02  0.12700000000E+01 0.  1.
          4   -1    0    0  501    0  0.00000000000E+00 -0.00000000000E+00 -0.21313387629E+03  0.21313766003E+03  0.12700000000E+01 0.  1.
         25    2    1    2    0    0  0.00000000000E+00  0.00000000000E+00 -0.19483277304E+03  0.23148277600E+03  0.12499786452E+03 0.  0.
    9000005    1    3    3    0    0 -0.18097119118E+02 -0.56689799372E+02 -0.13274232155E+03  0.14547426922E+03  0.10000000000E+01 0.  0.
    9000005    1    3    3    0    0  0.18097119118E+02  0.56689799372E+02 -0.62090451487E+02  0.86008506783E+02  0.10000000000E+01 0.  0.
<mgrwt>
<rscale>  0 0.12499786E+03</rscale>
<asrwt>0</asrwt>
<pdfrwt beam="2">  1        4 0.32793502E-01 0.12499786E+03</pdfrwt>
<pdfrwt beam="1">  1       -4 0.28192311E-02 0.12499786E+03</pdfrwt>
<totfact> 0.85086488E+03</totfact>
</mgrwt>
</event>
<event>
 5    1  0.3337119E-002  0.1250033E+03  0.7818608E-02  0.1235064E+00
          4   -1    0    0  501    0  0.00000000000E+00  0.00000000000E+00  0.81689719725E+02  0.81699591240E+02  0.12700000000E+01 0.  1.
         -4   -1    0    0    0  501 -0.00000000000E+00 -0.00000000000E+00 -0.47799467612E+02  0.47816336162E+02  0.12700000000E+01 0.  1.
         25    2    1    2    0    0  0.00000000000E+00  0.00000000000E+00  0.33890252113E+02  0.12951592740E+03  0.12500330501E+03 0.  0.
    9000005    1    3    3    0    0 -0.61238799852E+02 -0.10875576606E+02  0.10643815469E+02  0.63109108546E+02  0.10000000000E+01 0.  0.
    9000005    1    3    3    0    0  0.61238799852E+02  0.10875576606E+02  0.23246436644E+02  0.66406818855E+02  0.10000000000E+01 0.  0.
<mgrwt>
<rscale>  0 0.12500331E+03</rscale>
<asrwt>0</asrwt>
<pdfrwt beam="1">  1        4 0.12569706E-01 0.12500331E+03</pdfrwt>
<pdfrwt beam="2">  1       -4 0.73558212E-02 0.12500331E+03</pdfrwt>
<totfact> 0.10354101E+04</totfact>
</mgrwt>
</event>
<event>
 5    1  0.3337119E-002  0.1249996E+03  0.7818608E-02  0.1235070E+00
         -4   -1    0    0    0  501 -0.00000000000E+00  0.00000000000E+00  0.20736028456E+01  0.24316103227E+01  0.12700000000E+01 0.  1.
          4   -1    0    0  501    0  0.00000000000E+00 -0.00000000000E+00 -0.17337316698E+04  0.17337321349E+04  0.12700000000E+01 0.  1.
         25    2    1    2    0    0  0.00000000000E+00  0.00000000000E+00 -0.17316580669E+04  0.17361637453E+04  0.12499955824E+03 0.  0.
    9000005    1    3    3    0    0 -0.28881418818E+02  0.16560832829E+02 -0.13129006641E+03  0.13544917525E+03  0.10000000000E+01 0.  0.
    9000005    1    3    3    0    0  0.28881418818E+02 -0.16560832829E+02 -0.16003680005E+04  0.16007145700E+04  0.10000000000E+01 0.  0.
<mgrwt>
<rscale>  0 0.12499956E+03</rscale>
<asrwt>0</asrwt>
<pdfrwt beam="2">  1        4 0.26675446E+00 0.12499956E+03</pdfrwt>
<pdfrwt beam="1">  1       -4 0.34659203E-03 0.12499956E+03</pdfrwt>
<totfact> 0.13713319E+03</totfact>
</mgrwt>
</event>
<event>
 5    1  0.3337119E-002  0.1250006E+03  0.7818608E-02  0.1235068E+00
         -4   -1    0    0    0  501 -0.00000000000E+00  0.00000000000E+00  0.15697705378E+04  0.15697710515E+04  0.12700000000E+01 0.  1.
          4   -1    0    0  501    0  0.00000000000E+00 -0.00000000000E+00 -0.23258567747E+01  0.26500018371E+01  0.12700000000E+01 0.  1.
         25    2    1    2    0    0  0.00000000000E+00  0.00000000000E+00  0.15674446810E+04  0.15724210534E+04  0.12500056408E+03 0.  0.
    9000005    1    3    3    0    0  0.93391203285E+01  0.60126275690E+02  0.60454018672E+03  0.60759544563E+03  0.10000000000E+01 0.  0.
    9000005    1    3    3    0    0 -0.93391203285E+01 -0.60126275690E+02  0.96290449431E+03  0.96482560774E+03  0.10000000000E+01 0.  0.
<mgrwt>
<rscale>  0 0.12500056E+03</rscale>
<asrwt>0</asrwt>
<pdfrwt beam="2">  1        4 0.38279818E-03 0.12500056E+03</pdfrwt>
<pdfrwt beam="1">  1       -4 0.24152794E+00 0.12500056E+03</pdfrwt>
<totfact> 0.16549761E+03</totfact>
</mgrwt>
</event>
<event>
 5    1  0.3337119E-002  0.1250138E+03  0.7818608E-02  0.1235048E+00
          4   -1    0    0  501    0  0.00000000000E+00  0.00000000000E+00  0.15829062330E+03  0.15829571797E+03  0.12700000000E+01 0.  1.
         -4   -1    0    0    0  501 -0.00000000000E+00 -0.00000000000E+00 -0.24661322762E+02  0.24694002114E+02  0.12700000000E+01 0.  1.
         25    2    1    2    0    0  0.00000000000E+00  0.00000000000E+00  0.13362930054E+03  0.18298972008E+03  0.12501379000E+03 0.  0.
    9000005    1    3    3    0    0  0.93691561712E+01 -0.54020372444E+01 -0.23288422706E+02  0.25696570314E+02  0.10000000000E+01 0.  0.
    9000005    1    3    3    0    0 -0.93691561712E+01  0.54020372444E+01  0.15691772325E+03  0.15729314977E+03  0.10000000000E+01 0.  0.
<mgrwt>
<rscale>  0 0.12501379E+03</rscale>
<asrwt>0</asrwt>
<pdfrwt beam="1">  1        4 0.24355308E-01 0.12501379E+03</pdfrwt>
<pdfrwt beam="2">  1       -4 0.37969555E-02 0.12501379E+03</pdfrwt>
<totfact> 0.93052830E+03</totfact>
</mgrwt>
</event>
<event>
 5    1  0.3337119E-002  0.1250007E+03  0.7818608E-02  0.1235068E+00
          4   -1    0    0  501    0  0.00000000000E+00  0.00000000000E+00  0.22996647330E+02  0.23031688788E+02  0.12700000000E+01 0.  1.
         -4   -1    0    0    0  501 -0.00000000000E+00 -0.00000000000E+00 -0.16969685821E+03  0.16970161044E+03  0.12700000000E+01 0.  1.
         25    2    1    2    0    0  0.00000000000E+00  0.00000000000E+00 -0.14670021088E+03  0.19273329922E+03  0.12500069103E+03 0.  0.
    9000005    1    3    3    0    0  0.26908695575E+02 -0.50722228734E+02 -0.11138342341E+03  0.12531595826E+03  0.10000000000E+01 0.  0.
    9000005    1    3    3    0    0 -0.26908695575E+02  0.50722228734E+02 -0.35316787467E+02  0.67417340961E+02  0.10000000000E+01 0.  0.
<mgrwt>
<rscale>  0 0.12500069E+03</rscale>
<asrwt>0</asrwt>
<pdfrwt beam="1">  1        4 0.35410069E-02 0.12500069E+03</pdfrwt>
<pdfrwt beam="2">  1       -4 0.26110269E-01 0.12500069E+03</pdfrwt>
<totfact> 0.91372479E+03</totfact>
</mgrwt>
</event>
<event>
 5    1  0.3337119E-002  0.1250010E+03  0.7818608E-02  0.1235068E+00
          4   -1    0    0  501    0  0.00000000000E+00  0.00000000000E+00  0.48634259777E+02  0.48650838883E+02  0.12700000000E+01 0.  1.
         -4   -1    0    0    0  501 -0.00000000000E+00 -0.00000000000E+00 -0.80284876815E+02  0.80294921043E+02  0.12700000000E+01 0.  1.
         25    2    1    2    0    0  0.00000000000E+00  0.00000000000E+00 -0.31650617038E+02  0.12894575993E+03  0.12500098977E+03 0.  0.
    9000005    1    3    3    0    0 -0.59444501243E+02  0.11838473531E+02 -0.31521053754E+02  0.68325507780E+02  0.10000000000E+01 0.  0.
    9000005    1    3    3    0    0  0.59444501243E+02 -0.11838473531E+02 -0.12956328490E+00  0.60620252146E+02  0.10000000000E+01 0.  0.
<mgrwt>
<rscale>  0 0.12500099E+03</rscale>
<asrwt>0</asrwt>
<pdfrwt beam="1">  1        4 0.74842418E-02 0.12500099E+03</pdfrwt>
<pdfrwt beam="2">  1       -4 0.12353567E-01 0.12500099E+03</pdfrwt>
<totfact> 0.10366881E+04</totfact>
</mgrwt>
</event>
<event>
 5    1  0.3337119E-002  0.1250010E+03  0.7818608E-02  0.1235068E+00
          4   -1    0    0  501    0  0.00000000000E+00  0.00000000000E+00  0.12098078465E+03  0.12098745040E+03  0.12700000000E+01 0.  1.
         -4   -1    0    0    0  501 -0.00000000000E+00 -0.00000000000E+00 -0.32268657332E+02  0.32293639404E+02  0.12700000000E+01 0.  1.
         25    2    1    2    0    0  0.00000000000E+00  0.00000000000E+00  0.88712127320E+02  0.15328108981E+03  0.12500100383E+03 0.  0.
    9000005    1    3    3    0    0  0.19443785797E+02 -0.39025158143E+02 -0.10541775011E+02  0.44868171287E+02  0.10000000000E+01 0.  0.
    9000005    1    3    3    0    0 -0.19443785797E+02  0.39025158143E+02  0.99253902331E+02  0.10841291852E+03  0.10000000000E+01 0.  0.
<mgrwt>
<rscale>  0 0.12500100E+03</rscale>
<asrwt>0</asrwt>
<pdfrwt beam="1">  1        4 0.18614863E-01 0.12500100E+03</pdfrwt>
<pdfrwt beam="2">  1       -4 0.49668433E-02 0.12500100E+03</pdfrwt>
<totfact> 0.98651409E+03</totfact>
</mgrwt>
</event>
<event>
 5    1  0.3337119E-002  0.1250027E+03  0.7818608E-02  0.1235065E+00
         -4   -1    0    0    0  501 -0.00000000000E+00  0.00000000000E+00  0.27246371922E+02  0.27275954299E+02  0.12700000000E+01 0.  1.
          4   -1    0    0  501    0  0.00000000000E+00 -0.00000000000E+00 -0.14326361739E+03  0.14326924641E+03  0.12700000000E+01 0.  1.
         25    2    1    2    0    0  0.00000000000E+00  0.00000000000E+00 -0.11601724547E+03  0.17054520071E+03  0.12500265693E+03 0.  0.
    9000005    1    3    3    0    0  0.43565071474E+02  0.26436830532E+02 -0.10736267540E+03  0.11884681540E+03  0.10000000000E+01 0.  0.
    9000005    1    3    3    0    0 -0.43565071474E+02 -0.26436830532E+02 -0.86545700688E+01  0.51698385315E+02  0.10000000000E+01 0.  0.
<mgrwt>
<rscale>  0 0.12500266E+03</rscale>
<asrwt>0</asrwt>
<pdfrwt beam="2">  1        4 0.22043265E-01 0.12500266E+03</pdfrwt>
<pdfrwt beam="1">  1       -4 0.41944582E-02 0.12500266E+03</pdfrwt>
<totfact> 0.95341431E+03</totfact>
</mgrwt>
</event>
<event>
 5    1  0.3337119E-002  0.1250010E+03  0.7818608E-02  0.1235068E+00
          4   -1    0    0  501    0  0.00000000000E+00  0.00000000000E+00  0.49996411386E+02  0.50012538942E+02  0.12700000000E+01 0.  1.
         -4   -1    0    0    0  501 -0.00000000000E+00 -0.00000000000E+00 -0.78097943420E+02  0.78108268874E+02  0.12700000000E+01 0.  1.
         25    2    1    2    0    0  0.00000000000E+00  0.00000000000E+00 -0.28101532035E+02  0.12812080782E+03  0.12500098117E+03 0.  0.
    9000005    1    3    3    0    0 -0.51114691652E+02  0.33346575765E+02 -0.27639620829E+00  0.61039185879E+02  0.10000000000E+01 0.  0.
    9000005    1    3    3    0    0  0.51114691652E+02 -0.33346575765E+02 -0.27825135826E+02  0.67081621937E+02  0.10000000000E+01 0.  0.
<mgrwt>
<rscale>  0 0.12500098E+03</rscale>
<asrwt>0</asrwt>
<pdfrwt beam="1">  1        4 0.76937904E-02 0.12500098E+03</pdfrwt>
<pdfrwt beam="2">  1       -4 0.12017103E-01 0.12500098E+03</pdfrwt>
<totfact> 0.10384649E+04</totfact>
</mgrwt>
</event>
<event>
 5    1  0.3337119E-002  0.1249948E+03  0.7818608E-02  0.1235077E+00
         -4   -1    0    0    0  501 -0.00000000000E+00  0.00000000000E+00  0.44493227486E+02  0.44511349026E+02  0.12700000000E+01 0.  1.
          4   -1    0    0  501    0  0.00000000000E+00 -0.00000000000E+00 -0.87746345508E+02  0.87755535723E+02  0.12700000000E+01 0.  1.
         25    2    1    2    0    0  0.00000000000E+00  0.00000000000E+00 -0.43253118021E+02  0.13226688475E+03  0.12499478622E+03 0.  0.
    9000005    1    3    3    0    0  0.38270559985E+02  0.27956119399E+02  0.21470623540E+02  0.52040061958E+02  0.10000000000E+01 0.  0.
    9000005    1    3    3    0    0 -0.38270559985E+02 -0.27956119399E+02 -0.64723741562E+02  0.80226822791E+02  0.10000000000E+01 0.  0.
<mgrwt>
<rscale>  0 0.12499479E+03</rscale>
<asrwt>0</asrwt>
<pdfrwt beam="2">  1        4 0.13501539E-01 0.12499479E+03</pdfrwt>
<pdfrwt beam="1">  1       -4 0.68472128E-02 0.12499479E+03</pdfrwt>
<totfact> 0.10297216E+04</totfact>
</mgrwt>
</event>
<event>
 5    1  0.3337119E-002  0.1250002E+03  0.7818608E-02  0.1235069E+00
          4   -1    0    0  501    0  0.00000000000E+00  0.00000000000E+00  0.23933993350E+02  0.23967664418E+02  0.12700000000E+01 0. -1.
         -4   -1    0    0    0  501 -0.00000000000E+00 -0.00000000000E+00 -0.16305881795E+03  0.16306376363E+03  0.12700000000E+01 0. -1.
         25    2    1    2    0    0  0.00000000000E+00  0.00000000000E+00 -0.13912482460E+03  0.18703142805E+03  0.12500015304E+03 0.  0.
    9000005    1    3    3    0    0 -0.44469075980E+02 -0.43900709584E+02 -0.68516594353E+02  0.92737773977E+02  0.10000000000E+01 0.  0.
    9000005    1    3    3    0    0  0.44469075980E+02  0.43900709584E+02 -0.70608230243E+02  0.94293654074E+02  0.10000000000E+01 0.  0.
<mgrwt>
<rscale>  0 0.12500015E+03</rscale>
<asrwt>0</asrwt>
<pdfrwt beam="1">  1        4 0.36851235E-02 0.12500015E+03</pdfrwt>
<pdfrwt beam="2">  1       -4 0.25088942E-01 0.12500015E+03</pdfrwt>
<totfact> 0.92366101E+03</totfact>
</mgrwt>
</event>
<event>
 5    1  0.3337119E-002  0.1250003E+03  0.7818608E-02  0.1235069E+00
         -4   -1    0    0    0  501 -0.00000000000E+00  0.00000000000E+00  0.12567946041E+03  0.12568587696E+03  0.12700000000E+01 0. -1.
          4   -1    0    0  501    0  0.00000000000E+00 -0.00000000000E+00 -0.31061031604E+02  0.31086984162E+02  0.12700000000E+01 0. -1.
         25    2    1    2    0    0  0.00000000000E+00  0.00000000000E+00  0.94618428803E+02  0.15677286113E+03  0.12500033167E+03 0.  0.
    9000005    1    3    3    0    0 -0.21162523752E+02 -0.27430869262E+02 -0.17919767876E+02  0.39018240360E+02  0.10000000000E+01 0.  0.
    9000005    1    3    3    0    0  0.21162523752E+02  0.27430869262E+02  0.11253819668E+03  0.11775462077E+03  0.10000000000E+01 0.  0.
<mgrwt>
<rscale>  0 0.12500033E+03</rscale>
<asrwt>0</asrwt>
<pdfrwt beam="2">  1        4 0.47811101E-02 0.12500033E+03</pdfrwt>
<pdfrwt beam="1">  1       -4 0.19337792E-01 0.12500033E+03</pdfrwt>
<totfact> 0.97967853E+03</totfact>
</mgrwt>
</event>
<event>
 5    1  0.3337119E-002  0.1250029E+03  0.7818608E-02  0.1235065E+00
          4   -1    0    0  501    0  0.00000000000E+00  0.00000000000E+00  0.18284958169E+02  0.18329009664E+02  0.12700000000E+01 0. -1.
         -4   -1    0    0    0  501 -0.00000000000E+00 -0.00000000000E+00 -0.21333869949E+03  0.21334247959E+03  0.12700000000E+01 0. -1.
         25    2    1    2    0    0  0.00000000000E+00  0.00000000000E+00 -0.19505374132E+03  0.23167148926E+03  0.12500286770E+03 0.  0.
    9000005    1    3    3    0    0 -0.47031668773E+02 -0.10382919716E+02 -0.23726969632E+02  0.53700577067E+02  0.10000000000E+01 0.  0.
    9000005    1    3    3    0    0  0.47031668773E+02  0.10382919716E+02 -0.17132677169E+03  0.17797091219E+03  0.10000000000E+01 0.  0.
<mgrwt>
<rscale>  0 0.12500287E+03</rscale>
<asrwt>0</asrwt>
<pdfrwt beam="1">  1        4 0.28167500E-02 0.12500287E+03</pdfrwt>
<pdfrwt beam="2">  1       -4 0.32825016E-01 0.12500287E+03</pdfrwt>
<totfact> 0.85048157E+03</totfact>
</mgrwt>
</event>
<event>
 5    1  0.3337119E-002  0.1250155E+03  0.7818608E-02  0.1235045E+00
         -4   -1    0    0    0  501 -0.00000000000E+00  0.00000000000E+00  0.49588429889E+03  0.49588592517E+03  0.12700000000E+01 0. -1.
          4   -1    0    0  501    0  0.00000000000E+00 -0.00000000000E+00 -0.78264751779E+01  0.79288469345E+01  0.12700000000E+01 0. -1.
         25    2    1    2    0    0  0.00000000000E+00  0.00000000000E+00  0.48805782371E+03  0.50381477211E+03  0.12501554027E+03 0.  0.
    9000005    1    3    3    0    0  0.54834147201E+02 -0.29665533707E+02  0.22628139270E+03  0.23471492555E+03  0.10000000000E+01 0.  0.
    9000005    1    3    3    0    0 -0.54834147201E+02  0.29665533707E+02  0.26177643101E+03  0.26909984656E+03  0.10000000000E+01 0.  0.
<mgrwt>
<rscale>  0 0.12501554E+03</rscale>
<asrwt>0</asrwt>
<pdfrwt beam="2">  1        4 0.12120731E-02 0.12501554E+03</pdfrwt>
<pdfrwt beam="1">  1       -4 0.76297884E-01 0.12501554E+03</pdfrwt>
<totfact> 0.55550618E+03</totfact>
</mgrwt>
</event>
<event>
 5    1  0.3337119E-002  0.1250005E+03  0.7818608E-02  0.1235069E+00
         -4   -1    0    0    0  501 -0.00000000000E+00  0.00000000000E+00  0.10688114074E+03  0.10688868577E+03  0.12700000000E+01 0.  1.
          4   -1    0    0  501    0  0.00000000000E+00 -0.00000000000E+00 -0.36528005311E+02  0.36550076224E+02  0.12700000000E+01 0.  1.
         25    2    1    2    0    0  0.00000000000E+00  0.00000000000E+00  0.70353135424E+02  0.14343876199E+03  0.12500045911E+03 0.  0.
    9000005    1    3    3    0    0 -0.42357151833E+02 -0.31527254040E+02  0.73531128029E+02  0.90531336276E+02  0.10000000000E+01 0.  0.
    9000005    1    3    3    0    0  0.42357151833E+02  0.31527254040E+02 -0.31779926052E+01  0.52907425714E+02  0.10000000000E+01 0.  0.
<mgrwt>
<rscale>  0 0.12500046E+03</rscale>
<asrwt>0</asrwt>
<pdfrwt beam="2">  1        4 0.56219714E-02 0.12500046E+03</pdfrwt>
<pdfrwt beam="1">  1       -4 0.16445530E-01 0.12500046E+03</pdfrwt>
<totfact> 0.10062702E+04</totfact>
</mgrwt>
</event>
<event>
 5    1  0.3337119E-002  0.1250029E+03  0.7818608E-02  0.1235065E+00
         -4   -1    0    0    0  501 -0.00000000000E+00  0.00000000000E+00  0.80757658384E+02  0.80767643816E+02  0.12700000000E+01 0.  1.
          4   -1    0    0  501    0  0.00000000000E+00 -0.00000000000E+00 -0.48350943386E+02  0.48367619605E+02  0.12700000000E+01 0.  1.
         25    2    1    2    0    0  0.00000000000E+00  0.00000000000E+00  0.32406714998E+02  0.12913526342E+03  0.12500288429E+03 0.  0.
    9000005    1    3    3    0    0  0.13471589157E+02  0.27261194426E+02  0.72604685717E+02  0.78721641395E+02  0.10000000000E+01 0.  0.
    9000005    1    3    3    0    0 -0.13471589157E+02 -0.27261194426E+02 -0.40197970718E+02  0.50413622026E+02  0.10000000000E+01 0.  0.
<mgrwt>
<rscale>  0 0.12500288E+03</rscale>
<asrwt>0</asrwt>
<pdfrwt beam="2">  1        4 0.74406576E-02 0.12500288E+03</pdfrwt>
<pdfrwt beam="1">  1       -4 0.12426306E-01 0.12500288E+03</pdfrwt>
<totfact> 0.10362366E+04</totfact>
</mgrwt>
</event>
<event>
 5    1  0.3337119E-002  0.1250014E+03  0.7818608E-02  0.1235067E+00
         -4   -1    0    0    0  501 -0.00000000000E+00  0.00000000000E+00  0.32968108144E+02  0.32992560594E+02  0.12700000000E+01 0.  1.
          4   -1    0    0  501    0  0.00000000000E+00 -0.00000000000E+00 -0.11841657473E+03  0.11842338482E+03  0.12700000000E+01 0.  1.
         25    2    1    2    0    0  0.00000000000E+00  0.00000000000E+00 -0.85448466588E+02  0.15141594541E+03  0.12500139232E+03 0.  0.
    9000005    1    3    3    0    0  0.15929999545E+02 -0.44047789897E+02  0.73861819202E+01  0.47429193158E+02  0.10000000000E+01 0.  0.
    9000005    1    3    3    0    0 -0.15929999545E+02  0.44047789897E+02 -0.92834648508E+02  0.10398675225E+03  0.10000000000E+01 0.  0.
<mgrwt>
<rscale>  0 0.12500139E+03</rscale>
<asrwt>0</asrwt>
<pdfrwt beam="2">  1        4 0.18220339E-01 0.12500139E+03</pdfrwt>
<pdfrwt beam="1">  1       -4 0.50744215E-02 0.12500139E+03</pdfrwt>
<totfact> 0.99019094E+03</totfact>
</mgrwt>
</event>
<event>
 5    1  0.3337119E-002  0.1250084E+03  0.7818608E-02  0.1235056E+00
          4   -1    0    0  501    0  0.00000000000E+00  0.00000000000E+00  0.35799904062E+02  0.35822423576E+02  0.12700000000E+01 0. -1.
         -4   -1    0    0    0  501 -0.00000000000E+00 -0.00000000000E+00 -0.10906757475E+03  0.10907496853E+03  0.12700000000E+01 0. -1.
         25    2    1    2    0    0  0.00000000000E+00  0.00000000000E+00 -0.73267670684E+02  0.14489739211E+03  0.12500841041E+03 0.  0.
    9000005    1    3    3    0    0 -0.54349617553E+02  0.84139278822E+01 -0.71039826574E+02  0.89846157793E+02  0.10000000000E+01 0.  0.
    9000005    1    3    3    0    0  0.54349617553E+02 -0.84139278822E+01 -0.22278441100E+01  0.55051234318E+02  0.10000000000E+01 0.  0.
<mgrwt>
<rscale>  0 0.12500841E+03</rscale>
<asrwt>0</asrwt>
<pdfrwt beam="1">  1        4 0.55099786E-02 0.12500841E+03</pdfrwt>
<pdfrwt beam="2">  1       -4 0.16781928E-01 0.12500841E+03</pdfrwt>
<totfact> 0.10031174E+04</totfact>
</mgrwt>
</event>
<event>
 5    1  0.3337119E-002  0.1249993E+03  0.7818608E-02  0.1235070E+00
         -4   -1    0    0    0  501 -0.00000000000E+00  0.00000000000E+00  0.38364410347E+02  0.38385425376E+02  0.12700000000E+01 0.  1.
          4   -1    0    0  501    0  0.00000000000E+00 -0.00000000000E+00 -0.10176558964E+03  0.10177351392E+03  0.12700000000E+01 0.  1.
         25    2    1    2    0    0  0.00000000000E+00  0.00000000000E+00 -0.63401179293E+02  0.14015893929E+03  0.12499927491E+03 0.  0.
    9000005    1    3    3    0    0  0.84643715575E+01 -0.60933365431E+02 -0.44018535434E+02  0.75651517304E+02  0.10000000000E+01 0.  0.
    9000005    1    3    3    0    0 -0.84643715575E+01  0.60933365431E+02 -0.19382643859E+02  0.64507421988E+02  0.10000000000E+01 0.  0.
<mgrwt>
<rscale>  0 0.12499927E+03</rscale>
<asrwt>0</asrwt>
<pdfrwt beam="2">  1        4 0.15658471E-01 0.12499927E+03</pdfrwt>
<pdfrwt beam="1">  1       -4 0.59044431E-02 0.12499927E+03</pdfrwt>
<totfact> 0.10130458E+04</totfact>
</mgrwt>
</event>
<event>
 5    1  0.3337119E-002  0.1250033E+03  0.7818608E-02  0.1235064E+00
         -4   -1    0    0    0  501 -0.00000000000E+00  0.00000000000E+00  0.51099099816E+02  0.51114879458E+02  0.12700000000E+01 0.  1.
          4   -1    0    0  501    0  0.00000000000E+00 -0.00000000000E+00 -0.76415777780E+02  0.76426330500E+02  0.12700000000E+01 0.  1.
         25    2    1    2    0    0  0.00000000000E+00  0.00000000000E+00 -0.25316677964E+02  0.12754120996E+03  0.12500330417E+03 0.  0.
    9000005    1    3    3    0    0  0.21319109459E+02  0.25613833026E+02 -0.66598334498E+02  0.74477587422E+02  0.10000000000E+01 0.  0.
    9000005    1    3    3    0    0 -0.21319109459E+02 -0.25613833026E+02  0.41281656534E+02  0.53063622535E+02  0.10000000000E+01 0.  0.
<mgrwt>
<rscale>  0 0.12500330E+03</rscale>
<asrwt>0</asrwt>
<pdfrwt beam="2">  1        4 0.11758299E-01 0.12500330E+03</pdfrwt>
<pdfrwt beam="1">  1       -4 0.78634256E-02 0.12500330E+03</pdfrwt>
<totfact> 0.10396633E+04</totfact>
</mgrwt>
</event>
<event>
 5    1  0.3337119E-002  0.1249965E+03  0.7818608E-02  0.1235075E+00
         -4   -1    0    0    0  501 -0.00000000000E+00  0.00000000000E+00  0.25305764142E+03  0.25306082822E+03  0.12700000000E+01 0.  1.
          4   -1    0    0  501    0  0.00000000000E+00 -0.00000000000E+00 -0.15405928254E+02  0.15458186355E+02  0.12700000000E+01 0.  1.
         25    2    1    2    0    0  0.00000000000E+00  0.00000000000E+00  0.23765171317E+03  0.26851901458E+03  0.12499649763E+03 0.  0.
    9000005    1    3    3    0    0 -0.52040322326E+02  0.59130987020E+01  0.19205031995E+03  0.19906653480E+03  0.10000000000E+01 0.  0.
    9000005    1    3    3    0    0  0.52040322326E+02 -0.59130987020E+01  0.45601393213E+02  0.69452479776E+02  0.10000000000E+01 0.  0.
<mgrwt>
<rscale>  0 0.12499650E+03</rscale>
<asrwt>0</asrwt>
<pdfrwt beam="2">  1        4 0.23744080E-02 0.12499650E+03</pdfrwt>
<pdfrwt beam="1">  1       -4 0.38936207E-01 0.12499650E+03</pdfrwt>
<totfact> 0.79731419E+03</totfact>
</mgrwt>
</event>
<event>
 5    1  0.3337119E-002  0.1250009E+03  0.7818608E-02  0.1235068E+00
          4   -1    0    0  501    0  0.00000000000E+00  0.00000000000E+00  0.38783726664E+02  0.38804514608E+02  0.12700000000E+01 0.  1.
         -4   -1    0    0    0  501 -0.00000000000E+00 -0.00000000000E+00 -0.10066845388E+03  0.10067646451E+03  0.12700000000E+01 0.  1.
         25    2    1    2    0    0  0.00000000000E+00  0.00000000000E+00 -0.61884727217E+02  0.13948097912E+03  0.12500089629E+03 0.  0.
    9000005    1    3    3    0    0 -0.32242412013E+02  0.45980856125E+01  0.28570621911E+02  0.43335850749E+02  0.10000000000E+01 0.  0.
    9000005    1    3    3    0    0  0.32242412013E+02 -0.45980856125E+01 -0.90455349128E+02  0.96145128372E+02  0.10000000000E+01 0.  0.
<mgrwt>
<rscale>  0 0.12500090E+03</rscale>
<asrwt>0</asrwt>
<pdfrwt beam="1">  1        4 0.59689425E-02 0.12500090E+03</pdfrwt>
<pdfrwt beam="2">  1       -4 0.15489670E-01 0.12500090E+03</pdfrwt>
<totfact> 0.10144149E+04</totfact>
</mgrwt>
</event>
<event>
 5    1  0.3337119E-002  0.1249991E+03  0.7818608E-02  0.1235071E+00
          4   -1    0    0  501    0  0.00000000000E+00  0.00000000000E+00  0.50897239696E+02  0.50913081902E+02  0.12700000000E+01 0. -1.
         -4   -1    0    0    0  501 -0.00000000000E+00 -0.00000000000E+00 -0.76713642783E+02  0.76724154534E+02  0.12700000000E+01 0. -1.
         25    2    1    2    0    0  0.00000000000E+00  0.00000000000E+00 -0.25816403086E+02  0.12763723644E+03  0.12499910982E+03 0.  0.
    9000005    1    3    3    0    0 -0.37352425269E+02 -0.28493435874E+02 -0.54986095628E+02  0.72329456474E+02  0.10000000000E+01 0.  0.
    9000005    1    3    3    0    0  0.37352425269E+02  0.28493435874E+02  0.29169692541E+02  0.55307779962E+02  0.10000000000E+01 0.  0.
<mgrwt>
<rscale>  0 0.12499911E+03</rscale>
<asrwt>0</asrwt>
<pdfrwt beam="1">  1        4 0.78323718E-02 0.12499911E+03</pdfrwt>
<pdfrwt beam="2">  1       -4 0.11804126E-01 0.12499911E+03</pdfrwt>
<totfact> 0.10395538E+04</totfact>
</mgrwt>
</event>
<event>
 5    1  0.3337119E-002  0.1250052E+03  0.7818608E-02  0.1235061E+00
         -4   -1    0    0    0  501 -0.00000000000E+00  0.00000000000E+00  0.16394787998E+03  0.16395279885E+03  0.12700000000E+01 0.  1.
          4   -1    0    0  501    0  0.00000000000E+00 -0.00000000000E+00 -0.23805945514E+02  0.23839797437E+02  0.12700000000E+01 0.  1.
         25    2    1    2    0    0  0.00000000000E+00  0.00000000000E+00  0.14014193447E+03  0.18779259629E+03  0.12500518959E+03 0.  0.
    9000005    1    3    3    0    0  0.57084393873E+02  0.22335643728E+02  0.88351007327E+02  0.10753794447E+03  0.10000000000E+01 0.  0.
    9000005    1    3    3    0    0 -0.57084393873E+02 -0.22335643728E+02  0.51790927140E+02  0.80254651819E+02  0.10000000000E+01 0.  0.
<mgrwt>
<rscale>  0 0.12500519E+03</rscale>
<asrwt>0</asrwt>
<pdfrwt beam="2">  1        4 0.36654356E-02 0.12500519E+03</pdfrwt>
<pdfrwt beam="1">  1       -4 0.25225732E-01 0.12500519E+03</pdfrwt>
<totfact> 0.92222097E+03</totfact>
</mgrwt>
</event>
<event>
 5    1  0.3337119E-002  0.1249989E+03  0.7818608E-02  0.1235071E+00
         -4   -1    0    0    0  501 -0.00000000000E+00  0.00000000000E+00  0.25094401601E+03  0.25094722965E+03  0.12700000000E+01 0.  1.
          4   -1    0    0  501    0  0.00000000000E+00 -0.00000000000E+00 -0.15536730210E+02  0.15588549824E+02  0.12700000000E+01 0.  1.
         25    2    1    2    0    0  0.00000000000E+00  0.00000000000E+00  0.23540728580E+03  0.26653577948E+03  0.12499892613E+03 0.  0.
    9000005    1    3    3    0    0  0.29699773542E+02 -0.38505726266E+01  0.23465582282E+03  0.23656132111E+03  0.10000000000E+01 0.  0.
    9000005    1    3    3    0    0 -0.29699773542E+02  0.38505726266E+01  0.75146297474E+00  0.29974458371E+02  0.10000000000E+01 0.  0.
<mgrwt>
<rscale>  0 0.12499893E+03</rscale>
<asrwt>0</asrwt>
<pdfrwt beam="2">  1        4 0.23944996E-02 0.12499893E+03</pdfrwt>
<pdfrwt beam="1">  1       -4 0.38611004E-01 0.12499893E+03</pdfrwt>
<totfact> 0.79999428E+03</totfact>
</mgrwt>
</event>
<event>
 5    1  0.3337119E-002  0.1249995E+03  0.7818608E-02  0.1235070E+00
         -4   -1    0    0    0  501 -0.00000000000E+00  0.00000000000E+00  0.53103373286E+01  0.54600899758E+01  0.12700000000E+01 0. -1.
          4   -1    0    0  501    0  0.00000000000E+00 -0.00000000000E+00 -0.72521026527E+03  0.72521137729E+03  0.12700000000E+01 0. -1.
         25    2    1    2    0    0  0.00000000000E+00  0.00000000000E+00 -0.71989992794E+03  0.73067146727E+03  0.12499954731E+03 0.  0.
    9000005    1    3    3    0    0  0.43813805646E+02 -0.37320414786E+02 -0.21763429886E+03  0.22511808227E+03  0.10000000000E+01 0.  0.
    9000005    1    3    3    0    0 -0.43813805646E+02  0.37320414786E+02 -0.50226562909E+03  0.50555338500E+03  0.10000000000E+01 0.  0.
<mgrwt>
<rscale>  0 0.12499955E+03</rscale>
<asrwt>0</asrwt>
<pdfrwt beam="2">  1        4 0.11158234E+00 0.12499955E+03</pdfrwt>
<pdfrwt beam="1">  1       -4 0.82858052E-03 0.12499955E+03</pdfrwt>
<totfact> 0.41516555E+03</totfact>
</mgrwt>
</event>
<event>
 5    1  0.3337119E-002  0.1250023E+03  0.7818608E-02  0.1235066E+00
         -4   -1    0    0    0  501 -0.00000000000E+00  0.00000000000E+00  0.72044480532E+03  0.72044592470E+03  0.12700000000E+01 0.  1.
          4   -1    0    0  501    0  0.00000000000E+00 -0.00000000000E+00 -0.53466966376E+01  0.54954585736E+01  0.12700000000E+01 0.  1.
         25    2    1    2    0    0  0.00000000000E+00  0.00000000000E+00  0.71509810868E+03  0.72594138327E+03  0.12500234759E+03 0.  0.
    9000005    1    3    3    0    0 -0.47205072283E+02  0.35897547392E+02  0.24309067923E+03  0.25022196363E+03  0.10000000000E+01 0.  0.
    9000005    1    3    3    0    0  0.47205072283E+02 -0.35897547392E+02  0.47200742946E+03  0.47571941964E+03  0.10000000000E+01 0.  0.
<mgrwt>
<rscale>  0 0.12500235E+03</rscale>
<asrwt>0</asrwt>
<pdfrwt beam="2">  1        4 0.83409834E-03 0.12500235E+03</pdfrwt>
<pdfrwt beam="1">  1       -4 0.11084915E+00 0.12500235E+03</pdfrwt>
<totfact> 0.41749995E+03</totfact>
</mgrwt>
</event>
<event>
 5    1  0.3337119E-002  0.1250054E+03  0.7818608E-02  0.1235061E+00
         -4   -1    0    0    0  501 -0.00000000000E+00  0.00000000000E+00  0.49704721985E+02  0.49720944154E+02  0.12700000000E+01 0.  1.
          4   -1    0    0  501    0  0.00000000000E+00 -0.00000000000E+00 -0.78561759976E+02  0.78572024477E+02  0.12700000000E+01 0.  1.
         25    2    1    2    0    0  0.00000000000E+00  0.00000000000E+00 -0.28857037991E+02  0.12829296863E+03  0.12500542852E+03 0.  0.
    9000005    1    3    3    0    0  0.23806986341E+02  0.56168774140E+02 -0.28345586281E+02  0.67276861169E+02  0.10000000000E+01 0.  0.
    9000005    1    3    3    0    0 -0.23806986341E+02 -0.56168774140E+02 -0.51145170984E+00  0.61016107463E+02  0.10000000000E+01 0.  0.
<mgrwt>
<rscale>  0 0.12500543E+03</rscale>
<asrwt>0</asrwt>
<pdfrwt beam="2">  1        4 0.12088462E-01 0.12500543E+03</pdfrwt>
<pdfrwt beam="1">  1       -4 0.76489178E-02 0.12500543E+03</pdfrwt>
<totfact> 0.10379893E+04</totfact>
</mgrwt>
</event>
<event>
 5    1  0.3337119E-002  0.1250047E+03  0.7818608E-02  0.1235062E+00
         -4   -1    0    0    0  501 -0.00000000000E+00  0.00000000000E+00  0.99287943328E+02  0.99296065331E+02  0.12700000000E+01 0. -1.
          4   -1    0    0  501    0  0.00000000000E+00 -0.00000000000E+00 -0.39325605128E+02  0.39346106779E+02  0.12700000000E+01 0. -1.
         25    2    1    2    0    0  0.00000000000E+00  0.00000000000E+00  0.59962338200E+02  0.13864217211E+03  0.12500467945E+03 0.  0.
    9000005    1    3    3    0    0 -0.58274157833E+01 -0.26733362132E+02  0.92297267642E+02  0.96272618328E+02  0.10000000000E+01 0.  0.
    9000005    1    3    3    0    0  0.58274157833E+01  0.26733362132E+02 -0.32334929442E+02  0.42369553781E+02  0.10000000000E+01 0.  0.
<mgrwt>
<rscale>  0 0.12500468E+03</rscale>
<asrwt>0</asrwt>
<pdfrwt beam="2">  1        4 0.60522950E-02 0.12500468E+03</pdfrwt>
<pdfrwt beam="1">  1       -4 0.15277270E-01 0.12500468E+03</pdfrwt>
<totfact> 0.10160734E+04</totfact>
</mgrwt>
</event>
<event>
 5    1  0.3337119E-002  0.1249611E+03  0.7818608E-02  0.1235130E+00
         -4   -1    0    0    0  501 -0.00000000000E+00  0.00000000000E+00  0.45008208347E+02  0.45026122625E+02  0.12700000000E+01 0.  1.
          4   -1    0    0  501    0  0.00000000000E+00 -0.00000000000E+00 -0.86695930629E+02  0.86705232181E+02  0.12700000000E+01 0.  1.
         25    2    1    2    0    0  0.00000000000E+00  0.00000000000E+00 -0.41687722281E+02  0.13173135481E+03  0.12496112856E+03 0.  0.
    9000005    1    3    3    0    0  0.35434218206E+02 -0.15811352313E+02 -0.72458134451E+02  0.82199537285E+02  0.10000000000E+01 0.  0.
    9000005    1    3    3    0    0 -0.35434218206E+02  0.15811352313E+02  0.30770412169E+02  0.49531817521E+02  0.10000000000E+01 0.  0.
<mgrwt>
<rscale>  0 0.12496113E+03</rscale>
<asrwt>0</asrwt>
<pdfrwt beam="2">  1        4 0.13339929E-01 0.12496113E+03</pdfrwt>
<pdfrwt beam="1">  1       -4 0.69264333E-02 0.12496113E+03</pdfrwt>
<totfact> 0.10316480E+04</totfact>
</mgrwt>
</event>
<event>
 5    1  0.3337119E-002  0.1249997E+03  0.7818608E-02  0.1235070E+00
         -4   -1    0    0    0  501 -0.00000000000E+00  0.00000000000E+00  0.13527338685E+02  0.13586824202E+02  0.12700000000E+01 0. -1.
          4   -1    0    0  501    0  0.00000000000E+00 -0.00000000000E+00 -0.28807122356E+03  0.28807402303E+03  0.12700000000E+01 0. -1.
         25    2    1    2    0    0  0.00000000000E+00  0.00000000000E+00 -0.27454388488E+03  0.30166084723E+03  0.12499968812E+03 0.  0.
    9000005    1    3    3    0    0  0.55622762116E+02  0.88960817363E+01 -0.20257363767E+03  0.21026200468E+03  0.10000000000E+01 0.  0.
    9000005    1    3    3    0    0 -0.55622762116E+02 -0.88960817363E+01 -0.71970247210E+02  0.91398842548E+02  0.10000000000E+01 0.  0.
<mgrwt>
<rscale>  0 0.12499969E+03</rscale>
<asrwt>0</asrwt>
<pdfrwt beam="2">  1        4 0.44323436E-01 0.12499969E+03</pdfrwt>
<pdfrwt beam="1">  1       -4 0.20859204E-02 0.12499969E+03</pdfrwt>
<totfact> 0.75391500E+03</totfact>
</mgrwt>
</event>
<event>
 5    1  0.3337119E-002  0.1250010E+03  0.7818608E-02  0.1235068E+00
         -4   -1    0    0    0  501 -0.00000000000E+00  0.00000000000E+00  0.39002799992E+03  0.39003006759E+03  0.12700000000E+01 0. -1.
          4   -1    0    0  501    0  0.00000000000E+00 -0.00000000000E+00 -0.99731041863E+01  0.10053641485E+02  0.12700000000E+01 0. -1.
         25    2    1    2    0    0  0.00000000000E+00  0.00000000000E+00  0.38005489574E+03  0.40008370908E+03  0.12500100197E+03 0.  0.
    9000005    1    3    3    0    0  0.47715103514E+02  0.99550762714E+00  0.60902563779E+02  0.77381163171E+02  0.10000000000E+01 0.  0.
    9000005    1    3    3    0    0 -0.47715103514E+02 -0.99550762714E+00  0.31915233196E+03  0.32270254591E+03  0.10000000000E+01 0.  0.
<mgrwt>
<rscale>  0 0.12500100E+03</rscale>
<asrwt>0</asrwt>
<pdfrwt beam="2">  1        4 0.15406779E-02 0.12500100E+03</pdfrwt>
<pdfrwt beam="1">  1       -4 0.60010664E-01 0.12500100E+03</pdfrwt>
<totfact> 0.64543218E+03</totfact>
</mgrwt>
</event>
<event>
 5    1  0.3337119E-002  0.1249993E+03  0.7818608E-02  0.1235070E+00
          4   -1    0    0  501    0  0.00000000000E+00  0.00000000000E+00  0.14936316627E+03  0.14936856543E+03  0.12700000000E+01 0.  1.
         -4   -1    0    0    0  501 -0.00000000000E+00 -0.00000000000E+00 -0.26131121397E+02  0.26161964863E+02  0.12700000000E+01 0.  1.
         25    2    1    2    0    0  0.00000000000E+00  0.00000000000E+00  0.12323204487E+03  0.17553053029E+03  0.12499932072E+03 0.  0.
    9000005    1    3    3    0    0  0.50827909372E+02  0.34658994231E+02  0.46202140396E+02  0.76943875840E+02  0.10000000000E+01 0.  0.
    9000005    1    3    3    0    0 -0.50827909372E+02 -0.34658994231E+02  0.77029904479E+02  0.98586654453E+02  0.10000000000E+01 0.  0.
<mgrwt>
<rscale>  0 0.12499932E+03</rscale>
<asrwt>0</asrwt>
<pdfrwt beam="1">  1        4 0.22981737E-01 0.12499932E+03</pdfrwt>
<pdfrwt beam="2">  1       -4 0.40229603E-02 0.12499932E+03</pdfrwt>
<totfact> 0.94429203E+03</totfact>
</mgrwt>
</event>
<event>
 5    1  0.3337119E-002  0.1250172E+03  0.7818608E-02  0.1235042E+00
          4   -1    0    0  501    0  0.00000000000E+00  0.00000000000E+00  0.33500063760E+03  0.33500304490E+03  0.12700000000E+01 0. -1.
         -4   -1    0    0    0  501 -0.00000000000E+00 -0.00000000000E+00 -0.11626605430E+02  0.11695762217E+02  0.12700000000E+01 0. -1.
         25    2    1    2    0    0  0.00000000000E+00  0.00000000000E+00  0.32337403217E+03  0.34669880712E+03  0.12501719151E+03 0.  0.
    9000005    1    3    3    0    0  0.60544870956E+02 -0.51455279039E+01  0.12110266854E+03  0.13549543972E+03  0.10000000000E+01 0.  0.
    9000005    1    3    3    0    0 -0.60544870956E+02  0.51455279039E+01  0.20227136362E+03  0.21120336740E+03  0.10000000000E+01 0.  0.
<mgrwt>
<rscale>  0 0.12501719E+03</rscale>
<asrwt>0</asrwt>
<pdfrwt beam="1">  1        4 0.51544057E-01 0.12501719E+03</pdfrwt>
<pdfrwt beam="2">  1       -4 0.17942137E-02 0.12501719E+03</pdfrwt>
<totfact> 0.70062600E+03</totfact>
</mgrwt>
</event>
<event>
 5    1  0.3337119E-002  0.1250208E+03  0.7818608E-02  0.1235037E+00
          4   -1    0    0  501    0  0.00000000000E+00  0.00000000000E+00  0.35223734271E+03  0.35223963221E+03  0.12700000000E+01 0.  1.
         -4   -1    0    0    0  501 -0.00000000000E+00 -0.00000000000E+00 -0.11054834669E+02  0.11127545532E+02  0.12700000000E+01 0.  1.
         25    2    1    2    0    0  0.00000000000E+00  0.00000000000E+00  0.34118250804E+03  0.36336717774E+03  0.12502080654E+03 0.  0.
    9000005    1    3    3    0    0 -0.25265305651E+02 -0.17078230963E+02  0.32916084590E+03  0.33057202561E+03  0.10000000000E+01 0.  0.
    9000005    1    3    3    0    0  0.25265305651E+02  0.17078230963E+02  0.12021662135E+02  0.32795152126E+02  0.10000000000E+01 0.  0.
<mgrwt>
<rscale>  0 0.12502081E+03</rscale>
<asrwt>0</asrwt>
<pdfrwt beam="1">  1        4 0.54196132E-01 0.12502081E+03</pdfrwt>
<pdfrwt beam="2">  1       -4 0.17065130E-02 0.12502081E+03</pdfrwt>
<totfact> 0.68247199E+03</totfact>
</mgrwt>
</event>
<event>
 5    1  0.3337119E-002  0.1249997E+03  0.7818608E-02  0.1235070E+00
         -4   -1    0    0    0  501 -0.00000000000E+00  0.00000000000E+00  0.78927328231E+01  0.79942561516E+01  0.12700000000E+01 0. -1.
          4   -1    0    0  501    0  0.00000000000E+00 -0.00000000000E+00 -0.49165008827E+03  0.49165172856E+03  0.12700000000E+01 0. -1.
         25    2    1    2    0    0  0.00000000000E+00  0.00000000000E+00 -0.48375735544E+03  0.49964598471E+03  0.12499972436E+03 0.  0.
    9000005    1    3    3    0    0 -0.29500277881E+02 -0.20816404491E+02 -0.44575991204E+03  0.44722084955E+03  0.10000000000E+01 0.  0.
    9000005    1    3    3    0    0  0.29500277881E+02  0.20816404491E+02 -0.37997443403E+02  0.52425135156E+02  0.10000000000E+01 0.  0.
<mgrwt>
<rscale>  0 0.12499972E+03</rscale>
<asrwt>0</asrwt>
<pdfrwt beam="2">  1        4 0.75646387E-01 0.12499972E+03</pdfrwt>
<pdfrwt beam="1">  1       -4 0.12222026E-02 0.12499972E+03</pdfrwt>
<totfact> 0.55892193E+03</totfact>
</mgrwt>
</event>
<event>
 5    1  0.3337119E-002  0.1249998E+03  0.7818608E-02  0.1235070E+00
         -4   -1    0    0    0  501 -0.00000000000E+00  0.00000000000E+00  0.12444812914E+03  0.12445460918E+03  0.12700000000E+01 0. -1.
          4   -1    0    0  501    0  0.00000000000E+00 -0.00000000000E+00 -0.31368322754E+02  0.31394021284E+02  0.12700000000E+01 0. -1.
         25    2    1    2    0    0  0.00000000000E+00  0.00000000000E+00  0.93079806389E+02  0.15584863047E+03  0.12499978105E+03 0.  0.
    9000005    1    3    3    0    0 -0.57913950299E+02 -0.20530816351E+02  0.60738893344E+02  0.86404590294E+02  0.10000000000E+01 0.  0.
    9000005    1    3    3    0    0  0.57913950299E+02  0.20530816351E+02  0.32340913045E+02  0.69444040175E+02  0.10000000000E+01 0.  0.
<mgrwt>
<rscale>  0 0.12499978E+03</rscale>
<asrwt>0</asrwt>
<pdfrwt beam="2">  1        4 0.48283711E-02 0.12499978E+03</pdfrwt>
<pdfrwt beam="1">  1       -4 0.19148341E-01 0.12499978E+03</pdfrwt>
<totfact> 0.98149642E+03</totfact>
</mgrwt>
</event>
<event>
 5    1  0.3337119E-002  0.1250036E+03  0.7818608E-02  0.1235064E+00
          4   -1    0    0  501    0  0.00000000000E+00  0.00000000000E+00  0.42872599768E+02  0.42891406026E+02  0.12700000000E+01 0. -1.
         -4   -1    0    0    0  501 -0.00000000000E+00 -0.00000000000E+00 -0.91074987405E+02  0.91083841766E+02  0.12700000000E+01 0. -1.
         25    2    1    2    0    0  0.00000000000E+00  0.00000000000E+00 -0.48202387636E+02  0.13397524779E+03  0.12500358734E+03 0.  0.
    9000005    1    3    3    0    0 -0.52041040887E+02  0.26767872642E+02 -0.60310726547E+00  0.58533346741E+02  0.10000000000E+01 0.  0.
    9000005    1    3    3    0    0  0.52041040887E+02 -0.26767872642E+02 -0.47599280371E+02  0.75441901051E+02  0.10000000000E+01 0.  0.
<mgrwt>
<rscale>  0 0.12500359E+03</rscale>
<asrwt>0</asrwt>
<pdfrwt beam="1">  1        4 0.65979124E-02 0.12500359E+03</pdfrwt>
<pdfrwt beam="2">  1       -4 0.14013664E-01 0.12500359E+03</pdfrwt>
<totfact> 0.10258885E+04</totfact>
</mgrwt>
</event>
<event>
 5    1  0.3337119E-002  0.1250024E+03  0.7818608E-02  0.1235065E+00
          4   -1    0    0  501    0  0.00000000000E+00  0.00000000000E+00  0.95563810746E+03  0.95563895134E+03  0.12700000000E+01 0.  1.
         -4   -1    0    0    0  501 -0.00000000000E+00 -0.00000000000E+00 -0.39882341844E+01  0.41855599278E+01  0.12700000000E+01 0.  1.
         25    2    1    2    0    0  0.00000000000E+00  0.00000000000E+00  0.95164987327E+03  0.95982451127E+03  0.12500244452E+03 0.  0.
    9000005    1    3    3    0    0 -0.59962921763E+02  0.10889911632E+01  0.61072649006E+03  0.61366487886E+03  0.10000000000E+01 0.  0.
    9000005    1    3    3    0    0  0.59962921763E+02 -0.10889911632E+01  0.34092338321E+03  0.34615963241E+03  0.10000000000E+01 0.  0.
<mgrwt>
<rscale>  0 0.12500244E+03</rscale>
<asrwt>0</asrwt>
<pdfrwt beam="1">  1        4 0.14703656E+00 0.12500244E+03</pdfrwt>
<pdfrwt beam="2">  1       -4 0.62881801E-03 0.12500244E+03</pdfrwt>
<totfact> 0.31967987E+03</totfact>
</mgrwt>
</event>
<event>
 5    1  0.3337119E-002  0.1249899E+03  0.7818608E-02  0.1235085E+00
          4   -1    0    0  501    0  0.00000000000E+00  0.00000000000E+00  0.60847956555E+03  0.60848089090E+03  0.12700000000E+01 0. -1.
         -4   -1    0    0    0  501 -0.00000000000E+00 -0.00000000000E+00 -0.63544844046E+01  0.64801521625E+01  0.12700000000E+01 0. -1.
         25    2    1    2    0    0  0.00000000000E+00  0.00000000000E+00  0.60212508114E+03  0.61496104306E+03  0.12498988416E+03 0.  0.
    9000005    1    3    3    0    0  0.14589094275E+02  0.29529586666E+02  0.39798088483E+02  0.51669391397E+02  0.10000000000E+01 0.  0.
    9000005    1    3    3    0    0 -0.14589094275E+02 -0.29529586666E+02  0.56232699266E+03  0.56329165166E+03  0.10000000000E+01 0.  0.
<mgrwt>
<rscale>  0 0.12498988E+03</rscale>
<asrwt>0</asrwt>
<pdfrwt beam="1">  1        4 0.93622013E-01 0.12498988E+03</pdfrwt>
<pdfrwt beam="2">  1       -4 0.98738165E-03 0.12498988E+03</pdfrwt>
<totfact> 0.47947271E+03</totfact>
</mgrwt>
</event>
<event>
 5    1  0.3337119E-002  0.1249983E+03  0.7818608E-02  0.1235072E+00
         -4   -1    0    0    0  501 -0.00000000000E+00  0.00000000000E+00  0.10348736098E+02  0.10426372275E+02  0.12700000000E+01 0.  1.
          4   -1    0    0  501    0  0.00000000000E+00 -0.00000000000E+00 -0.37596191161E+03  0.37596405664E+03  0.12700000000E+01 0.  1.
         25    2    1    2    0    0  0.00000000000E+00  0.00000000000E+00 -0.36561317552E+03  0.38639042891E+03  0.12499827777E+03 0.  0.
    9000005    1    3    3    0    0  0.49260273280E+02  0.30345925273E+02 -0.25580607238E+03  0.26226932030E+03  0.10000000000E+01 0.  0.
    9000005    1    3    3    0    0 -0.49260273280E+02 -0.30345925273E+02 -0.10980710313E+03  0.12412110861E+03  0.10000000000E+01 0.  0.
<mgrwt>
<rscale>  0 0.12499828E+03</rscale>
<asrwt>0</asrwt>
<pdfrwt beam="2">  1        4 0.57846421E-01 0.12499828E+03</pdfrwt>
<pdfrwt beam="1">  1       -4 0.15982505E-02 0.12499828E+03</pdfrwt>
<totfact> 0.65900830E+03</totfact>
</mgrwt>
</event>
<event>
 5    1  0.3337119E-002  0.1250015E+03  0.7818608E-02  0.1235067E+00
         -4   -1    0    0    0  501 -0.00000000000E+00  0.00000000000E+00  0.35334561904E+01  0.37547586673E+01  0.12700000000E+01 0.  1.
          4   -1    0    0  501    0  0.00000000000E+00 -0.00000000000E+00 -0.10717405411E+04  0.10717412936E+04  0.12700000000E+01 0.  1.
         25    2    1    2    0    0  0.00000000000E+00  0.00000000000E+00 -0.10682070849E+04  0.10754960522E+04  0.12500152848E+03 0.  0.
    9000005    1    3    3    0    0 -0.12287316324E+02  0.50756564497E+01 -0.87318223233E+01  0.15936911618E+02  0.10000000000E+01 0.  0.
    9000005    1    3    3    0    0  0.12287316324E+02 -0.50756564497E+01 -0.10594752626E+04  0.10595591406E+04  0.10000000000E+01 0.  0.
<mgrwt>
<rscale>  0 0.12500153E+03</rscale>
<asrwt>0</asrwt>
<pdfrwt beam="2">  1        4 0.16489999E+00 0.12500153E+03</pdfrwt>
<pdfrwt beam="1">  1       -4 0.56069065E-03 0.12500153E+03</pdfrwt>
<totfact> 0.28210957E+03</totfact>
</mgrwt>
</event>
<event>
 5    1  0.3337119E-002  0.1249997E+03  0.7818608E-02  0.1235070E+00
         -4   -1    0    0    0  501 -0.00000000000E+00  0.00000000000E+00  0.59785097103E+02  0.59798584729E+02  0.12700000000E+01 0. -1.
          4   -1    0    0  501    0  0.00000000000E+00 -0.00000000000E+00 -0.65310832384E+02  0.65323179092E+02  0.12700000000E+01 0. -1.
         25    2    1    2    0    0  0.00000000000E+00  0.00000000000E+00 -0.55257352817E+01  0.12512176382E+03  0.12499968812E+03 0.  0.
    9000005    1    3    3    0    0 -0.45768506798E+02 -0.34050210386E+02 -0.28303614357E+02  0.63688834402E+02  0.10000000000E+01 0.  0.
    9000005    1    3    3    0    0  0.45768506798E+02  0.34050210386E+02  0.22777879076E+02  0.61432929419E+02  0.10000000000E+01 0.  0.
<mgrwt>
<rscale>  0 0.12499969E+03</rscale>
<asrwt>0</asrwt>
<pdfrwt beam="2">  1        4 0.10049808E-01 0.12499969E+03</pdfrwt>
<pdfrwt beam="1">  1       -4 0.91996946E-02 0.12499969E+03</pdfrwt>
<totfact> 0.10450292E+04</totfact>
</mgrwt>
</event>
<event>
 5    1  0.3337119E-002  0.1250005E+03  0.7818608E-02  0.1235068E+00
          4   -1    0    0  501    0  0.00000000000E+00  0.00000000000E+00  0.20836845686E+03  0.20837232713E+03  0.12700000000E+01 0.  1.
         -4   -1    0    0    0  501 -0.00000000000E+00 -0.00000000000E+00 -0.18721440146E+02  0.18764466983E+02  0.12700000000E+01 0.  1.
         25    2    1    2    0    0  0.00000000000E+00  0.00000000000E+00  0.18964701671E+03  0.22713679411E+03  0.12500052917E+03 0.  0.
    9000005    1    3    3    0    0  0.11735798307E+02  0.61379276951E+02  0.95499679463E+02  0.11413296359E+03  0.10000000000E+01 0.  0.
    9000005    1    3    3    0    0 -0.11735798307E+02 -0.61379276951E+02  0.94147337248E+02  0.11300383052E+03  0.10000000000E+01 0.  0.
<mgrwt>
<rscale>  0 0.12500053E+03</rscale>
<asrwt>0</asrwt>
<pdfrwt beam="1">  1        4 0.32060293E-01 0.12500053E+03</pdfrwt>
<pdfrwt beam="2">  1       -4 0.28838290E-02 0.12500053E+03</pdfrwt>
<totfact> 0.85750179E+03</totfact>
</mgrwt>
</event>
<event>
 5    1  0.3337119E-002  0.1250084E+03  0.7818608E-02  0.1235056E+00
         -4   -1    0    0    0  501 -0.00000000000E+00  0.00000000000E+00  0.13803991876E+02  0.13862290277E+02  0.12700000000E+01 0.  1.
          4   -1    0    0  501    0  0.00000000000E+00 -0.00000000000E+00 -0.28236159252E+03  0.28236444860E+03  0.12700000000E+01 0.  1.
         25    2    1    2    0    0  0.00000000000E+00  0.00000000000E+00 -0.26855760065E+03  0.29622673888E+03  0.12500838356E+03 0.  0.
    9000005    1    3    3    0    0 -0.14210605454E+02 -0.42757867346E+02 -0.31653382980E+02  0.55073706807E+02  0.10000000000E+01 0.  0.
    9000005    1    3    3    0    0  0.14210605454E+02  0.42757867346E+02 -0.23690421767E+03  0.24115303207E+03  0.10000000000E+01 0.  0.
<mgrwt>
<rscale>  0 0.12500838E+03</rscale>
<asrwt>0</asrwt>
<pdfrwt beam="2">  1        4 0.43444945E-01 0.12500838E+03</pdfrwt>
<pdfrwt beam="1">  1       -4 0.21283955E-02 0.12500838E+03</pdfrwt>
<totfact> 0.76060442E+03</totfact>
</mgrwt>
</event>
<event>
 5    1  0.3337119E-002  0.1249725E+03  0.7818608E-02  0.1235112E+00
         -4   -1    0    0    0  501 -0.00000000000E+00  0.00000000000E+00  0.52259087098E+02  0.52274516586E+02  0.12700000000E+01 0. -1.
          4   -1    0    0  501    0  0.00000000000E+00 -0.00000000000E+00 -0.74683030304E+02  0.74693827827E+02  0.12700000000E+01 0. -1.
         25    2    1    2    0    0  0.00000000000E+00  0.00000000000E+00 -0.22423943206E+02  0.12696834441E+03  0.12497250599E+03 0.  0.
    9000005    1    3    3    0    0  0.46326791153E+01 -0.16319346329E+02 -0.72303377200E+02  0.74273556094E+02  0.10000000000E+01 0.  0.
    9000005    1    3    3    0    0 -0.46326791153E+01  0.16319346329E+02  0.49879433994E+02  0.52694788319E+02  0.10000000000E+01 0.  0.
<mgrwt>
<rscale>  0 0.12497251E+03</rscale>
<asrwt>0</asrwt>
<pdfrwt beam="2">  1        4 0.11491714E-01 0.12497251E+03</pdfrwt>
<pdfrwt beam="1">  1       -4 0.80418770E-02 0.12497251E+03</pdfrwt>
<totfact> 0.10416297E+04</totfact>
</mgrwt>
</event>
<event>
 5    1  0.3337119E-002  0.1249977E+03  0.7818608E-02  0.1235073E+00
         -4   -1    0    0    0  501 -0.00000000000E+00  0.00000000000E+00  0.35507218273E+03  0.35507445395E+03  0.12700000000E+01 0.  1.
          4   -1    0    0  501    0  0.00000000000E+00 -0.00000000000E+00 -0.10961911799E+02  0.11035234945E+02  0.12700000000E+01 0.  1.
         25    2    1    2    0    0  0.00000000000E+00  0.00000000000E+00  0.34411027093E+03  0.36610968890E+03  0.12499770295E+03 0.  0.
    9000005    1    3    3    0    0  0.12860222810E+02  0.57987352657E+02  0.22893887581E+03  0.23652045843E+03  0.10000000000E+01 0.  0.
    9000005    1    3    3    0    0 -0.12860222810E+02 -0.57987352657E+02  0.11517139512E+03  0.12958923047E+03  0.10000000000E+01 0.  0.
<mgrwt>
<rscale>  0 0.12499770E+03</rscale>
<asrwt>0</asrwt>
<pdfrwt beam="2">  1        4 0.16922633E-02 0.12499770E+03</pdfrwt>
<pdfrwt beam="1">  1       -4 0.54632292E-01 0.12499770E+03</pdfrwt>
<totfact> 0.67991369E+03</totfact>
</mgrwt>
</event>
<event>
 5    1  0.3337119E-002  0.1249990E+03  0.7818608E-02  0.1235071E+00
          4   -1    0    0  501    0  0.00000000000E+00  0.00000000000E+00  0.34735227467E+02  0.34758436777E+02  0.12700000000E+01 0. -1.
         -4   -1    0    0    0  501 -0.00000000000E+00 -0.00000000000E+00 -0.11239179556E+03  0.11239897068E+03  0.12700000000E+01 0. -1.
         25    2    1    2    0    0  0.00000000000E+00  0.00000000000E+00 -0.77656568097E+02  0.14715740746E+03  0.12499904000E+03 0.  0.
    9000005    1    3    3    0    0  0.54348089501E+02 -0.14659246183E+02 -0.68771774781E+01  0.56717756489E+02  0.10000000000E+01 0.  0.
    9000005    1    3    3    0    0 -0.54348089501E+02  0.14659246183E+02 -0.70779390619E+02  0.90439650970E+02  0.10000000000E+01 0.  0.
<mgrwt>
<rscale>  0 0.12499904E+03</rscale>
<asrwt>0</asrwt>
<pdfrwt beam="1">  1        4 0.53462184E-02 0.12499904E+03</pdfrwt>
<pdfrwt beam="2">  1       -4 0.17293383E-01 0.12499904E+03</pdfrwt>
<totfact> 0.99875533E+03</totfact>
</mgrwt>
</event>
<event>
 5    1  0.3337119E-002  0.1250008E+03  0.7818608E-02  0.1235068E+00
         -4   -1    0    0    0  501 -0.00000000000E+00  0.00000000000E+00  0.23262196503E+03  0.23262543179E+03  0.12700000000E+01 0.  1.
          4   -1    0    0  501    0  0.00000000000E+00 -0.00000000000E+00 -0.16764871709E+02  0.16812906454E+02  0.12700000000E+01 0.  1.
         25    2    1    2    0    0  0.00000000000E+00  0.00000000000E+00  0.21585709332E+03  0.24943833824E+03  0.12500079939E+03 0.  0.
    9000005    1    3    3    0    0 -0.42971992389E+02 -0.44149949465E+02  0.12880887070E+03  0.14278842859E+03  0.10000000000E+01 0.  0.
    9000005    1    3    3    0    0  0.42971992389E+02  0.44149949465E+02  0.87048222625E+02  0.10664990966E+03  0.10000000000E+01 0.  0.
<mgrwt>
<rscale>  0 0.12500080E+03</rscale>
<asrwt>0</asrwt>
<pdfrwt beam="2">  1        4 0.25831728E-02 0.12500080E+03</pdfrwt>
<pdfrwt beam="1">  1       -4 0.35791955E-01 0.12500080E+03</pdfrwt>
<totfact> 0.82410006E+03</totfact>
</mgrwt>
</event>
<event>
 5    1  0.3337119E-002  0.1249982E+03  0.7818608E-02  0.1235072E+00
          4   -1    0    0  501    0  0.00000000000E+00  0.00000000000E+00  0.45596988210E+02  0.45614671256E+02  0.12700000000E+01 0.  1.
         -4   -1    0    0    0  501 -0.00000000000E+00 -0.00000000000E+00 -0.85627620152E+02  0.85637037740E+02  0.12700000000E+01 0.  1.
         25    2    1    2    0    0  0.00000000000E+00  0.00000000000E+00 -0.40030631942E+02  0.13125170900E+03  0.12499823847E+03 0.  0.
    9000005    1    3    3    0    0  0.43920197605E+02 -0.11812626900E+02 -0.65015106436E+02  0.79350399979E+02  0.10000000000E+01 0.  0.
    9000005    1    3    3    0    0 -0.43920197605E+02  0.11812626900E+02  0.24984474494E+02  0.51901309017E+02  0.10000000000E+01 0.  0.
<mgrwt>
<rscale>  0 0.12499824E+03</rscale>
<asrwt>0</asrwt>
<pdfrwt beam="1">  1        4 0.70170060E-02 0.12499824E+03</pdfrwt>
<pdfrwt beam="2">  1       -4 0.13175565E-01 0.12499824E+03</pdfrwt>
<totfact> 0.10318106E+04</totfact>
</mgrwt>
</event>
<event>
 5    1  0.3337119E-002  0.1249966E+03  0.7818608E-02  0.1235075E+00
         -4   -1    0    0    0  501 -0.00000000000E+00  0.00000000000E+00  0.20441400532E+04  0.20441404477E+04  0.12700000000E+01 0.  1.
          4   -1    0    0  501    0  0.00000000000E+00 -0.00000000000E+00 -0.16993893422E+01  0.21215145855E+01  0.12700000000E+01 0.  1.
         25    2    1    2    0    0  0.00000000000E+00  0.00000000000E+00  0.20424406639E+04  0.20462619623E+04  0.12499661192E+03 0.  0.
    9000005    1    3    3    0    0 -0.46949855782E+02 -0.40996428568E+02  0.10945086870E+04  0.10962824736E+04  0.10000000000E+01 0.  0.
    9000005    1    3    3    0    0  0.46949855782E+02  0.40996428568E+02  0.94793197690E+03  0.94997948869E+03  0.10000000000E+01 0.  0.
<mgrwt>
<rscale>  0 0.12499661E+03</rscale>
<asrwt>0</asrwt>
<pdfrwt beam="2">  1        4 0.29394597E-03 0.12499661E+03</pdfrwt>
<pdfrwt beam="1">  1       -4 0.31451566E+00 0.12499661E+03</pdfrwt>
<totfact> 0.92701028E+02</totfact>
</mgrwt>
</event>
<event>
 5    1  0.3337119E-002  0.1250290E+03  0.7818608E-02  0.1235024E+00
          4   -1    0    0  501    0  0.00000000000E+00  0.00000000000E+00  0.57206170772E+02  0.57220266290E+02  0.12700000000E+01 0. -1.
         -4   -1    0    0    0  501 -0.00000000000E+00 -0.00000000000E+00 -0.68287032439E+02  0.68298841128E+02  0.12700000000E+01 0. -1.
         25    2    1    2    0    0  0.00000000000E+00  0.00000000000E+00 -0.11080861668E+02  0.12551910742E+03  0.12502903995E+03 0.  0.
    9000005    1    3    3    0    0  0.33900822283E+02  0.28691978984E+02 -0.49696575507E+02  0.66657670426E+02  0.10000000000E+01 0.  0.
    9000005    1    3    3    0    0 -0.33900822283E+02 -0.28691978984E+02  0.38615713839E+02  0.58861436992E+02  0.10000000000E+01 0.  0.
<mgrwt>
<rscale>  0 0.12502904E+03</rscale>
<asrwt>0</asrwt>
<pdfrwt beam="1">  1        4 0.88029420E-02 0.12502904E+03</pdfrwt>
<pdfrwt beam="2">  1       -4 0.10507690E-01 0.12502904E+03</pdfrwt>
<totfact> 0.10434696E+04</totfact>
</mgrwt>
</event>
<event>
 5    1  0.3337119E-002  0.1249992E+03  0.7818608E-02  0.1235071E+00
          4   -1    0    0  501    0  0.00000000000E+00  0.00000000000E+00  0.23386050550E+03  0.23386395390E+03  0.12700000000E+01 0.  1.
         -4   -1    0    0    0  501 -0.00000000000E+00 -0.00000000000E+00 -0.16675392697E+02  0.16723684451E+02  0.12700000000E+01 0.  1.
         25    2    1    2    0    0  0.00000000000E+00  0.00000000000E+00  0.21718511280E+03  0.25058763835E+03  0.12499916508E+03 0.  0.
    9000005    1    3    3    0    0  0.59336050826E+02  0.14873466404E+02  0.13420358928E+03  0.14749098381E+03  0.10000000000E+01 0.  0.
    9000005    1    3    3    0    0 -0.59336050826E+02 -0.14873466404E+02  0.82981523527E+02  0.10309665454E+03  0.10000000000E+01 0.  0.
<mgrwt>
<rscale>  0 0.12499917E+03</rscale>
<asrwt>0</asrwt>
<pdfrwt beam="1">  1        4 0.35982522E-01 0.12499917E+03</pdfrwt>
<pdfrwt beam="2">  1       -4 0.25694249E-02 0.12499917E+03</pdfrwt>
<totfact> 0.82246896E+03</totfact>
</mgrwt>
</event>
<event>
 5    1  0.3337119E-002  0.1249991E+03  0.7818608E-02  0.1235071E+00
          4   -1    0    0  501    0  0.00000000000E+00  0.00000000000E+00  0.64111477262E+02  0.64124054899E+02  0.12700000000E+01 0. -1.
         -4   -1    0    0    0  501 -0.00000000000E+00 -0.00000000000E+00 -0.60902966909E+02  0.60916207025E+02  0.12700000000E+01 0. -1.
         25    2    1    2    0    0  0.00000000000E+00  0.00000000000E+00  0.32085103531E+01  0.12504026192E+03  0.12499909025E+03 0.  0.
    9000005    1    3    3    0    0  0.54481959586E+02  0.38298739012E+01  0.31982683616E+02  0.63299635905E+02  0.10000000000E+01 0.  0.
    9000005    1    3    3    0    0 -0.54481959586E+02 -0.38298739012E+01 -0.28774173263E+02  0.61740626020E+02  0.10000000000E+01 0.  0.
<mgrwt>
<rscale>  0 0.12499909E+03</rscale>
<asrwt>0</asrwt>
<pdfrwt beam="1">  1        4 0.98652902E-02 0.12499909E+03</pdfrwt>
<pdfrwt beam="2">  1       -4 0.93716732E-02 0.12499909E+03</pdfrwt>
<totfact> 0.10452203E+04</totfact>
</mgrwt>
</event>
<event>
 5    1  0.3337119E-002  0.1249992E+03  0.7818608E-02  0.1235071E+00
         -4   -1    0    0    0  501 -0.00000000000E+00  0.00000000000E+00  0.26465346803E+02  0.26495801203E+02  0.12700000000E+01 0. -1.
          4   -1    0    0  501    0  0.00000000000E+00 -0.00000000000E+00 -0.14747867843E+03  0.14748414658E+03  0.12700000000E+01 0. -1.
         25    2    1    2    0    0  0.00000000000E+00  0.00000000000E+00 -0.12101333163E+03  0.17397994778E+03  0.12499918319E+03 0.  0.
    9000005    1    3    3    0    0  0.38847554902E+02 -0.40142245855E+02 -0.99494991372E+02  0.11410865757E+03  0.10000000000E+01 0.  0.
    9000005    1    3    3    0    0 -0.38847554902E+02  0.40142245855E+02 -0.21518340254E+02  0.59871290210E+02  0.10000000000E+01 0.  0.
<mgrwt>
<rscale>  0 0.12499918E+03</rscale>
<asrwt>0</asrwt>
<pdfrwt beam="2">  1        4 0.22691790E-01 0.12499918E+03</pdfrwt>
<pdfrwt beam="1">  1       -4 0.40743552E-02 0.12499918E+03</pdfrwt>
<totfact> 0.94713729E+03</totfact>
</mgrwt>
</event>
<event>
 5    1  0.3337119E-002  0.1249975E+03  0.7818608E-02  0.1235073E+00
          4   -1    0    0  501    0  0.00000000000E+00  0.00000000000E+00  0.13471875175E+02  0.13531604515E+02  0.12700000000E+01 0.  1.
         -4   -1    0    0    0  501 -0.00000000000E+00 -0.00000000000E+00 -0.28924198926E+03  0.28924477740E+03  0.12700000000E+01 0.  1.
         25    2    1    2    0    0  0.00000000000E+00  0.00000000000E+00 -0.27577011409E+03  0.30277638191E+03  0.12499752646E+03 0.  0.
    9000005    1    3    3    0    0 -0.22464686494E+02  0.31548449242E+02 -0.25667775033E+03  0.25958511957E+03  0.10000000000E+01 0.  0.
    9000005    1    3    3    0    0  0.22464686494E+02 -0.31548449242E+02 -0.19092363758E+02  0.43191262342E+02  0.10000000000E+01 0.  0.
<mgrwt>
<rscale>  0 0.12499753E+03</rscale>
<asrwt>0</asrwt>
<pdfrwt beam="1">  1        4 0.20774054E-02 0.12499753E+03</pdfrwt>
<pdfrwt beam="2">  1       -4 0.44503572E-01 0.12499753E+03</pdfrwt>
<totfact> 0.75256023E+03</totfact>
</mgrwt>
</event>
<event>
 5    1  0.3337119E-002  0.1250019E+03  0.7818608E-02  0.1235066E+00
          4   -1    0    0  501    0  0.00000000000E+00  0.00000000000E+00  0.17771318578E+03  0.17771772365E+03  0.12700000000E+01 0.  1.
         -4   -1    0    0    0  501 -0.00000000000E+00 -0.00000000000E+00 -0.21958139591E+02  0.21994835628E+02  0.12700000000E+01 0.  1.
         25    2    1    2    0    0  0.00000000000E+00  0.00000000000E+00  0.15575504619E+03  0.19971255928E+03  0.12500188767E+03 0.  0.
    9000005    1    3    3    0    0  0.70495566473E-03  0.11754299957E+02  0.17593899298E+03  0.17633403760E+03  0.10000000000E+01 0.  0.
    9000005    1    3    3    0    0 -0.70495566473E-03 -0.11754299957E+02 -0.20183946786E+02  0.23378521678E+02  0.10000000000E+01 0.  0.
<mgrwt>
<rscale>  0 0.12500189E+03</rscale>
<asrwt>0</asrwt>
<pdfrwt beam="1">  1        4 0.27343662E-01 0.12500189E+03</pdfrwt>
<pdfrwt beam="2">  1       -4 0.33813472E-02 0.12500189E+03</pdfrwt>
<totfact> 0.90180198E+03</totfact>
</mgrwt>
</event>
<event>
 5    1  0.3337119E-002  0.1250013E+03  0.7818608E-02  0.1235067E+00
         -4   -1    0    0    0  501 -0.00000000000E+00  0.00000000000E+00  0.53351411865E+02  0.53366525538E+02  0.12700000000E+01 0. -1.
          4   -1    0    0  501    0  0.00000000000E+00 -0.00000000000E+00 -0.73187929180E+02  0.73198947244E+02  0.12700000000E+01 0. -1.
         25    2    1    2    0    0  0.00000000000E+00  0.00000000000E+00 -0.19836517315E+02  0.12656547278E+03  0.12500132592E+03 0.  0.
    9000005    1    3    3    0    0 -0.15261950721E+01 -0.54572295571E+02 -0.40710445912E+02  0.68108774190E+02  0.10000000000E+01 0.  0.
    9000005    1    3    3    0    0  0.15261950721E+01  0.54572295571E+02  0.20873928597E+02  0.58456698593E+02  0.10000000000E+01 0.  0.
<mgrwt>
<rscale>  0 0.12500133E+03</rscale>
<asrwt>0</asrwt>
<pdfrwt beam="2">  1        4 0.11261692E-01 0.12500133E+03</pdfrwt>
<pdfrwt beam="1">  1       -4 0.82099196E-02 0.12500133E+03</pdfrwt>
<totfact> 0.10418289E+04</totfact>
</mgrwt>
</event>
<event>
 5    1  0.3337119E-002  0.1250410E+03  0.7818608E-02  0.1235005E+00
         -4   -1    0    0    0  501 -0.00000000000E+00  0.00000000000E+00  0.31253243005E+02  0.31279036084E+02  0.12700000000E+01 0. -1.
          4   -1    0    0  501    0  0.00000000000E+00 -0.00000000000E+00 -0.12498841416E+03  0.12499486619E+03  0.12700000000E+01 0. -1.
         25    2    1    2    0    0  0.00000000000E+00  0.00000000000E+00 -0.93735171157E+02  0.15627390228E+03  0.12504099416E+03 0.  0.
    9000005    1    3    3    0    0  0.14014870716E+02 -0.15659799245E+01 -0.12298064116E+03  0.12379057717E+03  0.10000000000E+01 0.  0.
    9000005    1    3    3    0    0 -0.14014870716E+02  0.15659799245E+01  0.29245470007E+02  0.32483325110E+02  0.10000000000E+01 0.  0.
<mgrwt>
<rscale>  0 0.12504099E+03</rscale>
<asrwt>0</asrwt>
<pdfrwt beam="2">  1        4 0.19231467E-01 0.12504099E+03</pdfrwt>
<pdfrwt beam="1">  1       -4 0.48106717E-02 0.12504099E+03</pdfrwt>
<totfact> 0.97975650E+03</totfact>
</mgrwt>
</event>
<event>
 5    1  0.3337119E-002  0.1249989E+03  0.7818608E-02  0.1235071E+00
          4   -1    0    0  501    0  0.00000000000E+00  0.00000000000E+00  0.26435351519E+02  0.26465840435E+02  0.12700000000E+01 0.  1.
         -4   -1    0    0    0  501 -0.00000000000E+00 -0.00000000000E+00 -0.14764513284E+03  0.14765059483E+03  0.12700000000E+01 0.  1.
         25    2    1    2    0    0  0.00000000000E+00  0.00000000000E+00 -0.12120978133E+03  0.17411643526E+03  0.12499888775E+03 0.  0.
    9000005    1    3    3    0    0 -0.51677690685E+02  0.63464823524E+01 -0.10874352626E+03  0.12056954863E+03  0.10000000000E+01 0.  0.
    9000005    1    3    3    0    0  0.51677690685E+02 -0.63464823524E+01 -0.12466255066E+02  0.53546886634E+02  0.10000000000E+01 0.  0.
<mgrwt>
<rscale>  0 0.12499889E+03</rscale>
<asrwt>0</asrwt>
<pdfrwt beam="1">  1        4 0.40697427E-02 0.12499889E+03</pdfrwt>
<pdfrwt beam="2">  1       -4 0.22717401E-01 0.12499889E+03</pdfrwt>
<totfact> 0.94689276E+03</totfact>
</mgrwt>
</event>
<event>
 5    1  0.3337119E-002  0.1250033E+03  0.7818608E-02  0.1235064E+00
         -4   -1    0    0    0  501 -0.00000000000E+00  0.00000000000E+00  0.17821004870E+01  0.21883286193E+01  0.12700000000E+01 0.  1.
          4   -1    0    0  501    0  0.00000000000E+00 -0.00000000000E+00 -0.19673684183E+04  0.19673688282E+04  0.12700000000E+01 0.  1.
         25    2    1    2    0    0  0.00000000000E+00  0.00000000000E+00 -0.19655863178E+04  0.19695571568E+04  0.12500328498E+03 0.  0.
    9000005    1    3    3    0    0 -0.26009526796E+02 -0.30029536842E+01 -0.18768624817E+04  0.18770453613E+04  0.10000000000E+01 0.  0.
    9000005    1    3    3    0    0  0.26009526796E+02  0.30029536842E+01 -0.88723836045E+02  0.92511795450E+02  0.10000000000E+01 0.  0.
<mgrwt>
<rscale>  0 0.12500328E+03</rscale>
<asrwt>0</asrwt>
<pdfrwt beam="2">  1        4 0.30270179E+00 0.12500328E+03</pdfrwt>
<pdfrwt beam="1">  1       -4 0.30545073E-03 0.12500328E+03</pdfrwt>
<totfact> 0.10263303E+03</totfact>
</mgrwt>
</event>
<event>
 5    1  0.3337119E-002  0.1250061E+03  0.7818608E-02  0.1235060E+00
          4   -1    0    0  501    0  0.00000000000E+00  0.00000000000E+00  0.17554430286E+03  0.17554889680E+03  0.12700000000E+01 0.  1.
         -4   -1    0    0    0  501 -0.00000000000E+00 -0.00000000000E+00 -0.22231374127E+02  0.22267619890E+02  0.12700000000E+01 0.  1.
         25    2    1    2    0    0  0.00000000000E+00  0.00000000000E+00  0.15331292874E+03  0.19781651669E+03  0.12500608048E+03 0.  0.
    9000005    1    3    3    0    0 -0.42531246805E+02  0.43612920292E+02  0.54579299713E+02  0.81797883397E+02  0.10000000000E+01 0.  0.
    9000005    1    3    3    0    0  0.42531246805E+02 -0.43612920292E+02  0.98733629023E+02  0.11601863329E+03  0.10000000000E+01 0.  0.
<mgrwt>
<rscale>  0 0.12500608E+03</rscale>
<asrwt>0</asrwt>
<pdfrwt beam="1">  1        4 0.27009957E-01 0.12500608E+03</pdfrwt>
<pdfrwt beam="2">  1       -4 0.34233530E-02 0.12500608E+03</pdfrwt>
<totfact> 0.90492456E+03</totfact>
</mgrwt>
</event>
<event>
 5    1  0.3337119E-002  0.1249883E+03  0.7818608E-02  0.1235088E+00
         -4   -1    0    0    0  501 -0.00000000000E+00  0.00000000000E+00  0.12316800350E+03  0.12317455089E+03  0.12700000000E+01 0.  1.
          4   -1    0    0  501    0  0.00000000000E+00 -0.00000000000E+00 -0.31688762894E+02  0.31714201768E+02  0.12700000000E+01 0.  1.
         25    2    1    2    0    0  0.00000000000E+00  0.00000000000E+00  0.91479240604E+02  0.15488875265E+03  0.12498829640E+03 0.  0.
    9000005    1    3    3    0    0 -0.58510352646E+02 -0.17510797051E+02  0.62106281871E+02  0.87110731991E+02  0.10000000000E+01 0.  0.
    9000005    1    3    3    0    0  0.58510352646E+02  0.17510797051E+02  0.29372958733E+02  0.67778020662E+02  0.10000000000E+01 0.  0.
<mgrwt>
<rscale>  0 0.12498830E+03</rscale>
<asrwt>0</asrwt>
<pdfrwt beam="2">  1        4 0.48776548E-02 0.12498830E+03</pdfrwt>
<pdfrwt beam="1">  1       -4 0.18951384E-01 0.12498830E+03</pdfrwt>
<totfact> 0.98363231E+03</totfact>
</mgrwt>
</event>
<event>
 5    1  0.3337119E-002  0.1249994E+03  0.7818608E-02  0.1235070E+00
         -4   -1    0    0    0  501 -0.00000000000E+00  0.00000000000E+00  0.35336704106E+02  0.35359518620E+02  0.12700000000E+01 0.  1.
          4   -1    0    0  501    0  0.00000000000E+00 -0.00000000000E+00 -0.11048046623E+03  0.11048776547E+03  0.12700000000E+01 0.  1.
         25    2    1    2    0    0  0.00000000000E+00  0.00000000000E+00 -0.75143762121E+02  0.14584728409E+03  0.12499938116E+03 0.  0.
    9000005    1    3    3    0    0  0.16349962777E+02  0.38699757981E+02  0.16406464318E+02  0.45112798871E+02  0.10000000000E+01 0.  0.
    9000005    1    3    3    0    0 -0.16349962777E+02 -0.38699757981E+02 -0.91550226439E+02  0.10073448522E+03  0.10000000000E+01 0.  0.
<mgrwt>
<rscale>  0 0.12499938E+03</rscale>
<asrwt>0</asrwt>
<pdfrwt beam="2">  1        4 0.16999311E-01 0.12499938E+03</pdfrwt>
<pdfrwt beam="1">  1       -4 0.54387325E-02 0.12499938E+03</pdfrwt>
<totfact> 0.10013941E+04</totfact>
</mgrwt>
</event>
<event>
 5    1  0.3337119E-002  0.1249994E+03  0.7818608E-02  0.1235070E+00
          4   -1    0    0  501    0  0.00000000000E+00  0.00000000000E+00  0.14155835079E+02  0.14212690342E+02  0.12700000000E+01 0. -1.
         -4   -1    0    0    0  501 -0.00000000000E+00 -0.00000000000E+00 -0.27533226865E+03  0.27533519764E+03  0.12700000000E+01 0. -1.
         25    2    1    2    0    0  0.00000000000E+00  0.00000000000E+00 -0.26117643357E+03  0.28954788799E+03  0.12499939993E+03 0.  0.
    9000005    1    3    3    0    0  0.22382967808E+02 -0.18930360699E+02 -0.25842834756E+03  0.26008761336E+03  0.10000000000E+01 0.  0.
    9000005    1    3    3    0    0 -0.22382967808E+02  0.18930360699E+02 -0.27480860172E+01  0.29460274623E+02  0.10000000000E+01 0.  0.
<mgrwt>
<rscale>  0 0.12499940E+03</rscale>
<asrwt>0</asrwt>
<pdfrwt beam="1">  1        4 0.21824198E-02 0.12499940E+03</pdfrwt>
<pdfrwt beam="2">  1       -4 0.42363405E-01 0.12499940E+03</pdfrwt>
<totfact> 0.76929948E+03</totfact>
</mgrwt>
</event>
<event>
 5    1  0.3337119E-002  0.1249919E+03  0.7818608E-02  0.1235082E+00
          4   -1    0    0  501    0  0.00000000000E+00  0.00000000000E+00  0.11132661443E+03  0.11133385819E+03  0.12700000000E+01 0.  1.
         -4   -1    0    0    0  501 -0.00000000000E+00 -0.00000000000E+00 -0.35063761211E+02  0.35086753202E+02  0.12700000000E+01 0.  1.
         25    2    1    2    0    0  0.00000000000E+00  0.00000000000E+00  0.76262853216E+02  0.14642061139E+03  0.12499189038E+03 0.  0.
    9000005    1    3    3    0    0 -0.53590821462E+00  0.62207406740E+02  0.45031453522E+02  0.76804169530E+02  0.10000000000E+01 0.  0.
    9000005    1    3    3    0    0  0.53590821462E+00 -0.62207406740E+02  0.31231399694E+02  0.69616441864E+02  0.10000000000E+01 0.  0.
<mgrwt>
<rscale>  0 0.12499189E+03</rscale>
<asrwt>0</asrwt>
<pdfrwt beam="1">  1        4 0.17129497E-01 0.12499189E+03</pdfrwt>
<pdfrwt beam="2">  1       -4 0.53967507E-02 0.12499189E+03</pdfrwt>
<totfact> 0.10004031E+04</totfact>
</mgrwt>
</event>
<event>
 5    1  0.3337119E-002  0.1250047E+03  0.7818608E-02  0.1235062E+00
          4   -1    0    0  501    0  0.00000000000E+00  0.00000000000E+00  0.97942093962E+02  0.97950327562E+02  0.12700000000E+01 0. -1.
         -4   -1    0    0    0  501 -0.00000000000E+00 -0.00000000000E+00 -0.39866245437E+02  0.39886469200E+02  0.12700000000E+01 0. -1.
         25    2    1    2    0    0  0.00000000000E+00  0.00000000000E+00  0.58075848524E+02  0.13783679676E+03  0.12500471335E+03 0.  0.
    9000005    1    3    3    0    0 -0.13934232947E+02 -0.60870278865E+02  0.31781490392E+02  0.70074366415E+02  0.10000000000E+01 0.  0.
    9000005    1    3    3    0    0  0.13934232947E+02  0.60870278865E+02  0.26294358132E+02  0.67762430347E+02  0.10000000000E+01 0.  0.
<mgrwt>
<rscale>  0 0.12500471E+03</rscale>
<asrwt>0</asrwt>
<pdfrwt beam="1">  1        4 0.15070203E-01 0.12500471E+03</pdfrwt>
<pdfrwt beam="2">  1       -4 0.61354576E-02 0.12500471E+03</pdfrwt>
<totfact> 0.10177536E+04</totfact>
</mgrwt>
</event>
<event>
 5    1  0.3337119E-002  0.1250021E+03  0.7818608E-02  0.1235066E+00
         -4   -1    0    0    0  501 -0.00000000000E+00  0.00000000000E+00  0.18357806047E+04  0.18357810440E+04  0.12700000000E+01 0. -1.
          4   -1    0    0  501    0  0.00000000000E+00 -0.00000000000E+00 -0.19379420492E+01  0.23170065572E+01  0.12700000000E+01 0. -1.
         25    2    1    2    0    0  0.00000000000E+00  0.00000000000E+00  0.18338426627E+04  0.18380980506E+04  0.12500212833E+03 0.  0.
    9000005    1    3    3    0    0 -0.43045890137E+02  0.16013833806E+01  0.25116635729E+03  0.25483534316E+03  0.10000000000E+01 0.  0.
    9000005    1    3    3    0    0  0.43045890137E+02 -0.16013833806E+01  0.15826763054E+04  0.15832627074E+04  0.10000000000E+01 0.  0.
<mgrwt>
<rscale>  0 0.12500213E+03</rscale>
<asrwt>0</asrwt>
<pdfrwt beam="2">  1        4 0.32733820E-03 0.12500213E+03</pdfrwt>
<pdfrwt beam="1">  1       -4 0.28245640E+00 0.12500213E+03</pdfrwt>
<totfact> 0.12125119E+03</totfact>
</mgrwt>
</event>
<event>
 5    1  0.3337119E-002  0.1250028E+03  0.7818608E-02  0.1235065E+00
          4   -1    0    0  501    0  0.00000000000E+00  0.00000000000E+00  0.11549878630E+02  0.11619492088E+02  0.12700000000E+01 0. -1.
         -4   -1    0    0    0  501 -0.00000000000E+00 -0.00000000000E+00 -0.33713517982E+03  0.33713757188E+03  0.12700000000E+01 0. -1.
         25    2    1    2    0    0  0.00000000000E+00  0.00000000000E+00 -0.32558530119E+03  0.34875706397E+03  0.12500280523E+03 0.  0.
    9000005    1    3    3    0    0 -0.45445836839E+02 -0.20453299121E+02 -0.57592350316E+02  0.76167843253E+02  0.10000000000E+01 0.  0.
    9000005    1    3    3    0    0  0.45445836839E+02  0.20453299121E+02 -0.26799295087E+03  0.27258922071E+03  0.10000000000E+01 0.  0.
<mgrwt>
<rscale>  0 0.12500281E+03</rscale>
<asrwt>0</asrwt>
<pdfrwt beam="1">  1        4 0.17824435E-02 0.12500281E+03</pdfrwt>
<pdfrwt beam="2">  1       -4 0.51872482E-01 0.12500281E+03</pdfrwt>
<totfact> 0.69857177E+03</totfact>
</mgrwt>
</event>
<event>
 5    1  0.3337119E-002  0.1250013E+03  0.7818608E-02  0.1235067E+00
          4   -1    0    0  501    0  0.00000000000E+00  0.00000000000E+00  0.55747846805E+01  0.57176152576E+01  0.12700000000E+01 0.  1.
         -4   -1    0    0    0  501 -0.00000000000E+00 -0.00000000000E+00 -0.69170834244E+03  0.69170950832E+03  0.12700000000E+01 0.  1.
         25    2    1    2    0    0  0.00000000000E+00  0.00000000000E+00 -0.68613355776E+03  0.69742712358E+03  0.12500133447E+03 0.  0.
    9000005    1    3    3    0    0 -0.19165265884E+02 -0.41001981013E+02 -0.58348876396E+03  0.58524234940E+03  0.10000000000E+01 0.  0.
    9000005    1    3    3    0    0  0.19165265884E+02  0.41001981013E+02 -0.10264479380E+03  0.11218477418E+03  0.10000000000E+01 0.  0.
<mgrwt>
<rscale>  0 0.12500133E+03</rscale>
<asrwt>0</asrwt>
<pdfrwt beam="1">  1        4 0.86873638E-03 0.12500133E+03</pdfrwt>
<pdfrwt beam="2">  1       -4 0.10642768E+00 0.12500133E+03</pdfrwt>
<totfact> 0.43221615E+03</totfact>
</mgrwt>
</event>
<event>
 5    1  0.3337119E-002  0.1249998E+03  0.7818608E-02  0.1235070E+00
         -4   -1    0    0    0  501 -0.00000000000E+00  0.00000000000E+00  0.72155599924E+01  0.73264729579E+01  0.12700000000E+01 0.  1.
          4   -1    0    0  501    0  0.00000000000E+00 -0.00000000000E+00 -0.53712211171E+03  0.53712361313E+03  0.12700000000E+01 0.  1.
         25    2    1    2    0    0  0.00000000000E+00  0.00000000000E+00 -0.52990655172E+03  0.54445008609E+03  0.12499977078E+03 0.  0.
    9000005    1    3    3    0    0 -0.15646716242E+02 -0.60065597437E+02 -0.29652466396E+03  0.30295308558E+03  0.10000000000E+01 0.  0.
    9000005    1    3    3    0    0  0.15646716242E+02  0.60065597437E+02 -0.23338188776E+03  0.24149700051E+03  0.10000000000E+01 0.  0.
<mgrwt>
<rscale>  0 0.12499977E+03</rscale>
<asrwt>0</asrwt>
<pdfrwt beam="2">  1        4 0.82642787E-01 0.12499977E+03</pdfrwt>
<pdfrwt beam="1">  1       -4 0.11187338E-02 0.12499977E+03</pdfrwt>
<totfact> 0.52573598E+03</totfact>
</mgrwt>
</event>
<event>
 5    1  0.3337119E-002  0.1250077E+03  0.7818608E-02  0.1235057E+00
          4   -1    0    0  501    0  0.00000000000E+00  0.00000000000E+00  0.10263916241E+03  0.10264701925E+03  0.12700000000E+01 0.  1.
         -4   -1    0    0    0  501 -0.00000000000E+00 -0.00000000000E+00 -0.38042887764E+02  0.38064080304E+02  0.12700000000E+01 0.  1.
         25    2    1    2    0    0  0.00000000000E+00  0.00000000000E+00  0.64596274648E+02  0.14071109955E+03  0.12500773912E+03 0.  0.
    9000005    1    3    3    0    0 -0.22267092977E+01 -0.62455022270E+02  0.31868527115E+02  0.70158328526E+02  0.10000000000E+01 0.  0.
    9000005    1    3    3    0    0  0.22267092977E+01  0.62455022270E+02  0.32727747533E+02  0.70552771027E+02  0.10000000000E+01 0.  0.
<mgrwt>
<rscale>  0 0.12500774E+03</rscale>
<asrwt>0</asrwt>
<pdfrwt beam="1">  1        4 0.15792875E-01 0.12500774E+03</pdfrwt>
<pdfrwt beam="2">  1       -4 0.58549866E-02 0.12500774E+03</pdfrwt>
<totfact> 0.10117105E+04</totfact>
</mgrwt>
</event>
<event>
 5    1  0.3337119E-002  0.1250035E+03  0.7818608E-02  0.1235064E+00
          4   -1    0    0  501    0  0.00000000000E+00  0.00000000000E+00  0.36588315613E+02  0.36610350167E+02  0.12700000000E+01 0.  1.
         -4   -1    0    0    0  501 -0.00000000000E+00 -0.00000000000E+00 -0.10671030198E+03  0.10671785909E+03  0.12700000000E+01 0.  1.
         25    2    1    2    0    0  0.00000000000E+00  0.00000000000E+00 -0.70121986365E+02  0.14332820925E+03  0.12500353034E+03 0.  0.
    9000005    1    3    3    0    0 -0.46094062839E+02 -0.39672279630E+02 -0.51554340092E+02  0.79733320402E+02  0.10000000000E+01 0.  0.
    9000005    1    3    3    0    0  0.46094062839E+02  0.39672279630E+02 -0.18567646273E+02  0.63594888853E+02  0.10000000000E+01 0.  0.
<mgrwt>
<rscale>  0 0.12500353E+03</rscale>
<asrwt>0</asrwt>
<pdfrwt beam="1">  1        4 0.56312480E-02 0.12500353E+03</pdfrwt>
<pdfrwt beam="2">  1       -4 0.16419246E-01 0.12500353E+03</pdfrwt>
<totfact> 0.10064266E+04</totfact>
</mgrwt>
</event>
<event>
 5    1  0.3337119E-002  0.1249976E+03  0.7818608E-02  0.1235073E+00
          4   -1    0    0  501    0  0.00000000000E+00  0.00000000000E+00  0.28944961961E+03  0.28945240575E+03  0.12700000000E+01 0.  1.
         -4   -1    0    0    0  501 -0.00000000000E+00 -0.00000000000E+00 -0.13462189985E+02  0.13521962106E+02  0.12700000000E+01 0.  1.
         25    2    1    2    0    0  0.00000000000E+00  0.00000000000E+00  0.27598742962E+03  0.30297436785E+03  0.12499762504E+03 0.  0.
    9000005    1    3    3    0    0 -0.46577008700E+02 -0.34712488825E+02  0.82154449480E+02  0.10062170834E+03  0.10000000000E+01 0.  0.
    9000005    1    3    3    0    0  0.46577008700E+02  0.34712488825E+02  0.19383298014E+03  0.20235265951E+03  0.10000000000E+01 0.  0.
<mgrwt>
<rscale>  0 0.12499763E+03</rscale>
<asrwt>0</asrwt>
<pdfrwt beam="1">  1        4 0.44535523E-01 0.12499763E+03</pdfrwt>
<pdfrwt beam="2">  1       -4 0.20759183E-02 0.12499763E+03</pdfrwt>
<totfact> 0.75231212E+03</totfact>
</mgrwt>
</event>
<event>
 5    1  0.3337119E-002  0.1250197E+03  0.7818608E-02  0.1235038E+00
          4   -1    0    0  501    0  0.00000000000E+00  0.00000000000E+00  0.98414523150E+01  0.99230581813E+01  0.12700000000E+01 0.  1.
         -4   -1    0    0    0  501 -0.00000000000E+00 -0.00000000000E+00 -0.39532125695E+03  0.39532329694E+03  0.12700000000E+01 0.  1.
         25    2    1    2    0    0  0.00000000000E+00  0.00000000000E+00 -0.38547980464E+03  0.40524635512E+03  0.12501971265E+03 0.  0.
    9000005    1    3    3    0    0  0.20361046719E+02 -0.22050736941E+02 -0.15030001547E+02  0.33581366405E+02  0.10000000000E+01 0.  0.
    9000005    1    3    3    0    0 -0.20361046719E+02  0.22050736941E+02 -0.37044980309E+03  0.37166498871E+03  0.10000000000E+01 0.  0.
<mgrwt>
<rscale>  0 0.12501971E+03</rscale>
<asrwt>0</asrwt>
<pdfrwt beam="1">  1        4 0.15205042E-02 0.12501971E+03</pdfrwt>
<pdfrwt beam="2">  1       -4 0.60825077E-01 0.12501971E+03</pdfrwt>
<totfact> 0.64017861E+03</totfact>
</mgrwt>
</event>
<event>
 5    1  0.3337119E-002  0.1249997E+03  0.7818608E-02  0.1235070E+00
          4   -1    0    0  501    0  0.00000000000E+00  0.00000000000E+00  0.16545816677E+02  0.16594485515E+02  0.12700000000E+01 0. -1.
         -4   -1    0    0    0  501 -0.00000000000E+00 -0.00000000000E+00 -0.23568866438E+03  0.23569208603E+03  0.12700000000E+01 0. -1.
         25    2    1    2    0    0  0.00000000000E+00  0.00000000000E+00 -0.21914284770E+03  0.25228657154E+03  0.12499970593E+03 0.  0.
    9000005    1    3    3    0    0 -0.11096205072E+02 -0.60381640511E+02 -0.13312274344E+03  0.14660059038E+03  0.10000000000E+01 0.  0.
    9000005    1    3    3    0    0  0.11096205072E+02  0.60381640511E+02 -0.86020104261E+02  0.10568598117E+03  0.10000000000E+01 0.  0.
<mgrwt>
<rscale>  0 0.12499971E+03</rscale>
<asrwt>0</asrwt>
<pdfrwt beam="1">  1        4 0.25495174E-02 0.12499971E+03</pdfrwt>
<pdfrwt beam="2">  1       -4 0.36263799E-01 0.12499971E+03</pdfrwt>
<totfact> 0.82001404E+03</totfact>
</mgrwt>
</event>
<event>
 5    1  0.3337119E-002  0.1250001E+03  0.7818608E-02  0.1235069E+00
          4   -1    0    0  501    0  0.00000000000E+00  0.00000000000E+00  0.74967048097E+02  0.74977804719E+02  0.12700000000E+01 0.  1.
         -4   -1    0    0    0  501 -0.00000000000E+00 -0.00000000000E+00 -0.52084056209E+02  0.52099537534E+02  0.12700000000E+01 0.  1.
         25    2    1    2    0    0  0.00000000000E+00  0.00000000000E+00  0.22882991888E+02  0.12707734225E+03  0.12500007838E+03 0.  0.
    9000005    1    3    3    0    0  0.18366225076E+02  0.51859940918E+02  0.41573260759E+02  0.68964539480E+02  0.10000000000E+01 0.  0.
    9000005    1    3    3    0    0 -0.18366225076E+02 -0.51859940918E+02 -0.18690268871E+02  0.58112802772E+02  0.10000000000E+01 0.  0.
<mgrwt>
<rscale>  0 0.12500008E+03</rscale>
<asrwt>0</asrwt>
<pdfrwt beam="1">  1        4 0.11535410E-01 0.12500008E+03</pdfrwt>
<pdfrwt beam="2">  1       -4 0.80149500E-02 0.12500008E+03</pdfrwt>
<totfact> 0.10407447E+04</totfact>
</mgrwt>
</event>
<event>
 5    1  0.3337119E-002  0.1250057E+03  0.7818608E-02  0.1235060E+00
         -4   -1    0    0    0  501 -0.00000000000E+00  0.00000000000E+00  0.10000067531E+03  0.10000873943E+03  0.12700000000E+01 0.  1.
          4   -1    0    0  501    0  0.00000000000E+00 -0.00000000000E+00 -0.39045839396E+02  0.39066487866E+02  0.12700000000E+01 0.  1.
         25    2    1    2    0    0  0.00000000000E+00  0.00000000000E+00  0.60954835916E+02  0.13907522730E+03  0.12500570718E+03 0.  0.
    9000005    1    3    3    0    0 -0.19115784230E+02 -0.13230693331E+02  0.95016331623E+02  0.97824167402E+02  0.10000000000E+01 0.  0.
    9000005    1    3    3    0    0  0.19115784230E+02  0.13230693331E+02 -0.34061495707E+02  0.41251059896E+02  0.10000000000E+01 0.  0.
<mgrwt>
<rscale>  0 0.12500571E+03</rscale>
<asrwt>0</asrwt>
<pdfrwt beam="2">  1        4 0.60092610E-02 0.12500571E+03</pdfrwt>
<pdfrwt beam="1">  1       -4 0.15386928E-01 0.12500571E+03</pdfrwt>
<totfact> 0.10151483E+04</totfact>
</mgrwt>
</event>
<event>
 5    1  0.3337119E-002  0.1249978E+03  0.7818608E-02  0.1235073E+00
          4   -1    0    0  501    0  0.00000000000E+00  0.00000000000E+00  0.28862082267E+02  0.28890010259E+02  0.12700000000E+01 0. -1.
         -4   -1    0    0    0  501 -0.00000000000E+00 -0.00000000000E+00 -0.13524091910E+03  0.13524688204E+03  0.12700000000E+01 0. -1.
         25    2    1    2    0    0  0.00000000000E+00  0.00000000000E+00 -0.10637883684E+03  0.16413689229E+03  0.12499784992E+03 0.  0.
    9000005    1    3    3    0    0  0.49258242045E+02 -0.36680451592E+01 -0.10345433440E+03  0.11464566399E+03  0.10000000000E+01 0.  0.
    9000005    1    3    3    0    0 -0.49258242045E+02  0.36680451592E+01 -0.29245024340E+01  0.49491228305E+02  0.10000000000E+01 0.  0.
<mgrwt>
<rscale>  0 0.12499785E+03</rscale>
<asrwt>0</asrwt>
<pdfrwt beam="1">  1        4 0.44429274E-02 0.12499785E+03</pdfrwt>
<pdfrwt beam="2">  1       -4 0.20808902E-01 0.12499785E+03</pdfrwt>
<totfact> 0.96555765E+03</totfact>
</mgrwt>
</event>
<event>
 5    1  0.3337119E-002  0.1250064E+03  0.7818608E-02  0.1235059E+00
         -4   -1    0    0    0  501 -0.00000000000E+00  0.00000000000E+00  0.33472348701E+01  0.35800672166E+01  0.12700000000E+01 0.  1.
          4   -1    0    0  501    0  0.00000000000E+00 -0.00000000000E+00 -0.11276660793E+04  0.11276667945E+04  0.12700000000E+01 0.  1.
         25    2    1    2    0    0  0.00000000000E+00  0.00000000000E+00 -0.11243188444E+04  0.11312468617E+04  0.12500639219E+03 0.  0.
    9000005    1    3    3    0    0  0.52417684384E+02 -0.32494358412E+02 -0.65362333755E+03  0.65652720001E+03  0.10000000000E+01 0.  0.
    9000005    1    3    3    0    0 -0.52417684384E+02  0.32494358412E+02 -0.47069550689E+03  0.47471966167E+03  0.10000000000E+01 0.  0.
<mgrwt>
<rscale>  0 0.12500639E+03</rscale>
<asrwt>0</asrwt>
<pdfrwt beam="2">  1        4 0.17350476E+00 0.12500639E+03</pdfrwt>
<pdfrwt beam="1">  1       -4 0.53292530E-03 0.12500639E+03</pdfrwt>
<totfact> 0.26582690E+03</totfact>
</mgrwt>
</event>
<event>
 5    1  0.3337119E-002  0.1249928E+03  0.7818608E-02  0.1235081E+00
          4   -1    0    0  501    0  0.00000000000E+00  0.00000000000E+00  0.61828723226E+03  0.61828853659E+03  0.12700000000E+01 0. -1.
         -4   -1    0    0    0  501 -0.00000000000E+00 -0.00000000000E+00 -0.62519741900E+01  0.63796615327E+01  0.12700000000E+01 0. -1.
         25    2    1    2    0    0  0.00000000000E+00  0.00000000000E+00  0.61203525807E+03  0.62466819812E+03  0.12499280228E+03 0.  0.
    9000005    1    3    3    0    0  0.25711104432E+02  0.19876514253E+01  0.21556635949E+02  0.33625885903E+02  0.10000000000E+01 0.  0.
    9000005    1    3    3    0    0 -0.25711104432E+02 -0.19876514253E+01  0.59047862212E+03  0.59104231222E+03  0.10000000000E+01 0.  0.
<mgrwt>
<rscale>  0 0.12499280E+03</rscale>
<asrwt>0</asrwt>
<pdfrwt beam="1">  1        4 0.95131023E-01 0.12499280E+03</pdfrwt>
<pdfrwt beam="2">  1       -4 0.97176474E-03 0.12499280E+03</pdfrwt>
<totfact> 0.47354081E+03</totfact>
</mgrwt>
</event>
<event>
 5    1  0.3337119E-002  0.1250053E+03  0.7818608E-02  0.1235061E+00
         -4   -1    0    0    0  501 -0.00000000000E+00  0.00000000000E+00  0.16913004686E+02  0.16960619903E+02  0.12700000000E+01 0. -1.
          4   -1    0    0  501    0  0.00000000000E+00 -0.00000000000E+00 -0.23060685956E+03  0.23061035661E+03  0.12700000000E+01 0. -1.
         25    2    1    2    0    0  0.00000000000E+00  0.00000000000E+00 -0.21369385488E+03  0.24757097652E+03  0.12500529909E+03 0.  0.
    9000005    1    3    3    0    0  0.26560661164E+02  0.56291333095E+02 -0.11794440702E+03  0.13336441074E+03  0.10000000000E+01 0.  0.
    9000005    1    3    3    0    0 -0.26560661164E+02 -0.56291333095E+02 -0.95749447855E+02  0.11420656578E+03  0.10000000000E+01 0.  0.
<mgrwt>
<rscale>  0 0.12500530E+03</rscale>
<asrwt>0</asrwt>
<pdfrwt beam="2">  1        4 0.35481908E-01 0.12500530E+03</pdfrwt>
<pdfrwt beam="1">  1       -4 0.26059326E-02 0.12500530E+03</pdfrwt>
<totfact> 0.82672809E+03</totfact>
</mgrwt>
</event>
<event>
 5    1  0.3337119E-002  0.1250007E+03  0.7818608E-02  0.1235068E+00
          4   -1    0    0  501    0  0.00000000000E+00  0.00000000000E+00  0.38005664122E+01  0.40071442516E+01  0.12700000000E+01 0. -1.
         -4   -1    0    0    0  501 -0.00000000000E+00 -0.00000000000E+00 -0.10004175816E+04  0.10004183878E+04  0.12700000000E+01 0. -1.
         25    2    1    2    0    0  0.00000000000E+00  0.00000000000E+00 -0.99661701524E+03  0.10044255320E+04  0.12500069720E+03 0.  0.
    9000005    1    3    3    0    0 -0.52434062071E+02 -0.23959904408E+02 -0.30447710109E+03  0.30988822658E+03  0.10000000000E+01 0.  0.
    9000005    1    3    3    0    0  0.52434062071E+02  0.23959904408E+02 -0.69213991415E+03  0.69453730543E+03  0.10000000000E+01 0.  0.
<mgrwt>
<rscale>  0 0.12500070E+03</rscale>
<asrwt>0</asrwt>
<pdfrwt beam="1">  1        4 0.60065593E-03 0.12500070E+03</pdfrwt>
<pdfrwt beam="2">  1       -4 0.15392615E+00 0.12500070E+03</pdfrwt>
<totfact> 0.30458385E+03</totfact>
</mgrwt>
</event>
<event>
 5    1  0.3337119E-002  0.1249989E+03  0.7818608E-02  0.1235071E+00
         -4   -1    0    0    0  501 -0.00000000000E+00  0.00000000000E+00  0.48573728183E+02  0.48590327943E+02  0.12700000000E+01 0. -1.
          4   -1    0    0  501    0  0.00000000000E+00 -0.00000000000E+00 -0.80382267879E+02  0.80392299938E+02  0.12700000000E+01 0. -1.
         25    2    1    2    0    0  0.00000000000E+00  0.00000000000E+00 -0.31808539696E+02  0.12898262788E+03  0.12499894039E+03 0.  0.
    9000005    1    3    3    0    0  0.65506543210E+01  0.51638367483E+02 -0.51585958063E+02  0.73290812095E+02  0.10000000000E+01 0.  0.
    9000005    1    3    3    0    0 -0.65506543210E+01 -0.51638367483E+02  0.19777418367E+02  0.55691815786E+02  0.10000000000E+01 0.  0.
<mgrwt>
<rscale>  0 0.12499894E+03</rscale>
<asrwt>0</asrwt>
<pdfrwt beam="2">  1        4 0.12368551E-01 0.12499894E+03</pdfrwt>
<pdfrwt beam="1">  1       -4 0.74749298E-02 0.12499894E+03</pdfrwt>
<totfact> 0.10366568E+04</totfact>
</mgrwt>
</event>
<event>
 5    1  0.3337119E-002  0.1249989E+03  0.7818608E-02  0.1235071E+00
         -4   -1    0    0    0  501 -0.00000000000E+00  0.00000000000E+00  0.40526350798E+02  0.40546245313E+02  0.12700000000E+01 0. -1.
          4   -1    0    0  501    0  0.00000000000E+00 -0.00000000000E+00 -0.96338527371E+02  0.96346898009E+02  0.12700000000E+01 0. -1.
         25    2    1    2    0    0  0.00000000000E+00  0.00000000000E+00 -0.55812176573E+02  0.13689314332E+03  0.12499893453E+03 0.  0.
    9000005    1    3    3    0    0 -0.62478160181E+02  0.69300178109E+00 -0.26715107117E+02  0.67961001312E+02  0.10000000000E+01 0.  0.
    9000005    1    3    3    0    0  0.62478160181E+02 -0.69300178109E+00 -0.29097069456E+02  0.68932142010E+02  0.10000000000E+01 0.  0.
<mgrwt>
<rscale>  0 0.12499893E+03</rscale>
<asrwt>0</asrwt>
<pdfrwt beam="2">  1        4 0.14823486E-01 0.12499893E+03</pdfrwt>
<pdfrwt beam="1">  1       -4 0.62369975E-02 0.12499893E+03</pdfrwt>
<totfact> 0.10198566E+04</totfact>
</mgrwt>
</event>
<event>
 5    1  0.3337119E-002  0.1249888E+03  0.7818608E-02  0.1235087E+00
         -4   -1    0    0    0  501 -0.00000000000E+00  0.00000000000E+00  0.15866077486E+02  0.15916824896E+02  0.12700000000E+01 0. -1.
          4   -1    0    0  501    0  0.00000000000E+00 -0.00000000000E+00 -0.24571176474E+03  0.24571504682E+03  0.12700000000E+01 0. -1.
         25    2    1    2    0    0  0.00000000000E+00  0.00000000000E+00 -0.22984568726E+03  0.26163187172E+03  0.12498878488E+03 0.  0.
    9000005    1    3    3    0    0  0.10456887927E+02  0.57105624013E+02 -0.16330122519E+03  0.17331673014E+03  0.10000000000E+01 0.  0.
    9000005    1    3    3    0    0 -0.10456887927E+02 -0.57105624013E+02 -0.66544462069E+02  0.88315141573E+02  0.10000000000E+01 0.  0.
<mgrwt>
<rscale>  0 0.12498878E+03</rscale>
<asrwt>0</asrwt>
<pdfrwt beam="2">  1        4 0.37805963E-01 0.12498878E+03</pdfrwt>
<pdfrwt beam="1">  1       -4 0.24450913E-02 0.12498878E+03</pdfrwt>
<totfact> 0.80697738E+03</totfact>
</mgrwt>
</event>
<event>
 5    1  0.3337119E-002  0.1249995E+03  0.7818608E-02  0.1235070E+00
         -4   -1    0    0    0  501 -0.00000000000E+00  0.00000000000E+00  0.74570398519E+02  0.74581212348E+02  0.12700000000E+01 0. -1.
          4   -1    0    0  501    0  0.00000000000E+00 -0.00000000000E+00 -0.52360655668E+02  0.52376055235E+02  0.12700000000E+01 0. -1.
         25    2    1    2    0    0  0.00000000000E+00  0.00000000000E+00  0.22209742851E+02  0.12695726758E+03  0.12499950046E+03 0.  0.
    9000005    1    3    3    0    0  0.47544573994E+00 -0.51151815116E+02 -0.25352797391E+02  0.57100775598E+02  0.10000000000E+01 0.  0.
    9000005    1    3    3    0    0 -0.47544573994E+00  0.51151815116E+02  0.47562540242E+02  0.69856491986E+02  0.10000000000E+01 0.  0.
<mgrwt>
<rscale>  0 0.12499950E+03</rscale>
<asrwt>0</asrwt>
<pdfrwt beam="2">  1        4 0.80575019E-02 0.12499950E+03</pdfrwt>
<pdfrwt beam="1">  1       -4 0.11474385E-01 0.12499950E+03</pdfrwt>
<totfact> 0.10410192E+04</totfact>
</mgrwt>
</event>
<event>
 5    1  0.3337119E-002  0.1250026E+03  0.7818608E-02  0.1235065E+00
          4   -1    0    0  501    0  0.00000000000E+00  0.00000000000E+00  0.10668322752E+04  0.10668330311E+04  0.12700000000E+01 0.  1.
         -4   -1    0    0    0  501 -0.00000000000E+00 -0.00000000000E+00 -0.35507941607E+01  0.37710793112E+01  0.12700000000E+01 0.  1.
         25    2    1    2    0    0  0.00000000000E+00  0.00000000000E+00  0.10632814810E+04  0.10706041104E+04  0.12500261345E+03 0.  0.
    9000005    1    3    3    0    0 -0.52838468444E+02  0.22930272995E+02  0.73927172226E+03  0.74151289975E+03  0.10000000000E+01 0.  0.
    9000005    1    3    3    0    0  0.52838468444E+02 -0.22930272995E+02  0.32400975876E+03  0.32909121067E+03  0.10000000000E+01 0.  0.
<mgrwt>
<rscale>  0 0.12500261E+03</rscale>
<asrwt>0</asrwt>
<pdfrwt beam="1">  1        4 0.16414503E+00 0.12500261E+03</pdfrwt>
<pdfrwt beam="2">  1       -4 0.56327925E-03 0.12500261E+03</pdfrwt>
<totfact> 0.28358439E+03</totfact>
</mgrwt>
</event>
<event>
 5    1  0.3337119E-002  0.1249998E+03  0.7818608E-02  0.1235070E+00
         -4   -1    0    0    0  501 -0.00000000000E+00  0.00000000000E+00  0.15268280328E+02  0.15321007936E+02  0.12700000000E+01 0. -1.
          4   -1    0    0  501    0  0.00000000000E+00 -0.00000000000E+00 -0.25534490850E+03  0.25534806675E+03  0.12700000000E+01 0. -1.
         25    2    1    2    0    0  0.00000000000E+00  0.00000000000E+00 -0.24007662817E+03  0.27066907469E+03  0.12499984240E+03 0.  0.
    9000005    1    3    3    0    0  0.38946042033E+02  0.48866533865E+02 -0.11849523700E+03  0.13396586697E+03  0.10000000000E+01 0.  0.
    9000005    1    3    3    0    0 -0.38946042033E+02 -0.48866533865E+02 -0.12158139117E+03  0.13670320772E+03  0.10000000000E+01 0.  0.
<mgrwt>
<rscale>  0 0.12499984E+03</rscale>
<asrwt>0</asrwt>
<pdfrwt beam="2">  1        4 0.39288128E-01 0.12499984E+03</pdfrwt>
<pdfrwt beam="1">  1       -4 0.23532653E-02 0.12499984E+03</pdfrwt>
<totfact> 0.79432016E+03</totfact>
</mgrwt>
</event>
<event>
 5    1  0.3337119E-002  0.1249988E+03  0.7818608E-02  0.1235071E+00
         -4   -1    0    0    0  501 -0.00000000000E+00  0.00000000000E+00  0.24405210319E+02  0.24438232152E+02  0.12700000000E+01 0. -1.
          4   -1    0    0  501    0  0.00000000000E+00 -0.00000000000E+00 -0.15991118670E+03  0.15991622973E+03  0.12700000000E+01 0. -1.
         25    2    1    2    0    0  0.00000000000E+00  0.00000000000E+00 -0.13550597638E+03  0.18435446188E+03  0.12499879192E+03 0.  0.
    9000005    1    3    3    0    0  0.12357748946E+02 -0.47412305685E+02 -0.12495994067E+03  0.13422603124E+03  0.10000000000E+01 0.  0.
    9000005    1    3    3    0    0 -0.12357748946E+02  0.47412305685E+02 -0.10546035704E+02  0.50128430640E+02  0.10000000000E+01 0.  0.
<mgrwt>
<rscale>  0 0.12499879E+03</rscale>
<asrwt>0</asrwt>
<pdfrwt beam="2">  1        4 0.24604648E-01 0.12499879E+03</pdfrwt>
<pdfrwt beam="1">  1       -4 0.37575759E-02 0.12499879E+03</pdfrwt>
<totfact> 0.92841520E+03</totfact>
</mgrwt>
</event>
<event>
 5    1  0.3337119E-002  0.1249995E+03  0.7818608E-02  0.1235070E+00
         -4   -1    0    0    0  501 -0.00000000000E+00  0.00000000000E+00  0.10721707674E+02  0.10796662236E+02  0.12700000000E+01 0.  1.
          4   -1    0    0  501    0  0.00000000000E+00 -0.00000000000E+00 -0.36298267283E+03  0.36298489456E+03  0.12700000000E+01 0.  1.
         25    2    1    2    0    0  0.00000000000E+00  0.00000000000E+00 -0.35226096516E+03  0.37378155679E+03  0.12499945850E+03 0.  0.
    9000005    1    3    3    0    0 -0.52523017197E+02  0.33857371955E+02 -0.17470520495E+03  0.18554756158E+03  0.10000000000E+01 0.  0.
    9000005    1    3    3    0    0  0.52523017197E+02 -0.33857371955E+02 -0.17755576021E+03  0.18823399521E+03  0.10000000000E+01 0.  0.
<mgrwt>
<rscale>  0 0.12499946E+03</rscale>
<asrwt>0</asrwt>
<pdfrwt beam="2">  1        4 0.55849415E-01 0.12499946E+03</pdfrwt>
<pdfrwt beam="1">  1       -4 0.16554304E-02 0.12499946E+03</pdfrwt>
<totfact> 0.67185971E+03</totfact>
</mgrwt>
</event>
<event>
 5    1  0.3337119E-002  0.1250012E+03  0.7818608E-02  0.1235067E+00
          4   -1    0    0  501    0  0.00000000000E+00  0.00000000000E+00  0.65589540407E+02  0.65601834661E+02  0.12700000000E+01 0.  1.
         -4   -1    0    0    0  501 -0.00000000000E+00 -0.00000000000E+00 -0.59532449317E+02  0.59545994170E+02  0.12700000000E+01 0.  1.
         25    2    1    2    0    0  0.00000000000E+00  0.00000000000E+00  0.60570910905E+01  0.12514782883E+03  0.12500116283E+03 0.  0.
    9000005    1    3    3    0    0  0.27655989239E+02 -0.49372015188E+02 -0.23514314251E+02  0.61289253538E+02  0.10000000000E+01 0.  0.
    9000005    1    3    3    0    0 -0.27655989239E+02  0.49372015188E+02  0.29571405342E+02  0.63858575292E+02  0.10000000000E+01 0.  0.
<mgrwt>
<rscale>  0 0.12500116E+03</rscale>
<asrwt>0</asrwt>
<pdfrwt beam="1">  1        4 0.10092686E-01 0.12500116E+03</pdfrwt>
<pdfrwt beam="2">  1       -4 0.91608260E-02 0.12500116E+03</pdfrwt>
<totfact> 0.10449378E+04</totfact>
</mgrwt>
</event>
<event>
 5    1  0.3337119E-002  0.1250056E+03  0.7818608E-02  0.1235061E+00
          4   -1    0    0  501    0  0.00000000000E+00  0.00000000000E+00  0.62105458981E+02  0.62118442795E+02  0.12700000000E+01 0. -1.
         -4   -1    0    0    0  501 -0.00000000000E+00 -0.00000000000E+00 -0.62876679410E+02  0.62889504002E+02  0.12700000000E+01 0. -1.
         25    2    1    2    0    0  0.00000000000E+00  0.00000000000E+00 -0.77122042898E+00  0.12500794680E+03  0.12500556780E+03 0.  0.
    9000005    1    3    3    0    0 -0.41817105703E+02 -0.26110863940E+02  0.38022808112E+02  0.62267017608E+02  0.10000000000E+01 0.  0.
    9000005    1    3    3    0    0  0.41817105703E+02  0.26110863940E+02 -0.38794028541E+02  0.62740929189E+02  0.10000000000E+01 0.  0.
<mgrwt>
<rscale>  0 0.12500557E+03</rscale>
<asrwt>0</asrwt>
<pdfrwt beam="1">  1        4 0.95566713E-02 0.12500557E+03</pdfrwt>
<pdfrwt beam="2">  1       -4 0.96753205E-02 0.12500557E+03</pdfrwt>
<totfact> 0.10451375E+04</totfact>
</mgrwt>
</event>
<event>
 5    1  0.3337119E-002  0.1249997E+03  0.7818608E-02  0.1235070E+00
         -4   -1    0    0    0  501 -0.00000000000E+00  0.00000000000E+00  0.33898034256E+02  0.33921816378E+02  0.12700000000E+01 0.  1.
          4   -1    0    0  501    0  0.00000000000E+00 -0.00000000000E+00 -0.11516700578E+03  0.11517400800E+03  0.12700000000E+01 0.  1.
         25    2    1    2    0    0  0.00000000000E+00  0.00000000000E+00 -0.81268971522E+02  0.14909582438E+03  0.12499967646E+03 0.  0.
    9000005    1    3    3    0    0  0.55651896280E+02  0.10391535412E+02 -0.72194734547E+02  0.91750734406E+02  0.10000000000E+01 0.  0.
    9000005    1    3    3    0    0 -0.55651896280E+02 -0.10391535412E+02 -0.90742369750E+01  0.57345089977E+02  0.10000000000E+01 0.  0.
<mgrwt>
<rscale>  0 0.12499968E+03</rscale>
<asrwt>0</asrwt>
<pdfrwt beam="2">  1        4 0.17720369E-01 0.12499968E+03</pdfrwt>
<pdfrwt beam="1">  1       -4 0.52174503E-02 0.12499968E+03</pdfrwt>
<totfact> 0.99484962E+03</totfact>
</mgrwt>
</event>
<event>
 5    1  0.3337119E-002  0.1249871E+03  0.7818608E-02  0.1235089E+00
          4   -1    0    0  501    0  0.00000000000E+00  0.00000000000E+00  0.57620595513E+02  0.57634589678E+02  0.12700000000E+01 0.  1.
         -4   -1    0    0    0  501 -0.00000000000E+00 -0.00000000000E+00 -0.67750408310E+02  0.67762310513E+02  0.12700000000E+01 0.  1.
         25    2    1    2    0    0  0.00000000000E+00  0.00000000000E+00 -0.10129812796E+02  0.12539690019E+03  0.12498707721E+03 0.  0.
    9000005    1    3    3    0    0  0.58322278327E+02 -0.17380408061E+02 -0.19284438917E+02  0.63847132417E+02  0.10000000000E+01 0.  0.
    9000005    1    3    3    0    0 -0.58322278327E+02  0.17380408061E+02  0.91546261208E+01  0.61549767774E+02  0.10000000000E+01 0.  0.
<mgrwt>
<rscale>  0 0.12498708E+03</rscale>
<asrwt>0</asrwt>
<pdfrwt beam="1">  1        4 0.88666990E-02 0.12498708E+03</pdfrwt>
<pdfrwt beam="2">  1       -4 0.10425132E-01 0.12498708E+03</pdfrwt>
<totfact> 0.10447280E+04</totfact>
</mgrwt>
</event>
<event>
 5    1  0.3337119E-002  0.1249756E+03  0.7818608E-02  0.1235107E+00
         -4   -1    0    0    0  501 -0.00000000000E+00  0.00000000000E+00  0.40529471528E+02  0.40549364512E+02  0.12700000000E+01 0.  1.
          4   -1    0    0  501    0  0.00000000000E+00 -0.00000000000E+00 -0.96295176288E+02  0.96303550695E+02  0.12700000000E+01 0.  1.
         25    2    1    2    0    0  0.00000000000E+00  0.00000000000E+00 -0.55765704761E+02  0.13685291521E+03  0.12497562392E+03 0.  0.
    9000005    1    3    3    0    0 -0.59308931767E+02 -0.28456310698E+01 -0.65906598385E+01  0.59750178247E+02  0.10000000000E+01 0.  0.
    9000005    1    3    3    0    0  0.59308931767E+02  0.28456310698E+01 -0.49175044922E+02  0.77102736959E+02  0.10000000000E+01 0.  0.
<mgrwt>
<rscale>  0 0.12497562E+03</rscale>
<asrwt>0</asrwt>
<pdfrwt beam="2">  1        4 0.14816817E-01 0.12497562E+03</pdfrwt>
<pdfrwt beam="1">  1       -4 0.62374778E-02 0.12497562E+03</pdfrwt>
<totfact> 0.10204770E+04</totfact>
</mgrwt>
</event>
<event>
 5    1  0.3337119E-002  0.1249963E+03  0.7818608E-02  0.1235075E+00
         -4   -1    0    0    0  501 -0.00000000000E+00  0.00000000000E+00  0.18182299799E+02  0.18226599408E+02  0.12700000000E+01 0. -1.
          4   -1    0    0  501    0  0.00000000000E+00 -0.00000000000E+00 -0.21451782823E+03  0.21452158756E+03  0.12700000000E+01 0. -1.
         25    2    1    2    0    0  0.00000000000E+00  0.00000000000E+00 -0.19633552843E+03  0.23274818697E+03  0.12499631519E+03 0.  0.
    9000005    1    3    3    0    0  0.44662271727E+02 -0.84834688098E+01 -0.17800418585E+03  0.18372037976E+03  0.10000000000E+01 0.  0.
    9000005    1    3    3    0    0 -0.44662271727E+02  0.84834688098E+01 -0.18331342585E+02  0.49027807210E+02  0.10000000000E+01 0.  0.
<mgrwt>
<rscale>  0 0.12499632E+03</rscale>
<asrwt>0</asrwt>
<pdfrwt beam="2">  1        4 0.33006438E-01 0.12499632E+03</pdfrwt>
<pdfrwt beam="1">  1       -4 0.28009739E-02 0.12499632E+03</pdfrwt>
<totfact> 0.84896368E+03</totfact>
</mgrwt>
</event>
<event>
 5    1  0.3337119E-002  0.1250073E+03  0.7818608E-02  0.1235058E+00
         -4   -1    0    0    0  501 -0.00000000000E+00  0.00000000000E+00  0.48780828925E+01  0.50406936731E+01  0.12700000000E+01 0. -1.
          4   -1    0    0  501    0  0.00000000000E+00 -0.00000000000E+00 -0.78757602616E+03  0.78757705012E+03  0.12700000000E+01 0. -1.
         25    2    1    2    0    0  0.00000000000E+00  0.00000000000E+00 -0.78269794326E+03  0.79261774379E+03  0.12500726934E+03 0.  0.
    9000005    1    3    3    0    0  0.42620255746E+02 -0.20755634439E+02 -0.13313721101E+03  0.14132869318E+03  0.10000000000E+01 0.  0.
    9000005    1    3    3    0    0 -0.42620255746E+02  0.20755634439E+02 -0.64956073226E+03  0.65128905061E+03  0.10000000000E+01 0.  0.
<mgrwt>
<rscale>  0 0.12500727E+03</rscale>
<asrwt>0</asrwt>
<pdfrwt beam="2">  1        4 0.12117803E+00 0.12500727E+03</pdfrwt>
<pdfrwt beam="1">  1       -4 0.76306220E-03 0.12500727E+03</pdfrwt>
<totfact> 0.38590321E+03</totfact>
</mgrwt>
</event>
<event>
 5    1  0.3337119E-002  0.1249993E+03  0.7818608E-02  0.1235070E+00
          4   -1    0    0  501    0  0.00000000000E+00  0.00000000000E+00  0.11132170148E+02  0.11204379153E+02  0.12700000000E+01 0.  1.
         -4   -1    0    0    0  501 -0.00000000000E+00 -0.00000000000E+00 -0.34968596577E+03  0.34968827198E+03  0.12700000000E+01 0.  1.
         25    2    1    2    0    0  0.00000000000E+00  0.00000000000E+00 -0.33855379562E+03  0.36089265113E+03  0.12499933243E+03 0.  0.
    9000005    1    3    3    0    0 -0.33840723538E+00  0.59264329505E+02 -0.22650038630E+03  0.23412774348E+03  0.10000000000E+01 0.  0.
    9000005    1    3    3    0    0  0.33840723538E+00 -0.59264329505E+02 -0.11205340932E+03  0.12676490765E+03  0.10000000000E+01 0.  0.
<mgrwt>
<rscale>  0 0.12499933E+03</rscale>
<asrwt>0</asrwt>
<pdfrwt beam="1">  1        4 0.17183738E-02 0.12499933E+03</pdfrwt>
<pdfrwt beam="2">  1       -4 0.53803564E-01 0.12499933E+03</pdfrwt>
<totfact> 0.68543639E+03</totfact>
</mgrwt>
</event>
<event>
 5    1  0.3337119E-002  0.1249938E+03  0.7818608E-02  0.1235079E+00
          4   -1    0    0  501    0  0.00000000000E+00  0.00000000000E+00  0.40631380234E+02  0.40651223348E+02  0.12700000000E+01 0.  1.
         -4   -1    0    0    0  501 -0.00000000000E+00 -0.00000000000E+00 -0.96081729362E+02  0.96090122371E+02  0.12700000000E+01 0.  1.
         25    2    1    2    0    0  0.00000000000E+00  0.00000000000E+00 -0.55450349129E+02  0.13674134572E+03  0.12499381749E+03 0.  0.
    9000005    1    3    3    0    0  0.16160442782E+02  0.40254297630E+01  0.38164142237E+02  0.41651719632E+02  0.10000000000E+01 0.  0.
    9000005    1    3    3    0    0 -0.16160442782E+02 -0.40254297630E+01 -0.93614491366E+02  0.95089626087E+02  0.10000000000E+01 0.  0.
<mgrwt>
<rscale>  0 0.12499382E+03</rscale>
<asrwt>0</asrwt>
<pdfrwt beam="1">  1        4 0.62531536E-02 0.12499382E+03</pdfrwt>
<pdfrwt beam="2">  1       -4 0.14783976E-01 0.12499382E+03</pdfrwt>
<totfact> 0.10202919E+04</totfact>
</mgrwt>
</event>
<event>
 5    1  0.3337119E-002  0.1250134E+03  0.7818608E-02  0.1235048E+00
          4   -1    0    0  501    0  0.00000000000E+00  0.00000000000E+00  0.20598931818E+02  0.20638044773E+02  0.12700000000E+01 0.  1.
         -4   -1    0    0    0  501 -0.00000000000E+00 -0.00000000000E+00 -0.18945312402E+03  0.18945738070E+03  0.12700000000E+01 0.  1.
         25    2    1    2    0    0  0.00000000000E+00  0.00000000000E+00 -0.16885419220E+03  0.21009542547E+03  0.12501339760E+03 0.  0.
    9000005    1    3    3    0    0  0.61263701997E+02  0.11602150260E+02 -0.91603860049E+02  0.11081569496E+03  0.10000000000E+01 0.  0.
    9000005    1    3    3    0    0 -0.61263701997E+02 -0.11602150260E+02 -0.77250332152E+02  0.99279730513E+02  0.10000000000E+01 0.  0.
<mgrwt>
<rscale>  0 0.12501340E+03</rscale>
<asrwt>0</asrwt>
<pdfrwt beam="1">  1        4 0.31724027E-02 0.12501340E+03</pdfrwt>
<pdfrwt beam="2">  1       -4 0.29149969E-01 0.12501340E+03</pdfrwt>
<totfact> 0.88433809E+03</totfact>
</mgrwt>
</event>
<event>
 5    1  0.3337119E-002  0.1249998E+03  0.7818608E-02  0.1235070E+00
         -4   -1    0    0    0  501 -0.00000000000E+00  0.00000000000E+00  0.12094843825E+03  0.12095510578E+03  0.12700000000E+01 0.  1.
          4   -1    0    0  501    0  0.00000000000E+00 -0.00000000000E+00 -0.32276645533E+02  0.32301621428E+02  0.12700000000E+01 0.  1.
         25    2    1    2    0    0  0.00000000000E+00  0.00000000000E+00  0.88671792713E+02  0.15325672721E+03  0.12499975044E+03 0.  0.
    9000005    1    3    3    0    0  0.58454394229E+02  0.11062763359E+02  0.67789601716E+02  0.90198287338E+02  0.10000000000E+01 0.  0.
    9000005    1    3    3    0    0 -0.58454394229E+02 -0.11062763359E+02  0.20882190997E+02  0.63058439869E+02  0.10000000000E+01 0.  0.
<mgrwt>
<rscale>  0 0.12499975E+03</rscale>
<asrwt>0</asrwt>
<pdfrwt beam="2">  1        4 0.49680719E-02 0.12499975E+03</pdfrwt>
<pdfrwt beam="1">  1       -4 0.18609886E-01 0.12499975E+03</pdfrwt>
<totfact> 0.98658989E+03</totfact>
</mgrwt>
</event>
<event>
 5    1  0.3337119E-002  0.1250004E+03  0.7818608E-02  0.1235069E+00
          4   -1    0    0  501    0  0.00000000000E+00  0.00000000000E+00  0.74705466748E+02  0.74716261028E+02  0.12700000000E+01 0.  1.
         -4   -1    0    0    0  501 -0.00000000000E+00 -0.00000000000E+00 -0.52266707955E+02  0.52282135195E+02  0.12700000000E+01 0.  1.
         25    2    1    2    0    0  0.00000000000E+00  0.00000000000E+00  0.22438758792E+02  0.12699839622E+03  0.12500037899E+03 0.  0.
    9000005    1    3    3    0    0  0.48741337879E+02 -0.83406547302E+01  0.50039932658E+02  0.70358221979E+02  0.10000000000E+01 0.  0.
    9000005    1    3    3    0    0 -0.48741337879E+02  0.83406547302E+01 -0.27601173866E+02  0.56640174244E+02  0.10000000000E+01 0.  0.
<mgrwt>
<rscale>  0 0.12500038E+03</rscale>
<asrwt>0</asrwt>
<pdfrwt beam="1">  1        4 0.11495166E-01 0.12500038E+03</pdfrwt>
<pdfrwt beam="2">  1       -4 0.80430490E-02 0.12500038E+03</pdfrwt>
<totfact> 0.10409091E+04</totfact>
</mgrwt>
</event>
<event>
 5    1  0.3337119E-002  0.1250015E+03  0.7818608E-02  0.1235067E+00
          4   -1    0    0  501    0  0.00000000000E+00  0.00000000000E+00  0.24369650081E+01  0.27480353802E+01  0.12700000000E+01 0.  1.
         -4   -1    0    0    0  501 -0.00000000000E+00 -0.00000000000E+00 -0.15064753276E+04  0.15064758629E+04  0.12700000000E+01 0.  1.
         25    2    1    2    0    0  0.00000000000E+00  0.00000000000E+00 -0.15040383626E+04  0.15092238983E+04  0.12500151623E+03 0.  0.
    9000005    1    3    3    0    0  0.38229538202E+02  0.50661734164E+01 -0.13457407146E+04  0.13462935173E+04  0.10000000000E+01 0.  0.
    9000005    1    3    3    0    0 -0.38229538202E+02 -0.50661734164E+01 -0.15829764796E+03  0.16293038101E+03  0.10000000000E+01 0.  0.
<mgrwt>
<rscale>  0 0.12500152E+03</rscale>
<asrwt>0</asrwt>
<pdfrwt beam="1">  1        4 0.39888857E-03 0.12500152E+03</pdfrwt>
<pdfrwt beam="2">  1       -4 0.23178871E+00 0.12500152E+03</pdfrwt>
<totfact> 0.17749305E+03</totfact>
</mgrwt>
</event>
<event>
 5    1  0.3337119E-002  0.1250015E+03  0.7818608E-02  0.1235067E+00
          4   -1    0    0  501    0  0.00000000000E+00  0.00000000000E+00  0.76143260652E+03  0.76143366564E+03  0.12700000000E+01 0. -1.
         -4   -1    0    0    0  501 -0.00000000000E+00 -0.00000000000E+00 -0.50505792721E+01  0.52078067344E+01  0.12700000000E+01 0. -1.
         25    2    1    2    0    0  0.00000000000E+00  0.00000000000E+00  0.75638202725E+03  0.76664147237E+03  0.12500150408E+03 0.  0.
    9000005    1    3    3    0    0  0.16724049600E+02  0.54539699999E+02  0.22169930061E+03  0.22892324609E+03  0.10000000000E+01 0.  0.
    9000005    1    3    3    0    0 -0.16724049600E+02 -0.54539699999E+02  0.53468272664E+03  0.53771822628E+03  0.10000000000E+01 0.  0.
<mgrwt>
<rscale>  0 0.12500150E+03</rscale>
<asrwt>0</asrwt>
<pdfrwt beam="1">  1        4 0.11715564E+00 0.12500150E+03</pdfrwt>
<pdfrwt beam="2">  1       -4 0.78918816E-03 0.12500150E+03</pdfrwt>
<totfact> 0.39789235E+03</totfact>
</mgrwt>
</event>
<event>
 5    1  0.3337119E-002  0.1250022E+03  0.7818608E-02  0.1235066E+00
         -4   -1    0    0    0  501 -0.00000000000E+00  0.00000000000E+00  0.24079695175E+03  0.24080030082E+03  0.12700000000E+01 0.  1.
          4   -1    0    0  501    0  0.00000000000E+00 -0.00000000000E+00 -0.16194409957E+02  0.16244131675E+02  0.12700000000E+01 0.  1.
         25    2    1    2    0    0  0.00000000000E+00  0.00000000000E+00  0.22460254180E+03  0.25704443249E+03  0.12500215396E+03 0.  0.
    9000005    1    3    3    0    0 -0.52512157090E+02  0.31493611426E+02  0.13798555758E+03  0.15096485785E+03  0.10000000000E+01 0.  0.
    9000005    1    3    3    0    0  0.52512157090E+02 -0.31493611426E+02  0.86616984211E+02  0.10607957464E+03  0.10000000000E+01 0.  0.
<mgrwt>
<rscale>  0 0.12500215E+03</rscale>
<asrwt>0</asrwt>
<pdfrwt beam="2">  1        4 0.24955303E-02 0.12500215E+03</pdfrwt>
<pdfrwt beam="1">  1       -4 0.37049764E-01 0.12500215E+03</pdfrwt>
<totfact> 0.81318732E+03</totfact>
</mgrwt>
</event>
<event>
 5    1  0.3337119E-002  0.1250010E+03  0.7818608E-02  0.1235068E+00
          4   -1    0    0  501    0  0.00000000000E+00  0.00000000000E+00  0.29458495809E+01  0.32079479038E+01  0.12700000000E+01 0. -1.
         -4   -1    0    0    0  501 -0.00000000000E+00 -0.00000000000E+00 -0.12692985017E+04  0.12692991371E+04  0.12700000000E+01 0. -1.
         25    2    1    2    0    0  0.00000000000E+00  0.00000000000E+00 -0.12663526521E+04  0.12725070850E+04  0.12500096692E+03 0.  0.
    9000005    1    3    3    0    0 -0.22759092616E+02 -0.12261943552E+02 -0.12123606106E+04  0.12126366239E+04  0.10000000000E+01 0.  0.
    9000005    1    3    3    0    0  0.22759092616E+02  0.12261943552E+02 -0.53992041537E+02  0.59870461044E+02  0.10000000000E+01 0.  0.
<mgrwt>
<rscale>  0 0.12500097E+03</rscale>
<asrwt>0</asrwt>
<pdfrwt beam="1">  1        4 0.47341892E-03 0.12500097E+03</pdfrwt>
<pdfrwt beam="2">  1       -4 0.19529648E+00 0.12500097E+03</pdfrwt>
<totfact> 0.22886425E+03</totfact>
</mgrwt>
</event>
<event>
 5    1  0.3337119E-002  0.1249997E+03  0.7818608E-02  0.1235070E+00
          4   -1    0    0  501    0  0.00000000000E+00  0.00000000000E+00  0.81519452728E+01  0.82502794941E+01  0.12700000000E+01 0.  1.
         -4   -1    0    0    0  501 -0.00000000000E+00 -0.00000000000E+00 -0.47620613170E+03  0.47620782518E+03  0.12700000000E+01 0.  1.
         25    2    1    2    0    0  0.00000000000E+00  0.00000000000E+00 -0.46805418642E+03  0.48445810468E+03  0.12499973503E+03 0.  0.
    9000005    1    3    3    0    0 -0.57171715155E+02 -0.20255830294E+02 -0.29233372705E+03  0.29856140348E+03  0.10000000000E+01 0.  0.
    9000005    1    3    3    0    0  0.57171715155E+02  0.20255830294E+02 -0.17572045937E+03  0.18589670119E+03  0.10000000000E+01 0.  0.
<mgrwt>
<rscale>  0 0.12499974E+03</rscale>
<asrwt>0</asrwt>
<pdfrwt beam="1">  1        4 0.12618402E-02 0.12499974E+03</pdfrwt>
<pdfrwt beam="2">  1       -4 0.73270155E-01 0.12499974E+03</pdfrwt>
<totfact> 0.57091059E+03</totfact>
</mgrwt>
</event>
<event>
 5    1  0.3337119E-002  0.1249979E+03  0.7818608E-02  0.1235073E+00
          4   -1    0    0  501    0  0.00000000000E+00  0.00000000000E+00  0.41170306561E+02  0.41189890050E+02  0.12700000000E+01 0. -1.
         -4   -1    0    0    0  501 -0.00000000000E+00 -0.00000000000E+00 -0.94830750768E+02  0.94839254485E+02  0.12700000000E+01 0. -1.
         25    2    1    2    0    0  0.00000000000E+00  0.00000000000E+00 -0.53660444207E+02  0.13602914453E+03  0.12499793954E+03 0.  0.
    9000005    1    3    3    0    0 -0.42209346584E+02  0.42985142067E+02 -0.87583768061E+01  0.60885634938E+02  0.10000000000E+01 0.  0.
    9000005    1    3    3    0    0  0.42209346584E+02 -0.42985142067E+02 -0.44902067401E+02  0.75143509596E+02  0.10000000000E+01 0.  0.
<mgrwt>
<rscale>  0 0.12499794E+03</rscale>
<asrwt>0</asrwt>
<pdfrwt beam="1">  1        4 0.63360539E-02 0.12499794E+03</pdfrwt>
<pdfrwt beam="2">  1       -4 0.14591507E-01 0.12499794E+03</pdfrwt>
<totfact> 0.10216899E+04</totfact>
</mgrwt>
</event>
<event>
 5    1  0.3337119E-002  0.1250000E+03  0.7818608E-02  0.1235069E+00
          4   -1    0    0  501    0  0.00000000000E+00  0.00000000000E+00  0.54654548434E+02  0.54669301848E+02  0.12700000000E+01 0.  1.
         -4   -1    0    0    0  501 -0.00000000000E+00 -0.00000000000E+00 -0.71441560775E+02  0.71452848130E+02  0.12700000000E+01 0.  1.
         25    2    1    2    0    0  0.00000000000E+00  0.00000000000E+00 -0.16787012341E+02  0.12612214998E+03  0.12499997173E+03 0.  0.
    9000005    1    3    3    0    0 -0.41747347766E+02  0.33996612238E+02 -0.40405889792E+02  0.67321962383E+02  0.10000000000E+01 0.  0.
    9000005    1    3    3    0    0  0.41747347766E+02 -0.33996612238E+02  0.23618877452E+02  0.58800187595E+02  0.10000000000E+01 0.  0.
<mgrwt>
<rscale>  0 0.12499997E+03</rscale>
<asrwt>0</asrwt>
<pdfrwt beam="1">  1        4 0.84103951E-02 0.12499997E+03</pdfrwt>
<pdfrwt beam="2">  1       -4 0.10993013E-01 0.12499997E+03</pdfrwt>
<totfact> 0.10428289E+04</totfact>
</mgrwt>
</event>
<event>
 5    1  0.3337119E-002  0.1250236E+03  0.7818608E-02  0.1235032E+00
          4   -1    0    0  501    0  0.00000000000E+00  0.00000000000E+00  0.18868355100E+02  0.18911047676E+02  0.12700000000E+01 0. -1.
         -4   -1    0    0    0  501 -0.00000000000E+00 -0.00000000000E+00 -0.20682601427E+03  0.20682991340E+03  0.12700000000E+01 0. -1.
         25    2    1    2    0    0  0.00000000000E+00  0.00000000000E+00 -0.18795765917E+03  0.22574096108E+03  0.12502359725E+03 0.  0.
    9000005    1    3    3    0    0  0.19743226093E+02  0.50288993674E+02 -0.37226299724E+02  0.65616882374E+02  0.10000000000E+01 0.  0.
    9000005    1    3    3    0    0 -0.19743226093E+02 -0.50288993674E+02 -0.15073135944E+03  0.16012407870E+03  0.10000000000E+01 0.  0.
<mgrwt>
<rscale>  0 0.12502360E+03</rscale>
<asrwt>0</asrwt>
<pdfrwt beam="1">  1        4 0.29064080E-02 0.12502360E+03</pdfrwt>
<pdfrwt beam="2">  1       -4 0.31822969E-01 0.12502360E+03</pdfrwt>
<totfact> 0.85922635E+03</totfact>
</mgrwt>
</event>
<event>
 5    1  0.3337119E-002  0.1250007E+03  0.7818608E-02  0.1235068E+00
          4   -1    0    0  501    0  0.00000000000E+00  0.00000000000E+00  0.16476614950E+03  0.16477104394E+03  0.12700000000E+01 0.  1.
         -4   -1    0    0    0  501 -0.00000000000E+00 -0.00000000000E+00 -0.23685842120E+02  0.23719865449E+02  0.12700000000E+01 0.  1.
         25    2    1    2    0    0  0.00000000000E+00  0.00000000000E+00  0.14108030738E+03  0.18849090939E+03  0.12500067916E+03 0.  0.
    9000005    1    3    3    0    0 -0.28777644250E+02  0.55447953126E+02  0.68078902002E+02  0.92403274900E+02  0.10000000000E+01 0.  0.
    9000005    1    3    3    0    0  0.28777644250E+02 -0.55447953126E+02  0.73001405375E+02  0.96087634486E+02  0.10000000000E+01 0.  0.
<mgrwt>
<rscale>  0 0.12500068E+03</rscale>
<asrwt>0</asrwt>
<pdfrwt beam="1">  1        4 0.25351632E-01 0.12500068E+03</pdfrwt>
<pdfrwt beam="2">  1       -4 0.36469694E-02 0.12500068E+03</pdfrwt>
<totfact> 0.92109154E+03</totfact>
</mgrwt>
</event>
<event>
 5    1  0.3337119E-002  0.1250040E+03  0.7818608E-02  0.1235063E+00
          4   -1    0    0  501    0  0.00000000000E+00  0.00000000000E+00  0.11028400929E+03  0.11029132153E+03  0.12700000000E+01 0. -1.
         -4   -1    0    0    0  501 -0.00000000000E+00 -0.00000000000E+00 -0.35402281544E+02  0.35425053825E+02  0.12700000000E+01 0. -1.
         25    2    1    2    0    0  0.00000000000E+00  0.00000000000E+00  0.74881727744E+02  0.14571637535E+03  0.12500395552E+03 0.  0.
    9000005    1    3    3    0    0 -0.40396203091E+02 -0.42931421248E+02  0.13253425305E+02  0.60428581291E+02  0.10000000000E+01 0.  0.
    9000005    1    3    3    0    0  0.40396203091E+02  0.42931421248E+02  0.61628302438E+02  0.85287794062E+02  0.10000000000E+01 0.  0.
<mgrwt>
<rscale>  0 0.12500396E+03</rscale>
<asrwt>0</asrwt>
<pdfrwt beam="1">  1        4 0.16969085E-01 0.12500396E+03</pdfrwt>
<pdfrwt beam="2">  1       -4 0.54488191E-02 0.12500396E+03</pdfrwt>
<totfact> 0.10015562E+04</totfact>
</mgrwt>
</event>
<event>
 5    1  0.3337119E-002  0.1250128E+03  0.7818608E-02  0.1235049E+00
          4   -1    0    0  501    0  0.00000000000E+00  0.00000000000E+00  0.28842102101E+03  0.28842381708E+03  0.12700000000E+01 0.  1.
         -4   -1    0    0    0  501 -0.00000000000E+00 -0.00000000000E+00 -0.13513698093E+02  0.13573243391E+02  0.12700000000E+01 0.  1.
         25    2    1    2    0    0  0.00000000000E+00  0.00000000000E+00  0.27490732291E+03  0.30199706047E+03  0.12501275271E+03 0.  0.
    9000005    1    3    3    0    0 -0.43167787424E+02  0.22377344023E+02  0.23231048364E+03  0.23734650663E+03  0.10000000000E+01 0.  0.
    9000005    1    3    3    0    0  0.43167787424E+02 -0.22377344023E+02  0.42596839268E+02  0.64650553843E+02  0.10000000000E+01 0.  0.
<mgrwt>
<rscale>  0 0.12501275E+03</rscale>
<asrwt>0</asrwt>
<pdfrwt beam="1">  1        4 0.44377257E-01 0.12501275E+03</pdfrwt>
<pdfrwt beam="2">  1       -4 0.20838261E-02 0.12501275E+03</pdfrwt>
<totfact> 0.75327689E+03</totfact>
</mgrwt>
</event>
<event>
 5    1  0.3337119E-002  0.1250009E+03  0.7818608E-02  0.1235068E+00
         -4   -1    0    0    0  501 -0.00000000000E+00  0.00000000000E+00  0.32063316492E+01  0.34486899897E+01  0.12700000000E+01 0.  1.
          4   -1    0    0  501    0  0.00000000000E+00 -0.00000000000E+00 -0.11736993226E+04  0.11737000097E+04  0.12700000000E+01 0.  1.
         25    2    1    2    0    0  0.00000000000E+00  0.00000000000E+00 -0.11704929910E+04  0.11771486997E+04  0.12500087727E+03 0.  0.
    9000005    1    3    3    0    0  0.19203222801E+02  0.12055541477E+02 -0.11336437693E+04  0.11338709342E+04  0.10000000000E+01 0.  0.
    9000005    1    3    3    0    0 -0.19203222801E+02 -0.12055541477E+02 -0.36849221674E+02  0.43277765471E+02  0.10000000000E+01 0.  0.
<mgrwt>
<rscale>  0 0.12500088E+03</rscale>
<asrwt>0</asrwt>
<pdfrwt beam="2">  1        4 0.18058749E+00 0.12500088E+03</pdfrwt>
<pdfrwt beam="1">  1       -4 0.51197853E-03 0.12500088E+03</pdfrwt>
<totfact> 0.25318411E+03</totfact>
</mgrwt>
</event>
<event>
 5    1  0.3337119E-002  0.1249984E+03  0.7818608E-02  0.1235072E+00
         -4   -1    0    0    0  501 -0.00000000000E+00  0.00000000000E+00  0.33399835614E+02  0.33423972222E+02  0.12700000000E+01 0.  1.
          4   -1    0    0  501    0  0.00000000000E+00 -0.00000000000E+00 -0.11688127518E+03  0.11688817471E+03  0.12700000000E+01 0.  1.
         25    2    1    2    0    0  0.00000000000E+00  0.00000000000E+00 -0.83481439568E+02  0.15031214694E+03  0.12499836305E+03 0.  0.
    9000005    1    3    3    0    0 -0.24482891672E+02  0.61609244392E+01 -0.11048175565E+03  0.11333396360E+03  0.10000000000E+01 0.  0.
    9000005    1    3    3    0    0  0.24482891672E+02 -0.61609244392E+01  0.27000316079E+02  0.36978183337E+02  0.10000000000E+01 0.  0.
<mgrwt>
<rscale>  0 0.12499836E+03</rscale>
<asrwt>0</asrwt>
<pdfrwt beam="2">  1        4 0.17984122E-01 0.12499836E+03</pdfrwt>
<pdfrwt beam="1">  1       -4 0.51408237E-02 0.12499836E+03</pdfrwt>
<totfact> 0.99245169E+03</totfact>
</mgrwt>
</event>
<event>
 5    1  0.3337119E-002  0.1250000E+03  0.7818608E-02  0.1235069E+00
         -4   -1    0    0    0  501 -0.00000000000E+00  0.00000000000E+00  0.57875937016E+02  0.57889869454E+02  0.12700000000E+01 0. -1.
          4   -1    0    0  501    0  0.00000000000E+00 -0.00000000000E+00 -0.67465490629E+02  0.67477443089E+02  0.12700000000E+01 0. -1.
         25    2    1    2    0    0  0.00000000000E+00  0.00000000000E+00 -0.95895536134E+01  0.12536731254E+03  0.12500001406E+03 0.  0.
    9000005    1    3    3    0    0  0.46495398859E+02 -0.27297494371E+02  0.26893562137E+02  0.60259762682E+02  0.10000000000E+01 0.  0.
    9000005    1    3    3    0    0 -0.46495398859E+02  0.27297494371E+02 -0.36483115751E+02  0.65107549861E+02  0.10000000000E+01 0.  0.
<mgrwt>
<rscale>  0 0.12500001E+03</rscale>
<asrwt>0</asrwt>
<pdfrwt beam="2">  1        4 0.10381297E-01 0.12500001E+03</pdfrwt>
<pdfrwt beam="1">  1       -4 0.89059814E-02 0.12500001E+03</pdfrwt>
<totfact> 0.10444886E+04</totfact>
</mgrwt>
</event>
<event>
 5    1  0.3337119E-002  0.1249985E+03  0.7818608E-02  0.1235072E+00
         -4   -1    0    0    0  501 -0.00000000000E+00  0.00000000000E+00  0.66998655694E+02  0.67010691421E+02  0.12700000000E+01 0. -1.
          4   -1    0    0  501    0  0.00000000000E+00 -0.00000000000E+00 -0.58277805163E+02  0.58291641550E+02  0.12700000000E+01 0. -1.
         25    2    1    2    0    0  0.00000000000E+00  0.00000000000E+00  0.87208505305E+01  0.12530233297E+03  0.12499848565E+03 0.  0.
    9000005    1    3    3    0    0 -0.13426905784E+02  0.22393413842E+02 -0.52552654010E+02  0.58690103305E+02  0.10000000000E+01 0.  0.
    9000005    1    3    3    0    0  0.13426905784E+02 -0.22393413842E+02  0.61273504541E+02  0.66612229667E+02  0.10000000000E+01 0.  0.
<mgrwt>
<rscale>  0 0.12499849E+03</rscale>
<asrwt>0</asrwt>
<pdfrwt beam="2">  1        4 0.89678064E-02 0.12499849E+03</pdfrwt>
<pdfrwt beam="1">  1       -4 0.10309476E-01 0.12499849E+03</pdfrwt>
<totfact> 0.10446657E+04</totfact>
</mgrwt>
</event>
<event>
 5    1  0.3337119E-002  0.1249952E+03  0.7818608E-02  0.1235077E+00
         -4   -1    0    0    0  501 -0.00000000000E+00  0.00000000000E+00  0.25907574034E+02  0.25938683319E+02  0.12700000000E+01 0. -1.
          4   -1    0    0  501    0  0.00000000000E+00 -0.00000000000E+00 -0.15064046185E+03  0.15064581523E+03  0.12700000000E+01 0. -1.
         25    2    1    2    0    0  0.00000000000E+00  0.00000000000E+00 -0.12473288781E+03  0.17658449854E+03  0.12499516721E+03 0.  0.
    9000005    1    3    3    0    0 -0.57032153270E+02  0.22750614575E+02 -0.45970794590E+02  0.76710957010E+02  0.10000000000E+01 0.  0.
    9000005    1    3    3    0    0  0.57032153270E+02 -0.22750614575E+02 -0.78762093221E+02  0.99873541535E+02  0.10000000000E+01 0.  0.
<mgrwt>
<rscale>  0 0.12499517E+03</rscale>
<asrwt>0</asrwt>
<pdfrwt beam="2">  1        4 0.23178260E-01 0.12499517E+03</pdfrwt>
<pdfrwt beam="1">  1       -4 0.39885855E-02 0.12499517E+03</pdfrwt>
<totfact> 0.94245658E+03</totfact>
</mgrwt>
</event>
<event>
 5    1  0.3337119E-002  0.1250053E+03  0.7818608E-02  0.1235061E+00
          4   -1    0    0  501    0  0.00000000000E+00  0.00000000000E+00  0.66284464411E+03  0.66284586076E+03  0.12700000000E+01 0. -1.
         -4   -1    0    0    0  501 -0.00000000000E+00 -0.00000000000E+00 -0.58240061624E+01  0.59608680391E+01  0.12700000000E+01 0. -1.
         25    2    1    2    0    0  0.00000000000E+00  0.00000000000E+00  0.65702063795E+03  0.66880672880E+03  0.12500528707E+03 0.  0.
    9000005    1    3    3    0    0  0.22513329053E+02 -0.40671179038E+02  0.55197989303E+03  0.55393483109E+03  0.10000000000E+01 0.  0.
    9000005    1    3    3    0    0 -0.22513329053E+02  0.40671179038E+02  0.10504074492E+03  0.11487189771E+03  0.10000000000E+01 0.  0.
<mgrwt>
<rscale>  0 0.12500529E+03</rscale>
<asrwt>0</asrwt>
<pdfrwt beam="1">  1        4 0.10198669E+00 0.12500529E+03</pdfrwt>
<pdfrwt beam="2">  1       -4 0.90662264E-03 0.12500529E+03</pdfrwt>
<totfact> 0.44780087E+03</totfact>
</mgrwt>
</event>
<event>
 5    1  0.3337119E-002  0.1250004E+03  0.7818608E-02  0.1235069E+00
          4   -1    0    0  501    0  0.00000000000E+00  0.00000000000E+00  0.16633783373E+03  0.16634268192E+03  0.12700000000E+01 0.  1.
         -4   -1    0    0    0  501 -0.00000000000E+00 -0.00000000000E+00 -0.23461615322E+02  0.23495963345E+02  0.12700000000E+01 0.  1.
         25    2    1    2    0    0  0.00000000000E+00  0.00000000000E+00  0.14287621841E+03  0.18983864527E+03  0.12500038980E+03 0.  0.
    9000005    1    3    3    0    0  0.11548189376E+02  0.61415794610E+02  0.71616886416E+02  0.95053873806E+02  0.10000000000E+01 0.  0.
    9000005    1    3    3    0    0 -0.11548189376E+02 -0.61415794610E+02  0.71259331989E+02  0.94784771462E+02  0.10000000000E+01 0.  0.
<mgrwt>
<rscale>  0 0.12500039E+03</rscale>
<asrwt>0</asrwt>
<pdfrwt beam="1">  1        4 0.25593451E-01 0.12500039E+03</pdfrwt>
<pdfrwt beam="2">  1       -4 0.36124944E-02 0.12500039E+03</pdfrwt>
<totfact> 0.91874595E+03</totfact>
</mgrwt>
</event>
<event>
 5    1  0.3337119E-002  0.1249967E+03  0.7818608E-02  0.1235074E+00
          4   -1    0    0  501    0  0.00000000000E+00  0.00000000000E+00  0.73619094456E+02  0.73630048000E+02  0.12700000000E+01 0.  1.
         -4   -1    0    0    0  501 -0.00000000000E+00 -0.00000000000E+00 -0.53034968463E+02  0.53050172289E+02  0.12700000000E+01 0.  1.
         25    2    1    2    0    0  0.00000000000E+00  0.00000000000E+00  0.20584125993E+02  0.12668022029E+03  0.12499668783E+03 0.  0.
    9000005    1    3    3    0    0 -0.50731014848E+01  0.18707008678E+02 -0.49916455847E+02  0.53556895883E+02  0.10000000000E+01 0.  0.
    9000005    1    3    3    0    0  0.50731014848E+01 -0.18707008678E+02  0.70500581840E+02  0.73123324406E+02  0.10000000000E+01 0.  0.
<mgrwt>
<rscale>  0 0.12499669E+03</rscale>
<asrwt>0</asrwt>
<pdfrwt beam="1">  1        4 0.11328027E-01 0.12499669E+03</pdfrwt>
<pdfrwt beam="2">  1       -4 0.81612380E-02 0.12499669E+03</pdfrwt>
<totfact> 0.10416880E+04</totfact>
</mgrwt>
</event>
<event>
 5    1  0.3337119E-002  0.1249990E+03  0.7818608E-02  0.1235071E+00
          4   -1    0    0  501    0  0.00000000000E+00  0.00000000000E+00  0.37991569058E+03  0.37991781329E+03  0.12700000000E+01 0. -1.
         -4   -1    0    0    0  501 -0.00000000000E+00 -0.00000000000E+00 -0.10240337873E+02  0.10318789646E+02  0.12700000000E+01 0. -1.
         25    2    1    2    0    0  0.00000000000E+00  0.00000000000E+00  0.36967535271E+03  0.39023660293E+03  0.12499895946E+03 0.  0.
    9000005    1    3    3    0    0  0.11498906631E+02 -0.50091105072E+02  0.73851758720E+02  0.89980141848E+02  0.10000000000E+01 0.  0.
    9000005    1    3    3    0    0 -0.11498906631E+02  0.50091105072E+02  0.29582359399E+03  0.30025646108E+03  0.10000000000E+01 0.  0.
<mgrwt>
<rscale>  0 0.12499896E+03</rscale>
<asrwt>0</asrwt>
<pdfrwt beam="1">  1        4 0.58454768E-01 0.12499896E+03</pdfrwt>
<pdfrwt beam="2">  1       -4 0.15816346E-02 0.12499896E+03</pdfrwt>
<totfact> 0.65515075E+03</totfact>
</mgrwt>
</event>
<event>
 5    1  0.3337119E-002  0.1250520E+03  0.7818608E-02  0.1234988E+00
         -4   -1    0    0    0  501 -0.00000000000E+00  0.00000000000E+00  0.36727521123E+02  0.36749472212E+02  0.12700000000E+01 0. -1.
          4   -1    0    0  501    0  0.00000000000E+00 -0.00000000000E+00 -0.10638846097E+03  0.10639604094E+03  0.12700000000E+01 0. -1.
         25    2    1    2    0    0  0.00000000000E+00  0.00000000000E+00 -0.69660939843E+02  0.14314551315E+03  0.12505195478E+03 0.  0.
    9000005    1    3    3    0    0 -0.29131546580E+02  0.40969400894E+02  0.77137476335E+01  0.50868858040E+02  0.10000000000E+01 0.  0.
    9000005    1    3    3    0    0  0.29131546580E+02 -0.40969400894E+02 -0.77374687477E+02  0.92276655108E+02  0.10000000000E+01 0.  0.
<mgrwt>
<rscale>  0 0.12505195E+03</rscale>
<asrwt>0</asrwt>
<pdfrwt beam="2">  1        4 0.16369727E-01 0.12505195E+03</pdfrwt>
<pdfrwt beam="1">  1       -4 0.56526595E-02 0.12505195E+03</pdfrwt>
<totfact> 0.10057032E+04</totfact>
</mgrwt>
</event>
<event>
 5    1  0.3337119E-002  0.1250002E+03  0.7818608E-02  0.1235069E+00
         -4   -1    0    0    0  501 -0.00000000000E+00  0.00000000000E+00  0.30865841760E+03  0.30866103035E+03  0.12700000000E+01 0. -1.
          4   -1    0    0  501    0  0.00000000000E+00 -0.00000000000E+00 -0.12621079735E+02  0.12684815871E+02  0.12700000000E+01 0. -1.
         25    2    1    2    0    0  0.00000000000E+00  0.00000000000E+00  0.29603733787E+03  0.32134584622E+03  0.12500018989E+03 0.  0.
    9000005    1    3    3    0    0 -0.48272974467E+01  0.61195074244E+02  0.11791527116E+03  0.13294040426E+03  0.10000000000E+01 0.  0.
    9000005    1    3    3    0    0  0.48272974467E+01 -0.61195074244E+02  0.17812206670E+03  0.18840544196E+03  0.10000000000E+01 0.  0.
<mgrwt>
<rscale>  0 0.12500019E+03</rscale>
<asrwt>0</asrwt>
<pdfrwt beam="2">  1        4 0.19468083E-02 0.12500019E+03</pdfrwt>
<pdfrwt beam="1">  1       -4 0.47491014E-01 0.12500019E+03</pdfrwt>
<totfact> 0.72996031E+03</totfact>
</mgrwt>
</event>
<event>
 5    1  0.3337119E-002  0.1250034E+03  0.7818608E-02  0.1235064E+00
         -4   -1    0    0    0  501 -0.00000000000E+00  0.00000000000E+00  0.28718063151E+02  0.28746131064E+02  0.12700000000E+01 0.  1.
          4   -1    0    0  501    0  0.00000000000E+00 -0.00000000000E+00 -0.13593058742E+03  0.13593652010E+03  0.12700000000E+01 0.  1.
         25    2    1    2    0    0  0.00000000000E+00  0.00000000000E+00 -0.10721252427E+03  0.16468265116E+03  0.12500340089E+03 0.  0.
    9000005    1    3    3    0    0  0.48248410998E+02 -0.39463543314E+02 -0.59524735096E+02  0.86194399487E+02  0.10000000000E+01 0.  0.
    9000005    1    3    3    0    0 -0.48248410998E+02  0.39463543314E+02 -0.47687789172E+02  0.78488251674E+02  0.10000000000E+01 0.  0.
<mgrwt>
<rscale>  0 0.12500340E+03</rscale>
<asrwt>0</asrwt>
<pdfrwt beam="2">  1        4 0.20915013E-01 0.12500340E+03</pdfrwt>
<pdfrwt beam="1">  1       -4 0.44207791E-02 0.12500340E+03</pdfrwt>
<totfact> 0.96440158E+03</totfact>
</mgrwt>
</event>
<event>
 5    1  0.3337119E-002  0.1249983E+03  0.7818608E-02  0.1235072E+00
         -4   -1    0    0    0  501 -0.00000000000E+00  0.00000000000E+00  0.16474826064E+01  0.20801680073E+01  0.12700000000E+01 0.  1.
          4   -1    0    0  501    0  0.00000000000E+00 -0.00000000000E+00 -0.20953335460E+04  0.20953339309E+04  0.12700000000E+01 0.  1.
         25    2    1    2    0    0  0.00000000000E+00  0.00000000000E+00 -0.20936860634E+04  0.20974140989E+04  0.12499828062E+03 0.  0.
    9000005    1    3    3    0    0  0.35816274133E+02  0.18579189296E+02 -0.18475544784E+04  0.18479952766E+04  0.10000000000E+01 0.  0.
    9000005    1    3    3    0    0 -0.35816274133E+02 -0.18579189296E+02 -0.24613158504E+03  0.24941882231E+03  0.10000000000E+01 0.  0.
<mgrwt>
<rscale>  0 0.12499828E+03</rscale>
<asrwt>0</asrwt>
<pdfrwt beam="2">  1        4 0.32239044E+00 0.12499828E+03</pdfrwt>
<pdfrwt beam="1">  1       -4 0.28677364E-03 0.12499828E+03</pdfrwt>
<totfact> 0.86433051E+02</totfact>
</mgrwt>
</event>
<event>
 5    1  0.3337119E-002  0.1249999E+03  0.7818608E-02  0.1235069E+00
          4   -1    0    0  501    0  0.00000000000E+00  0.00000000000E+00  0.14391221540E+02  0.14447150494E+02  0.12700000000E+01 0.  1.
         -4   -1    0    0    0  501 -0.00000000000E+00 -0.00000000000E+00 -0.27084865496E+03  0.27085163244E+03  0.12700000000E+01 0.  1.
         25    2    1    2    0    0  0.00000000000E+00  0.00000000000E+00 -0.25645743342E+03  0.28529878294E+03  0.12499992154E+03 0.  0.
    9000005    1    3    3    0    0  0.74676336199E+01 -0.60553905997E+02 -0.97378073591E+02  0.11491749345E+03  0.10000000000E+01 0.  0.
    9000005    1    3    3    0    0 -0.74676336199E+01  0.60553905997E+02 -0.15907935983E+03  0.17038128949E+03  0.10000000000E+01 0.  0.
<mgrwt>
<rscale>  0 0.12499992E+03</rscale>
<asrwt>0</asrwt>
<pdfrwt beam="1">  1        4 0.22185655E-02 0.12499992E+03</pdfrwt>
<pdfrwt beam="2">  1       -4 0.41673551E-01 0.12499992E+03</pdfrwt>
<totfact> 0.77480867E+03</totfact>
</mgrwt>
</event>
<event>
 5    1  0.3337119E-002  0.1249995E+03  0.7818608E-02  0.1235070E+00
         -4   -1    0    0    0  501 -0.00000000000E+00  0.00000000000E+00  0.25908777166E+02  0.25939885008E+02  0.12700000000E+01 0. -1.
          4   -1    0    0  501    0  0.00000000000E+00 -0.00000000000E+00 -0.15064401245E+03  0.15064936571E+03  0.12700000000E+01 0. -1.
         25    2    1    2    0    0  0.00000000000E+00  0.00000000000E+00 -0.12473523529E+03  0.17658925071E+03  0.12499953818E+03 0.  0.
    9000005    1    3    3    0    0  0.20121571656E+01 -0.60083770661E+02 -0.86471475250E+02  0.10532057874E+03  0.10000000000E+01 0.  0.
    9000005    1    3    3    0    0 -0.20121571656E+01  0.60083770661E+02 -0.38263760036E+02  0.71268671977E+02  0.10000000000E+01 0.  0.
<mgrwt>
<rscale>  0 0.12499954E+03</rscale>
<asrwt>0</asrwt>
<pdfrwt beam="2">  1        4 0.23178806E-01 0.12499954E+03</pdfrwt>
<pdfrwt beam="1">  1       -4 0.39887705E-02 0.12499954E+03</pdfrwt>
<totfact> 0.94235553E+03</totfact>
</mgrwt>
</event>
<event>
 5    1  0.3337119E-002  0.1250003E+03  0.7818608E-02  0.1235069E+00
          4   -1    0    0  501    0  0.00000000000E+00  0.00000000000E+00  0.19782291246E+03  0.19782698905E+03  0.12700000000E+01 0.  1.
         -4   -1    0    0    0  501 -0.00000000000E+00 -0.00000000000E+00 -0.19721577801E+02  0.19762427254E+02  0.12700000000E+01 0.  1.
         25    2    1    2    0    0  0.00000000000E+00  0.00000000000E+00  0.17810133466E+03  0.21758941630E+03  0.12500027471E+03 0.  0.
    9000005    1    3    3    0    0  0.22035837516E+02  0.57278139368E+02  0.10956624923E+03  0.12558712655E+03  0.10000000000E+01 0.  0.
    9000005    1    3    3    0    0 -0.22035837516E+02 -0.57278139368E+02  0.68535085431E+02  0.92002289752E+02  0.10000000000E+01 0.  0.
<mgrwt>
<rscale>  0 0.12500027E+03</rscale>
<asrwt>0</asrwt>
<pdfrwt beam="1">  1        4 0.30437750E-01 0.12500027E+03</pdfrwt>
<pdfrwt beam="2">  1       -4 0.30375448E-02 0.12500027E+03</pdfrwt>
<totfact> 0.87250700E+03</totfact>
</mgrwt>
</event>
<event>
 5    1  0.3337119E-002  0.1250000E+03  0.7818608E-02  0.1235069E+00
          4   -1    0    0  501    0  0.00000000000E+00  0.00000000000E+00  0.18194994653E+03  0.18195437873E+03  0.12700000000E+01 0.  1.
         -4   -1    0    0    0  501 -0.00000000000E+00 -0.00000000000E+00 -0.21445328265E+02  0.21482900278E+02  0.12700000000E+01 0.  1.
         25    2    1    2    0    0  0.00000000000E+00  0.00000000000E+00  0.16050461826E+03  0.20343727901E+03  0.12499997604E+03 0.  0.
    9000005    1    3    3    0    0  0.33280481179E+01  0.16246258181E+01 -0.21274556352E+02  0.21617633110E+02  0.10000000000E+01 0.  0.
    9000005    1    3    3    0    0 -0.33280481179E+01 -0.16246258181E+01  0.18177917461E+03  0.18181964590E+03  0.10000000000E+01 0.  0.
<mgrwt>
<rscale>  0 0.12499998E+03</rscale>
<asrwt>0</asrwt>
<pdfrwt beam="1">  1        4 0.27995531E-01 0.12499998E+03</pdfrwt>
<pdfrwt beam="2">  1       -4 0.33025123E-02 0.12499998E+03</pdfrwt>
<totfact> 0.89559049E+03</totfact>
</mgrwt>
</event>
<event>
 5    1  0.3337119E-002  0.1250026E+03  0.7818608E-02  0.1235065E+00
         -4   -1    0    0    0  501 -0.00000000000E+00  0.00000000000E+00  0.84756700143E+01  0.85702906713E+01  0.12700000000E+01 0.  1.
          4   -1    0    0  501    0  0.00000000000E+00 -0.00000000000E+00 -0.45824342630E+03  0.45824518617E+03  0.12700000000E+01 0.  1.
         25    2    1    2    0    0  0.00000000000E+00  0.00000000000E+00 -0.44976775628E+03  0.46681547684E+03  0.12500261927E+03 0.  0.
    9000005    1    3    3    0    0  0.96762800991E+01 -0.59585358428E+02 -0.16450950313E+03  0.17523818635E+03  0.10000000000E+01 0.  0.
    9000005    1    3    3    0    0 -0.96762800991E+01  0.59585358428E+02 -0.28525825315E+03  0.29157729048E+03  0.10000000000E+01 0.  0.
<mgrwt>
<rscale>  0 0.12500262E+03</rscale>
<asrwt>0</asrwt>
<pdfrwt beam="2">  1        4 0.70506383E-01 0.12500262E+03</pdfrwt>
<pdfrwt beam="1">  1       -4 0.13113635E-02 0.12500262E+03</pdfrwt>
<totfact> 0.58530889E+03</totfact>
</mgrwt>
</event>
<event>
 5    1  0.3337119E-002  0.1250035E+03  0.7818608E-02  0.1235064E+00
         -4   -1    0    0    0  501 -0.00000000000E+00  0.00000000000E+00  0.12664181849E+03  0.12664818629E+03  0.12700000000E+01 0.  1.
          4   -1    0    0  501    0  0.00000000000E+00 -0.00000000000E+00 -0.30826389386E+02  0.30852539322E+02  0.12700000000E+01 0.  1.
         25    2    1    2    0    0  0.00000000000E+00  0.00000000000E+00  0.95815429101E+02  0.15750072561E+03  0.12500352840E+03 0.  0.
    9000005    1    3    3    0    0 -0.32567953639E+02  0.30471986248E+01 -0.19185121046E+02  0.37934494767E+02  0.10000000000E+01 0.  0.
    9000005    1    3    3    0    0  0.32567953639E+02 -0.30471986248E+01  0.11500055015E+03  0.11956623084E+03  0.10000000000E+01 0.  0.
<mgrwt>
<rscale>  0 0.12500353E+03</rscale>
<asrwt>0</asrwt>
<pdfrwt beam="2">  1        4 0.47450228E-02 0.12500353E+03</pdfrwt>
<pdfrwt beam="1">  1       -4 0.19485858E-01 0.12500353E+03</pdfrwt>
<totfact> 0.97819040E+03</totfact>
</mgrwt>
</event>
<event>
 5    1  0.3337119E-002  0.1249973E+03  0.7818608E-02  0.1235074E+00
         -4   -1    0    0    0  501 -0.00000000000E+00  0.00000000000E+00  0.99537993401E+02  0.99546095003E+02  0.12700000000E+01 0. -1.
          4   -1    0    0  501    0  0.00000000000E+00 -0.00000000000E+00 -0.39222106179E+02  0.39242661902E+02  0.12700000000E+01 0. -1.
         25    2    1    2    0    0  0.00000000000E+00  0.00000000000E+00  0.60315887222E+02  0.13878875690E+03  0.12499725114E+03 0.  0.
    9000005    1    3    3    0    0  0.50545680608E+02  0.35792269845E+02  0.20926409586E+02  0.65382467275E+02  0.10000000000E+01 0.  0.
    9000005    1    3    3    0    0 -0.50545680608E+02 -0.35792269845E+02  0.39389477636E+02  0.73406289630E+02  0.10000000000E+01 0.  0.
<mgrwt>
<rscale>  0 0.12499725E+03</rscale>
<asrwt>0</asrwt>
<pdfrwt beam="2">  1        4 0.60363746E-02 0.12499725E+03</pdfrwt>
<pdfrwt beam="1">  1       -4 0.15315742E-01 0.12499725E+03</pdfrwt>
<totfact> 0.10159380E+04</totfact>
</mgrwt>
</event>
<event>
 5    1  0.3337119E-002  0.1250024E+03  0.7818608E-02  0.1235066E+00
         -4   -1    0    0    0  501 -0.00000000000E+00  0.00000000000E+00  0.49119556791E+02  0.49135972152E+02  0.12700000000E+01 0. -1.
          4   -1    0    0  501    0  0.00000000000E+00 -0.00000000000E+00 -0.79493622239E+02  0.79503766431E+02  0.12700000000E+01 0. -1.
         25    2    1    2    0    0  0.00000000000E+00  0.00000000000E+00 -0.30374065448E+02  0.12863973858E+03  0.12500239394E+03 0.  0.
    9000005    1    3    3    0    0  0.46491758951E+02 -0.29992367360E+02  0.14716618018E+02  0.57259100553E+02  0.10000000000E+01 0.  0.
    9000005    1    3    3    0    0 -0.46491758951E+02  0.29992367360E+02 -0.45090683465E+02  0.71380638030E+02  0.10000000000E+01 0.  0.
<mgrwt>
<rscale>  0 0.12500239E+03</rscale>
<asrwt>0</asrwt>
<pdfrwt beam="2">  1        4 0.12231831E-01 0.12500239E+03</pdfrwt>
<pdfrwt beam="1">  1       -4 0.75588979E-02 0.12500239E+03</pdfrwt>
<totfact> 0.10373134E+04</totfact>
</mgrwt>
</event>
<event>
 5    1  0.3337119E-002  0.1250015E+03  0.7818608E-02  0.1235067E+00
          4   -1    0    0  501    0  0.00000000000E+00  0.00000000000E+00  0.32298815726E+04  0.32298818222E+04  0.12700000000E+01 0. -1.
         -4   -1    0    0    0  501 -0.00000000000E+00 -0.00000000000E+00 -0.87572135188E+00  0.15426561140E+01  0.12700000000E+01 0. -1.
         25    2    1    2    0    0  0.00000000000E+00  0.00000000000E+00  0.32290058512E+04  0.32314244784E+04  0.12500148877E+03 0.  0.
    9000005    1    3    3    0    0  0.27579888167E+02 -0.50678172136E+02  0.99385298155E+03  0.99552683354E+03  0.10000000000E+01 0.  0.
    9000005    1    3    3    0    0 -0.27579888167E+02  0.50678172136E+02  0.22351528697E+04  0.22358976448E+04  0.10000000000E+01 0.  0.
<mgrwt>
<rscale>  0 0.12500149E+03</rscale>
<asrwt>0</asrwt>
<pdfrwt beam="1">  1        4 0.49695986E+00 0.12500149E+03</pdfrwt>
<pdfrwt beam="2">  1       -4 0.18604686E-03 0.12500149E+03</pdfrwt>
<totfact> 0.10954032E+02</totfact>
</mgrwt>
</event>
<event>
 5    1  0.3337119E-002  0.1250000E+03  0.7818608E-02  0.1235069E+00
         -4   -1    0    0    0  501 -0.00000000000E+00  0.00000000000E+00  0.14486025041E+03  0.14486581739E+03  0.12700000000E+01 0.  1.
          4   -1    0    0  501    0  0.00000000000E+00 -0.00000000000E+00 -0.26944583927E+02  0.26974497271E+02  0.12700000000E+01 0.  1.
         25    2    1    2    0    0  0.00000000000E+00  0.00000000000E+00  0.11791566648E+03  0.17184031466E+03  0.12499995737E+03 0.  0.
    9000005    1    3    3    0    0 -0.41433596778E+02 -0.92457727595E+01  0.12200083796E+03  0.12917984254E+03  0.10000000000E+01 0.  0.
    9000005    1    3    3    0    0  0.41433596778E+02  0.92457727595E+01 -0.40851714759E+01  0.42660472124E+02  0.10000000000E+01 0.  0.
<mgrwt>
<rscale>  0 0.12499996E+03</rscale>
<asrwt>0</asrwt>
<pdfrwt beam="2">  1        4 0.41480498E-02 0.12499996E+03</pdfrwt>
<pdfrwt beam="1">  1       -4 0.22288922E-01 0.12499996E+03</pdfrwt>
<totfact> 0.95106826E+03</totfact>
</mgrwt>
</event>
<event>
 5    1  0.3337119E-002  0.1249964E+03  0.7818608E-02  0.1235075E+00
          4   -1    0    0  501    0  0.00000000000E+00  0.00000000000E+00  0.94200083638E+02  0.94208644281E+02  0.12700000000E+01 0. -1.
         -4   -1    0    0    0  501 -0.00000000000E+00 -0.00000000000E+00 -0.41444992712E+02  0.41464446468E+02  0.12700000000E+01 0. -1.
         25    2    1    2    0    0  0.00000000000E+00  0.00000000000E+00  0.52755090926E+02  0.13567309075E+03  0.12499635169E+03 0.  0.
    9000005    1    3    3    0    0  0.16205820766E+02  0.40488229562E+02  0.74956406796E+02  0.86725937755E+02  0.10000000000E+01 0.  0.
    9000005    1    3    3    0    0 -0.16205820766E+02 -0.40488229562E+02 -0.22201315870E+02  0.48947152994E+02  0.10000000000E+01 0.  0.
<mgrwt>
<rscale>  0 0.12499635E+03</rscale>
<asrwt>0</asrwt>
<pdfrwt beam="1">  1        4 0.14494475E-01 0.12499635E+03</pdfrwt>
<pdfrwt beam="2">  1       -4 0.63783077E-02 0.12499635E+03</pdfrwt>
<totfact> 0.10224744E+04</totfact>
</mgrwt>
</event>
<event>
 5    1  0.3337119E-002  0.1250000E+03  0.7818608E-02  0.1235069E+00
          4   -1    0    0  501    0  0.00000000000E+00  0.00000000000E+00  0.75365476232E+02  0.75376175995E+02  0.12700000000E+01 0.  1.
         -4   -1    0    0    0  501 -0.00000000000E+00 -0.00000000000E+00 -0.51808625044E+02  0.51824188648E+02  0.12700000000E+01 0.  1.
         25    2    1    2    0    0  0.00000000000E+00  0.00000000000E+00  0.23556851188E+02  0.12720036464E+03  0.12500003011E+03 0.  0.
    9000005    1    3    3    0    0  0.46306404761E+02 -0.38844790995E+02 -0.43771496908E+01  0.60608253140E+02  0.10000000000E+01 0.  0.
    9000005    1    3    3    0    0 -0.46306404761E+02  0.38844790995E+02  0.27934000878E+02  0.66592111503E+02  0.10000000000E+01 0.  0.
<mgrwt>
<rscale>  0 0.12500003E+03</rscale>
<asrwt>0</asrwt>
<pdfrwt beam="1">  1        4 0.11596709E-01 0.12500003E+03</pdfrwt>
<pdfrwt beam="2">  1       -4 0.79725779E-02 0.12500003E+03</pdfrwt>
<totfact> 0.10404788E+04</totfact>
</mgrwt>
</event>
<event>
 5    1  0.3337119E-002  0.1250052E+03  0.7818608E-02  0.1235061E+00
          4   -1    0    0  501    0  0.00000000000E+00  0.00000000000E+00  0.24939781603E+02  0.24972096556E+02  0.12700000000E+01 0.  1.
         -4   -1    0    0    0  501 -0.00000000000E+00 -0.00000000000E+00 -0.15650390413E+03  0.15650905695E+03  0.12700000000E+01 0.  1.
         25    2    1    2    0    0  0.00000000000E+00  0.00000000000E+00 -0.13156412252E+03  0.18148115351E+03  0.12500516286E+03 0.  0.
    9000005    1    3    3    0    0  0.52040985631E+02  0.34547862119E+02 -0.62969288205E+02  0.88701466839E+02  0.10000000000E+01 0.  0.
    9000005    1    3    3    0    0 -0.52040985631E+02 -0.34547862119E+02 -0.68594834319E+02  0.92779686666E+02  0.10000000000E+01 0.  0.
<mgrwt>
<rscale>  0 0.12500516E+03</rscale>
<asrwt>0</asrwt>
<pdfrwt beam="1">  1        4 0.38397717E-02 0.12500516E+03</pdfrwt>
<pdfrwt beam="2">  1       -4 0.24080405E-01 0.12500516E+03</pdfrwt>
<totfact> 0.93340264E+03</totfact>
</mgrwt>
</event>
<event>
 5    1  0.3337119E-002  0.1249799E+03  0.7818608E-02  0.1235101E+00
         -4   -1    0    0    0  501 -0.00000000000E+00  0.00000000000E+00  0.13224592741E+02  0.13285433872E+02  0.12700000000E+01 0.  1.
          4   -1    0    0  501    0  0.00000000000E+00 -0.00000000000E+00 -0.29454293295E+03  0.29454567091E+03  0.12700000000E+01 0.  1.
         25    2    1    2    0    0  0.00000000000E+00  0.00000000000E+00 -0.28131834021E+03  0.30783110478E+03  0.12497992052E+03 0.  0.
    9000005    1    3    3    0    0  0.15402231762E+02 -0.59849425548E+02 -0.16334227897E+03  0.17464501877E+03  0.10000000000E+01 0.  0.
    9000005    1    3    3    0    0 -0.15402231762E+02  0.59849425548E+02 -0.11797606125E+03  0.13318608602E+03  0.10000000000E+01 0.  0.
<mgrwt>
<rscale>  0 0.12497992E+03</rscale>
<asrwt>0</asrwt>
<pdfrwt beam="2">  1        4 0.45319183E-01 0.12497992E+03</pdfrwt>
<pdfrwt beam="1">  1       -4 0.20394436E-02 0.12497992E+03</pdfrwt>
<totfact> 0.74660163E+03</totfact>
</mgrwt>
</event>
<event>
 5    1  0.3337119E-002  0.1250005E+03  0.7818608E-02  0.1235069E+00
         -4   -1    0    0    0  501 -0.00000000000E+00  0.00000000000E+00  0.56266255839E+03  0.56266399166E+03  0.12700000000E+01 0.  1.
          4   -1    0    0  501    0  0.00000000000E+00 -0.00000000000E+00 -0.68829531404E+01  0.69991387994E+01  0.12700000000E+01 0.  1.
         25    2    1    2    0    0  0.00000000000E+00  0.00000000000E+00  0.55577960524E+03  0.56966313046E+03  0.12500045038E+03 0.  0.
    9000005    1    3    3    0    0 -0.35396746948E+02 -0.51256964876E+02  0.25507056776E+03  0.26256846855E+03  0.10000000000E+01 0.  0.
    9000005    1    3    3    0    0  0.35396746948E+02  0.51256964876E+02  0.30070903749E+03  0.30709466191E+03  0.10000000000E+01 0.  0.
<mgrwt>
<rscale>  0 0.12500045E+03</rscale>
<asrwt>0</asrwt>
<pdfrwt beam="2">  1        4 0.10679633E-02 0.12500045E+03</pdfrwt>
<pdfrwt beam="1">  1       -4 0.86572529E-01 0.12500045E+03</pdfrwt>
<totfact> 0.50839811E+03</totfact>
</mgrwt>
</event>
<event>
 5    1  0.3337119E-002  0.1249977E+03  0.7818608E-02  0.1235073E+00
         -4   -1    0    0    0  501 -0.00000000000E+00  0.00000000000E+00  0.21597295127E+03  0.21597668527E+03  0.12700000000E+01 0.  1.
          4   -1    0    0  501    0  0.00000000000E+00 -0.00000000000E+00 -0.18059906902E+02  0.18104505995E+02  0.12700000000E+01 0.  1.
         25    2    1    2    0    0  0.00000000000E+00  0.00000000000E+00  0.19791304437E+03  0.23408119127E+03  0.12499772387E+03 0.  0.
    9000005    1    3    3    0    0  0.19627531657E+02  0.58873359567E+02  0.11269176974E+03  0.12865359471E+03  0.10000000000E+01 0.  0.
    9000005    1    3    3    0    0 -0.19627531657E+02 -0.58873359567E+02  0.85221274633E+02  0.10542759656E+03  0.10000000000E+01 0.  0.
<mgrwt>
<rscale>  0 0.12499772E+03</rscale>
<asrwt>0</asrwt>
<pdfrwt beam="2">  1        4 0.27821653E-02 0.12499772E+03</pdfrwt>
<pdfrwt beam="1">  1       -4 0.33230324E-01 0.12499772E+03</pdfrwt>
<totfact> 0.84691141E+03</totfact>
</mgrwt>
</event>
<event>
 5    1  0.3337119E-002  0.1249987E+03  0.7818608E-02  0.1235071E+00
         -4   -1    0    0    0  501 -0.00000000000E+00  0.00000000000E+00  0.90533031862E+01  0.91419471986E+01  0.12700000000E+01 0.  1.
          4   -1    0    0  501    0  0.00000000000E+00 -0.00000000000E+00 -0.42927167648E+03  0.42927355512E+03  0.12700000000E+01 0.  1.
         25    2    1    2    0    0  0.00000000000E+00  0.00000000000E+00 -0.42021837329E+03  0.43841550232E+03  0.12499868568E+03 0.  0.
    9000005    1    3    3    0    0 -0.12176954081E+02 -0.59397201423E+02 -0.26316920583E+03  0.27006543030E+03  0.10000000000E+01 0.  0.
    9000005    1    3    3    0    0  0.12176954081E+02  0.59397201423E+02 -0.15704916747E+03  0.16835007202E+03  0.10000000000E+01 0.  0.
<mgrwt>
<rscale>  0 0.12499869E+03</rscale>
<asrwt>0</asrwt>
<pdfrwt beam="2">  1        4 0.66048744E-01 0.12499869E+03</pdfrwt>
<pdfrwt beam="1">  1       -4 0.13997795E-02 0.12499869E+03</pdfrwt>
<totfact> 0.60982289E+03</totfact>
</mgrwt>
</event>
<event>
 5    1  0.3337119E-002  0.1250093E+03  0.7818608E-02  0.1235055E+00
          4   -1    0    0  501    0  0.00000000000E+00  0.00000000000E+00  0.16910727256E+03  0.16911204136E+03  0.12700000000E+01 0. -1.
         -4   -1    0    0    0  501 -0.00000000000E+00 -0.00000000000E+00 -0.23080128352E+02  0.23115043257E+02  0.12700000000E+01 0. -1.
         25    2    1    2    0    0  0.00000000000E+00  0.00000000000E+00  0.14602714421E+03  0.19222708462E+03  0.12500930051E+03 0.  0.
    9000005    1    3    3    0    0  0.47228760440E+02 -0.40886236284E+02  0.70099566050E+02  0.93899889726E+02  0.10000000000E+01 0.  0.
    9000005    1    3    3    0    0 -0.47228760440E+02  0.40886236284E+02  0.75927578158E+02  0.98327194890E+02  0.10000000000E+01 0.  0.
<mgrwt>
<rscale>  0 0.12500930E+03</rscale>
<asrwt>0</asrwt>
<pdfrwt beam="1">  1        4 0.26019556E-01 0.12500930E+03</pdfrwt>
<pdfrwt beam="2">  1       -4 0.35538416E-02 0.12500930E+03</pdfrwt>
<totfact> 0.91442199E+03</totfact>
</mgrwt>
</event>
<event>
 5    1  0.3337119E-002  0.1249999E+03  0.7818608E-02  0.1235069E+00
         -4   -1    0    0    0  501 -0.00000000000E+00  0.00000000000E+00  0.24145127395E+03  0.24145461394E+03  0.12700000000E+01 0. -1.
          4   -1    0    0  501    0  0.00000000000E+00 -0.00000000000E+00 -0.16149801549E+02  0.16199660184E+02  0.12700000000E+01 0. -1.
         25    2    1    2    0    0  0.00000000000E+00  0.00000000000E+00  0.22530147240E+03  0.25765427412E+03  0.12499988603E+03 0.  0.
    9000005    1    3    3    0    0  0.88537499493E+01  0.13189848817E+02  0.23722993931E+03  0.23776333843E+03  0.10000000000E+01 0.  0.
    9000005    1    3    3    0    0 -0.88537499493E+01 -0.13189848817E+02 -0.11928466903E+02  0.19890935690E+02  0.10000000000E+01 0.  0.
<mgrwt>
<rscale>  0 0.12499989E+03</rscale>
<asrwt>0</asrwt>
<pdfrwt beam="2">  1        4 0.24886773E-02 0.12499989E+03</pdfrwt>
<pdfrwt beam="1">  1       -4 0.37150439E-01 0.12499989E+03</pdfrwt>
<totfact> 0.81236589E+03</totfact>
</mgrwt>
</event>
<event>
 5    1  0.3337119E-002  0.1249997E+03  0.7818608E-02  0.1235070E+00
         -4   -1    0    0    0  501 -0.00000000000E+00  0.00000000000E+00  0.48396304320E+03  0.48396470954E+03  0.12700000000E+01 0.  1.
          4   -1    0    0  501    0  0.00000000000E+00 -0.00000000000E+00 -0.80196880462E+01  0.81196241513E+01  0.12700000000E+01 0.  1.
         25    2    1    2    0    0  0.00000000000E+00  0.00000000000E+00  0.47594335515E+03  0.49208433369E+03  0.12499965661E+03 0.  0.
    9000005    1    3    3    0    0  0.25005726231E+02 -0.23593326726E+02  0.44340847342E+03  0.44474038013E+03  0.10000000000E+01 0.  0.
    9000005    1    3    3    0    0 -0.25005726231E+02  0.23593326726E+02  0.32534881729E+02  0.47343953568E+02  0.10000000000E+01 0.  0.
<mgrwt>
<rscale>  0 0.12499966E+03</rscale>
<asrwt>0</asrwt>
<pdfrwt beam="2">  1        4 0.12416138E-02 0.12499966E+03</pdfrwt>
<pdfrwt beam="1">  1       -4 0.74463664E-01 0.12499966E+03</pdfrwt>
<totfact> 0.56484225E+03</totfact>
</mgrwt>
</event>
<event>
 5    1  0.3337119E-002  0.1250041E+03  0.7818608E-02  0.1235063E+00
         -4   -1    0    0    0  501 -0.00000000000E+00  0.00000000000E+00  0.25321512697E+03  0.25321831179E+03  0.12700000000E+01 0. -1.
          4   -1    0    0  501    0  0.00000000000E+00 -0.00000000000E+00 -0.15398182423E+02  0.15450466722E+02  0.12700000000E+01 0. -1.
         25    2    1    2    0    0  0.00000000000E+00  0.00000000000E+00  0.23781694455E+03  0.26866877852E+03  0.12500405367E+03 0.  0.
    9000005    1    3    3    0    0 -0.53289678395E+02  0.29951917511E+02  0.91001227627E+02  0.10963179564E+03  0.10000000000E+01 0.  0.
    9000005    1    3    3    0    0  0.53289678395E+02 -0.29951917511E+02  0.14681571692E+03  0.15903698287E+03  0.10000000000E+01 0.  0.
<mgrwt>
<rscale>  0 0.12500405E+03</rscale>
<asrwt>0</asrwt>
<pdfrwt beam="2">  1        4 0.23732183E-02 0.12500405E+03</pdfrwt>
<pdfrwt beam="1">  1       -4 0.38960436E-01 0.12500405E+03</pdfrwt>
<totfact> 0.79697520E+03</totfact>
</mgrwt>
</event>
<event>
 5    1  0.3337119E-002  0.1250018E+03  0.7818608E-02  0.1235066E+00
          4   -1    0    0  501    0  0.00000000000E+00  0.00000000000E+00  0.15803838753E+03  0.15804349032E+03  0.12700000000E+01 0. -1.
         -4   -1    0    0    0  501 -0.00000000000E+00 -0.00000000000E+00 -0.24695984143E+02  0.24728617689E+02  0.12700000000E+01 0. -1.
         25    2    1    2    0    0  0.00000000000E+00  0.00000000000E+00  0.13334240338E+03  0.18277210801E+03  0.12500178769E+03 0.  0.
    9000005    1    3    3    0    0 -0.59602370668E+02 -0.14766094869E+02  0.49689937210E+02  0.78997278477E+02  0.10000000000E+01 0.  0.
    9000005    1    3    3    0    0  0.59602370668E+02  0.14766094869E+02  0.83652466174E+02  0.10377482953E+03  0.10000000000E+01 0.  0.
<mgrwt>
<rscale>  0 0.12500179E+03</rscale>
<asrwt>0</asrwt>
<pdfrwt beam="1">  1        4 0.24316501E-01 0.12500179E+03</pdfrwt>
<pdfrwt beam="2">  1       -4 0.38022849E-02 0.12500179E+03</pdfrwt>
<totfact> 0.93116649E+03</totfact>
</mgrwt>
</event>
<event>
 5    1  0.3337119E-002  0.1249862E+03  0.7818608E-02  0.1235091E+00
         -4   -1    0    0    0  501 -0.00000000000E+00  0.00000000000E+00  0.20131438024E+03  0.20131838613E+03  0.12700000000E+01 0. -1.
          4   -1    0    0  501    0  0.00000000000E+00 -0.00000000000E+00 -0.19374464382E+02  0.19416044141E+02  0.12700000000E+01 0. -1.
         25    2    1    2    0    0  0.00000000000E+00  0.00000000000E+00  0.18193991586E+03  0.22073443027E+03  0.12498622213E+03 0.  0.
    9000005    1    3    3    0    0  0.15556410949E+02 -0.75123897541E+01 -0.15081794616E+02  0.22954268672E+02  0.10000000000E+01 0.  0.
    9000005    1    3    3    0    0 -0.15556410949E+02  0.75123897541E+01  0.19702171048E+03  0.19778016159E+03  0.10000000000E+01 0.  0.
<mgrwt>
<rscale>  0 0.12498622E+03</rscale>
<asrwt>0</asrwt>
<pdfrwt beam="2">  1        4 0.29841934E-02 0.12498622E+03</pdfrwt>
<pdfrwt beam="1">  1       -4 0.30974950E-01 0.12498622E+03</pdfrwt>
<totfact> 0.86778970E+03</totfact>
</mgrwt>
</event>
<event>
 5    1  0.3337119E-002  0.1249994E+03  0.7818608E-02  0.1235070E+00
         -4   -1    0    0    0  501 -0.00000000000E+00  0.00000000000E+00  0.10642810353E+04  0.10642817931E+04  0.12700000000E+01 0.  1.
          4   -1    0    0  501    0  0.00000000000E+00 -0.00000000000E+00 -0.35596373999E+01  0.37794071518E+01  0.12700000000E+01 0.  1.
         25    2    1    2    0    0  0.00000000000E+00  0.00000000000E+00  0.10607213979E+04  0.10680612002E+04  0.12499937358E+03 0.  0.
    9000005    1    3    3    0    0 -0.28265409136E+02  0.39002377988E+02  0.87054599654E+03  0.87187811702E+03  0.10000000000E+01 0.  0.
    9000005    1    3    3    0    0  0.28265409136E+02 -0.39002377988E+02  0.19017540140E+03  0.19618308322E+03  0.10000000000E+01 0.  0.
<mgrwt>
<rscale>  0 0.12499937E+03</rscale>
<asrwt>0</asrwt>
<pdfrwt beam="2">  1        4 0.56460048E-03 0.12499937E+03</pdfrwt>
<pdfrwt beam="1">  1       -4 0.16375242E+00 0.12499937E+03</pdfrwt>
<totfact> 0.28437870E+03</totfact>
</mgrwt>
</event>
<event>
 5    1  0.3337119E-002  0.1249966E+03  0.7818608E-02  0.1235075E+00
          4   -1    0    0  501    0  0.00000000000E+00  0.00000000000E+00  0.24689322539E+01  0.27764233240E+01  0.12700000000E+01 0. -1.
         -4   -1    0    0    0  501 -0.00000000000E+00 -0.00000000000E+00 -0.14890233803E+04  0.14890239219E+04  0.12700000000E+01 0. -1.
         25    2    1    2    0    0  0.00000000000E+00  0.00000000000E+00 -0.14865544480E+04  0.14918003452E+04  0.12499657193E+03 0.  0.
    9000005    1    3    3    0    0  0.58470293715E+02  0.17044321896E+01 -0.48088806126E+03  0.48443369804E+03  0.10000000000E+01 0.  0.
    9000005    1    3    3    0    0 -0.58470293715E+02 -0.17044321896E+01 -0.10056663868E+04  0.10073666472E+04  0.10000000000E+01 0.  0.
<mgrwt>
<rscale>  0 0.12499657E+03</rscale>
<asrwt>0</asrwt>
<pdfrwt beam="1">  1        4 0.40353174E-03 0.12499657E+03</pdfrwt>
<pdfrwt beam="2">  1       -4 0.22910354E+00 0.12499657E+03</pdfrwt>
<totfact> 0.18093674E+03</totfact>
</mgrwt>
</event>
<event>
 5    1  0.3337119E-002  0.1249985E+03  0.7818608E-02  0.1235072E+00
          4   -1    0    0  501    0  0.00000000000E+00  0.00000000000E+00  0.47271067394E+03  0.47271237995E+03  0.12700000000E+01 0.  1.
         -4   -1    0    0    0  501 -0.00000000000E+00 -0.00000000000E+00 -0.82127832133E+01  0.83103975903E+01  0.12700000000E+01 0.  1.
         25    2    1    2    0    0  0.00000000000E+00  0.00000000000E+00  0.46449789072E+03  0.48102277754E+03  0.12499848808E+03 0.  0.
    9000005    1    3    3    0    0 -0.24966355803E+02  0.17728014117E+02  0.44188221312E+03  0.44294298919E+03  0.10000000000E+01 0.  0.
    9000005    1    3    3    0    0  0.24966355803E+02 -0.17728014117E+02  0.22615677607E+02  0.38079788343E+02  0.10000000000E+01 0.  0.
<mgrwt>
<rscale>  0 0.12499849E+03</rscale>
<asrwt>0</asrwt>
<pdfrwt beam="1">  1        4 0.72732380E-01 0.12499849E+03</pdfrwt>
<pdfrwt beam="2">  1       -4 0.12711448E-02 0.12499849E+03</pdfrwt>
<totfact> 0.57369322E+03</totfact>
</mgrwt>
</event>
<event>
 5    1  0.3337119E-002  0.1249995E+03  0.7818608E-02  0.1235070E+00
          4   -1    0    0  501    0  0.00000000000E+00  0.00000000000E+00  0.36292093001E+03  0.36292315212E+03  0.12700000000E+01 0.  1.
         -4   -1    0    0    0  501 -0.00000000000E+00 -0.00000000000E+00 -0.10723545479E+02  0.10798487285E+02  0.12700000000E+01 0.  1.
         25    2    1    2    0    0  0.00000000000E+00  0.00000000000E+00  0.35219738453E+03  0.37372163940E+03  0.12499946434E+03 0.  0.
    9000005    1    3    3    0    0  0.54103845055E+02 -0.12528432047E+02  0.26176682590E+03  0.26759495287E+03  0.10000000000E+01 0.  0.
    9000005    1    3    3    0    0 -0.54103845055E+02  0.12528432047E+02  0.90430558631E+02  0.10612668653E+03  0.10000000000E+01 0.  0.
<mgrwt>
<rscale>  0 0.12499946E+03</rscale>
<asrwt>0</asrwt>
<pdfrwt beam="1">  1        4 0.55839915E-01 0.12499946E+03</pdfrwt>
<pdfrwt beam="2">  1       -4 0.16557122E-02 0.12499946E+03</pdfrwt>
<totfact> 0.67192173E+03</totfact>
</mgrwt>
</event>
<event>
 5    1  0.3337119E-002  0.1249855E+03  0.7818608E-02  0.1235092E+00
         -4   -1    0    0    0  501 -0.00000000000E+00  0.00000000000E+00  0.91516660588E+02  0.91525472220E+02  0.12700000000E+01 0.  1.
          4   -1    0    0  501    0  0.00000000000E+00 -0.00000000000E+00 -0.42653279438E+02  0.42672182353E+02  0.12700000000E+01 0.  1.
         25    2    1    2    0    0  0.00000000000E+00  0.00000000000E+00  0.48863381150E+02  0.13419765457E+03  0.12498552106E+03 0.  0.
    9000005    1    3    3    0    0 -0.57974729681E+02 -0.14812166355E+02  0.43754679830E+02  0.74134617829E+02  0.10000000000E+01 0.  0.
    9000005    1    3    3    0    0  0.57974729681E+02  0.14812166355E+02  0.51087013206E+01  0.60063036744E+02  0.10000000000E+01 0.  0.
<mgrwt>
<rscale>  0 0.12498552E+03</rscale>
<asrwt>0</asrwt>
<pdfrwt beam="2">  1        4 0.65641749E-02 0.12498552E+03</pdfrwt>
<pdfrwt beam="1">  1       -4 0.14081618E-01 0.12498552E+03</pdfrwt>
<totfact> 0.10258360E+04</totfact>
</mgrwt>
</event>
<event>
 5    1  0.3337119E-002  0.1249983E+03  0.7818608E-02  0.1235072E+00
          4   -1    0    0  501    0  0.00000000000E+00  0.00000000000E+00  0.29293596956E+02  0.29321113939E+02  0.12700000000E+01 0. -1.
         -4   -1    0    0    0  501 -0.00000000000E+00 -0.00000000000E+00 -0.13325152451E+03  0.13325757646E+03  0.12700000000E+01 0. -1.
         25    2    1    2    0    0  0.00000000000E+00  0.00000000000E+00 -0.10395792755E+03  0.16257869040E+03  0.12499831947E+03 0.  0.
    9000005    1    3    3    0    0 -0.29618510854E+02 -0.21729614077E+02 -0.11773194651E+03  0.12333387021E+03  0.10000000000E+01 0.  0.
    9000005    1    3    3    0    0  0.29618510854E+02  0.21729614077E+02  0.13774018956E+02  0.39244820185E+02  0.10000000000E+01 0.  0.
<mgrwt>
<rscale>  0 0.12499832E+03</rscale>
<asrwt>0</asrwt>
<pdfrwt beam="1">  1        4 0.45092895E-02 0.12499832E+03</pdfrwt>
<pdfrwt beam="2">  1       -4 0.20502816E-01 0.12499832E+03</pdfrwt>
<totfact> 0.96851583E+03</totfact>
</mgrwt>
</event>
<event>
 5    1  0.3337119E-002  0.1249983E+03  0.7818608E-02  0.1235072E+00
          4   -1    0    0  501    0  0.00000000000E+00  0.00000000000E+00  0.54006857267E+02  0.54021787567E+02  0.12700000000E+01 0. -1.
         -4   -1    0    0    0  501 -0.00000000000E+00 -0.00000000000E+00 -0.72296250294E+02  0.72307404231E+02  0.12700000000E+01 0. -1.
         25    2    1    2    0    0  0.00000000000E+00  0.00000000000E+00 -0.18289393027E+02  0.12632919180E+03  0.12499825120E+03 0.  0.
    9000005    1    3    3    0    0 -0.61688278423E+02 -0.89323274866E+01 -0.46350634210E+01  0.62511710759E+02  0.10000000000E+01 0.  0.
    9000005    1    3    3    0    0  0.61688278423E+02  0.89323274866E+01 -0.13654329606E+02  0.63817481038E+02  0.10000000000E+01 0.  0.
<mgrwt>
<rscale>  0 0.12499825E+03</rscale>
<asrwt>0</asrwt>
<pdfrwt beam="1">  1        4 0.83107537E-02 0.12499825E+03</pdfrwt>
<pdfrwt beam="2">  1       -4 0.11124507E-01 0.12499825E+03</pdfrwt>
<totfact> 0.10424167E+04</totfact>
</mgrwt>
</event>
<event>
 5    1  0.3337119E-002  0.1249995E+03  0.7818608E-02  0.1235070E+00
          4   -1    0    0  501    0  0.00000000000E+00  0.00000000000E+00  0.51700146859E+01  0.53237159816E+01  0.12700000000E+01 0. -1.
         -4   -1    0    0    0  501 -0.00000000000E+00 -0.00000000000E+00 -0.74433225882E+03  0.74433334227E+03  0.12700000000E+01 0. -1.
         25    2    1    2    0    0  0.00000000000E+00  0.00000000000E+00 -0.73916224413E+03  0.74965705825E+03  0.12499952735E+03 0.  0.
    9000005    1    3    3    0    0  0.20370089691E+02  0.25078199846E+02 -0.69038588133E+03  0.69114218639E+03  0.10000000000E+01 0.  0.
    9000005    1    3    3    0    0 -0.20370089691E+02 -0.25078199846E+02 -0.48776362803E+02  0.58514871869E+02  0.10000000000E+01 0.  0.
<mgrwt>
<rscale>  0 0.12499953E+03</rscale>
<asrwt>0</asrwt>
<pdfrwt beam="1">  1        4 0.80729398E-03 0.12499953E+03</pdfrwt>
<pdfrwt beam="2">  1       -4 0.11452448E+00 0.12499953E+03</pdfrwt>
<totfact> 0.40590987E+03</totfact>
</mgrwt>
</event>
<event>
 5    1  0.3337119E-002  0.1250002E+03  0.7818608E-02  0.1235069E+00
         -4   -1    0    0    0  501 -0.00000000000E+00  0.00000000000E+00  0.55357831804E+01  0.56795946529E+01  0.12700000000E+01 0. -1.
          4   -1    0    0  501    0  0.00000000000E+00 -0.00000000000E+00 -0.69644630751E+03  0.69644746545E+03  0.12700000000E+01 0. -1.
         25    2    1    2    0    0  0.00000000000E+00  0.00000000000E+00 -0.69091052432E+03  0.70212706011E+03  0.12500022365E+03 0.  0.
    9000005    1    3    3    0    0  0.56567971657E+01  0.18424773006E+02 -0.67936219404E+03  0.67963627206E+03  0.10000000000E+01 0.  0.
    9000005    1    3    3    0    0 -0.56567971657E+01 -0.18424773006E+02 -0.11548330288E+02  0.22490788046E+02  0.10000000000E+01 0.  0.
<mgrwt>
<rscale>  0 0.12500022E+03</rscale>
<asrwt>0</asrwt>
<pdfrwt beam="2">  1        4 0.10715667E+00 0.12500022E+03</pdfrwt>
<pdfrwt beam="1">  1       -4 0.86281100E-03 0.12500022E+03</pdfrwt>
<totfact> 0.42974457E+03</totfact>
</mgrwt>
</event>
<event>
 5    1  0.3337119E-002  0.1249955E+03  0.7818608E-02  0.1235076E+00
         -4   -1    0    0    0  501 -0.00000000000E+00  0.00000000000E+00  0.80375920767E+01  0.81373083014E+01  0.12700000000E+01 0.  1.
          4   -1    0    0  501    0  0.00000000000E+00 -0.00000000000E+00 -0.48286636067E+03  0.48286803080E+03  0.12700000000E+01 0.  1.
         25    2    1    2    0    0  0.00000000000E+00  0.00000000000E+00 -0.47482876860E+03  0.49100533910E+03  0.12499553408E+03 0.  0.
    9000005    1    3    3    0    0  0.35373188487E+02 -0.51304494038E+02 -0.25565288064E+03  0.26314028379E+03  0.10000000000E+01 0.  0.
    9000005    1    3    3    0    0 -0.35373188487E+02  0.51304494038E+02 -0.21917588795E+03  0.22786505531E+03  0.10000000000E+01 0.  0.
<mgrwt>
<rscale>  0 0.12499553E+03</rscale>
<asrwt>0</asrwt>
<pdfrwt beam="2">  1        4 0.74294909E-01 0.12499553E+03</pdfrwt>
<pdfrwt beam="1">  1       -4 0.12443520E-02 0.12499553E+03</pdfrwt>
<totfact> 0.56574624E+03</totfact>
</mgrwt>
</event>
<event>
 5    1  0.3337119E-002  0.1250003E+03  0.7818608E-02  0.1235069E+00
         -4   -1    0    0    0  501 -0.00000000000E+00  0.00000000000E+00  0.24122523735E+03  0.24122858047E+03  0.12700000000E+01 0.  1.
          4   -1    0    0  501    0  0.00000000000E+00 -0.00000000000E+00 -0.16165094938E+02  0.16214906548E+02  0.12700000000E+01 0.  1.
         25    2    1    2    0    0  0.00000000000E+00  0.00000000000E+00  0.22506014242E+03  0.25744348702E+03  0.12500032522E+03 0.  0.
    9000005    1    3    3    0    0 -0.26303634100E+02 -0.51297078711E+02  0.16221581995E+03  0.17215761294E+03  0.10000000000E+01 0.  0.
    9000005    1    3    3    0    0  0.26303634100E+02  0.51297078711E+02  0.62844322461E+02  0.85285874075E+02  0.10000000000E+01 0.  0.
<mgrwt>
<rscale>  0 0.12500033E+03</rscale>
<asrwt>0</asrwt>
<pdfrwt beam="2">  1        4 0.24910266E-02 0.12500033E+03</pdfrwt>
<pdfrwt beam="1">  1       -4 0.37115662E-01 0.12500033E+03</pdfrwt>
<totfact> 0.81265587E+03</totfact>
</mgrwt>
</event>
<event>
 5    1  0.3337119E-002  0.1250111E+03  0.7818608E-02  0.1235052E+00
          4   -1    0    0  501    0  0.00000000000E+00  0.00000000000E+00  0.13767908370E+02  0.13826358917E+02  0.12700000000E+01 0. -1.
         -4   -1    0    0    0  501 -0.00000000000E+00 -0.00000000000E+00 -0.28311059920E+03  0.28311344772E+03  0.12700000000E+01 0. -1.
         25    2    1    2    0    0  0.00000000000E+00  0.00000000000E+00 -0.26934269083E+03  0.29693980664E+03  0.12501105416E+03 0.  0.
    9000005    1    3    3    0    0  0.21457481835E+02 -0.31198428656E+02 -0.25277399682E+03  0.25559628116E+03  0.10000000000E+01 0.  0.
    9000005    1    3    3    0    0 -0.21457481835E+02  0.31198428656E+02 -0.16568694014E+02  0.41343525474E+02  0.10000000000E+01 0.  0.
<mgrwt>
<rscale>  0 0.12501105E+03</rscale>
<asrwt>0</asrwt>
<pdfrwt beam="1">  1        4 0.21228553E-02 0.12501105E+03</pdfrwt>
<pdfrwt beam="2">  1       -4 0.43560188E-01 0.12501105E+03</pdfrwt>
<totfact> 0.75965669E+03</totfact>
</mgrwt>
</event>
<event>
 5    1  0.3337119E-002  0.1250002E+03  0.7818608E-02  0.1235069E+00
         -4   -1    0    0    0  501 -0.00000000000E+00  0.00000000000E+00  0.12400829338E+03  0.12401479640E+03  0.12700000000E+01 0. -1.
          4   -1    0    0  501    0  0.00000000000E+00 -0.00000000000E+00 -0.31479901724E+02  0.31505509242E+02  0.12700000000E+01 0. -1.
         25    2    1    2    0    0  0.00000000000E+00  0.00000000000E+00  0.92528391656E+02  0.15552030565E+03  0.12500024882E+03 0.  0.
    9000005    1    3    3    0    0 -0.49895342900E+02 -0.36242681657E+02  0.33687200942E+02  0.70277341470E+02  0.10000000000E+01 0.  0.
    9000005    1    3    3    0    0  0.49895342900E+02  0.36242681657E+02  0.58841190714E+02  0.85242964175E+02  0.10000000000E+01 0.  0.
<mgrwt>
<rscale>  0 0.12500025E+03</rscale>
<asrwt>0</asrwt>
<pdfrwt beam="2">  1        4 0.48455319E-02 0.12500025E+03</pdfrwt>
<pdfrwt beam="1">  1       -4 0.19080669E-01 0.12500025E+03</pdfrwt>
<totfact> 0.98212904E+03</totfact>
</mgrwt>
</event>
<event>
 5    1  0.3337119E-002  0.1250000E+03  0.7818608E-02  0.1235069E+00
         -4   -1    0    0    0  501 -0.00000000000E+00  0.00000000000E+00  0.57036307854E+02  0.57050445341E+02  0.12700000000E+01 0.  1.
          4   -1    0    0  501    0  0.00000000000E+00 -0.00000000000E+00 -0.68458526686E+02  0.68470305798E+02  0.12700000000E+01 0.  1.
         25    2    1    2    0    0  0.00000000000E+00  0.00000000000E+00 -0.11422218832E+02  0.12552075114E+03  0.12499996753E+03 0.  0.
    9000005    1    3    3    0    0  0.24802324825E+02  0.47475706395E+02 -0.38034501912E+02  0.65701760632E+02  0.10000000000E+01 0.  0.
    9000005    1    3    3    0    0 -0.24802324825E+02 -0.47475706395E+02  0.26612283079E+02  0.59818990506E+02  0.10000000000E+01 0.  0.
<mgrwt>
<rscale>  0 0.12499997E+03</rscale>
<asrwt>0</asrwt>
<pdfrwt beam="2">  1        4 0.10534075E-01 0.12499997E+03</pdfrwt>
<pdfrwt beam="1">  1       -4 0.87768102E-02 0.12499997E+03</pdfrwt>
<totfact> 0.10441503E+04</totfact>
</mgrwt>
</event>
<event>
 5    1  0.3337119E-002  0.1250000E+03  0.7818608E-02  0.1235069E+00
          4   -1    0    0  501    0  0.00000000000E+00  0.00000000000E+00  0.70491147956E+02  0.70502587471E+02  0.12700000000E+01 0.  1.
         -4   -1    0    0    0  501 -0.00000000000E+00 -0.00000000000E+00 -0.55391502070E+02  0.55406059250E+02  0.12700000000E+01 0.  1.
         25    2    1    2    0    0  0.00000000000E+00  0.00000000000E+00  0.15099645885E+02  0.12590864672E+03  0.12499995205E+03 0.  0.
    9000005    1    3    3    0    0  0.31360435213E+02  0.41762156202E+02  0.42116819695E+02  0.67099784565E+02  0.10000000000E+01 0.  0.
    9000005    1    3    3    0    0 -0.31360435213E+02 -0.41762156202E+02 -0.27017173809E+02  0.58808862156E+02  0.10000000000E+01 0.  0.
<mgrwt>
<rscale>  0 0.12499995E+03</rscale>
<asrwt>0</asrwt>
<pdfrwt beam="1">  1        4 0.10846792E-01 0.12499995E+03</pdfrwt>
<pdfrwt beam="2">  1       -4 0.85237693E-02 0.12499995E+03</pdfrwt>
<totfact> 0.10432971E+04</totfact>
</mgrwt>
</event>
<event>
 5    1  0.3337119E-002  0.1250058E+03  0.7818608E-02  0.1235060E+00
         -4   -1    0    0    0  501 -0.00000000000E+00  0.00000000000E+00  0.86132761661E+01  0.87064014560E+01  0.12700000000E+01 0. -1.
          4   -1    0    0  501    0  0.00000000000E+00 -0.00000000000E+00 -0.45102452137E+03  0.45102630941E+03  0.12700000000E+01 0. -1.
         25    2    1    2    0    0  0.00000000000E+00  0.00000000000E+00 -0.44241124521E+03  0.45973271087E+03  0.12500582208E+03 0.  0.
    9000005    1    3    3    0    0 -0.43018472589E+02 -0.14508382284E+02 -0.37915511428E+03  0.38186474415E+03  0.10000000000E+01 0.  0.
    9000005    1    3    3    0    0  0.43018472589E+02  0.14508382284E+02 -0.63256130924E+02  0.77867966712E+02  0.10000000000E+01 0.  0.
<mgrwt>
<rscale>  0 0.12500582E+03</rscale>
<asrwt>0</asrwt>
<pdfrwt beam="2">  1        4 0.69395671E-01 0.12500582E+03</pdfrwt>
<pdfrwt beam="1">  1       -4 0.13324208E-02 0.12500582E+03</pdfrwt>
<totfact> 0.59122256E+03</totfact>
</mgrwt>
</event>
<event>
 5    1  0.3337119E-002  0.1249933E+03  0.7818608E-02  0.1235080E+00
          4   -1    0    0  501    0  0.00000000000E+00  0.00000000000E+00  0.10158652378E+02  0.10237730126E+02  0.12700000000E+01 0. -1.
         -4   -1    0    0    0  501 -0.00000000000E+00 -0.00000000000E+00 -0.38291250842E+03  0.38291461451E+03  0.12700000000E+01 0. -1.
         25    2    1    2    0    0  0.00000000000E+00  0.00000000000E+00 -0.37275385604E+03  0.39315234463E+03  0.12499331541E+03 0.  0.
    9000005    1    3    3    0    0 -0.23073096058E+02 -0.57099463779E+02 -0.21968176380E+03  0.22815300540E+03  0.10000000000E+01 0.  0.
    9000005    1    3    3    0    0  0.23073096058E+02  0.57099463779E+02 -0.15307209224E+03  0.16499933924E+03  0.10000000000E+01 0.  0.
<mgrwt>
<rscale>  0 0.12499332E+03</rscale>
<asrwt>0</asrwt>
<pdfrwt beam="1">  1        4 0.15691148E-02 0.12499332E+03</pdfrwt>
<pdfrwt beam="2">  1       -4 0.58915851E-01 0.12499332E+03</pdfrwt>
<totfact> 0.65233912E+03</totfact>
</mgrwt>
</event>
<event>
 4    1  0.3337119E-002  0.1249081E+03  0.7818608E-02  0.1235213E+00
          4   -1    0    0  501    0  0.00000000000E+00  0.00000000000E+00  0.12216479614E+03  0.12217139729E+03  0.12700000000E+01 0. -1.
         -4   -1    0    0    0  501 -0.00000000000E+00 -0.00000000000E+00 -0.31908168712E+02  0.31933432802E+02  0.12700000000E+01 0. -1.
    9000005    1    1    2    0    0 -0.20851753410E+02  0.29015155236E+02  0.10831288657E+03  0.11405856500E+03  0.10000000000E+01 0.  0.
    9000005    1    1    2    0    0  0.20851753410E+02 -0.29015155236E+02 -0.18056259139E+02  0.40046265092E+02  0.10000000000E+01 0.  0.
<mgrwt>
<rscale>  0 0.12490813E+03</rscale>
<asrwt>0</asrwt>
<pdfrwt beam="1">  1        4 0.18797035E-01 0.12490813E+03</pdfrwt>
<pdfrwt beam="2">  1       -4 0.49114002E-02 0.12490813E+03</pdfrwt>
<totfact> 0.98695322E+03</totfact>
</mgrwt>
</event>
<event>
 5    1  0.3337119E-002  0.1250017E+03  0.7818608E-02  0.1235067E+00
          4   -1    0    0  501    0  0.00000000000E+00  0.00000000000E+00  0.20536219867E+02  0.20575452035E+02  0.12700000000E+01 0.  1.
         -4   -1    0    0    0  501 -0.00000000000E+00 -0.00000000000E+00 -0.18999500771E+03  0.18999925225E+03  0.12700000000E+01 0.  1.
         25    2    1    2    0    0  0.00000000000E+00  0.00000000000E+00 -0.16945878784E+03  0.21057470428E+03  0.12500170121E+03 0.  0.
    9000005    1    3    3    0    0 -0.46523408595E+02 -0.40481941391E+02 -0.10175453640E+03  0.11898823809E+03  0.10000000000E+01 0.  0.
    9000005    1    3    3    0    0  0.46523408595E+02  0.40481941391E+02 -0.67704251443E+02  0.91586466192E+02  0.10000000000E+01 0.  0.
<mgrwt>
<rscale>  0 0.12500170E+03</rscale>
<asrwt>0</asrwt>
<pdfrwt beam="1">  1        4 0.31627629E-02 0.12500170E+03</pdfrwt>
<pdfrwt beam="2">  1       -4 0.29233344E-01 0.12500170E+03</pdfrwt>
<totfact> 0.88378749E+03</totfact>
</mgrwt>
</event>
<event>
 5    1  0.3337119E-002  0.1249989E+03  0.7818608E-02  0.1235071E+00
         -4   -1    0    0    0  501 -0.00000000000E+00  0.00000000000E+00  0.30926123534E+01  0.33432246661E+01  0.12700000000E+01 0.  1.
          4   -1    0    0  501    0  0.00000000000E+00 -0.00000000000E+00 -0.12136326651E+04  0.12136333296E+04  0.12700000000E+01 0.  1.
         25    2    1    2    0    0  0.00000000000E+00  0.00000000000E+00 -0.12105400528E+04  0.12169765543E+04  0.12499885724E+03 0.  0.
    9000005    1    3    3    0    0 -0.88376782884E+01 -0.56077814833E+02 -0.35094996064E+03  0.35551329195E+03  0.10000000000E+01 0.  0.
    9000005    1    3    3    0    0  0.88376782884E+01  0.56077814833E+02 -0.85959009212E+03  0.86146326233E+03  0.10000000000E+01 0.  0.
<mgrwt>
<rscale>  0 0.12499886E+03</rscale>
<asrwt>0</asrwt>
<pdfrwt beam="2">  1        4 0.18673168E+00 0.12499886E+03</pdfrwt>
<pdfrwt beam="1">  1       -4 0.49511647E-03 0.12499886E+03</pdfrwt>
<totfact> 0.24273334E+03</totfact>
</mgrwt>
</event>
<event>
 5    1  0.3337119E-002  0.1250010E+03  0.7818608E-02  0.1235068E+00
          4   -1    0    0  501    0  0.00000000000E+00  0.00000000000E+00  0.52880829969E+02  0.52896078098E+02  0.12700000000E+01 0.  1.
         -4   -1    0    0    0  501 -0.00000000000E+00 -0.00000000000E+00 -0.73838802327E+02  0.73849723284E+02  0.12700000000E+01 0.  1.
         25    2    1    2    0    0  0.00000000000E+00  0.00000000000E+00 -0.20957972359E+02  0.12674580138E+03  0.12500104625E+03 0.  0.
    9000005    1    3    3    0    0 -0.19091965360E+01  0.21964604545E+01  0.52817055394E+02  0.52906623503E+02  0.10000000000E+01 0.  0.
    9000005    1    3    3    0    0  0.19091965360E+01 -0.21964604545E+01 -0.73775027753E+02  0.73839177879E+02  0.10000000000E+01 0.  0.
<mgrwt>
<rscale>  0 0.12500105E+03</rscale>
<asrwt>0</asrwt>
<pdfrwt beam="1">  1        4 0.81375253E-02 0.12500105E+03</pdfrwt>
<pdfrwt beam="2">  1       -4 0.11361829E-01 0.12500105E+03</pdfrwt>
<totfact> 0.10414427E+04</totfact>
</mgrwt>
</event>
<event>
 5    1  0.3337119E-002  0.1250032E+03  0.7818608E-02  0.1235064E+00
         -4   -1    0    0    0  501 -0.00000000000E+00  0.00000000000E+00  0.90046282645E+01  0.90937467626E+01  0.12700000000E+01 0. -1.
          4   -1    0    0  501    0  0.00000000000E+00 -0.00000000000E+00 -0.43160076510E+03  0.43160263361E+03  0.12700000000E+01 0. -1.
         25    2    1    2    0    0  0.00000000000E+00  0.00000000000E+00 -0.42259613684E+03  0.44069638037E+03  0.12500321916E+03 0.  0.
    9000005    1    3    3    0    0 -0.16424596031E+02  0.55622590763E+02 -0.29336010524E+03  0.29903978214E+03  0.10000000000E+01 0.  0.
    9000005    1    3    3    0    0  0.16424596031E+02 -0.55622590763E+02 -0.12923603160E+03  0.14165659823E+03  0.10000000000E+01 0.  0.
<mgrwt>
<rscale>  0 0.12500322E+03</rscale>
<asrwt>0</asrwt>
<pdfrwt beam="2">  1        4 0.66407101E-01 0.12500322E+03</pdfrwt>
<pdfrwt beam="1">  1       -4 0.13923268E-02 0.12500322E+03</pdfrwt>
<totfact> 0.60773949E+03</totfact>
</mgrwt>
</event>
<event>
 5    1  0.3337119E-002  0.1250012E+03  0.7818608E-02  0.1235067E+00
         -4   -1    0    0    0  501 -0.00000000000E+00  0.00000000000E+00  0.58627094022E+03  0.58627231578E+03  0.12700000000E+01 0. -1.
          4   -1    0    0  501    0  0.00000000000E+00 -0.00000000000E+00 -0.66010946054E+01  0.67221536720E+01  0.12700000000E+01 0. -1.
         25    2    1    2    0    0  0.00000000000E+00  0.00000000000E+00  0.57966984562E+03  0.59299446945E+03  0.12500124352E+03 0.  0.
    9000005    1    3    3    0    0 -0.59777125716E+02  0.15280505776E+02  0.24274601923E+03  0.25046642184E+03  0.10000000000E+01 0.  0.
    9000005    1    3    3    0    0  0.59777125716E+02 -0.15280505776E+02  0.33692382639E+03  0.34252804761E+03  0.10000000000E+01 0.  0.
<mgrwt>
<rscale>  0 0.12500124E+03</rscale>
<asrwt>0</asrwt>
<pdfrwt beam="2">  1        4 0.10249711E-02 0.12500124E+03</pdfrwt>
<pdfrwt beam="1">  1       -4 0.90204947E-01 0.12500124E+03</pdfrwt>
<totfact> 0.49311482E+03</totfact>
</mgrwt>
</event>
<event>
 5    1  0.3337119E-002  0.1250009E+03  0.7818608E-02  0.1235068E+00
         -4   -1    0    0    0  501 -0.00000000000E+00  0.00000000000E+00  0.14012137649E+03  0.14012713174E+03  0.12700000000E+01 0.  1.
          4   -1    0    0  501    0  0.00000000000E+00 -0.00000000000E+00 -0.27857210564E+02  0.27886144954E+02  0.12700000000E+01 0.  1.
         25    2    1    2    0    0  0.00000000000E+00  0.00000000000E+00  0.11226416593E+03  0.16801327669E+03  0.12500087277E+03 0.  0.
    9000005    1    3    3    0    0 -0.49134611734E+02 -0.29500410104E+02  0.89621956286E+02  0.10638411214E+03  0.10000000000E+01 0.  0.
    9000005    1    3    3    0    0  0.49134611734E+02  0.29500410104E+02  0.22642209642E+02  0.61629164557E+02  0.10000000000E+01 0.  0.
<mgrwt>
<rscale>  0 0.12500087E+03</rscale>
<asrwt>0</asrwt>
<pdfrwt beam="2">  1        4 0.42883931E-02 0.12500087E+03</pdfrwt>
<pdfrwt beam="1">  1       -4 0.21559803E-01 0.12500087E+03</pdfrwt>
<totfact> 0.95817871E+03</totfact>
</mgrwt>
</event>
<event>
 5    1  0.3337119E-002  0.1249989E+03  0.7818608E-02  0.1235071E+00
          4   -1    0    0  501    0  0.00000000000E+00  0.00000000000E+00  0.82656713415E+02  0.82666469457E+02  0.12700000000E+01 0.  1.
         -4   -1    0    0    0  501 -0.00000000000E+00 -0.00000000000E+00 -0.47236838875E+02  0.47253908271E+02  0.12700000000E+01 0.  1.
         25    2    1    2    0    0  0.00000000000E+00  0.00000000000E+00  0.35419874540E+02  0.12992037773E+03  0.12499894814E+03 0.  0.
    9000005    1    3    3    0    0 -0.31033537963E+01  0.21606676027E+02 -0.43150627309E+02  0.48367922127E+02  0.10000000000E+01 0.  0.
    9000005    1    3    3    0    0  0.31033537963E+01 -0.21606676027E+02  0.78570501849E+02  0.81552455601E+02  0.10000000000E+01 0.  0.
<mgrwt>
<rscale>  0 0.12499895E+03</rscale>
<asrwt>0</asrwt>
<pdfrwt beam="1">  1        4 0.12718481E-01 0.12499895E+03</pdfrwt>
<pdfrwt beam="2">  1       -4 0.72692695E-02 0.12499895E+03</pdfrwt>
<totfact> 0.10346457E+04</totfact>
</mgrwt>
</event>
<event>
 5    1  0.3337119E-002  0.1249866E+03  0.7818608E-02  0.1235090E+00
          4   -1    0    0  501    0  0.00000000000E+00  0.00000000000E+00  0.86810957291E+02  0.86820246520E+02  0.12700000000E+01 0.  1.
         -4   -1    0    0    0  501 -0.00000000000E+00 -0.00000000000E+00 -0.44966918798E+02  0.44984849518E+02  0.12700000000E+01 0.  1.
         25    2    1    2    0    0  0.00000000000E+00  0.00000000000E+00  0.41844038493E+02  0.13180509604E+03  0.12498663842E+03 0.  0.
    9000005    1    3    3    0    0 -0.46649314209E+02 -0.41561914739E+02  0.19941980369E+02  0.65591416008E+02  0.10000000000E+01 0.  0.
    9000005    1    3    3    0    0  0.46649314209E+02  0.41561914739E+02  0.21902058125E+02  0.66213680030E+02  0.10000000000E+01 0.  0.
<mgrwt>
<rscale>  0 0.12498664E+03</rscale>
<asrwt>0</asrwt>
<pdfrwt beam="1">  1        4 0.13357626E-01 0.12498664E+03</pdfrwt>
<pdfrwt beam="2">  1       -4 0.69200814E-02 0.12498664E+03</pdfrwt>
<totfact> 0.10308967E+04</totfact>
</mgrwt>
</event>
<event>
 5    1  0.3337119E-002  0.1250050E+03  0.7818608E-02  0.1235061E+00
          4   -1    0    0  501    0  0.00000000000E+00  0.00000000000E+00  0.25071026771E+02  0.25103172774E+02  0.12700000000E+01 0. -1.
         -4   -1    0    0    0  501 -0.00000000000E+00 -0.00000000000E+00 -0.15568531024E+03  0.15569049016E+03  0.12700000000E+01 0. -1.
         25    2    1    2    0    0  0.00000000000E+00  0.00000000000E+00 -0.13061428347E+03  0.18079366293E+03  0.12500502994E+03 0.  0.
    9000005    1    3    3    0    0 -0.92283805011E+00  0.35913592676E+00 -0.15568105492E+03  0.15568741590E+03  0.10000000000E+01 0.  0.
    9000005    1    3    3    0    0  0.92283805011E+00 -0.35913592676E+00  0.25066771453E+02  0.25106247026E+02  0.10000000000E+01 0.  0.
<mgrwt>
<rscale>  0 0.12500503E+03</rscale>
<asrwt>0</asrwt>
<pdfrwt beam="1">  1        4 0.38599524E-02 0.12500503E+03</pdfrwt>
<pdfrwt beam="2">  1       -4 0.23954457E-01 0.12500503E+03</pdfrwt>
<totfact> 0.93463796E+03</totfact>
</mgrwt>
</event>
<event>
 5    1  0.3337119E-002  0.1250005E+03  0.7818608E-02  0.1235069E+00
         -4   -1    0    0    0  501 -0.00000000000E+00  0.00000000000E+00  0.58837266653E+03  0.58837403717E+03  0.12700000000E+01 0.  1.
          4   -1    0    0  501    0  0.00000000000E+00 -0.00000000000E+00 -0.65769985872E+01  0.66984931452E+01  0.12700000000E+01 0.  1.
         25    2    1    2    0    0  0.00000000000E+00  0.00000000000E+00  0.58179566794E+03  0.59507253032E+03  0.12500046841E+03 0.  0.
    9000005    1    3    3    0    0 -0.27036913691E+02 -0.56108084397E+02  0.26654559634E+03  0.27372735845E+03  0.10000000000E+01 0.  0.
    9000005    1    3    3    0    0  0.27036913691E+02  0.56108084397E+02  0.31525007160E+03  0.32134517186E+03  0.10000000000E+01 0.  0.
<mgrwt>
<rscale>  0 0.12500047E+03</rscale>
<asrwt>0</asrwt>
<pdfrwt beam="2">  1        4 0.10212969E-02 0.12500047E+03</pdfrwt>
<pdfrwt beam="1">  1       -4 0.90528345E-01 0.12500047E+03</pdfrwt>
<totfact> 0.49179616E+03</totfact>
</mgrwt>
</event>
<event>
 5    1  0.3337119E-002  0.1249971E+03  0.7818608E-02  0.1235074E+00
         -4   -1    0    0    0  501 -0.00000000000E+00  0.00000000000E+00  0.27801721081E+01  0.30565105841E+01  0.12700000000E+01 0. -1.
          4   -1    0    0  501    0  0.00000000000E+00 -0.00000000000E+00 -0.13381779825E+04  0.13381785852E+04  0.12700000000E+01 0. -1.
         25    2    1    2    0    0  0.00000000000E+00  0.00000000000E+00 -0.13353978104E+04  0.13412350957E+04  0.12499708006E+03 0.  0.
    9000005    1    3    3    0    0 -0.31940916673E+02  0.51002934843E+02 -0.48701611348E+03  0.49072111867E+03  0.10000000000E+01 0.  0.
    9000005    1    3    3    0    0  0.31940916673E+02 -0.51002934843E+02 -0.84838169692E+03  0.85051397707E+03  0.10000000000E+01 0.  0.
<mgrwt>
<rscale>  0 0.12499708E+03</rscale>
<asrwt>0</asrwt>
<pdfrwt beam="2">  1        4 0.20589435E+00 0.12499708E+03</pdfrwt>
<pdfrwt beam="1">  1       -4 0.44902302E-03 0.12499708E+03</pdfrwt>
<totfact> 0.21277128E+03</totfact>
</mgrwt>
</event>
<event>
 5    1  0.3337119E-002  0.1250070E+03  0.7818608E-02  0.1235058E+00
          4   -1    0    0  501    0  0.00000000000E+00  0.00000000000E+00  0.21180045037E+04  0.21180048845E+04  0.12700000000E+01 0. -1.
         -4   -1    0    0    0  501 -0.00000000000E+00 -0.00000000000E+00 -0.16254791759E+01  0.20627851442E+01  0.12700000000E+01 0. -1.
         25    2    1    2    0    0  0.00000000000E+00  0.00000000000E+00  0.21163790245E+04  0.21200676696E+04  0.12500699281E+03 0.  0.
    9000005    1    3    3    0    0 -0.58358938261E+02 -0.14702365181E+02  0.13438777867E+04  0.13452250484E+04  0.10000000000E+01 0.  0.
    9000005    1    3    3    0    0  0.58358938261E+02  0.14702365181E+02  0.77250123781E+03  0.77484262120E+03  0.10000000000E+01 0.  0.
<mgrwt>
<rscale>  0 0.12500699E+03</rscale>
<asrwt>0</asrwt>
<pdfrwt beam="1">  1        4 0.32588188E+00 0.12500699E+03</pdfrwt>
<pdfrwt beam="2">  1       -4 0.28374074E-03 0.12500699E+03</pdfrwt>
<totfact> 0.83729855E+02</totfact>
</mgrwt>
</event>
<event>
 5    1  0.3337119E-002  0.1250313E+03  0.7818608E-02  0.1235020E+00
          4   -1    0    0  501    0  0.00000000000E+00  0.00000000000E+00  0.42211565341E+02  0.42230665974E+02  0.12700000000E+01 0.  1.
         -4   -1    0    0    0  501 -0.00000000000E+00 -0.00000000000E+00 -0.92541797251E+02  0.92550511281E+02  0.12700000000E+01 0.  1.
         25    2    1    2    0    0  0.00000000000E+00  0.00000000000E+00 -0.50330231910E+02  0.13478117725E+03  0.12503133007E+03 0.  0.
    9000005    1    3    3    0    0 -0.27369824320E+02 -0.42986051180E+02 -0.64185887008E+02  0.81961795797E+02  0.10000000000E+01 0.  0.
    9000005    1    3    3    0    0  0.27369824320E+02  0.42986051180E+02  0.13855655098E+02  0.52819381458E+02  0.10000000000E+01 0.  0.
<mgrwt>
<rscale>  0 0.12503133E+03</rscale>
<asrwt>0</asrwt>
<pdfrwt beam="1">  1        4 0.64962266E-02 0.12503133E+03</pdfrwt>
<pdfrwt beam="2">  1       -4 0.14239339E-01 0.12503133E+03</pdfrwt>
<totfact> 0.10235451E+04</totfact>
</mgrwt>
</event>
<event>
 5    1  0.3337119E-002  0.1249947E+03  0.7818608E-02  0.1235078E+00
         -4   -1    0    0    0  501 -0.00000000000E+00  0.00000000000E+00  0.13996015879E+02  0.14053517726E+02  0.12700000000E+01 0. -1.
          4   -1    0    0  501    0  0.00000000000E+00 -0.00000000000E+00 -0.27844237524E+03  0.27844527152E+03  0.12700000000E+01 0. -1.
         25    2    1    2    0    0  0.00000000000E+00  0.00000000000E+00 -0.26444635937E+03  0.29249878925E+03  0.12499465880E+03 0.  0.
    9000005    1    3    3    0    0  0.32601401286E+02 -0.28367730074E+02 -0.23784752311E+03  0.24174371496E+03  0.10000000000E+01 0.  0.
    9000005    1    3    3    0    0 -0.32601401286E+02  0.28367730074E+02 -0.26598836259E+02  0.50755074285E+02  0.10000000000E+01 0.  0.
<mgrwt>
<rscale>  0 0.12499466E+03</rscale>
<asrwt>0</asrwt>
<pdfrwt beam="2">  1        4 0.42841930E-01 0.12499466E+03</pdfrwt>
<pdfrwt beam="1">  1       -4 0.21578794E-02 0.12499466E+03</pdfrwt>
<totfact> 0.76558598E+03</totfact>
</mgrwt>
</event>
<event>
 5    1  0.3337119E-002  0.1249975E+03  0.7818608E-02  0.1235073E+00
          4   -1    0    0  501    0  0.00000000000E+00  0.00000000000E+00  0.40375656790E+02  0.40395625521E+02  0.12700000000E+01 0. -1.
         -4   -1    0    0    0  501 -0.00000000000E+00 -0.00000000000E+00 -0.96695702469E+02  0.96704042191E+02  0.12700000000E+01 0. -1.
         25    2    1    2    0    0  0.00000000000E+00  0.00000000000E+00 -0.56320045679E+02  0.13709966771E+03  0.12499748534E+03 0.  0.
    9000005    1    3    3    0    0 -0.55644798880E+01 -0.28830030631E+02  0.32343847604E+02  0.43695063570E+02  0.10000000000E+01 0.  0.
    9000005    1    3    3    0    0  0.55644798880E+01  0.28830030631E+02 -0.88663893283E+02  0.93404604141E+02  0.10000000000E+01 0.  0.
<mgrwt>
<rscale>  0 0.12499749E+03</rscale>
<asrwt>0</asrwt>
<pdfrwt beam="1">  1        4 0.62138171E-02 0.12499749E+03</pdfrwt>
<pdfrwt beam="2">  1       -4 0.14878439E-01 0.12499749E+03</pdfrwt>
<totfact> 0.10194580E+04</totfact>
</mgrwt>
</event>
<event>
 5    1  0.3337119E-002  0.1250038E+03  0.7818608E-02  0.1235063E+00
          4   -1    0    0  501    0  0.00000000000E+00  0.00000000000E+00  0.52594721832E+03  0.52594875165E+03  0.12700000000E+01 0.  1.
         -4   -1    0    0    0  501 -0.00000000000E+00 -0.00000000000E+00 -0.73716806542E+01  0.74802791170E+01  0.12700000000E+01 0.  1.
         25    2    1    2    0    0  0.00000000000E+00  0.00000000000E+00  0.51857553767E+03  0.53342903076E+03  0.12500377033E+03 0.  0.
    9000005    1    3    3    0    0  0.36700072325E+01 -0.48583816544E+02  0.92282415847E+02  0.10435947709E+03  0.10000000000E+01 0.  0.
    9000005    1    3    3    0    0 -0.36700072325E+01  0.48583816544E+02  0.42629312182E+03  0.42906955368E+03  0.10000000000E+01 0.  0.
<mgrwt>
<rscale>  0 0.12500377E+03</rscale>
<asrwt>0</asrwt>
<pdfrwt beam="1">  1        4 0.80923431E-01 0.12500377E+03</pdfrwt>
<pdfrwt beam="2">  1       -4 0.11425764E-02 0.12500377E+03</pdfrwt>
<totfact> 0.53356450E+03</totfact>
</mgrwt>
</event>
<event>
 5    1  0.3337119E-002  0.1249987E+03  0.7818608E-02  0.1235071E+00
         -4   -1    0    0    0  501 -0.00000000000E+00  0.00000000000E+00  0.17049476378E+02  0.17096711519E+02  0.12700000000E+01 0.  1.
          4   -1    0    0  501    0  0.00000000000E+00 -0.00000000000E+00 -0.22874205726E+03  0.22874558282E+03  0.12700000000E+01 0.  1.
         25    2    1    2    0    0  0.00000000000E+00  0.00000000000E+00 -0.21169258089E+03  0.24584229434E+03  0.12499873953E+03 0.  0.
    9000005    1    3    3    0    0 -0.26884635038E+02 -0.13207689755E+02 -0.21371261474E+03  0.21580386551E+03  0.10000000000E+01 0.  0.
    9000005    1    3    3    0    0  0.26884635038E+02  0.13207689755E+02  0.20200338564E+01  0.30038428830E+02  0.10000000000E+01 0.  0.
<mgrwt>
<rscale>  0 0.12499874E+03</rscale>
<asrwt>0</asrwt>
<pdfrwt beam="2">  1        4 0.35194988E-01 0.12499874E+03</pdfrwt>
<pdfrwt beam="1">  1       -4 0.26269012E-02 0.12499874E+03</pdfrwt>
<totfact> 0.82937214E+03</totfact>
</mgrwt>
</event>
<event>
 5    1  0.3337119E-002  0.1249933E+03  0.7818608E-02  0.1235080E+00
         -4   -1    0    0    0  501 -0.00000000000E+00  0.00000000000E+00  0.45633465969E+02  0.45651134885E+02  0.12700000000E+01 0.  1.
          4   -1    0    0  501    0  0.00000000000E+00 -0.00000000000E+00 -0.85552468335E+02  0.85561894195E+02  0.12700000000E+01 0.  1.
         25    2    1    2    0    0  0.00000000000E+00  0.00000000000E+00 -0.39919002367E+02  0.13121302908E+03  0.12499332882E+03 0.  0.
    9000005    1    3    3    0    0 -0.39146764144E+02  0.86020799084E+01 -0.70286371480E+02  0.80917482274E+02  0.10000000000E+01 0.  0.
    9000005    1    3    3    0    0  0.39146764144E+02 -0.86020799084E+01  0.30367369113E+02  0.50295546807E+02  0.10000000000E+01 0.  0.
<mgrwt>
<rscale>  0 0.12499333E+03</rscale>
<asrwt>0</asrwt>
<pdfrwt beam="2">  1        4 0.13164002E-01 0.12499333E+03</pdfrwt>
<pdfrwt beam="1">  1       -4 0.70226174E-02 0.12499333E+03</pdfrwt>
<totfact> 0.10320078E+04</totfact>
</mgrwt>
</event>
<event>
 5    1  0.3337119E-002  0.1249941E+03  0.7818608E-02  0.1235078E+00
          4   -1    0    0  501    0  0.00000000000E+00  0.00000000000E+00  0.20121583868E+02  0.20161622885E+02  0.12700000000E+01 0. -1.
         -4   -1    0    0    0  501 -0.00000000000E+00 -0.00000000000E+00 -0.19387901307E+03  0.19388317258E+03  0.12700000000E+01 0. -1.
         25    2    1    2    0    0  0.00000000000E+00  0.00000000000E+00 -0.17375742920E+03  0.21404479546E+03  0.12499412091E+03 0.  0.
    9000005    1    3    3    0    0  0.47375851028E+02  0.37489316449E+02 -0.11422215792E+03  0.12921927669E+03  0.10000000000E+01 0.  0.
    9000005    1    3    3    0    0 -0.47375851028E+02 -0.37489316449E+02 -0.59535271278E+02  0.84825518769E+02  0.10000000000E+01 0.  0.
<mgrwt>
<rscale>  0 0.12499412E+03</rscale>
<asrwt>0</asrwt>
<pdfrwt beam="1">  1        4 0.30990283E-02 0.12499412E+03</pdfrwt>
<pdfrwt beam="2">  1       -4 0.29830939E-01 0.12499412E+03</pdfrwt>
<totfact> 0.87831084E+03</totfact>
</mgrwt>
</event>
<event>
 5    1  0.3337119E-002  0.1250036E+03  0.7818608E-02  0.1235064E+00
         -4   -1    0    0    0  501 -0.00000000000E+00  0.00000000000E+00  0.63800910733E+02  0.63813549583E+02  0.12700000000E+01 0. -1.
          4   -1    0    0  501    0  0.00000000000E+00 -0.00000000000E+00 -0.61203884568E+02  0.61217059601E+02  0.12700000000E+01 0. -1.
         25    2    1    2    0    0  0.00000000000E+00  0.00000000000E+00  0.25970261655E+01  0.12503060918E+03  0.12500363470E+03 0.  0.
    9000005    1    3    3    0    0  0.42697378322E+02  0.60396141602E+01  0.46540276920E+02  0.63455026834E+02  0.10000000000E+01 0.  0.
    9000005    1    3    3    0    0 -0.42697378322E+02 -0.60396141602E+01 -0.43943250755E+02  0.61575582349E+02  0.10000000000E+01 0.  0.
<mgrwt>
<rscale>  0 0.12500363E+03</rscale>
<asrwt>0</asrwt>
<pdfrwt beam="2">  1        4 0.94179679E-02 0.12500363E+03</pdfrwt>
<pdfrwt beam="1">  1       -4 0.98175105E-02 0.12500363E+03</pdfrwt>
<totfact> 0.10451339E+04</totfact>
</mgrwt>
</event>
<event>
 5    1  0.3337119E-002  0.1249995E+03  0.7818608E-02  0.1235070E+00
         -4   -1    0    0    0  501 -0.00000000000E+00  0.00000000000E+00  0.22200494152E+02  0.22236790250E+02  0.12700000000E+01 0. -1.
          4   -1    0    0  501    0  0.00000000000E+00 -0.00000000000E+00 -0.17576954960E+03  0.17577413765E+03  0.12700000000E+01 0. -1.
         25    2    1    2    0    0  0.00000000000E+00  0.00000000000E+00 -0.15356905545E+03  0.19801092790E+03  0.12499949111E+03 0.  0.
    9000005    1    3    3    0    0 -0.78392626691E+01 -0.34895185481E+01  0.21270593986E+02  0.22957982215E+02  0.10000000000E+01 0.  0.
    9000005    1    3    3    0    0  0.78392626691E+01  0.34895185481E+01 -0.17483964943E+03  0.17505294569E+03  0.10000000000E+01 0.  0.
<mgrwt>
<rscale>  0 0.12499949E+03</rscale>
<asrwt>0</asrwt>
<pdfrwt beam="2">  1        4 0.27044613E-01 0.12499949E+03</pdfrwt>
<pdfrwt beam="1">  1       -4 0.34186057E-02 0.12499949E+03</pdfrwt>
<totfact> 0.90472851E+03</totfact>
</mgrwt>
</event>
<event>
 5    1  0.3337119E-002  0.1249969E+03  0.7818608E-02  0.1235074E+00
         -4   -1    0    0    0  501 -0.00000000000E+00  0.00000000000E+00  0.91419100944E+02  0.91427921979E+02  0.12700000000E+01 0. -1.
          4   -1    0    0  501    0  0.00000000000E+00 -0.00000000000E+00 -0.42706563169E+02  0.42725442511E+02  0.12700000000E+01 0. -1.
         25    2    1    2    0    0  0.00000000000E+00  0.00000000000E+00  0.48712537775E+02  0.13415336449E+03  0.12499685543E+03 0.  0.
    9000005    1    3    3    0    0 -0.19477289857E+02 -0.59362671291E+02  0.25780871010E+02  0.67593970686E+02  0.10000000000E+01 0.  0.
    9000005    1    3    3    0    0  0.19477289857E+02  0.59362671291E+02  0.22931666765E+02  0.66559393804E+02  0.10000000000E+01 0.  0.
<mgrwt>
<rscale>  0 0.12499686E+03</rscale>
<asrwt>0</asrwt>
<pdfrwt beam="2">  1        4 0.65723713E-02 0.12499686E+03</pdfrwt>
<pdfrwt beam="1">  1       -4 0.14066608E-01 0.12499686E+03</pdfrwt>
<totfact> 0.10256674E+04</totfact>
</mgrwt>
</event>
<event>
 5    1  0.3337119E-002  0.1250001E+03  0.7818608E-02  0.1235069E+00
          4   -1    0    0  501    0  0.00000000000E+00  0.00000000000E+00  0.24954807918E+02  0.24987103439E+02  0.12700000000E+01 0.  1.
         -4   -1    0    0    0  501 -0.00000000000E+00 -0.00000000000E+00 -0.15639700261E+03  0.15640215895E+03  0.12700000000E+01 0.  1.
         25    2    1    2    0    0  0.00000000000E+00  0.00000000000E+00 -0.13144219469E+03  0.18138926239E+03  0.12500005586E+03 0.  0.
    9000005    1    3    3    0    0 -0.45487814304E+02  0.86508294721E+01 -0.12662077602E+03  0.13482506822E+03  0.10000000000E+01 0.  0.
    9000005    1    3    3    0    0  0.45487814304E+02 -0.86508294721E+01 -0.48214186696E+01  0.46564194170E+02  0.10000000000E+01 0.  0.
<mgrwt>
<rscale>  0 0.12500006E+03</rscale>
<asrwt>0</asrwt>
<pdfrwt beam="1">  1        4 0.38420822E-02 0.12500006E+03</pdfrwt>
<pdfrwt beam="2">  1       -4 0.24063958E-01 0.12500006E+03</pdfrwt>
<totfact> 0.93367411E+03</totfact>
</mgrwt>
</event>
<event>
 5    1  0.3337119E-002  0.1250024E+03  0.7818608E-02  0.1235066E+00
         -4   -1    0    0    0  501 -0.00000000000E+00  0.00000000000E+00  0.18420243070E+03  0.18420680872E+03  0.12700000000E+01 0.  1.
          4   -1    0    0  501    0  0.00000000000E+00 -0.00000000000E+00 -0.21183443844E+02  0.21221479522E+02  0.12700000000E+01 0.  1.
         25    2    1    2    0    0  0.00000000000E+00  0.00000000000E+00  0.16301898686E+03  0.20542828824E+03  0.12500236610E+03 0.  0.
    9000005    1    3    3    0    0  0.50054523064E+02 -0.26014889666E+02  0.37315662508E+02  0.67643835136E+02  0.10000000000E+01 0.  0.
    9000005    1    3    3    0    0 -0.50054523064E+02  0.26014889666E+02  0.12570332435E+03  0.13778445310E+03  0.10000000000E+01 0.  0.
<mgrwt>
<rscale>  0 0.12500237E+03</rscale>
<asrwt>0</asrwt>
<pdfrwt beam="2">  1        4 0.32622541E-02 0.12500237E+03</pdfrwt>
<pdfrwt beam="1">  1       -4 0.28342097E-01 0.12500237E+03</pdfrwt>
<totfact> 0.89223266E+03</totfact>
</mgrwt>
</event>
<event>
 5    1  0.3337119E-002  0.1249996E+03  0.7818608E-02  0.1235070E+00
         -4   -1    0    0    0  501 -0.00000000000E+00  0.00000000000E+00  0.16410120660E+04  0.16410125574E+04  0.12700000000E+01 0. -1.
          4   -1    0    0  501    0  0.00000000000E+00 -0.00000000000E+00 -0.22104516731E+01  0.25493129661E+01  0.12700000000E+01 0. -1.
         25    2    1    2    0    0  0.00000000000E+00  0.00000000000E+00  0.16388016143E+04  0.16435618704E+04  0.12499956285E+03 0.  0.
    9000005    1    3    3    0    0 -0.27243619049E+02  0.38767400144E+02  0.28367293570E+03  0.28760469492E+03  0.10000000000E+01 0.  0.
    9000005    1    3    3    0    0  0.27243619049E+02 -0.38767400144E+02  0.13551286786E+04  0.13559571754E+04  0.10000000000E+01 0.  0.
<mgrwt>
<rscale>  0 0.12499956E+03</rscale>
<asrwt>0</asrwt>
<pdfrwt beam="2">  1        4 0.36617339E-03 0.12499956E+03</pdfrwt>
<pdfrwt beam="1">  1       -4 0.25248960E+00 0.12499956E+03</pdfrwt>
<totfact> 0.15271738E+03</totfact>
</mgrwt>
</event>
<event>
 5    1  0.3337119E-002  0.1250056E+03  0.7818608E-02  0.1235061E+00
         -4   -1    0    0    0  501 -0.00000000000E+00  0.00000000000E+00  0.42691399824E+02  0.42710285868E+02  0.12700000000E+01 0. -1.
          4   -1    0    0  501    0  0.00000000000E+00 -0.00000000000E+00 -0.91464288647E+02  0.91473105324E+02  0.12700000000E+01 0. -1.
         25    2    1    2    0    0  0.00000000000E+00  0.00000000000E+00 -0.48772888823E+02  0.13418339119E+03  0.12500555103E+03 0.  0.
    9000005    1    3    3    0    0  0.32267368324E+02  0.15194990899E+00  0.33062969143E+02  0.46210021379E+02  0.10000000000E+01 0.  0.
    9000005    1    3    3    0    0 -0.32267368324E+02 -0.15194990899E+00 -0.81835857965E+02  0.87973369813E+02  0.10000000000E+01 0.  0.
<mgrwt>
<rscale>  0 0.12500555E+03</rscale>
<asrwt>0</asrwt>
<pdfrwt beam="2">  1        4 0.14073560E-01 0.12500555E+03</pdfrwt>
<pdfrwt beam="1">  1       -4 0.65700387E-02 0.12500555E+03</pdfrwt>
<totfact> 0.10254028E+04</totfact>
</mgrwt>
</event>
<event>
 5    1  0.3337119E-002  0.1249999E+03  0.7818608E-02  0.1235069E+00
          4   -1    0    0  501    0  0.00000000000E+00  0.00000000000E+00  0.77961952004E+01  0.78989594000E+01  0.12700000000E+01 0. -1.
         -4   -1    0    0    0  501 -0.00000000000E+00 -0.00000000000E+00 -0.49766063498E+03  0.49766225546E+03  0.12700000000E+01 0. -1.
         25    2    1    2    0    0  0.00000000000E+00  0.00000000000E+00 -0.48986443978E+03  0.50556121486E+03  0.12499989044E+03 0.  0.
    9000005    1    3    3    0    0 -0.27818772200E+02  0.53130967311E+02 -0.17389873759E+03  0.18395258821E+03  0.10000000000E+01 0.  0.
    9000005    1    3    3    0    0  0.27818772200E+02 -0.53130967311E+02 -0.31596570219E+03  0.32160862665E+03  0.10000000000E+01 0.  0.
<mgrwt>
<rscale>  0 0.12499989E+03</rscale>
<asrwt>0</asrwt>
<pdfrwt beam="1">  1        4 0.12074446E-02 0.12499989E+03</pdfrwt>
<pdfrwt beam="2">  1       -4 0.76571180E-01 0.12499989E+03</pdfrwt>
<totfact> 0.55435596E+03</totfact>
</mgrwt>
</event>
<event>
 5    1  0.3337119E-002  0.1249984E+03  0.7818608E-02  0.1235072E+00
          4   -1    0    0  501    0  0.00000000000E+00  0.00000000000E+00  0.45843622355E+03  0.45843798268E+03  0.12700000000E+01 0. -1.
         -4   -1    0    0    0  501 -0.00000000000E+00 -0.00000000000E+00 -0.84714856622E+01  0.85661525392E+01  0.12700000000E+01 0. -1.
         25    2    1    2    0    0  0.00000000000E+00  0.00000000000E+00  0.44996473789E+03  0.46700413522E+03  0.12499838786E+03 0.  0.
    9000005    1    3    3    0    0  0.57461800851E+02  0.17638736781E+02  0.16112207821E+03  0.17197182234E+03  0.10000000000E+01 0.  0.
    9000005    1    3    3    0    0 -0.57461800851E+02 -0.17638736781E+02  0.28884265968E+03  0.29503231288E+03  0.10000000000E+01 0.  0.
<mgrwt>
<rscale>  0 0.12499839E+03</rscale>
<asrwt>0</asrwt>
<pdfrwt beam="1">  1        4 0.70536077E-01 0.12499839E+03</pdfrwt>
<pdfrwt beam="2">  1       -4 0.13107227E-02 0.12499839E+03</pdfrwt>
<totfact> 0.58520590E+03</totfact>
</mgrwt>
</event>
<event>
 5    1  0.3337119E-002  0.1250007E+03  0.7818608E-02  0.1235068E+00
          4   -1    0    0  501    0  0.00000000000E+00  0.00000000000E+00  0.14275368503E+02  0.14331749575E+02  0.12700000000E+01 0.  1.
         -4   -1    0    0    0  501 -0.00000000000E+00 -0.00000000000E+00 -0.27304164962E+03  0.27304460318E+03  0.12700000000E+01 0.  1.
         25    2    1    2    0    0  0.00000000000E+00  0.00000000000E+00 -0.25876628112E+03  0.28737635276E+03  0.12500071952E+03 0.  0.
    9000005    1    3    3    0    0  0.27267089803E+02 -0.46729565625E+02 -0.57481150939E+02  0.78944469110E+02  0.10000000000E+01 0.  0.
    9000005    1    3    3    0    0 -0.27267089803E+02  0.46729565625E+02 -0.20128513018E+03  0.20843188365E+03  0.10000000000E+01 0.  0.
<mgrwt>
<rscale>  0 0.12500072E+03</rscale>
<asrwt>0</asrwt>
<pdfrwt beam="1">  1        4 0.22007749E-02 0.12500072E+03</pdfrwt>
<pdfrwt beam="2">  1       -4 0.42010968E-01 0.12500072E+03</pdfrwt>
<totfact> 0.77208879E+03</totfact>
</mgrwt>
</event>
<event>
 5    1  0.3337119E-002  0.1249996E+03  0.7818608E-02  0.1235070E+00
          4   -1    0    0  501    0  0.00000000000E+00  0.00000000000E+00  0.21501693606E+03  0.21502068667E+03  0.12700000000E+01 0.  1.
         -4   -1    0    0    0  501 -0.00000000000E+00 -0.00000000000E+00 -0.18140959933E+02  0.18185360247E+02  0.12700000000E+01 0.  1.
         25    2    1    2    0    0  0.00000000000E+00  0.00000000000E+00  0.19687597613E+03  0.23320604691E+03  0.12499964136E+03 0.  0.
    9000005    1    3    3    0    0  0.10031458576E+02  0.45920272677E+02  0.17526863446E+03  0.18146458561E+03  0.10000000000E+01 0.  0.
    9000005    1    3    3    0    0 -0.10031458576E+02 -0.45920272677E+02  0.21607341668E+02  0.51741461304E+02  0.10000000000E+01 0.  0.
<mgrwt>
<rscale>  0 0.12499964E+03</rscale>
<asrwt>0</asrwt>
<pdfrwt beam="1">  1        4 0.33083233E-01 0.12499964E+03</pdfrwt>
<pdfrwt beam="2">  1       -4 0.27946208E-02 0.12499964E+03</pdfrwt>
<totfact> 0.84820402E+03</totfact>
</mgrwt>
</event>
<event>
 5    1  0.3337119E-002  0.1250241E+03  0.7818608E-02  0.1235032E+00
         -4   -1    0    0    0  501 -0.00000000000E+00  0.00000000000E+00  0.11979549060E+02  0.12046679861E+02  0.12700000000E+01 0. -1.
          4   -1    0    0  501    0  0.00000000000E+00 -0.00000000000E+00 -0.32522231046E+03  0.32522479013E+03  0.12700000000E+01 0. -1.
         25    2    1    2    0    0  0.00000000000E+00  0.00000000000E+00 -0.31324276140E+03  0.33727147000E+03  0.12502406531E+03 0.  0.
    9000005    1    3    3    0    0  0.12027201814E+01  0.67774567645E+01  0.10967194831E+02  0.12986909505E+02  0.10000000000E+01 0.  0.
    9000005    1    3    3    0    0 -0.12027201814E+01 -0.67774567645E+01 -0.32420995623E+03  0.32428456049E+03  0.10000000000E+01 0.  0.
<mgrwt>
<rscale>  0 0.12502407E+03</rscale>
<asrwt>0</asrwt>
<pdfrwt beam="2">  1        4 0.50039550E-01 0.12502407E+03</pdfrwt>
<pdfrwt beam="1">  1       -4 0.18483624E-02 0.12502407E+03</pdfrwt>
<totfact> 0.71110028E+03</totfact>
</mgrwt>
</event>
<event>
 5    1  0.3337119E-002  0.1249998E+03  0.7818608E-02  0.1235070E+00
          4   -1    0    0  501    0  0.00000000000E+00  0.00000000000E+00  0.69081503104E+01  0.70239191845E+01  0.12700000000E+01 0. -1.
         -4   -1    0    0    0  501 -0.00000000000E+00 -0.00000000000E+00 -0.56063872118E+03  0.56064015963E+03  0.12700000000E+01 0. -1.
         25    2    1    2    0    0  0.00000000000E+00  0.00000000000E+00 -0.55373057087E+03  0.56766407881E+03  0.12499984503E+03 0.  0.
    9000005    1    3    3    0    0 -0.62258317510E+02 -0.19315251514E+00 -0.25236534385E+03  0.25993345722E+03  0.10000000000E+01 0.  0.
    9000005    1    3    3    0    0  0.62258317510E+02  0.19315251514E+00 -0.30136522702E+03  0.30773062159E+03  0.10000000000E+01 0.  0.
<mgrwt>
<rscale>  0 0.12499985E+03</rscale>
<asrwt>0</asrwt>
<pdfrwt beam="1">  1        4 0.10718087E-02 0.12499985E+03</pdfrwt>
<pdfrwt beam="2">  1       -4 0.86261092E-01 0.12499985E+03</pdfrwt>
<totfact> 0.50974692E+03</totfact>
</mgrwt>
</event>
<event>
 5    1  0.3337119E-002  0.1250002E+03  0.7818608E-02  0.1235069E+00
         -4   -1    0    0    0  501 -0.00000000000E+00  0.00000000000E+00  0.14776473968E+03  0.14777019724E+03  0.12700000000E+01 0.  1.
          4   -1    0    0  501    0  0.00000000000E+00 -0.00000000000E+00 -0.26414493566E+02  0.26445006529E+02  0.12700000000E+01 0.  1.
         25    2    1    2    0    0  0.00000000000E+00  0.00000000000E+00  0.12135024611E+03  0.17421520377E+03  0.12500021997E+03 0.  0.
    9000005    1    3    3    0    0 -0.32429320192E+02 -0.51606408901E+02  0.79905493417E+02  0.10050258766E+03  0.10000000000E+01 0.  0.
    9000005    1    3    3    0    0  0.32429320192E+02  0.51606408901E+02  0.41444752695E+02  0.73712616110E+02  0.10000000000E+01 0.  0.
<mgrwt>
<rscale>  0 0.12500022E+03</rscale>
<asrwt>0</asrwt>
<pdfrwt beam="2">  1        4 0.40665352E-02 0.12500022E+03</pdfrwt>
<pdfrwt beam="1">  1       -4 0.22735804E-01 0.12500022E+03</pdfrwt>
<totfact> 0.94668303E+03</totfact>
</mgrwt>
</event>
<event>
 5    1  0.3337119E-002  0.1249993E+03  0.7818608E-02  0.1235070E+00
          4   -1    0    0  501    0  0.00000000000E+00  0.00000000000E+00  0.28946825005E+03  0.28947103601E+03  0.12700000000E+01 0. -1.
         -4   -1    0    0    0  501 -0.00000000000E+00 -0.00000000000E+00 -0.13461673097E+02  0.13521447503E+02  0.12700000000E+01 0. -1.
         25    2    1    2    0    0  0.00000000000E+00  0.00000000000E+00  0.27600657695E+03  0.30299248351E+03  0.12499925817E+03 0.  0.
    9000005    1    3    3    0    0  0.60761383087E+02 -0.71414135259E+01  0.10712681363E+03  0.12336976802E+03  0.10000000000E+01 0.  0.
    9000005    1    3    3    0    0 -0.60761383087E+02  0.71414135259E+01  0.16887976332E+03  0.17962271549E+03  0.10000000000E+01 0.  0.
<mgrwt>
<rscale>  0 0.12499926E+03</rscale>
<asrwt>0</asrwt>
<pdfrwt beam="1">  1        4 0.44538389E-01 0.12499926E+03</pdfrwt>
<pdfrwt beam="2">  1       -4 0.20758390E-02 0.12499926E+03</pdfrwt>
<totfact> 0.75226231E+03</totfact>
</mgrwt>
</event>
<event>
 5    1  0.3337119E-002  0.1249891E+03  0.7818608E-02  0.1235086E+00
         -4   -1    0    0    0  501 -0.00000000000E+00  0.00000000000E+00  0.43076934147E+02  0.43095651236E+02  0.12700000000E+01 0. -1.
          4   -1    0    0  501    0  0.00000000000E+00 -0.00000000000E+00 -0.90622143634E+02  0.90631042237E+02  0.12700000000E+01 0. -1.
         25    2    1    2    0    0  0.00000000000E+00  0.00000000000E+00 -0.47545209488E+02  0.13372669347E+03  0.12498912593E+03 0.  0.
    9000005    1    3    3    0    0 -0.64995582583E+01  0.37984192338E+02 -0.76399910445E+02  0.85574467227E+02  0.10000000000E+01 0.  0.
    9000005    1    3    3    0    0  0.64995582583E+01 -0.37984192338E+02  0.28854700957E+02  0.48152226246E+02  0.10000000000E+01 0.  0.
<mgrwt>
<rscale>  0 0.12498913E+03</rscale>
<asrwt>0</asrwt>
<pdfrwt beam="2">  1        4 0.13943993E-01 0.12498913E+03</pdfrwt>
<pdfrwt beam="1">  1       -4 0.66293449E-02 0.12498913E+03</pdfrwt>
<totfact> 0.10267497E+04</totfact>
</mgrwt>
</event>
<event>
 5    1  0.3337119E-002  0.1249976E+03  0.7818608E-02  0.1235073E+00
          4   -1    0    0  501    0  0.00000000000E+00  0.00000000000E+00  0.30002807195E+02  0.30029674317E+02  0.12700000000E+01 0.  1.
         -4   -1    0    0    0  501 -0.00000000000E+00 -0.00000000000E+00 -0.13010290862E+03  0.13010910703E+03  0.12700000000E+01 0.  1.
         25    2    1    2    0    0  0.00000000000E+00  0.00000000000E+00 -0.10010010143E+03  0.16013878134E+03  0.12499759592E+03 0.  0.
    9000005    1    3    3    0    0  0.43043168872E+02  0.31333747096E+02 -0.91968456457E+02  0.10627189222E+03  0.10000000000E+01 0.  0.
    9000005    1    3    3    0    0 -0.43043168872E+02 -0.31333747096E+02 -0.81316449679E+01  0.53866889120E+02  0.10000000000E+01 0.  0.
<mgrwt>
<rscale>  0 0.12499760E+03</rscale>
<asrwt>0</asrwt>
<pdfrwt beam="1">  1        4 0.46183601E-02 0.12499760E+03</pdfrwt>
<pdfrwt beam="2">  1       -4 0.20018375E-01 0.12499760E+03</pdfrwt>
<totfact> 0.97321295E+03</totfact>
</mgrwt>
</event>
<event>
 5    1  0.3337119E-002  0.1249994E+03  0.7818608E-02  0.1235070E+00
         -4   -1    0    0    0  501 -0.00000000000E+00  0.00000000000E+00  0.84864957012E+03  0.84865052039E+03  0.12700000000E+01 0. -1.
          4   -1    0    0  501    0  0.00000000000E+00 -0.00000000000E+00 -0.45142829081E+01  0.46895255809E+01  0.12700000000E+01 0. -1.
         25    2    1    2    0    0  0.00000000000E+00  0.00000000000E+00  0.84413528721E+03  0.85334004598E+03  0.12499940379E+03 0.  0.
    9000005    1    3    3    0    0 -0.27894551866E+02  0.54891755871E+02  0.34917727678E+03  0.35456590573E+03  0.10000000000E+01 0.  0.
    9000005    1    3    3    0    0  0.27894551866E+02 -0.54891755871E+02  0.49495801043E+03  0.49877414025E+03  0.10000000000E+01 0.  0.
<mgrwt>
<rscale>  0 0.12499940E+03</rscale>
<asrwt>0</asrwt>
<pdfrwt beam="2">  1        4 0.70805788E-03 0.12499940E+03</pdfrwt>
<pdfrwt beam="1">  1       -4 0.13057512E+00 0.12499940E+03</pdfrwt>
<totfact> 0.35991477E+03</totfact>
</mgrwt>
</event>
<event>
 5    1  0.3337119E-002  0.1250050E+03  0.7818608E-02  0.1235061E+00
         -4   -1    0    0    0  501 -0.00000000000E+00  0.00000000000E+00  0.64186156167E+02  0.64198719173E+02  0.12700000000E+01 0. -1.
          4   -1    0    0  501    0  0.00000000000E+00 -0.00000000000E+00 -0.60837881239E+02  0.60851135516E+02  0.12700000000E+01 0. -1.
         25    2    1    2    0    0  0.00000000000E+00  0.00000000000E+00  0.33482749283E+01  0.12504985469E+03  0.12500502075E+03 0.  0.
    9000005    1    3    3    0    0  0.48608438505E+02  0.16161302075E+02  0.37486360187E+02  0.63483818243E+02  0.10000000000E+01 0.  0.
    9000005    1    3    3    0    0 -0.48608438505E+02 -0.16161302075E+02 -0.34138085258E+02  0.61566036447E+02  0.10000000000E+01 0.  0.
<mgrwt>
<rscale>  0 0.12500502E+03</rscale>
<asrwt>0</asrwt>
<pdfrwt beam="2">  1        4 0.93616601E-02 0.12500502E+03</pdfrwt>
<pdfrwt beam="1">  1       -4 0.98767791E-02 0.12500502E+03</pdfrwt>
<totfact> 0.10450594E+04</totfact>
</mgrwt>
</event>
<event>
 5    1  0.3337119E-002  0.1250053E+03  0.7818608E-02  0.1235061E+00
          4   -1    0    0  501    0  0.00000000000E+00  0.00000000000E+00  0.39548264870E+01  0.41537395853E+01  0.12700000000E+01 0.  1.
         -4   -1    0    0    0  501 -0.00000000000E+00 -0.00000000000E+00 -0.96337019690E+03  0.96337103401E+03  0.12700000000E+01 0.  1.
         25    2    1    2    0    0  0.00000000000E+00  0.00000000000E+00 -0.95941537041E+03  0.96752477360E+03  0.12500533805E+03 0.  0.
    9000005    1    3    3    0    0 -0.29760084969E+02  0.34181358163E+02 -0.81275192722E+03  0.81401518604E+03  0.10000000000E+01 0.  0.
    9000005    1    3    3    0    0  0.29760084969E+02 -0.34181358163E+02 -0.14666344319E+03  0.15350958756E+03  0.10000000000E+01 0.  0.
<mgrwt>
<rscale>  0 0.12500534E+03</rscale>
<asrwt>0</asrwt>
<pdfrwt beam="1">  1        4 0.62380101E-03 0.12500534E+03</pdfrwt>
<pdfrwt beam="2">  1       -4 0.14822598E+00 0.12500534E+03</pdfrwt>
<totfact> 0.31698179E+03</totfact>
</mgrwt>
</event>
<event>
 5    1  0.3337119E-002  0.1249989E+03  0.7818608E-02  0.1235071E+00
          4   -1    0    0  501    0  0.00000000000E+00  0.00000000000E+00  0.43931290214E+02  0.43949643456E+02  0.12700000000E+01 0. -1.
         -4   -1    0    0    0  501 -0.00000000000E+00 -0.00000000000E+00 -0.88874273256E+02  0.88883346847E+02  0.12700000000E+01 0. -1.
         25    2    1    2    0    0  0.00000000000E+00  0.00000000000E+00 -0.44942983041E+02  0.13283299030E+03  0.12499892635E+03 0.  0.
    9000005    1    3    3    0    0  0.45228248424E+02  0.24104408602E+02 -0.60469534541E+02  0.79272830006E+02  0.10000000000E+01 0.  0.
    9000005    1    3    3    0    0 -0.45228248424E+02 -0.24104408602E+02  0.15526551500E+02  0.53560160297E+02  0.10000000000E+01 0.  0.
<mgrwt>
<rscale>  0 0.12499893E+03</rscale>
<asrwt>0</asrwt>
<pdfrwt beam="1">  1        4 0.67607698E-02 0.12499893E+03</pdfrwt>
<pdfrwt beam="2">  1       -4 0.13675075E-01 0.12499893E+03</pdfrwt>
<totfact> 0.10284200E+04</totfact>
</mgrwt>
</event>
<event>
 5    1  0.3337119E-002  0.1250006E+03  0.7818608E-02  0.1235068E+00
         -4   -1    0    0    0  501 -0.00000000000E+00  0.00000000000E+00  0.46251712738E+03  0.46251887099E+03  0.12700000000E+01 0. -1.
          4   -1    0    0  501    0  0.00000000000E+00 -0.00000000000E+00 -0.83962071143E+01  0.84917132492E+01  0.12700000000E+01 0. -1.
         25    2    1    2    0    0  0.00000000000E+00  0.00000000000E+00  0.45412092026E+03  0.47101058424E+03  0.12500064096E+03 0.  0.
    9000005    1    3    3    0    0  0.45467131473E+02 -0.29939716511E+02  0.11143282116E+03  0.12402386988E+03  0.10000000000E+01 0.  0.
    9000005    1    3    3    0    0 -0.45467131473E+02  0.29939716511E+02  0.34268809911E+03  0.34698671435E+03  0.10000000000E+01 0.  0.
<mgrwt>
<rscale>  0 0.12500064E+03</rscale>
<asrwt>0</asrwt>
<pdfrwt beam="2">  1        4 0.12992045E-02 0.12500064E+03</pdfrwt>
<pdfrwt beam="1">  1       -4 0.71163983E-01 0.12500064E+03</pdfrwt>
<totfact> 0.58185065E+03</totfact>
</mgrwt>
</event>
<event>
 5    1  0.3337119E-002  0.1250001E+03  0.7818608E-02  0.1235069E+00
         -4   -1    0    0    0  501 -0.00000000000E+00  0.00000000000E+00  0.13700765496E+03  0.13701354101E+03  0.12700000000E+01 0.  1.
          4   -1    0    0  501    0  0.00000000000E+00 -0.00000000000E+00 -0.28490581276E+02  0.28518873074E+02  0.12700000000E+01 0.  1.
         25    2    1    2    0    0  0.00000000000E+00  0.00000000000E+00  0.10851707369E+03  0.16553241408E+03  0.12500009932E+03 0.  0.
    9000005    1    3    3    0    0  0.28004543782E+02 -0.55419725211E+02  0.44926903876E+02  0.76648725409E+02  0.10000000000E+01 0.  0.
    9000005    1    3    3    0    0 -0.28004543782E+02  0.55419725211E+02  0.63590169813E+02  0.88883688671E+02  0.10000000000E+01 0.  0.
<mgrwt>
<rscale>  0 0.12500010E+03</rscale>
<asrwt>0</asrwt>
<pdfrwt beam="2">  1        4 0.43857955E-02 0.12500010E+03</pdfrwt>
<pdfrwt beam="1">  1       -4 0.21080730E-01 0.12500010E+03</pdfrwt>
<totfact> 0.96286442E+03</totfact>
</mgrwt>
</event>
<event>
 5    1  0.3337119E-002  0.1250565E+03  0.7818608E-02  0.1234981E+00
          4   -1    0    0  501    0  0.00000000000E+00  0.00000000000E+00  0.49621130811E+02  0.49637380299E+02  0.12700000000E+01 0. -1.
         -4   -1    0    0    0  501 -0.00000000000E+00 -0.00000000000E+00 -0.78758373231E+02  0.78768612112E+02  0.12700000000E+01 0. -1.
         25    2    1    2    0    0  0.00000000000E+00  0.00000000000E+00 -0.29137242420E+02  0.12840599241E+03  0.12505646721E+03 0.  0.
    9000005    1    3    3    0    0  0.53010865913E+02  0.57781936508E+01 -0.48080824759E+02  0.71807417000E+02  0.10000000000E+01 0.  0.
    9000005    1    3    3    0    0 -0.53010865913E+02 -0.57781936508E+01  0.18943582339E+02  0.56598575411E+02  0.10000000000E+01 0.  0.
<mgrwt>
<rscale>  0 0.12505647E+03</rscale>
<asrwt>0</asrwt>
<pdfrwt beam="1">  1        4 0.76360577E-02 0.12505647E+03</pdfrwt>
<pdfrwt beam="2">  1       -4 0.12118710E-01 0.12505647E+03</pdfrwt>
<totfact> 0.10365510E+04</totfact>
</mgrwt>
</event>
<event>
 5    1  0.3337119E-002  0.1250004E+03  0.7818608E-02  0.1235069E+00
         -4   -1    0    0    0  501 -0.00000000000E+00  0.00000000000E+00  0.11786965637E+03  0.11787649805E+03  0.12700000000E+01 0. -1.
          4   -1    0    0  501    0  0.00000000000E+00 -0.00000000000E+00 -0.33120672915E+02  0.33145012812E+02  0.12700000000E+01 0. -1.
         25    2    1    2    0    0  0.00000000000E+00  0.00000000000E+00  0.84748983451E+02  0.15102151086E+03  0.12500042618E+03 0.  0.
    9000005    1    3    3    0    0  0.11282622636E+02  0.27006010825E+02  0.10908302893E+03  0.11294569224E+03  0.10000000000E+01 0.  0.
    9000005    1    3    3    0    0 -0.11282622636E+02 -0.27006010825E+02 -0.24334045481E+02  0.38075818621E+02  0.10000000000E+01 0.  0.
<mgrwt>
<rscale>  0 0.12500043E+03</rscale>
<asrwt>0</asrwt>
<pdfrwt beam="2">  1        4 0.50978867E-02 0.12500043E+03</pdfrwt>
<pdfrwt beam="1">  1       -4 0.18136192E-01 0.12500043E+03</pdfrwt>
<totfact> 0.99099513E+03</totfact>
</mgrwt>
</event>
<event>
 5    1  0.3337119E-002  0.1250002E+03  0.7818608E-02  0.1235069E+00
          4   -1    0    0  501    0  0.00000000000E+00  0.00000000000E+00  0.31863341655E+01  0.34301057439E+01  0.12700000000E+01 0.  1.
         -4   -1    0    0    0  501 -0.00000000000E+00 -0.00000000000E+00 -0.11805301754E+04  0.11805308585E+04  0.12700000000E+01 0.  1.
         25    2    1    2    0    0  0.00000000000E+00  0.00000000000E+00 -0.11773438412E+04  0.11839609642E+04  0.12500017768E+03 0.  0.
    9000005    1    3    3    0    0  0.33337562650E+02 -0.51053493369E+02 -0.71833662827E+03  0.72092049755E+03  0.10000000000E+01 0.  0.
    9000005    1    3    3    0    0 -0.33337562650E+02  0.51053493369E+02 -0.45900721292E+03  0.46304046668E+03  0.10000000000E+01 0.  0.
<mgrwt>
<rscale>  0 0.12500018E+03</rscale>
<asrwt>0</asrwt>
<pdfrwt beam="1">  1        4 0.50901041E-03 0.12500018E+03</pdfrwt>
<pdfrwt beam="2">  1       -4 0.18163850E+00 0.12500018E+03</pdfrwt>
<totfact> 0.25136432E+03</totfact>
</mgrwt>
</event>
<event>
 5    1  0.3337119E-002  0.1249995E+03  0.7818608E-02  0.1235070E+00
         -4   -1    0    0    0  501 -0.00000000000E+00  0.00000000000E+00  0.14516903031E+02  0.14572349626E+02  0.12700000000E+01 0.  1.
          4   -1    0    0  501    0  0.00000000000E+00 -0.00000000000E+00 -0.26851087591E+03  0.26851387931E+03  0.12700000000E+01 0.  1.
         25    2    1    2    0    0  0.00000000000E+00  0.00000000000E+00 -0.25399397288E+03  0.28308622893E+03  0.12499949902E+03 0.  0.
    9000005    1    3    3    0    0  0.10501092626E+02  0.51389348314E+02 -0.20393279904E+03  0.21057237376E+03  0.10000000000E+01 0.  0.
    9000005    1    3    3    0    0 -0.10501092626E+02 -0.51389348314E+02 -0.50061173839E+02  0.72513855177E+02  0.10000000000E+01 0.  0.
<mgrwt>
<rscale>  0 0.12499950E+03</rscale>
<asrwt>0</asrwt>
<pdfrwt beam="2">  1        4 0.41313858E-01 0.12499950E+03</pdfrwt>
<pdfrwt beam="1">  1       -4 0.22378660E-02 0.12499950E+03</pdfrwt>
<totfact> 0.77771533E+03</totfact>
</mgrwt>
</event>
<event>
 4    1  0.3337119E-002  0.1249383E+03  0.7818608E-02  0.1235166E+00
         -4   -1    0    0    0  501 -0.00000000000E+00  0.00000000000E+00  0.10445558884E+04  0.10445566604E+04  0.12700000000E+01 0. -1.
          4   -1    0    0  501    0  0.00000000000E+00 -0.00000000000E+00 -0.36272094218E+01  0.38431169888E+01  0.12700000000E+01 0. -1.
    9000005    1    1    2    0    0 -0.41473435985E+02  0.37421704146E+01  0.12980757689E+03  0.13632702135E+03  0.10000000000E+01 0.  0.
    9000005    1    1    2    0    0  0.41473435985E+02 -0.37421704146E+01  0.91112110204E+03  0.91207275604E+03  0.10000000000E+01 0.  0.
<mgrwt>
<rscale>  0 0.12493830E+03</rscale>
<asrwt>0</asrwt>
<pdfrwt beam="2">  1        4 0.57469902E-03 0.12493830E+03</pdfrwt>
<pdfrwt beam="1">  1       -4 0.16071781E+00 0.12493830E+03</pdfrwt>
<totfact> 0.29083858E+03</totfact>
</mgrwt>
</event>
<event>
 5    1  0.3337119E-002  0.1249999E+03  0.7818608E-02  0.1235069E+00
         -4   -1    0    0    0  501 -0.00000000000E+00  0.00000000000E+00  0.30253926997E+01  0.32811432440E+01  0.12700000000E+01 0.  1.
          4   -1    0    0  501    0  0.00000000000E+00 -0.00000000000E+00 -0.12385368563E+04  0.12385375074E+04  0.12700000000E+01 0.  1.
         25    2    1    2    0    0  0.00000000000E+00  0.00000000000E+00 -0.12355114636E+04  0.12418186507E+04  0.12499993791E+03 0.  0.
    9000005    1    3    3    0    0  0.13499913388E+02 -0.56443790338E+01 -0.12213270682E+04  0.12214151278E+04  0.10000000000E+01 0.  0.
    9000005    1    3    3    0    0 -0.13499913388E+02  0.56443790338E+01 -0.14184395367E+02  0.20403522933E+02  0.10000000000E+01 0.  0.
<mgrwt>
<rscale>  0 0.12499994E+03</rscale>
<asrwt>0</asrwt>
<pdfrwt beam="2">  1        4 0.19056347E+00 0.12499994E+03</pdfrwt>
<pdfrwt beam="1">  1       -4 0.48516922E-03 0.12499994E+03</pdfrwt>
<totfact> 0.23643724E+03</totfact>
</mgrwt>
</event>
<event>
 5    1  0.3337119E-002  0.1249975E+03  0.7818608E-02  0.1235073E+00
          4   -1    0    0  501    0  0.00000000000E+00  0.00000000000E+00  0.10958455158E+02  0.11031801278E+02  0.12700000000E+01 0.  1.
         -4   -1    0    0    0  501 -0.00000000000E+00 -0.00000000000E+00 -0.35518219668E+03  0.35518446720E+03  0.12700000000E+01 0.  1.
         25    2    1    2    0    0  0.00000000000E+00  0.00000000000E+00 -0.34422374152E+03  0.36621626848E+03  0.12499748425E+03 0.  0.
    9000005    1    3    3    0    0 -0.93429568814E+01 -0.58594255755E+02 -0.22956227248E+03  0.23710844480E+03  0.10000000000E+01 0.  0.
    9000005    1    3    3    0    0  0.93429568814E+01  0.58594255755E+02 -0.11466146904E+03  0.12910782367E+03  0.10000000000E+01 0.  0.
<mgrwt>
<rscale>  0 0.12499748E+03</rscale>
<asrwt>0</asrwt>
<pdfrwt beam="1">  1        4 0.16917331E-02 0.12499748E+03</pdfrwt>
<pdfrwt beam="2">  1       -4 0.54649223E-01 0.12499748E+03</pdfrwt>
<totfact> 0.67980438E+03</totfact>
</mgrwt>
</event>
<event>
 4    1  0.3337119E-002  0.1251839E+03  0.7818608E-02  0.1234782E+00
         -4   -1    0    0    0  501 -0.00000000000E+00  0.00000000000E+00  0.42308742442E+02  0.42327799223E+02  0.12700000000E+01 0. -1.
          4   -1    0    0  501    0  0.00000000000E+00 -0.00000000000E+00 -0.92554911769E+02  0.92563624565E+02  0.12700000000E+01 0. -1.
    9000005    1    1    2    0    0 -0.34485914108E+02 -0.48432431611E+02 -0.40688229524E+01  0.59603137701E+02  0.10000000000E+01 0.  0.
    9000005    1    1    2    0    0  0.34485914108E+02  0.48432431611E+02 -0.46177346374E+02  0.75288286086E+02  0.10000000000E+01 0.  0.
<mgrwt>
<rscale>  0 0.12518394E+03</rscale>
<asrwt>0</asrwt>
<pdfrwt beam="2">  1        4 0.14241353E-01 0.12518394E+03</pdfrwt>
<pdfrwt beam="1">  1       -4 0.65111734E-02 0.12518394E+03</pdfrwt>
<totfact> 0.10197995E+04</totfact>
</mgrwt>
</event>
<event>
 4    1  0.3337119E-002  0.1249354E+03  0.7818608E-02  0.1235170E+00
          4   -1    0    0  501    0  0.00000000000E+00  0.00000000000E+00  0.24939117292E+02  0.24971433105E+02  0.12700000000E+01 0.  1.
         -4   -1    0    0    0  501 -0.00000000000E+00 -0.00000000000E+00 -0.15633341126E+03  0.15633856970E+03  0.12700000000E+01 0.  1.
    9000005    1    1    2    0    0  0.13367685358E+02  0.58536267368E+02 -0.40728208327E+02  0.72560158232E+02  0.10000000000E+01 0.  0.
    9000005    1    1    2    0    0 -0.13367685358E+02 -0.58536267368E+02 -0.90666085640E+02  0.10874984457E+03  0.10000000000E+01 0.  0.
<mgrwt>
<rscale>  0 0.12493541E+03</rscale>
<asrwt>0</asrwt>
<pdfrwt beam="1">  1        4 0.38396700E-02 0.12493541E+03</pdfrwt>
<pdfrwt beam="2">  1       -4 0.24054176E-01 0.12493541E+03</pdfrwt>
<totfact> 0.93517079E+03</totfact>
</mgrwt>
</event>
<event>
 5    1  0.3337119E-002  0.1249993E+03  0.7818608E-02  0.1235070E+00
         -4   -1    0    0    0  501 -0.00000000000E+00  0.00000000000E+00  0.12980206628E+03  0.12980827906E+03  0.12700000000E+01 0. -1.
          4   -1    0    0  501    0  0.00000000000E+00 -0.00000000000E+00 -0.30073241829E+02  0.30100046082E+02  0.12700000000E+01 0. -1.
         25    2    1    2    0    0  0.00000000000E+00  0.00000000000E+00  0.99728824455E+02  0.15990832514E+03  0.12499933608E+03 0.  0.
    9000005    1    3    3    0    0  0.33395390407E+02  0.10367415327E+02  0.11612130367E+03  0.12127610056E+03  0.10000000000E+01 0.  0.
    9000005    1    3    3    0    0 -0.33395390407E+02 -0.10367415327E+02 -0.16392479215E+02  0.38632224578E+02  0.10000000000E+01 0.  0.
<mgrwt>
<rscale>  0 0.12499934E+03</rscale>
<asrwt>0</asrwt>
<pdfrwt beam="2">  1        4 0.46291923E-02 0.12499934E+03</pdfrwt>
<pdfrwt beam="1">  1       -4 0.19972089E-01 0.12499934E+03</pdfrwt>
<totfact> 0.97361915E+03</totfact>
</mgrwt>
</event>
<event>
 5    1  0.3337119E-002  0.1249971E+03  0.7818608E-02  0.1235074E+00
         -4   -1    0    0    0  501 -0.00000000000E+00  0.00000000000E+00  0.25745146438E+02  0.25776451755E+02  0.12700000000E+01 0. -1.
          4   -1    0    0  501    0  0.00000000000E+00 -0.00000000000E+00 -0.15159441541E+03  0.15159973510E+03  0.12700000000E+01 0. -1.
         25    2    1    2    0    0  0.00000000000E+00  0.00000000000E+00 -0.12584926897E+03  0.17737618686E+03  0.12499709262E+03 0.  0.
    9000005    1    3    3    0    0 -0.54208726458E+01 -0.62175564365E+02 -0.58463866640E+02  0.85523156904E+02  0.10000000000E+01 0.  0.
    9000005    1    3    3    0    0  0.54208726458E+01  0.62175564365E+02 -0.67385402330E+02  0.91853029953E+02  0.10000000000E+01 0.  0.
<mgrwt>
<rscale>  0 0.12499709E+03</rscale>
<asrwt>0</asrwt>
<pdfrwt beam="2">  1        4 0.23325035E-01 0.12499709E+03</pdfrwt>
<pdfrwt beam="1">  1       -4 0.39636092E-02 0.12499709E+03</pdfrwt>
<totfact> 0.94097577E+03</totfact>
</mgrwt>
</event>
<event>
 5    1  0.3337119E-002  0.1249992E+03  0.7818608E-02  0.1235071E+00
         -4   -1    0    0    0  501 -0.00000000000E+00  0.00000000000E+00  0.99620606851E+01  0.10042686548E+02  0.12700000000E+01 0. -1.
          4   -1    0    0  501    0  0.00000000000E+00 -0.00000000000E+00 -0.39044568433E+03  0.39044774979E+03  0.12700000000E+01 0. -1.
         25    2    1    2    0    0  0.00000000000E+00  0.00000000000E+00 -0.38048362365E+03  0.40049043633E+03  0.12499920692E+03 0.  0.
    9000005    1    3    3    0    0 -0.93012163377E+01  0.96149243226E+01 -0.38581997558E+03  0.38605312193E+03  0.10000000000E+01 0.  0.
    9000005    1    3    3    0    0  0.93012163377E+01 -0.96149243226E+01  0.53363519375E+01  0.14437314400E+02  0.10000000000E+01 0.  0.
<mgrwt>
<rscale>  0 0.12499921E+03</rscale>
<asrwt>0</asrwt>
<pdfrwt beam="2">  1        4 0.60074916E-01 0.12499921E+03</pdfrwt>
<pdfrwt beam="1">  1       -4 0.15389859E-02 0.12499921E+03</pdfrwt>
<totfact> 0.64506253E+03</totfact>
</mgrwt>
</event>
<event>
 5    1  0.3337119E-002  0.1249988E+03  0.7818608E-02  0.1235071E+00
          4   -1    0    0  501    0  0.00000000000E+00  0.00000000000E+00  0.15556576367E+02  0.15608330092E+02  0.12700000000E+01 0.  1.
         -4   -1    0    0    0  501 -0.00000000000E+00 -0.00000000000E+00 -0.25062434339E+03  0.25062756114E+03  0.12700000000E+01 0.  1.
         25    2    1    2    0    0  0.00000000000E+00  0.00000000000E+00 -0.23506776702E+03  0.26623589123E+03  0.12499877873E+03 0.  0.
    9000005    1    3    3    0    0  0.29014070623E+02  0.28366059039E+02 -0.21875996432E+03  0.22249353157E+03  0.10000000000E+01 0.  0.
    9000005    1    3    3    0    0 -0.29014070623E+02 -0.28366059039E+02 -0.16307802701E+02  0.43742359658E+02  0.10000000000E+01 0.  0.
<mgrwt>
<rscale>  0 0.12499878E+03</rscale>
<asrwt>0</asrwt>
<pdfrwt beam="1">  1        4 0.23975482E-02 0.12499878E+03</pdfrwt>
<pdfrwt beam="2">  1       -4 0.38561817E-01 0.12499878E+03</pdfrwt>
<totfact> 0.80041006E+03</totfact>
</mgrwt>
</event>
<event>
 5    1  0.3337119E-002  0.1249999E+03  0.7818608E-02  0.1235069E+00
          4   -1    0    0  501    0  0.00000000000E+00  0.00000000000E+00  0.14439177214E+03  0.14439735718E+03  0.12700000000E+01 0. -1.
         -4   -1    0    0    0  501 -0.00000000000E+00 -0.00000000000E+00 -0.27032063413E+02  0.27061880060E+02  0.12700000000E+01 0. -1.
         25    2    1    2    0    0  0.00000000000E+00  0.00000000000E+00  0.11735970872E+03  0.17145923724E+03  0.12499987521E+03 0.  0.
    9000005    1    3    3    0    0 -0.15534169078E+02  0.53146996102E+02  0.18940819234E+02  0.58529208408E+02  0.10000000000E+01 0.  0.
    9000005    1    3    3    0    0  0.15534169078E+02 -0.53146996102E+02  0.98418889490E+02  0.11293002883E+03  0.10000000000E+01 0.  0.
<mgrwt>
<rscale>  0 0.12499988E+03</rscale>
<asrwt>0</asrwt>
<pdfrwt beam="1">  1        4 0.22216842E-01 0.12499988E+03</pdfrwt>
<pdfrwt beam="2">  1       -4 0.41615023E-02 0.12499988E+03</pdfrwt>
<totfact> 0.95177619E+03</totfact>
</mgrwt>
</event>
<event>
 5    1  0.3337119E-002  0.1249965E+03  0.7818608E-02  0.1235075E+00
         -4   -1    0    0    0  501 -0.00000000000E+00  0.00000000000E+00  0.52916576069E+02  0.52931813901E+02  0.12700000000E+01 0. -1.
          4   -1    0    0  501    0  0.00000000000E+00 -0.00000000000E+00 -0.73783555365E+02  0.73794484498E+02  0.12700000000E+01 0. -1.
         25    2    1    2    0    0  0.00000000000E+00  0.00000000000E+00 -0.20866979296E+02  0.12672629840E+03  0.12499649548E+03 0.  0.
    9000005    1    3    3    0    0 -0.47888913235E+02  0.38338511422E+02  0.16410497383E+01  0.61374933915E+02  0.10000000000E+01 0.  0.
    9000005    1    3    3    0    0  0.47888913235E+02 -0.38338511422E+02 -0.22508029034E+02  0.65351364484E+02  0.10000000000E+01 0.  0.
<mgrwt>
<rscale>  0 0.12499650E+03</rscale>
<asrwt>0</asrwt>
<pdfrwt beam="2">  1        4 0.11353329E-01 0.12499650E+03</pdfrwt>
<pdfrwt beam="1">  1       -4 0.81430245E-02 0.12499650E+03</pdfrwt>
<totfact> 0.10415922E+04</totfact>
</mgrwt>
</event>
<event>
 5    1  0.3337119E-002  0.1250037E+03  0.7818608E-02  0.1235064E+00
         -4   -1    0    0    0  501 -0.00000000000E+00  0.00000000000E+00  0.66348697826E+02  0.66360851435E+02  0.12700000000E+01 0. -1.
          4   -1    0    0  501    0  0.00000000000E+00 -0.00000000000E+00 -0.58853610507E+02  0.58867311555E+02  0.12700000000E+01 0. -1.
         25    2    1    2    0    0  0.00000000000E+00  0.00000000000E+00  0.74950873187E+01  0.12522816299E+03  0.12500366583E+03 0.  0.
    9000005    1    3    3    0    0  0.15519404935E+02  0.48330484245E+02 -0.32770514689E+02  0.60428422699E+02  0.10000000000E+01 0.  0.
    9000005    1    3    3    0    0 -0.15519404935E+02 -0.48330484245E+02  0.40265602007E+02  0.64799740292E+02  0.10000000000E+01 0.  0.
<mgrwt>
<rscale>  0 0.12500367E+03</rscale>
<asrwt>0</asrwt>
<pdfrwt beam="2">  1        4 0.90563905E-02 0.12500367E+03</pdfrwt>
<pdfrwt beam="1">  1       -4 0.10209481E-01 0.12500367E+03</pdfrwt>
<totfact> 0.10447043E+04</totfact>
</mgrwt>
</event>
<event>
 5    1  0.3337119E-002  0.1249995E+03  0.7818608E-02  0.1235070E+00
          4   -1    0    0  501    0  0.00000000000E+00  0.00000000000E+00  0.12641604555E+03  0.12642242472E+03  0.12700000000E+01 0. -1.
         -4   -1    0    0    0  501 -0.00000000000E+00 -0.00000000000E+00 -0.30879509851E+02  0.30905614840E+02  0.12700000000E+01 0. -1.
         25    2    1    2    0    0  0.00000000000E+00  0.00000000000E+00  0.95536535698E+02  0.15732803956E+03  0.12499952952E+03 0.  0.
    9000005    1    3    3    0    0  0.39327110312E+02 -0.43916745518E+01  0.10864367011E+03  0.11563025325E+03  0.10000000000E+01 0.  0.
    9000005    1    3    3    0    0 -0.39327110312E+02  0.43916745518E+01 -0.13107134414E+02  0.41697786313E+02  0.10000000000E+01 0.  0.
<mgrwt>
<rscale>  0 0.12499953E+03</rscale>
<asrwt>0</asrwt>
<pdfrwt beam="1">  1        4 0.19451121E-01 0.12499953E+03</pdfrwt>
<pdfrwt beam="2">  1       -4 0.47531925E-02 0.12499953E+03</pdfrwt>
<totfact> 0.97861440E+03</totfact>
</mgrwt>
</event>
<event>
 5    1  0.3337119E-002  0.1249967E+03  0.7818608E-02  0.1235074E+00
          4   -1    0    0  501    0  0.00000000000E+00  0.00000000000E+00  0.69816791641E+02  0.69828341632E+02  0.12700000000E+01 0.  1.
         -4   -1    0    0    0  501 -0.00000000000E+00 -0.00000000000E+00 -0.55923698687E+02  0.55938117370E+02  0.12700000000E+01 0.  1.
         25    2    1    2    0    0  0.00000000000E+00  0.00000000000E+00  0.13893092954E+02  0.12576645900E+03  0.12499673667E+03 0.  0.
    9000005    1    3    3    0    0 -0.31287732445E+02 -0.53774003872E+02  0.12854703028E+02  0.63535888157E+02  0.10000000000E+01 0.  0.
    9000005    1    3    3    0    0  0.31287732445E+02  0.53774003872E+02  0.10383899254E+01  0.62230570844E+02  0.10000000000E+01 0.  0.
<mgrwt>
<rscale>  0 0.12499674E+03</rscale>
<asrwt>0</asrwt>
<pdfrwt beam="1">  1        4 0.10743042E-01 0.12499674E+03</pdfrwt>
<pdfrwt beam="2">  1       -4 0.86056436E-02 0.12499674E+03</pdfrwt>
<totfact> 0.10436851E+04</totfact>
</mgrwt>
</event>
<event>
 4    1  0.3337119E-002  0.1249030E+03  0.7818608E-02  0.1235221E+00
          4   -1    0    0  501    0  0.00000000000E+00  0.00000000000E+00  0.23766719443E+02  0.23800627158E+02  0.12700000000E+01 0. -1.
         -4   -1    0    0    0  501 -0.00000000000E+00 -0.00000000000E+00 -0.16394958814E+03  0.16395450695E+03  0.12700000000E+01 0. -1.
    9000005    1    1    2    0    0 -0.61938021283E+02 -0.28292390740E+01 -0.58957000965E+02  0.85564309364E+02  0.10000000000E+01 0.  0.
    9000005    1    1    2    0    0  0.61938021283E+02  0.28292390740E+01 -0.81225867730E+02  0.10219082475E+03  0.10000000000E+01 0.  0.
<mgrwt>
<rscale>  0 0.12490298E+03</rscale>
<asrwt>0</asrwt>
<pdfrwt beam="1">  1        4 0.36594051E-02 0.12490298E+03</pdfrwt>
<pdfrwt beam="2">  1       -4 0.25225999E-01 0.12490298E+03</pdfrwt>
<totfact> 0.92440182E+03</totfact>
</mgrwt>
</event>
<event>
 5    1  0.3337119E-002  0.1250003E+03  0.7818608E-02  0.1235069E+00
         -4   -1    0    0    0  501 -0.00000000000E+00  0.00000000000E+00  0.25537681693E+02  0.25569241018E+02  0.12700000000E+01 0. -1.
          4   -1    0    0  501    0  0.00000000000E+00 -0.00000000000E+00 -0.15283222714E+03  0.15283750375E+03  0.12700000000E+01 0. -1.
         25    2    1    2    0    0  0.00000000000E+00  0.00000000000E+00 -0.12729454544E+03  0.17840674477E+03  0.12500026111E+03 0.  0.
    9000005    1    3    3    0    0  0.32552766651E+02  0.42733402219E+02 -0.18077045722E+02  0.56688674918E+02  0.10000000000E+01 0.  0.
    9000005    1    3    3    0    0 -0.32552766651E+02 -0.42733402219E+02 -0.10921749972E+03  0.12171806985E+03  0.10000000000E+01 0.  0.
<mgrwt>
<rscale>  0 0.12500026E+03</rscale>
<asrwt>0</asrwt>
<pdfrwt beam="2">  1        4 0.23515483E-01 0.12500026E+03</pdfrwt>
<pdfrwt beam="1">  1       -4 0.39317077E-02 0.12500026E+03</pdfrwt>
<totfact> 0.93904033E+03</totfact>
</mgrwt>
</event>
<event>
 5    1  0.3337119E-002  0.1249985E+03  0.7818608E-02  0.1235072E+00
          4   -1    0    0  501    0  0.00000000000E+00  0.00000000000E+00  0.25946647791E+03  0.25946958600E+03  0.12700000000E+01 0. -1.
         -4   -1    0    0    0  501 -0.00000000000E+00 -0.00000000000E+00 -0.15024592675E+02  0.15078172470E+02  0.12700000000E+01 0. -1.
         25    2    1    2    0    0  0.00000000000E+00  0.00000000000E+00  0.24444188523E+03  0.27454775847E+03  0.12499854569E+03 0.  0.
    9000005    1    3    3    0    0  0.56050460784E+02  0.14257177472E+02  0.70233415192E+02  0.90987108280E+02  0.10000000000E+01 0.  0.
    9000005    1    3    3    0    0 -0.56050460784E+02 -0.14257177472E+02  0.17420847004E+03  0.18356065019E+03  0.10000000000E+01 0.  0.
<mgrwt>
<rscale>  0 0.12499855E+03</rscale>
<asrwt>0</asrwt>
<pdfrwt beam="1">  1        4 0.39922281E-01 0.12499855E+03</pdfrwt>
<pdfrwt beam="2">  1       -4 0.23158364E-02 0.12499855E+03</pdfrwt>
<totfact> 0.78909181E+03</totfact>
</mgrwt>
</event>
<event>
 5    1  0.3337119E-002  0.1250068E+03  0.7818608E-02  0.1235059E+00
         -4   -1    0    0    0  501 -0.00000000000E+00  0.00000000000E+00  0.78738451926E+01  0.79756089496E+01  0.12700000000E+01 0.  1.
          4   -1    0    0  501    0  0.00000000000E+00 -0.00000000000E+00 -0.49287038342E+03  0.49287201965E+03  0.12700000000E+01 0.  1.
         25    2    1    2    0    0  0.00000000000E+00  0.00000000000E+00 -0.48499653823E+03  0.50084762860E+03  0.12500681973E+03 0.  0.
    9000005    1    3    3    0    0 -0.22255665562E+02  0.38764133328E+02 -0.41749396240E+03  0.41988115143E+03  0.10000000000E+01 0.  0.
    9000005    1    3    3    0    0  0.22255665562E+02 -0.38764133328E+02 -0.67502575825E+02  0.80966477170E+02  0.10000000000E+01 0.  0.
<mgrwt>
<rscale>  0 0.12500682E+03</rscale>
<asrwt>0</asrwt>
<pdfrwt beam="2">  1        4 0.75834142E-01 0.12500682E+03</pdfrwt>
<pdfrwt beam="1">  1       -4 0.12193150E-02 0.12500682E+03</pdfrwt>
<totfact> 0.55790305E+03</totfact>
</mgrwt>
</event>
<event>
 5    1  0.3337119E-002  0.1249991E+03  0.7818608E-02  0.1235071E+00
          4   -1    0    0  501    0  0.00000000000E+00  0.00000000000E+00  0.14735090675E+03  0.14735637964E+03  0.12700000000E+01 0.  1.
         -4   -1    0    0    0  501 -0.00000000000E+00 -0.00000000000E+00 -0.26488306014E+02  0.26518734048E+02  0.12700000000E+01 0.  1.
         25    2    1    2    0    0  0.00000000000E+00  0.00000000000E+00  0.12086260073E+03  0.17387511368E+03  0.12499914761E+03 0.  0.
    9000005    1    3    3    0    0 -0.59009497947E+01  0.46327635486E+02  0.26729422466E+01  0.46789054687E+02  0.10000000000E+01 0.  0.
    9000005    1    3    3    0    0  0.59009497947E+01 -0.46327635486E+02  0.11818965849E+03  0.12708605900E+03  0.10000000000E+01 0.  0.
<mgrwt>
<rscale>  0 0.12499915E+03</rscale>
<asrwt>0</asrwt>
<pdfrwt beam="1">  1        4 0.22672132E-01 0.12499915E+03</pdfrwt>
<pdfrwt beam="2">  1       -4 0.40778856E-02 0.12499915E+03</pdfrwt>
<totfact> 0.94733077E+03</totfact>
</mgrwt>
</event>
<event>
 5    1  0.3337119E-002  0.1250007E+03  0.7818608E-02  0.1235068E+00
         -4   -1    0    0    0  501 -0.00000000000E+00  0.00000000000E+00  0.32736154234E+02  0.32760779814E+02  0.12700000000E+01 0.  1.
          4   -1    0    0  501    0  0.00000000000E+00 -0.00000000000E+00 -0.11925368742E+03  0.11926044970E+03  0.12700000000E+01 0.  1.
         25    2    1    2    0    0  0.00000000000E+00  0.00000000000E+00 -0.86517533184E+02  0.15202122952E+03  0.12500068270E+03 0.  0.
    9000005    1    3    3    0    0 -0.25337954473E+02 -0.44487918482E+02  0.32173921514E+00  0.51208303466E+02  0.10000000000E+01 0.  0.
    9000005    1    3    3    0    0  0.25337954473E+02  0.44487918482E+02 -0.86839272399E+02  0.10081292605E+03  0.10000000000E+01 0.  0.
<mgrwt>
<rscale>  0 0.12500068E+03</rscale>
<asrwt>0</asrwt>
<pdfrwt beam="2">  1        4 0.18349135E-01 0.12500068E+03</pdfrwt>
<pdfrwt beam="1">  1       -4 0.50387459E-02 0.12500068E+03</pdfrwt>
<totfact> 0.98900793E+03</totfact>
</mgrwt>
</event>
<event>
 5    1  0.3337119E-002  0.1250008E+03  0.7818608E-02  0.1235068E+00
         -4   -1    0    0    0  501 -0.00000000000E+00  0.00000000000E+00  0.15309982193E+04  0.15309987460E+04  0.12700000000E+01 0. -1.
          4   -1    0    0  501    0  0.00000000000E+00 -0.00000000000E+00 -0.23928755434E+01  0.27090133566E+01  0.12700000000E+01 0. -1.
         25    2    1    2    0    0  0.00000000000E+00  0.00000000000E+00  0.15286053437E+04  0.15337077594E+04  0.12500077718E+03 0.  0.
    9000005    1    3    3    0    0  0.12097704792E+02  0.47306988254E+02  0.12428154126E+04  0.12437746803E+04  0.10000000000E+01 0.  0.
    9000005    1    3    3    0    0 -0.12097704792E+02 -0.47306988254E+02  0.28578993113E+03  0.28993307906E+03  0.10000000000E+01 0.  0.
<mgrwt>
<rscale>  0 0.12500078E+03</rscale>
<asrwt>0</asrwt>
<pdfrwt beam="2">  1        4 0.39249345E-03 0.12500078E+03</pdfrwt>
<pdfrwt beam="1">  1       -4 0.23556259E+00 0.12500078E+03</pdfrwt>
<totfact> 0.17276934E+03</totfact>
</mgrwt>
</event>
<event>
 5    1  0.3337119E-002  0.1250003E+03  0.7818608E-02  0.1235069E+00
         -4   -1    0    0    0  501 -0.00000000000E+00  0.00000000000E+00  0.29967057988E+03  0.29967327099E+03  0.12700000000E+01 0.  1.
          4   -1    0    0  501    0  0.00000000000E+00 -0.00000000000E+00 -0.13001527736E+02  0.13063407805E+02  0.12700000000E+01 0.  1.
         25    2    1    2    0    0  0.00000000000E+00  0.00000000000E+00  0.28666905215E+03  0.31273667880E+03  0.12500033922E+03 0.  0.
    9000005    1    3    3    0    0  0.22545228403E+02  0.58275484833E+02  0.14089374964E+03  0.15413100967E+03  0.10000000000E+01 0.  0.
    9000005    1    3    3    0    0 -0.22545228403E+02 -0.58275484833E+02  0.14577530251E+03  0.15860566912E+03  0.10000000000E+01 0.  0.
<mgrwt>
<rscale>  0 0.12500034E+03</rscale>
<asrwt>0</asrwt>
<pdfrwt beam="2">  1        4 0.20052020E-02 0.12500034E+03</pdfrwt>
<pdfrwt beam="1">  1       -4 0.46108134E-01 0.12500034E+03</pdfrwt>
<totfact> 0.74027852E+03</totfact>
</mgrwt>
</event>
<event>
 5    1  0.3337119E-002  0.1250012E+03  0.7818608E-02  0.1235067E+00
          4   -1    0    0  501    0  0.00000000000E+00  0.00000000000E+00  0.12508145958E+03  0.12508790682E+03  0.12700000000E+01 0.  1.
         -4   -1    0    0    0  501 -0.00000000000E+00 -0.00000000000E+00 -0.31210085307E+02  0.31235914023E+02  0.12700000000E+01 0.  1.
         25    2    1    2    0    0  0.00000000000E+00  0.00000000000E+00  0.93871374277E+02  0.15632382084E+03  0.12500120821E+03 0.  0.
    9000005    1    3    3    0    0 -0.14400288896E+02 -0.51623159749E+02  0.87129804169E+02  0.10229819997E+03  0.10000000000E+01 0.  0.
    9000005    1    3    3    0    0  0.14400288896E+02  0.51623159749E+02  0.67415701076E+01  0.54025620868E+02  0.10000000000E+01 0.  0.
<mgrwt>
<rscale>  0 0.12500121E+03</rscale>
<asrwt>0</asrwt>
<pdfrwt beam="1">  1        4 0.19245785E-01 0.12500121E+03</pdfrwt>
<pdfrwt beam="2">  1       -4 0.48040343E-02 0.12500121E+03</pdfrwt>
<totfact> 0.98053577E+03</totfact>
</mgrwt>
</event>
<event>
 5    1  0.3337119E-002  0.1250003E+03  0.7818608E-02  0.1235069E+00
          4   -1    0    0  501    0  0.00000000000E+00  0.00000000000E+00  0.32300560793E+03  0.32300810462E+03  0.12700000000E+01 0. -1.
         -4   -1    0    0    0  501 -0.00000000000E+00 -0.00000000000E+00 -0.12057615693E+02  0.12124314257E+02  0.12700000000E+01 0. -1.
         25    2    1    2    0    0  0.00000000000E+00  0.00000000000E+00  0.31094799223E+03  0.33513241888E+03  0.12500033724E+03 0.  0.
    9000005    1    3    3    0    0  0.10035295969E+02 -0.53106723779E+02  0.23958556200E+03  0.24560796566E+03  0.10000000000E+01 0.  0.
    9000005    1    3    3    0    0 -0.10035295969E+02  0.53106723779E+02  0.71362430233E+02  0.89524453221E+02  0.10000000000E+01 0.  0.
<mgrwt>
<rscale>  0 0.12500034E+03</rscale>
<asrwt>0</asrwt>
<pdfrwt beam="1">  1        4 0.49698488E-01 0.12500034E+03</pdfrwt>
<pdfrwt beam="2">  1       -4 0.18603407E-02 0.12500034E+03</pdfrwt>
<totfact> 0.71391217E+03</totfact>
</mgrwt>
</event>
<event>
 5    1  0.3337119E-002  0.1250071E+03  0.7818608E-02  0.1235058E+00
         -4   -1    0    0    0  501 -0.00000000000E+00  0.00000000000E+00  0.13830039661E+04  0.13830045493E+04  0.12700000000E+01 0.  1.
          4   -1    0    0  501    0  0.00000000000E+00 -0.00000000000E+00 -0.26814312687E+01  0.29669805609E+01  0.12700000000E+01 0.  1.
         25    2    1    2    0    0  0.00000000000E+00  0.00000000000E+00  0.13803225349E+04  0.13859715298E+04  0.12500712454E+03 0.  0.
    9000005    1    3    3    0    0 -0.25503641510E+02  0.48247697443E+02  0.10278041494E+04  0.10292524693E+04  0.10000000000E+01 0.  0.
    9000005    1    3    3    0    0  0.25503641510E+02 -0.48247697443E+02  0.35251838545E+03  0.35671906049E+03  0.10000000000E+01 0.  0.
<mgrwt>
<rscale>  0 0.12500712E+03</rscale>
<asrwt>0</asrwt>
<pdfrwt beam="2">  1        4 0.43453778E-03 0.12500712E+03</pdfrwt>
<pdfrwt beam="1">  1       -4 0.21279200E+00 0.12500712E+03</pdfrwt>
<totfact> 0.20280805E+03</totfact>
</mgrwt>
</event>
<event>
 5    1  0.3337119E-002  0.1250024E+03  0.7818608E-02  0.1235066E+00
         -4   -1    0    0    0  501 -0.00000000000E+00  0.00000000000E+00  0.23824081288E+03  0.23824419788E+03  0.12700000000E+01 0.  1.
          4   -1    0    0  501    0  0.00000000000E+00 -0.00000000000E+00 -0.16368756201E+02  0.16417949919E+02  0.12700000000E+01 0.  1.
         25    2    1    2    0    0  0.00000000000E+00  0.00000000000E+00  0.22187205668E+03  0.25466214780E+03  0.12500239992E+03 0.  0.
    9000005    1    3    3    0    0  0.12392517468E+02  0.39240416344E+01  0.23546612374E+03  0.23582677545E+03  0.10000000000E+01 0.  0.
    9000005    1    3    3    0    0 -0.12392517468E+02 -0.39240416344E+01 -0.13594067062E+02  0.18835372341E+02  0.10000000000E+01 0.  0.
<mgrwt>
<rscale>  0 0.12500240E+03</rscale>
<asrwt>0</asrwt>
<pdfrwt beam="2">  1        4 0.25223149E-02 0.12500240E+03</pdfrwt>
<pdfrwt beam="1">  1       -4 0.36656475E-01 0.12500240E+03</pdfrwt>
<totfact> 0.81656675E+03</totfact>
</mgrwt>
</event>
<event>
 5    1  0.3337119E-002  0.1250004E+03  0.7818608E-02  0.1235069E+00
         -4   -1    0    0    0  501 -0.00000000000E+00  0.00000000000E+00  0.14390582227E+02  0.14446513657E+02  0.12700000000E+01 0. -1.
          4   -1    0    0  501    0  0.00000000000E+00 -0.00000000000E+00 -0.27086261045E+03  0.27086558777E+03  0.12700000000E+01 0. -1.
         25    2    1    2    0    0  0.00000000000E+00  0.00000000000E+00 -0.25647202822E+03  0.28531210142E+03  0.12500037584E+03 0.  0.
    9000005    1    3    3    0    0 -0.51192782674E+02  0.35692619686E+02 -0.13567055457E+03  0.14933908890E+03  0.10000000000E+01 0.  0.
    9000005    1    3    3    0    0  0.51192782674E+02 -0.35692619686E+02 -0.12080147365E+03  0.13597301252E+03  0.10000000000E+01 0.  0.
<mgrwt>
<rscale>  0 0.12500038E+03</rscale>
<asrwt>0</asrwt>
<pdfrwt beam="2">  1        4 0.41675699E-01 0.12500038E+03</pdfrwt>
<pdfrwt beam="1">  1       -4 0.22184674E-02 0.12500038E+03</pdfrwt>
<totfact> 0.77478345E+03</totfact>
</mgrwt>
</event>
<event>
 5    1  0.3337119E-002  0.1250016E+03  0.7818608E-02  0.1235067E+00
         -4   -1    0    0    0  501 -0.00000000000E+00  0.00000000000E+00  0.59083869228E+03  0.59084005721E+03  0.12700000000E+01 0.  1.
          4   -1    0    0  501    0  0.00000000000E+00 -0.00000000000E+00 -0.65491561205E+01  0.66711577624E+01  0.12700000000E+01 0.  1.
         25    2    1    2    0    0  0.00000000000E+00  0.00000000000E+00  0.58428953616E+03  0.59751121497E+03  0.12500155976E+03 0.  0.
    9000005    1    3    3    0    0 -0.56860588055E+02  0.12469749285E+02  0.40080257606E+03  0.40500904446E+03  0.10000000000E+01 0.  0.
    9000005    1    3    3    0    0  0.56860588055E+02 -0.12469749285E+02  0.18348696010E+03  0.19250217051E+03  0.10000000000E+01 0.  0.
<mgrwt>
<rscale>  0 0.12500156E+03</rscale>
<asrwt>0</asrwt>
<pdfrwt beam="2">  1        4 0.10170524E-02 0.12500156E+03</pdfrwt>
<pdfrwt beam="1">  1       -4 0.90907730E-01 0.12500156E+03</pdfrwt>
<totfact> 0.49023418E+03</totfact>
</mgrwt>
</event>
<event>
 5    1  0.3337119E-002  0.1250004E+03  0.7818608E-02  0.1235069E+00
         -4   -1    0    0    0  501 -0.00000000000E+00  0.00000000000E+00  0.31270557020E+02  0.31296335829E+02  0.12700000000E+01 0.  1.
          4   -1    0    0  501    0  0.00000000000E+00 -0.00000000000E+00 -0.12483815903E+03  0.12484461883E+03  0.12700000000E+01 0.  1.
         25    2    1    2    0    0  0.00000000000E+00  0.00000000000E+00 -0.93567602011E+02  0.15614095466E+03  0.12500040630E+03 0.  0.
    9000005    1    3    3    0    0 -0.29920329997E+02  0.50099276258E+02 -0.18849427135E+02  0.61330779646E+02  0.10000000000E+01 0.  0.
    9000005    1    3    3    0    0  0.29920329997E+02 -0.50099276258E+02 -0.74718174876E+02  0.94810175011E+02  0.10000000000E+01 0.  0.
<mgrwt>
<rscale>  0 0.12500041E+03</rscale>
<asrwt>0</asrwt>
<pdfrwt beam="2">  1        4 0.19208350E-01 0.12500041E+03</pdfrwt>
<pdfrwt beam="1">  1       -4 0.48133349E-02 0.12500041E+03</pdfrwt>
<totfact> 0.98091084E+03</totfact>
</mgrwt>
</event>
<event>
 5    1  0.3337119E-002  0.1250026E+03  0.7818608E-02  0.1235065E+00
          4   -1    0    0  501    0  0.00000000000E+00  0.00000000000E+00  0.34956624223E+03  0.34956854922E+03  0.12700000000E+01 0. -1.
         -4   -1    0    0    0  501 -0.00000000000E+00 -0.00000000000E+00 -0.11136592346E+02  0.11208772863E+02  0.12700000000E+01 0. -1.
         25    2    1    2    0    0  0.00000000000E+00  0.00000000000E+00  0.33842964988E+03  0.36077732208E+03  0.12500259282E+03 0.  0.
    9000005    1    3    3    0    0 -0.77536809910E+00 -0.47379481675E+02  0.51623935775E+02  0.70081718189E+02  0.10000000000E+01 0.  0.
    9000005    1    3    3    0    0  0.77536809910E+00  0.47379481675E+02  0.28680571411E+03  0.29069560389E+03  0.10000000000E+01 0.  0.
<mgrwt>
<rscale>  0 0.12500259E+03</rscale>
<asrwt>0</asrwt>
<pdfrwt beam="1">  1        4 0.53785157E-01 0.12500259E+03</pdfrwt>
<pdfrwt beam="2">  1       -4 0.17190515E-02 0.12500259E+03</pdfrwt>
<totfact> 0.68551031E+03</totfact>
</mgrwt>
</event>
<event>
 5    1  0.3337119E-002  0.1250006E+03  0.7818608E-02  0.1235068E+00
         -4   -1    0    0    0  501 -0.00000000000E+00  0.00000000000E+00  0.64788582200E+02  0.64801028413E+02  0.12700000000E+01 0. -1.
          4   -1    0    0  501    0  0.00000000000E+00 -0.00000000000E+00 -0.60267910986E+02  0.60281290585E+02  0.12700000000E+01 0. -1.
         25    2    1    2    0    0  0.00000000000E+00  0.00000000000E+00  0.45206712136E+01  0.12508231900E+03  0.12500060023E+03 0.  0.
    9000005    1    3    3    0    0  0.37259088156E+02 -0.49532380154E+02 -0.57192854829E+01  0.62252763476E+02  0.10000000000E+01 0.  0.
    9000005    1    3    3    0    0 -0.37259088156E+02  0.49532380154E+02  0.10239956696E+02  0.62829555522E+02  0.10000000000E+01 0.  0.
<mgrwt>
<rscale>  0 0.12500060E+03</rscale>
<asrwt>0</asrwt>
<pdfrwt beam="2">  1        4 0.92739729E-02 0.12500060E+03</pdfrwt>
<pdfrwt beam="1">  1       -4 0.99694608E-02 0.12500060E+03</pdfrwt>
<totfact> 0.10450933E+04</totfact>
</mgrwt>
</event>
<event>
 5    1  0.3337119E-002  0.1249998E+03  0.7818608E-02  0.1235070E+00
         -4   -1    0    0    0  501 -0.00000000000E+00  0.00000000000E+00  0.57388571992E+01  0.58777020980E+01  0.12700000000E+01 0. -1.
          4   -1    0    0  501    0  0.00000000000E+00 -0.00000000000E+00 -0.67238937594E+03  0.67239057532E+03  0.12700000000E+01 0. -1.
         25    2    1    2    0    0  0.00000000000E+00  0.00000000000E+00 -0.66665051874E+03  0.67826827742E+03  0.12499976805E+03 0.  0.
    9000005    1    3    3    0    0 -0.19486377338E+02 -0.19154683255E+02 -0.63828367688E+03  0.63886905776E+03  0.10000000000E+01 0.  0.
    9000005    1    3    3    0    0  0.19486377338E+02  0.19154683255E+02 -0.28366841862E+02  0.39399219657E+02  0.10000000000E+01 0.  0.
<mgrwt>
<rscale>  0 0.12499977E+03</rscale>
<asrwt>0</asrwt>
<pdfrwt beam="2">  1        4 0.10345523E+00 0.12499977E+03</pdfrwt>
<pdfrwt beam="1">  1       -4 0.89367428E-03 0.12499977E+03</pdfrwt>
<totfact> 0.44259228E+03</totfact>
</mgrwt>
</event>
<event>
 5    1  0.3337119E-002  0.1249691E+03  0.7818608E-02  0.1235118E+00
          4   -1    0    0  501    0  0.00000000000E+00  0.00000000000E+00  0.19835195894E+04  0.19835199960E+04  0.12700000000E+01 0. -1.
         -4   -1    0    0    0  501 -0.00000000000E+00 -0.00000000000E+00 -0.17630782971E+01  0.21728656382E+01  0.12700000000E+01 0. -1.
         25    2    1    2    0    0  0.00000000000E+00  0.00000000000E+00  0.19817565111E+04  0.19856928616E+04  0.12496908163E+03 0.  0.
    9000005    1    3    3    0    0 -0.29819616416E+02  0.42909733157E+02  0.44671005290E+03  0.44975696335E+03  0.10000000000E+01 0.  0.
    9000005    1    3    3    0    0  0.29819616416E+02 -0.42909733157E+02  0.15350464582E+04  0.15359358983E+04  0.10000000000E+01 0.  0.
<mgrwt>
<rscale>  0 0.12496908E+03</rscale>
<asrwt>0</asrwt>
<pdfrwt beam="1">  1        4 0.30518759E+00 0.12496908E+03</pdfrwt>
<pdfrwt beam="2">  1       -4 0.30279701E-03 0.12496908E+03</pdfrwt>
<totfact> 0.10056051E+03</totfact>
</mgrwt>
</event>
<event>
 5    1  0.3337119E-002  0.1250028E+03  0.7818608E-02  0.1235065E+00
          4   -1    0    0  501    0  0.00000000000E+00  0.00000000000E+00  0.11640001434E+03  0.11640694240E+03  0.12700000000E+01 0.  1.
         -4   -1    0    0    0  501 -0.00000000000E+00 -0.00000000000E+00 -0.33540411400E+02  0.33564446917E+02  0.12700000000E+01 0.  1.
         25    2    1    2    0    0  0.00000000000E+00  0.00000000000E+00  0.82859602944E+02  0.14997138932E+03  0.12500281522E+03 0.  0.
    9000005    1    3    3    0    0 -0.21605061262E+02  0.55828673298E+02  0.19907632356E+02  0.63094637334E+02  0.10000000000E+01 0.  0.
    9000005    1    3    3    0    0  0.21605061262E+02 -0.55828673298E+02  0.62951970588E+02  0.86876751984E+02  0.10000000000E+01 0.  0.
<mgrwt>
<rscale>  0 0.12500282E+03</rscale>
<asrwt>0</asrwt>
<pdfrwt beam="1">  1        4 0.17910077E-01 0.12500282E+03</pdfrwt>
<pdfrwt beam="2">  1       -4 0.51624450E-02 0.12500282E+03</pdfrwt>
<totfact> 0.99303109E+03</totfact>
</mgrwt>
</event>
<event>
 5    1  0.3337119E-002  0.1250159E+03  0.7818608E-02  0.1235044E+00
          4   -1    0    0  501    0  0.00000000000E+00  0.00000000000E+00  0.18478904655E+02  0.18522494898E+02  0.12700000000E+01 0.  1.
         -4   -1    0    0    0  501 -0.00000000000E+00 -0.00000000000E+00 -0.21114903863E+03  0.21115285793E+03  0.12700000000E+01 0.  1.
         25    2    1    2    0    0  0.00000000000E+00  0.00000000000E+00 -0.19267013397E+03  0.22967535283E+03  0.12501594767E+03 0.  0.
    9000005    1    3    3    0    0  0.35254618594E+02 -0.14642372563E+02 -0.18725095479E+03  0.19110522567E+03  0.10000000000E+01 0.  0.
    9000005    1    3    3    0    0 -0.35254618594E+02  0.14642372563E+02 -0.54191791803E+01  0.38570127164E+02  0.10000000000E+01 0.  0.
<mgrwt>
<rscale>  0 0.12501595E+03</rscale>
<asrwt>0</asrwt>
<pdfrwt beam="1">  1        4 0.28465554E-02 0.12501595E+03</pdfrwt>
<pdfrwt beam="2">  1       -4 0.32488113E-01 0.12501595E+03</pdfrwt>
<totfact> 0.85329106E+03</totfact>
</mgrwt>
</event>
<event>
 5    1  0.3337119E-002  0.1249987E+03  0.7818608E-02  0.1235071E+00
          4   -1    0    0  501    0  0.00000000000E+00  0.00000000000E+00  0.29072207304E+01  0.31725119976E+01  0.12700000000E+01 0.  1.
         -4   -1    0    0    0  501 -0.00000000000E+00 -0.00000000000E+00 -0.12847151181E+04  0.12847157458E+04  0.12700000000E+01 0.  1.
         25    2    1    2    0    0  0.00000000000E+00  0.00000000000E+00 -0.12818078973E+04  0.12878882578E+04  0.12499871552E+03 0.  0.
    9000005    1    3    3    0    0  0.16356872670E+02 -0.59643737644E+02 -0.73320083010E+03  0.73580525955E+03  0.10000000000E+01 0.  0.
    9000005    1    3    3    0    0 -0.16356872670E+02  0.59643737644E+02 -0.54860706722E+03  0.55208299823E+03  0.10000000000E+01 0.  0.
<mgrwt>
<rscale>  0 0.12499872E+03</rscale>
<asrwt>0</asrwt>
<pdfrwt beam="1">  1        4 0.46772106E-03 0.12499872E+03</pdfrwt>
<pdfrwt beam="2">  1       -4 0.19766850E+00 0.12499872E+03</pdfrwt>
<totfact> 0.22516888E+03</totfact>
</mgrwt>
</event>
<event>
 5    1  0.3337119E-002  0.1249990E+03  0.7818608E-02  0.1235071E+00
          4   -1    0    0  501    0  0.00000000000E+00  0.00000000000E+00  0.91193419902E+02  0.91202262765E+02  0.12700000000E+01 0.  1.
         -4   -1    0    0    0  501 -0.00000000000E+00 -0.00000000000E+00 -0.42813769568E+02  0.42832601656E+02  0.12700000000E+01 0.  1.
         25    2    1    2    0    0  0.00000000000E+00  0.00000000000E+00  0.48379650334E+02  0.13403486442E+03  0.12499901725E+03 0.  0.
    9000005    1    3    3    0    0 -0.45344153989E+02 -0.46737007309E+01 -0.21646574619E+02  0.50472863722E+02  0.10000000000E+01 0.  0.
    9000005    1    3    3    0    0  0.45344153989E+02  0.46737007309E+01  0.70026224954E+02  0.83562000699E+02  0.10000000000E+01 0.  0.
<mgrwt>
<rscale>  0 0.12499902E+03</rscale>
<asrwt>0</asrwt>
<pdfrwt beam="1">  1        4 0.14031886E-01 0.12499902E+03</pdfrwt>
<pdfrwt beam="2">  1       -4 0.65888627E-02 0.12499902E+03</pdfrwt>
<totfact> 0.10258681E+04</totfact>
</mgrwt>
</event>
<event>
 5    1  0.3337119E-002  0.1249948E+03  0.7818608E-02  0.1235077E+00
          4   -1    0    0  501    0  0.00000000000E+00  0.00000000000E+00  0.23424855082E+03  0.23425199350E+03  0.12700000000E+01 0.  1.
         -4   -1    0    0    0  501 -0.00000000000E+00 -0.00000000000E+00 -0.16646524431E+02  0.16694899689E+02  0.12700000000E+01 0.  1.
         25    2    1    2    0    0  0.00000000000E+00  0.00000000000E+00  0.21760202639E+03  0.25094689319E+03  0.12499480515E+03 0.  0.
    9000005    1    3    3    0    0  0.13058422364E+02 -0.20811374575E+01  0.23141738331E+03  0.23179702074E+03  0.10000000000E+01 0.  0.
    9000005    1    3    3    0    0 -0.13058422364E+02  0.20811374575E+01 -0.13815356925E+02  0.19149872447E+02  0.10000000000E+01 0.  0.
<mgrwt>
<rscale>  0 0.12499481E+03</rscale>
<asrwt>0</asrwt>
<pdfrwt beam="1">  1        4 0.36042224E-01 0.12499481E+03</pdfrwt>
<pdfrwt beam="2">  1       -4 0.25649898E-02 0.12499481E+03</pdfrwt>
<totfact> 0.82203076E+03</totfact>
</mgrwt>
</event>
<event>
 5    1  0.3337119E-002  0.1250026E+03  0.7818608E-02  0.1235065E+00
          4   -1    0    0  501    0  0.00000000000E+00  0.00000000000E+00  0.12018494589E+03  0.12019165578E+03  0.12700000000E+01 0. -1.
         -4   -1    0    0    0  501 -0.00000000000E+00 -0.00000000000E+00 -0.32483307531E+02  0.32508124649E+02  0.12700000000E+01 0. -1.
         25    2    1    2    0    0  0.00000000000E+00  0.00000000000E+00  0.87701638361E+02  0.15269978043E+03  0.12500258226E+03 0.  0.
    9000005    1    3    3    0    0  0.35398058779E+02 -0.47982006745E+02  0.20993498680E+02  0.63222009802E+02  0.10000000000E+01 0.  0.
    9000005    1    3    3    0    0 -0.35398058779E+02  0.47982006745E+02  0.66708139680E+02  0.89477770626E+02  0.10000000000E+01 0.  0.
<mgrwt>
<rscale>  0 0.12500258E+03</rscale>
<asrwt>0</asrwt>
<pdfrwt beam="1">  1        4 0.18492416E-01 0.12500258E+03</pdfrwt>
<pdfrwt beam="2">  1       -4 0.49998572E-02 0.12500258E+03</pdfrwt>
<totfact> 0.98762497E+03</totfact>
</mgrwt>
</event>
<event>
 5    1  0.3337119E-002  0.1250013E+03  0.7818608E-02  0.1235067E+00
          4   -1    0    0  501    0  0.00000000000E+00  0.00000000000E+00  0.77297421178E+02  0.77307853552E+02  0.12700000000E+01 0.  1.
         -4   -1    0    0    0  501 -0.00000000000E+00 -0.00000000000E+00 -0.50514533729E+02  0.50530495920E+02  0.12700000000E+01 0.  1.
         25    2    1    2    0    0  0.00000000000E+00  0.00000000000E+00  0.26782887449E+02  0.12783834947E+03  0.12500128214E+03 0.  0.
    9000005    1    3    3    0    0  0.42682485262E+02 -0.75797712354E+00 -0.33283871793E+02  0.54140421120E+02  0.10000000000E+01 0.  0.
    9000005    1    3    3    0    0 -0.42682485262E+02  0.75797712354E+00  0.60066759242E+02  0.73697928352E+02  0.10000000000E+01 0.  0.
<mgrwt>
<rscale>  0 0.12500128E+03</rscale>
<asrwt>0</asrwt>
<pdfrwt beam="1">  1        4 0.11893941E-01 0.12500128E+03</pdfrwt>
<pdfrwt beam="2">  1       -4 0.77734971E-02 0.12500128E+03</pdfrwt>
<totfact> 0.10390679E+04</totfact>
</mgrwt>
</event>
<event>
 5    1  0.3337119E-002  0.1250048E+03  0.7818608E-02  0.1235062E+00
          4   -1    0    0  501    0  0.00000000000E+00  0.00000000000E+00  0.55704833431E+02  0.55719308750E+02  0.12700000000E+01 0. -1.
         -4   -1    0    0    0  501 -0.00000000000E+00 -0.00000000000E+00 -0.70100178189E+02  0.70111681495E+02  0.12700000000E+01 0. -1.
         25    2    1    2    0    0  0.00000000000E+00  0.00000000000E+00 -0.14395344758E+02  0.12583099025E+03  0.12500484853E+03 0.  0.
    9000005    1    3    3    0    0 -0.18083203130E+02  0.44133499643E+02 -0.47847537782E+02  0.67565930009E+02  0.10000000000E+01 0.  0.
    9000005    1    3    3    0    0  0.18083203130E+02 -0.44133499643E+02  0.33452193024E+02  0.58265060236E+02  0.10000000000E+01 0.  0.
<mgrwt>
<rscale>  0 0.12500485E+03</rscale>
<asrwt>0</asrwt>
<pdfrwt beam="1">  1        4 0.85719728E-02 0.12500485E+03</pdfrwt>
<pdfrwt beam="2">  1       -4 0.10786641E-01 0.12500485E+03</pdfrwt>
<totfact> 0.10433523E+04</totfact>
</mgrwt>
</event>
<event>
 5    1  0.3337119E-002  0.1250031E+03  0.7818608E-02  0.1235064E+00
         -4   -1    0    0    0  501 -0.00000000000E+00  0.00000000000E+00  0.37579938603E+02  0.37601392067E+02  0.12700000000E+01 0. -1.
          4   -1    0    0  501    0  0.00000000000E+00 -0.00000000000E+00 -0.10389527279E+03  0.10390303464E+03  0.12700000000E+01 0. -1.
         25    2    1    2    0    0  0.00000000000E+00  0.00000000000E+00 -0.66315334182E+02  0.14150442671E+03  0.12500311688E+03 0.  0.
    9000005    1    3    3    0    0 -0.25390010171E+02 -0.57100252748E+02 -0.33830547052E+02  0.71067555145E+02  0.10000000000E+01 0.  0.
    9000005    1    3    3    0    0  0.25390010171E+02  0.57100252748E+02 -0.32484787130E+02  0.70436871561E+02  0.10000000000E+01 0.  0.
<mgrwt>
<rscale>  0 0.12500312E+03</rscale>
<asrwt>0</asrwt>
<pdfrwt beam="2">  1        4 0.15986135E-01 0.12500312E+03</pdfrwt>
<pdfrwt beam="1">  1       -4 0.57837764E-02 0.12500312E+03</pdfrwt>
<totfact> 0.10101791E+04</totfact>
</mgrwt>
</event>
<event>
 5    1  0.3337119E-002  0.1249860E+03  0.7818608E-02  0.1235091E+00
         -4   -1    0    0    0  501 -0.00000000000E+00  0.00000000000E+00  0.76237585910E+02  0.76248163292E+02  0.12700000000E+01 0. -1.
          4   -1    0    0  501    0  0.00000000000E+00 -0.00000000000E+00 -0.51204331030E+02  0.51220078253E+02  0.12700000000E+01 0. -1.
         25    2    1    2    0    0  0.00000000000E+00  0.00000000000E+00  0.25033254880E+02  0.12746824154E+03  0.12498595422E+03 0.  0.
    9000005    1    3    3    0    0 -0.26474632761E+01  0.39236378709E+02 -0.37005658828E+02  0.54008529524E+02  0.10000000000E+01 0.  0.
    9000005    1    3    3    0    0  0.26474632761E+01 -0.39236378709E+02  0.62038913708E+02  0.73459712020E+02  0.10000000000E+01 0.  0.
<mgrwt>
<rscale>  0 0.12498595E+03</rscale>
<asrwt>0</asrwt>
<pdfrwt beam="2">  1        4 0.78796144E-02 0.12498595E+03</pdfrwt>
<pdfrwt beam="1">  1       -4 0.11730884E-01 0.12498595E+03</pdfrwt>
<totfact> 0.10402286E+04</totfact>
</mgrwt>
</event>
<event>
 5    1  0.3337119E-002  0.1249977E+03  0.7818608E-02  0.1235073E+00
         -4   -1    0    0    0  501 -0.00000000000E+00  0.00000000000E+00  0.74039714342E+02  0.74050605668E+02  0.12700000000E+01 0.  1.
          4   -1    0    0  501    0  0.00000000000E+00 -0.00000000000E+00 -0.52734448301E+02  0.52749738744E+02  0.12700000000E+01 0.  1.
         25    2    1    2    0    0  0.00000000000E+00  0.00000000000E+00  0.21305266041E+02  0.12680034441E+03  0.12499765191E+03 0.  0.
    9000005    1    3    3    0    0 -0.41313786415E+02 -0.46276358350E+02  0.30091847617E+01  0.62115903623E+02  0.10000000000E+01 0.  0.
    9000005    1    3    3    0    0  0.41313786415E+02  0.46276358350E+02  0.18296081279E+02  0.64684440789E+02  0.10000000000E+01 0.  0.
<mgrwt>
<rscale>  0 0.12499765E+03</rscale>
<asrwt>0</asrwt>
<pdfrwt beam="2">  1        4 0.81150061E-02 0.12499765E+03</pdfrwt>
<pdfrwt beam="1">  1       -4 0.11392739E-01 0.12499765E+03</pdfrwt>
<totfact> 0.10414038E+04</totfact>
</mgrwt>
</event>
<event>
 5    1  0.3337119E-002  0.1250050E+03  0.7818608E-02  0.1235061E+00
         -4   -1    0    0    0  501 -0.00000000000E+00  0.00000000000E+00  0.13441787658E+02  0.13501650100E+02  0.12700000000E+01 0.  1.
          4   -1    0    0  501    0  0.00000000000E+00 -0.00000000000E+00 -0.28992133662E+03  0.28992411823E+03  0.12700000000E+01 0.  1.
         25    2    1    2    0    0  0.00000000000E+00  0.00000000000E+00 -0.27647954897E+03  0.30342576833E+03  0.12500502345E+03 0.  0.
    9000005    1    3    3    0    0  0.20980336412E+01 -0.59011495699E+02 -0.88565533975E+02  0.10645004546E+03  0.10000000000E+01 0.  0.
    9000005    1    3    3    0    0 -0.20980336412E+01  0.59011495699E+02 -0.18791401499E+03  0.19697572287E+03  0.10000000000E+01 0.  0.
<mgrwt>
<rscale>  0 0.12500502E+03</rscale>
<asrwt>0</asrwt>
<pdfrwt beam="2">  1        4 0.44608097E-01 0.12500502E+03</pdfrwt>
<pdfrwt beam="1">  1       -4 0.20727863E-02 0.12500502E+03</pdfrwt>
<totfact> 0.75162738E+03</totfact>
</mgrwt>
</event>
<event>
 5    1  0.3337119E-002  0.1249988E+03  0.7818608E-02  0.1235071E+00
          4   -1    0    0  501    0  0.00000000000E+00  0.00000000000E+00  0.15105039882E+04  0.15105045221E+04  0.12700000000E+01 0.  1.
         -4   -1    0    0    0  501 -0.00000000000E+00 -0.00000000000E+00 -0.24295134743E+01  0.27414295034E+01  0.12700000000E+01 0.  1.
         25    2    1    2    0    0  0.00000000000E+00  0.00000000000E+00  0.15080744748E+04  0.15132459516E+04  0.12499875483E+03 0.  0.
    9000005    1    3    3    0    0  0.55224428873E+02 -0.28903679772E+02  0.69988102219E+03  0.70265183802E+03  0.10000000000E+01 0.  0.
    9000005    1    3    3    0    0 -0.55224428873E+02  0.28903679772E+02  0.80819345257E+03  0.81059411361E+03  0.10000000000E+01 0.  0.
<mgrwt>
<rscale>  0 0.12499875E+03</rscale>
<asrwt>0</asrwt>
<pdfrwt beam="1">  1        4 0.23240880E+00 0.12499875E+03</pdfrwt>
<pdfrwt beam="2">  1       -4 0.39780671E-03 0.12499875E+03</pdfrwt>
<totfact> 0.17672027E+03</totfact>
</mgrwt>
</event>
<event>
 5    1  0.3337119E-002  0.1249961E+03  0.7818608E-02  0.1235075E+00
          4   -1    0    0  501    0  0.00000000000E+00  0.00000000000E+00  0.16167154529E+03  0.16167653342E+03  0.12700000000E+01 0. -1.
         -4   -1    0    0    0  501 -0.00000000000E+00 -0.00000000000E+00 -0.24138077414E+02  0.24171464193E+02  0.12700000000E+01 0. -1.
         25    2    1    2    0    0  0.00000000000E+00  0.00000000000E+00  0.13753346788E+03  0.18584799761E+03  0.12499609365E+03 0.  0.
    9000005    1    3    3    0    0  0.29891080066E+02  0.31806690964E+02  0.13525754542E+03  0.14212932791E+03  0.10000000000E+01 0.  0.
    9000005    1    3    3    0    0 -0.29891080066E+02 -0.31806690964E+02  0.22759224585E+01  0.43718669703E+02  0.10000000000E+01 0.  0.
<mgrwt>
<rscale>  0 0.12499609E+03</rscale>
<asrwt>0</asrwt>
<pdfrwt beam="1">  1        4 0.24875498E-01 0.12499609E+03</pdfrwt>
<pdfrwt beam="2">  1       -4 0.37165022E-02 0.12499609E+03</pdfrwt>
<totfact> 0.92582914E+03</totfact>
</mgrwt>
</event>
<event>
 5    1  0.3337119E-002  0.1249885E+03  0.7818608E-02  0.1235087E+00
          4   -1    0    0  501    0  0.00000000000E+00  0.00000000000E+00  0.37563448418E+03  0.37563663108E+03  0.12700000000E+01 0. -1.
         -4   -1    0    0    0  501 -0.00000000000E+00 -0.00000000000E+00 -0.10356188196E+02  0.10433768924E+02  0.12700000000E+01 0. -1.
         25    2    1    2    0    0  0.00000000000E+00  0.00000000000E+00  0.36527829599E+03  0.38607040000E+03  0.12498848042E+03 0.  0.
    9000005    1    3    3    0    0 -0.30298165982E+02 -0.52535292617E+02  0.22913572031E+03  0.23702766538E+03  0.10000000000E+01 0.  0.
    9000005    1    3    3    0    0  0.30298165982E+02  0.52535292617E+02  0.13614257568E+03  0.14904273462E+03  0.10000000000E+01 0.  0.
<mgrwt>
<rscale>  0 0.12498848E+03</rscale>
<asrwt>0</asrwt>
<pdfrwt beam="1">  1        4 0.57796061E-01 0.12498848E+03</pdfrwt>
<pdfrwt beam="2">  1       -4 0.15993924E-02 0.12498848E+03</pdfrwt>
<totfact> 0.65947268E+03</totfact>
</mgrwt>
</event>
<event>
 5    1  0.3337119E-002  0.1250004E+03  0.7818608E-02  0.1235069E+00
          4   -1    0    0  501    0  0.00000000000E+00  0.00000000000E+00  0.48061069418E+02  0.48077846183E+02  0.12700000000E+01 0. -1.
         -4   -1    0    0    0  501 -0.00000000000E+00 -0.00000000000E+00 -0.81241400610E+02  0.81251326593E+02  0.12700000000E+01 0. -1.
         25    2    1    2    0    0  0.00000000000E+00  0.00000000000E+00 -0.33180331192E+02  0.12932917278E+03  0.12500040221E+03 0.  0.
    9000005    1    3    3    0    0 -0.56583665408E+02 -0.23135635736E+02 -0.30012723425E+02  0.68108240319E+02  0.10000000000E+01 0.  0.
    9000005    1    3    3    0    0  0.56583665408E+02  0.23135635736E+02 -0.31676077673E+01  0.61220932457E+02  0.10000000000E+01 0.  0.
<mgrwt>
<rscale>  0 0.12500040E+03</rscale>
<asrwt>0</asrwt>
<pdfrwt beam="1">  1        4 0.73960647E-02 0.12500040E+03</pdfrwt>
<pdfrwt beam="2">  1       -4 0.12500731E-01 0.12500040E+03</pdfrwt>
<totfact> 0.10358785E+04</totfact>
</mgrwt>
</event>
<event>
 5    1  0.3337119E-002  0.1250029E+03  0.7818608E-02  0.1235065E+00
          4   -1    0    0  501    0  0.00000000000E+00  0.00000000000E+00  0.30959678253E+02  0.30985715702E+02  0.12700000000E+01 0.  1.
         -4   -1    0    0    0  501 -0.00000000000E+00 -0.00000000000E+00 -0.12609580050E+03  0.12610219587E+03  0.12700000000E+01 0.  1.
         25    2    1    2    0    0  0.00000000000E+00  0.00000000000E+00 -0.95136122242E+02  0.15708791157E+03  0.12500292079E+03 0.  0.
    9000005    1    3    3    0    0 -0.23941788999E+02 -0.19738323392E+02 -0.11573751820E+03  0.11982897726E+03  0.10000000000E+01 0.  0.
    9000005    1    3    3    0    0  0.23941788999E+02  0.19738323392E+02  0.20601395958E+02  0.37258934314E+02  0.10000000000E+01 0.  0.
<mgrwt>
<rscale>  0 0.12500292E+03</rscale>
<asrwt>0</asrwt>
<pdfrwt beam="1">  1        4 0.47655223E-02 0.12500292E+03</pdfrwt>
<pdfrwt beam="2">  1       -4 0.19401849E-01 0.12500292E+03</pdfrwt>
<totfact> 0.97900739E+03</totfact>
</mgrwt>
</event>
<event>
 5    1  0.3337119E-002  0.1249972E+03  0.7818608E-02  0.1235074E+00
         -4   -1    0    0    0  501 -0.00000000000E+00  0.00000000000E+00  0.52325598732E+02  0.52341008614E+02  0.12700000000E+01 0. -1.
          4   -1    0    0  501    0  0.00000000000E+00 -0.00000000000E+00 -0.74617649776E+02  0.74628456758E+02  0.12700000000E+01 0. -1.
         25    2    1    2    0    0  0.00000000000E+00  0.00000000000E+00 -0.22292051044E+02  0.12696946537E+03  0.12499723836E+03 0.  0.
    9000005    1    3    3    0    0  0.27493287319E+02  0.56112006635E+02 -0.11958180067E+02  0.63627322800E+02  0.10000000000E+01 0.  0.
    9000005    1    3    3    0    0 -0.27493287319E+02 -0.56112006635E+02 -0.10333870977E+02  0.63342142571E+02  0.10000000000E+01 0.  0.
<mgrwt>
<rscale>  0 0.12499724E+03</rscale>
<asrwt>0</asrwt>
<pdfrwt beam="2">  1        4 0.11481655E-01 0.12499724E+03</pdfrwt>
<pdfrwt beam="1">  1       -4 0.80521087E-02 0.12499724E+03</pdfrwt>
<totfact> 0.10410458E+04</totfact>
</mgrwt>
</event>
<event>
 5    1  0.3337119E-002  0.1250011E+03  0.7818608E-02  0.1235067E+00
          4   -1    0    0  501    0  0.00000000000E+00  0.00000000000E+00  0.11975951183E+01  0.17456042127E+01  0.12700000000E+01 0.  1.
         -4   -1    0    0    0  501 -0.00000000000E+00 -0.00000000000E+00 -0.26539247007E+04  0.26539250045E+04  0.12700000000E+01 0.  1.
         25    2    1    2    0    0  0.00000000000E+00  0.00000000000E+00 -0.26527271055E+04  0.26556706087E+04  0.12500114267E+03 0.  0.
    9000005    1    3    3    0    0 -0.38166558363E+02 -0.39996689655E+02 -0.19453604973E+04  0.19461461625E+04  0.10000000000E+01 0.  0.
    9000005    1    3    3    0    0  0.38166558363E+02  0.39996689655E+02 -0.70736660819E+03  0.70952444620E+03  0.10000000000E+01 0.  0.
<mgrwt>
<rscale>  0 0.12500114E+03</rscale>
<asrwt>0</asrwt>
<pdfrwt beam="1">  1        4 0.22642545E-03 0.12500114E+03</pdfrwt>
<pdfrwt beam="2">  1       -4 0.40833445E+00 0.12500114E+03</pdfrwt>
<totfact> 0.35586531E+02</totfact>
</mgrwt>
</event>
<event>
 5    1  0.3337119E-002  0.1250026E+03  0.7818608E-02  0.1235065E+00
          4   -1    0    0  501    0  0.00000000000E+00  0.00000000000E+00  0.16814276020E+02  0.16862170029E+02  0.12700000000E+01 0. -1.
         -4   -1    0    0    0  501 -0.00000000000E+00 -0.00000000000E+00 -0.23194714764E+03  0.23195062448E+03  0.12700000000E+01 0. -1.
         25    2    1    2    0    0  0.00000000000E+00  0.00000000000E+00 -0.21513287162E+03  0.24881279451E+03  0.12500261702E+03 0.  0.
    9000005    1    3    3    0    0  0.54173779501E+02  0.23773151296E+02 -0.67486817943E+02  0.89752056824E+02  0.10000000000E+01 0.  0.
    9000005    1    3    3    0    0 -0.54173779501E+02 -0.23773151296E+02 -0.14764605368E+03  0.15906073769E+03  0.10000000000E+01 0.  0.
<mgrwt>
<rscale>  0 0.12500262E+03</rscale>
<asrwt>0</asrwt>
<pdfrwt beam="1">  1        4 0.25907635E-02 0.12500262E+03</pdfrwt>
<pdfrwt beam="2">  1       -4 0.35688126E-01 0.12500262E+03</pdfrwt>
<totfact> 0.82497310E+03</totfact>
</mgrwt>
</event>
<event>
 5    1  0.3337119E-002  0.1249976E+03  0.7818608E-02  0.1235073E+00
          4   -1    0    0  501    0  0.00000000000E+00  0.00000000000E+00  0.48909947141E+02  0.48926432829E+02  0.12700000000E+01 0.  1.
         -4   -1    0    0    0  501 -0.00000000000E+00 -0.00000000000E+00 -0.79828107011E+02  0.79838208704E+02  0.12700000000E+01 0.  1.
         25    2    1    2    0    0  0.00000000000E+00  0.00000000000E+00 -0.30918159870E+02  0.12876464153E+03  0.12499760117E+03 0.  0.
    9000005    1    3    3    0    0 -0.31640690668E+02  0.70232313737E+01 -0.70498100053E+02  0.77597945823E+02  0.10000000000E+01 0.  0.
    9000005    1    3    3    0    0  0.31640690668E+02 -0.70232313737E+01  0.39579940183E+02  0.51166695709E+02  0.10000000000E+01 0.  0.
<mgrwt>
<rscale>  0 0.12499760E+03</rscale>
<asrwt>0</asrwt>
<pdfrwt beam="1">  1        4 0.75266524E-02 0.12499760E+03</pdfrwt>
<pdfrwt beam="2">  1       -4 0.12283292E-01 0.12499760E+03</pdfrwt>
<totfact> 0.10371569E+04</totfact>
</mgrwt>
</event>
<event>
 5    1  0.3337119E-002  0.1249845E+03  0.7818608E-02  0.1235093E+00
          4   -1    0    0  501    0  0.00000000000E+00  0.00000000000E+00  0.16935928640E+01  0.21168742969E+01  0.12700000000E+01 0.  1.
         -4   -1    0    0    0  501 -0.00000000000E+00 -0.00000000000E+00 -0.20493432385E+04  0.20493436321E+04  0.12700000000E+01 0.  1.
         25    2    1    2    0    0  0.00000000000E+00  0.00000000000E+00 -0.20476496457E+04  0.20514605064E+04  0.12498454980E+03 0.  0.
    9000005    1    3    3    0    0  0.58609397674E+02  0.13526979936E+02 -0.74612549434E+03  0.74854678810E+03  0.10000000000E+01 0.  0.
    9000005    1    3    3    0    0 -0.58609397674E+02 -0.13526979936E+02 -0.13015241513E+04  0.13029137182E+04  0.10000000000E+01 0.  0.
<mgrwt>
<rscale>  0 0.12498455E+03</rscale>
<asrwt>0</asrwt>
<pdfrwt beam="1">  1        4 0.29314477E-03 0.12498455E+03</pdfrwt>
<pdfrwt beam="2">  1       -4 0.31531440E+00 0.12498455E+03</pdfrwt>
<totfact> 0.92076985E+02</totfact>
</mgrwt>
</event>
<event>
 5    1  0.3337119E-002  0.1249960E+03  0.7818608E-02  0.1235076E+00
          4   -1    0    0  501    0  0.00000000000E+00  0.00000000000E+00  0.63179365429E+02  0.63192128592E+02  0.12700000000E+01 0. -1.
         -4   -1    0    0    0  501 -0.00000000000E+00 -0.00000000000E+00 -0.61798468322E+02  0.61811516621E+02  0.12700000000E+01 0. -1.
         25    2    1    2    0    0  0.00000000000E+00  0.00000000000E+00  0.13808971065E+01  0.12500364521E+03  0.12499601770E+03 0.  0.
    9000005    1    3    3    0    0  0.58194724658E+02  0.46967416266E+01  0.22969953133E+02  0.62747941057E+02  0.10000000000E+01 0.  0.
    9000005    1    3    3    0    0 -0.58194724658E+02 -0.46967416266E+01 -0.21589056026E+02  0.62255704156E+02  0.10000000000E+01 0.  0.
<mgrwt>
<rscale>  0 0.12499602E+03</rscale>
<asrwt>0</asrwt>
<pdfrwt beam="1">  1        4 0.97218878E-02 0.12499602E+03</pdfrwt>
<pdfrwt beam="2">  1       -4 0.95094422E-02 0.12499602E+03</pdfrwt>
<totfact> 0.10453724E+04</totfact>
</mgrwt>
</event>
<event>
 5    1  0.3337119E-002  0.1249991E+03  0.7818608E-02  0.1235071E+00
          4   -1    0    0  501    0  0.00000000000E+00  0.00000000000E+00  0.11849595655E+02  0.11917458503E+02  0.12700000000E+01 0. -1.
         -4   -1    0    0    0  501 -0.00000000000E+00 -0.00000000000E+00 -0.32863747467E+03  0.32863992858E+03  0.12700000000E+01 0. -1.
         25    2    1    2    0    0  0.00000000000E+00  0.00000000000E+00 -0.31678787902E+03  0.34055738709E+03  0.12499909442E+03 0.  0.
    9000005    1    3    3    0    0  0.27120135835E+02 -0.55180029763E+02 -0.12795089666E+03  0.14196045016E+03  0.10000000000E+01 0.  0.
    9000005    1    3    3    0    0 -0.27120135835E+02  0.55180029763E+02 -0.18883698235E+03  0.19859693693E+03  0.10000000000E+01 0.  0.
<mgrwt>
<rscale>  0 0.12499909E+03</rscale>
<asrwt>0</asrwt>
<pdfrwt beam="1">  1        4 0.18284239E-02 0.12499909E+03</pdfrwt>
<pdfrwt beam="2">  1       -4 0.50565014E-01 0.12499909E+03</pdfrwt>
<totfact> 0.70777427E+03</totfact>
</mgrwt>
</event>
<event>
 5    1  0.3337119E-002  0.1249958E+03  0.7818608E-02  0.1235076E+00
          4   -1    0    0  501    0  0.00000000000E+00  0.00000000000E+00  0.43698066246E+02  0.43716517400E+02  0.12700000000E+01 0. -1.
         -4   -1    0    0    0  501 -0.00000000000E+00 -0.00000000000E+00 -0.89344001215E+02  0.89353027107E+02  0.12700000000E+01 0. -1.
         25    2    1    2    0    0  0.00000000000E+00  0.00000000000E+00 -0.45645934969E+02  0.13306954451E+03  0.12499580911E+03 0.  0.
    9000005    1    3    3    0    0  0.29133209163E+02 -0.48098083210E+02 -0.51838102781E+02  0.76487635501E+02  0.10000000000E+01 0.  0.
    9000005    1    3    3    0    0 -0.29133209163E+02  0.48098083210E+02  0.61921678115E+01  0.56581909006E+02  0.10000000000E+01 0.  0.
<mgrwt>
<rscale>  0 0.12499581E+03</rscale>
<asrwt>0</asrwt>
<pdfrwt beam="1">  1        4 0.67248931E-02 0.12499581E+03</pdfrwt>
<pdfrwt beam="2">  1       -4 0.13747345E-01 0.12499581E+03</pdfrwt>
<totfact> 0.10279894E+04</totfact>
</mgrwt>
</event>
<event>
 5    1  0.3337119E-002  0.1250022E+03  0.7818608E-02  0.1235066E+00
         -4   -1    0    0    0  501 -0.00000000000E+00  0.00000000000E+00  0.76294201729E+01  0.77344005699E+01  0.12700000000E+01 0. -1.
          4   -1    0    0  501    0  0.00000000000E+00 -0.00000000000E+00 -0.50841165839E+03  0.50841324460E+03  0.12700000000E+01 0. -1.
         25    2    1    2    0    0  0.00000000000E+00  0.00000000000E+00 -0.50078223822E+03  0.51614764517E+03  0.12500216599E+03 0.  0.
    9000005    1    3    3    0    0 -0.61837475849E+02  0.62984509975E+01 -0.22368198026E+03  0.23215979884E+03  0.10000000000E+01 0.  0.
    9000005    1    3    3    0    0  0.61837475849E+02 -0.62984509975E+01 -0.27710025796E+03  0.28398784633E+03  0.10000000000E+01 0.  0.
<mgrwt>
<rscale>  0 0.12500217E+03</rscale>
<asrwt>0</asrwt>
<pdfrwt beam="2">  1        4 0.78225349E-01 0.12500217E+03</pdfrwt>
<pdfrwt beam="1">  1       -4 0.11819548E-02 0.12500217E+03</pdfrwt>
<totfact> 0.54630329E+03</totfact>
</mgrwt>
</event>
<event>
 5    1  0.3337119E-002  0.1250040E+03  0.7818608E-02  0.1235063E+00
         -4   -1    0    0    0  501 -0.00000000000E+00  0.00000000000E+00  0.46756063486E+01  0.48450175157E+01  0.12700000000E+01 0. -1.
          4   -1    0    0  501    0  0.00000000000E+00 -0.00000000000E+00 -0.82046944196E+03  0.82047042488E+03  0.12700000000E+01 0. -1.
         25    2    1    2    0    0  0.00000000000E+00  0.00000000000E+00 -0.81579383561E+03  0.82531544239E+03  0.12500398883E+03 0.  0.
    9000005    1    3    3    0    0  0.45627894989E+01 -0.19414804913E+02 -0.16866857805E+02  0.26138947761E+02  0.10000000000E+01 0.  0.
    9000005    1    3    3    0    0 -0.45627894989E+01  0.19414804913E+02 -0.79892697781E+03  0.79917649463E+03  0.10000000000E+01 0.  0.
<mgrwt>
<rscale>  0 0.12500399E+03</rscale>
<asrwt>0</asrwt>
<pdfrwt beam="2">  1        4 0.12623906E+00 0.12500399E+03</pdfrwt>
<pdfrwt beam="1">  1       -4 0.73243194E-03 0.12500399E+03</pdfrwt>
<totfact> 0.37156046E+03</totfact>
</mgrwt>
</event>
<event>
 5    1  0.3337119E-002  0.1250119E+03  0.7818608E-02  0.1235051E+00
          4   -1    0    0  501    0  0.00000000000E+00  0.00000000000E+00  0.17425868364E+03  0.17426331146E+03  0.12700000000E+01 0.  1.
         -4   -1    0    0    0  501 -0.00000000000E+00 -0.00000000000E+00 -0.22397746611E+02  0.22433723571E+02  0.12700000000E+01 0.  1.
         25    2    1    2    0    0  0.00000000000E+00  0.00000000000E+00  0.15186093703E+03  0.19669703504E+03  0.12501191702E+03 0.  0.
    9000005    1    3    3    0    0 -0.26871561285E+02 -0.53751999682E+02  0.48922636336E+02  0.77496984598E+02  0.10000000000E+01 0.  0.
    9000005    1    3    3    0    0  0.26871561285E+02  0.53751999682E+02  0.10293830069E+03  0.11920005044E+03  0.10000000000E+01 0.  0.
<mgrwt>
<rscale>  0 0.12501192E+03</rscale>
<asrwt>0</asrwt>
<pdfrwt beam="1">  1        4 0.26812151E-01 0.12501192E+03</pdfrwt>
<pdfrwt beam="2">  1       -4 0.34489307E-02 0.12501192E+03</pdfrwt>
<totfact> 0.90670743E+03</totfact>
</mgrwt>
</event>
<event>
 5    1  0.3337119E-002  0.1249980E+03  0.7818608E-02  0.1235072E+00
         -4   -1    0    0    0  501 -0.00000000000E+00  0.00000000000E+00  0.47087211127E+03  0.47087382394E+03  0.12700000000E+01 0.  1.
          4   -1    0    0  501    0  0.00000000000E+00 -0.00000000000E+00 -0.82451698310E+01  0.83424052612E+01  0.12700000000E+01 0.  1.
         25    2    1    2    0    0  0.00000000000E+00  0.00000000000E+00  0.46262694144E+03  0.47921622920E+03  0.12499802952E+03 0.  0.
    9000005    1    3    3    0    0 -0.10610625073E+02 -0.21254793821E+02  0.45290439991E+03  0.45352811057E+03  0.10000000000E+01 0.  0.
    9000005    1    3    3    0    0  0.10610625073E+02  0.21254793821E+02  0.97225415319E+01  0.25688118628E+02  0.10000000000E+01 0.  0.
<mgrwt>
<rscale>  0 0.12499803E+03</rscale>
<asrwt>0</asrwt>
<pdfrwt beam="2">  1        4 0.12760990E-02 0.12499803E+03</pdfrwt>
<pdfrwt beam="1">  1       -4 0.72449479E-01 0.12499803E+03</pdfrwt>
<totfact> 0.57516267E+03</totfact>
</mgrwt>
</event>
<event>
 5    1  0.3337119E-002  0.1249983E+03  0.7818608E-02  0.1235072E+00
         -4   -1    0    0    0  501 -0.00000000000E+00  0.00000000000E+00  0.18563743566E+03  0.18564177983E+03  0.12700000000E+01 0. -1.
          4   -1    0    0  501    0  0.00000000000E+00 -0.00000000000E+00 -0.21018015250E+02  0.21056349756E+02  0.12700000000E+01 0. -1.
         25    2    1    2    0    0  0.00000000000E+00  0.00000000000E+00  0.16461942041E+03  0.20669812958E+03  0.12499825278E+03 0.  0.
    9000005    1    3    3    0    0 -0.54001549614E+02 -0.31402824722E+02  0.79524944582E+02  0.10113120968E+03  0.10000000000E+01 0.  0.
    9000005    1    3    3    0    0  0.54001549614E+02  0.31402824722E+02  0.85094475825E+02  0.10556691990E+03  0.10000000000E+01 0.  0.
<mgrwt>
<rscale>  0 0.12499825E+03</rscale>
<asrwt>0</asrwt>
<pdfrwt beam="2">  1        4 0.32368239E-02 0.12499825E+03</pdfrwt>
<pdfrwt beam="1">  1       -4 0.28562887E-01 0.12499825E+03</pdfrwt>
<totfact> 0.89021453E+03</totfact>
</mgrwt>
</event>
<event>
 4    1  0.3337119E-002  0.1245539E+03  0.7818608E-02  0.1235768E+00
         -4   -1    0    0    0  501 -0.00000000000E+00  0.00000000000E+00  0.42652749717E+02  0.42671652867E+02  0.12700000000E+01 0. -1.
          4   -1    0    0  501    0  0.00000000000E+00 -0.00000000000E+00 -0.90886676266E+02  0.90895548970E+02  0.12700000000E+01 0. -1.
    9000005    1    1    2    0    0 -0.50835129754E+02  0.15997601411E+02  0.10420621260E+02  0.54311352547E+02  0.10000000000E+01 0.  0.
    9000005    1    1    2    0    0  0.50835129754E+02 -0.15997601411E+02 -0.58654547809E+02  0.79255849290E+02  0.10000000000E+01 0.  0.
<mgrwt>
<rscale>  0 0.12455395E+03</rscale>
<asrwt>0</asrwt>
<pdfrwt beam="2">  1        4 0.13984702E-01 0.12455395E+03</pdfrwt>
<pdfrwt beam="1">  1       -4 0.65640981E-02 0.12455395E+03</pdfrwt>
<totfact> 0.10372357E+04</totfact>
</mgrwt>
</event>
<event>
 5    1  0.3337119E-002  0.1250026E+03  0.7818608E-02  0.1235065E+00
          4   -1    0    0  501    0  0.00000000000E+00  0.00000000000E+00  0.25650462516E+03  0.25650776914E+03  0.12700000000E+01 0.  1.
         -4   -1    0    0    0  501 -0.00000000000E+00 -0.00000000000E+00 -0.15199673604E+02  0.15252638384E+02  0.12700000000E+01 0.  1.
         25    2    1    2    0    0  0.00000000000E+00  0.00000000000E+00  0.24130495156E+03  0.27176040752E+03  0.12500255778E+03 0.  0.
    9000005    1    3    3    0    0  0.45674842493E+02 -0.41628342455E+02  0.14084878471E+03  0.15381316682E+03  0.10000000000E+01 0.  0.
    9000005    1    3    3    0    0 -0.45674842493E+02  0.41628342455E+02  0.10045616684E+03  0.11794724070E+03  0.10000000000E+01 0.  0.
<mgrwt>
<rscale>  0 0.12500256E+03</rscale>
<asrwt>0</asrwt>
<pdfrwt beam="1">  1        4 0.39466562E-01 0.12500256E+03</pdfrwt>
<pdfrwt beam="2">  1       -4 0.23427276E-02 0.12500256E+03</pdfrwt>
<totfact> 0.79278947E+03</totfact>
</mgrwt>
</event>
<event>
 5    1  0.3337119E-002  0.1250054E+03  0.7818608E-02  0.1235061E+00
          4   -1    0    0  501    0  0.00000000000E+00  0.00000000000E+00  0.85788702992E+02  0.85798102899E+02  0.12700000000E+01 0. -1.
         -4   -1    0    0    0  501 -0.00000000000E+00 -0.00000000000E+00 -0.45516551589E+02  0.45534265872E+02  0.12700000000E+01 0. -1.
         25    2    1    2    0    0  0.00000000000E+00  0.00000000000E+00  0.40272151404E+02  0.13133236877E+03  0.12500537952E+03 0.  0.
    9000005    1    3    3    0    0  0.48017033246E+02  0.22696289729E+02  0.54739872519E+02  0.76277196413E+02  0.10000000000E+01 0.  0.
    9000005    1    3    3    0    0 -0.48017033246E+02 -0.22696289729E+02 -0.14467721115E+02  0.55055172359E+02  0.10000000000E+01 0.  0.
<mgrwt>
<rscale>  0 0.12500538E+03</rscale>
<asrwt>0</asrwt>
<pdfrwt beam="1">  1        4 0.13200348E-01 0.12500538E+03</pdfrwt>
<pdfrwt beam="2">  1       -4 0.70046322E-02 0.12500538E+03</pdfrwt>
<totfact> 0.10314717E+04</totfact>
</mgrwt>
</event>
<event>
 5    1  0.3337119E-002  0.1250035E+03  0.7818608E-02  0.1235064E+00
          4   -1    0    0  501    0  0.00000000000E+00  0.00000000000E+00  0.74275036331E+02  0.74285893156E+02  0.12700000000E+01 0. -1.
         -4   -1    0    0    0  501 -0.00000000000E+00 -0.00000000000E+00 -0.52572231625E+02  0.52587569235E+02  0.12700000000E+01 0. -1.
         25    2    1    2    0    0  0.00000000000E+00  0.00000000000E+00  0.21702804706E+02  0.12687346239E+03  0.12500345486E+03 0.  0.
    9000005    1    3    3    0    0 -0.57472927296E+02  0.14502441630E+02  0.30946776676E+02  0.66874219038E+02  0.10000000000E+01 0.  0.
    9000005    1    3    3    0    0  0.57472927296E+02 -0.14502441630E+02 -0.92439719702E+01  0.59999243354E+02  0.10000000000E+01 0.  0.
<mgrwt>
<rscale>  0 0.12500345E+03</rscale>
<asrwt>0</asrwt>
<pdfrwt beam="1">  1        4 0.11428944E-01 0.12500345E+03</pdfrwt>
<pdfrwt beam="2">  1       -4 0.80900506E-02 0.12500345E+03</pdfrwt>
<totfact> 0.10411084E+04</totfact>
</mgrwt>
</event>
<event>
 5    1  0.3337119E-002  0.1250008E+03  0.7818608E-02  0.1235068E+00
         -4   -1    0    0    0  501 -0.00000000000E+00  0.00000000000E+00  0.26619113743E+03  0.26619416701E+03  0.12700000000E+01 0.  1.
          4   -1    0    0  501    0  0.00000000000E+00 -0.00000000000E+00 -0.14644207125E+02  0.14699173525E+02  0.12700000000E+01 0.  1.
         25    2    1    2    0    0  0.00000000000E+00  0.00000000000E+00  0.25154693031E+03  0.28089334053E+03  0.12500084243E+03 0.  0.
    9000005    1    3    3    0    0 -0.47513569808E+02 -0.40107438950E+02  0.11171197275E+03  0.12785425621E+03  0.10000000000E+01 0.  0.
    9000005    1    3    3    0    0  0.47513569808E+02  0.40107438950E+02  0.13983495755E+03  0.15303908432E+03  0.10000000000E+01 0.  0.
<mgrwt>
<rscale>  0 0.12500084E+03</rscale>
<asrwt>0</asrwt>
<pdfrwt beam="2">  1        4 0.22574163E-02 0.12500084E+03</pdfrwt>
<pdfrwt beam="1">  1       -4 0.40956941E-01 0.12500084E+03</pdfrwt>
<totfact> 0.78058343E+03</totfact>
</mgrwt>
</event>
<event>
 5    1  0.3337119E-002  0.1250007E+03  0.7818608E-02  0.1235068E+00
         -4   -1    0    0    0  501 -0.00000000000E+00  0.00000000000E+00  0.24779139632E+02  0.24811663808E+02  0.12700000000E+01 0.  1.
          4   -1    0    0  501    0  0.00000000000E+00 -0.00000000000E+00 -0.15750585767E+03  0.15751097771E+03  0.12700000000E+01 0.  1.
         25    2    1    2    0    0  0.00000000000E+00  0.00000000000E+00 -0.13272671803E+03  0.18232264152E+03  0.12500065572E+03 0.  0.
    9000005    1    3    3    0    0 -0.51892424494E+02 -0.13174909008E+02 -0.11337581009E+03  0.12538531118E+03  0.10000000000E+01 0.  0.
    9000005    1    3    3    0    0  0.51892424494E+02  0.13174909008E+02 -0.19350907942E+02  0.56937330332E+02  0.10000000000E+01 0.  0.
<mgrwt>
<rscale>  0 0.12500066E+03</rscale>
<asrwt>0</asrwt>
<pdfrwt beam="2">  1        4 0.24234565E-01 0.12500066E+03</pdfrwt>
<pdfrwt beam="1">  1       -4 0.38150711E-02 0.12500066E+03</pdfrwt>
<totfact> 0.93199213E+03</totfact>
</mgrwt>
</event>
<event>
 5    1  0.3337119E-002  0.1250003E+03  0.7818608E-02  0.1235069E+00
         -4   -1    0    0    0  501 -0.00000000000E+00  0.00000000000E+00  0.44943756559E+01  0.46703653536E+01  0.12700000000E+01 0.  1.
          4   -1    0    0  501    0  0.00000000000E+00 -0.00000000000E+00 -0.85227937133E+03  0.85228031756E+03  0.12700000000E+01 0.  1.
         25    2    1    2    0    0  0.00000000000E+00  0.00000000000E+00 -0.84778499568E+03  0.85695068291E+03  0.12500029620E+03 0.  0.
    9000005    1    3    3    0    0 -0.26424708840E+01 -0.20946471867E+02 -0.20661963368E+02  0.29557639727E+02  0.10000000000E+01 0.  0.
    9000005    1    3    3    0    0  0.26424708840E+01  0.20946471867E+02 -0.82712303231E+03  0.82739304319E+03  0.10000000000E+01 0.  0.
<mgrwt>
<rscale>  0 0.12500030E+03</rscale>
<asrwt>0</asrwt>
<pdfrwt beam="2">  1        4 0.13113339E+00 0.12500030E+03</pdfrwt>
<pdfrwt beam="1">  1       -4 0.70505354E-03 0.12500030E+03</pdfrwt>
<totfact> 0.35844371E+03</totfact>
</mgrwt>
</event>
<event>
 5    1  0.3337119E-002  0.1249925E+03  0.7818608E-02  0.1235081E+00
         -4   -1    0    0    0  501 -0.00000000000E+00  0.00000000000E+00  0.11043248475E+03  0.11043978717E+03  0.12700000000E+01 0. -1.
          4   -1    0    0  501    0  0.00000000000E+00 -0.00000000000E+00 -0.35348192314E+02  0.35370999418E+02  0.12700000000E+01 0. -1.
         25    2    1    2    0    0  0.00000000000E+00  0.00000000000E+00  0.75084292441E+02  0.14581078658E+03  0.12499253783E+03 0.  0.
    9000005    1    3    3    0    0 -0.27450054928E+02 -0.32585423891E+02  0.90866236650E+02  0.10036427815E+03  0.10000000000E+01 0.  0.
    9000005    1    3    3    0    0  0.27450054928E+02  0.32585423891E+02 -0.15781944209E+02  0.45446508433E+02  0.10000000000E+01 0.  0.
<mgrwt>
<rscale>  0 0.12499254E+03</rscale>
<asrwt>0</asrwt>
<pdfrwt beam="2">  1        4 0.54404997E-02 0.12499254E+03</pdfrwt>
<pdfrwt beam="1">  1       -4 0.16991929E-01 0.12499254E+03</pdfrwt>
<totfact> 0.10016224E+04</totfact>
</mgrwt>
</event>
<event>
 5    1  0.3337119E-002  0.1250010E+03  0.7818608E-02  0.1235068E+00
         -4   -1    0    0    0  501 -0.00000000000E+00  0.00000000000E+00  0.13718698451E+03  0.13719286286E+03  0.12700000000E+01 0. -1.
          4   -1    0    0  501    0  0.00000000000E+00 -0.00000000000E+00 -0.28453692557E+02  0.28482020998E+02  0.12700000000E+01 0. -1.
         25    2    1    2    0    0  0.00000000000E+00  0.00000000000E+00  0.10873329195E+03  0.16567488385E+03  0.12500095344E+03 0.  0.
    9000005    1    3    3    0    0 -0.17968525252E+01  0.42370867894E+02  0.11520171727E+03  0.12276381709E+03  0.10000000000E+01 0.  0.
    9000005    1    3    3    0    0  0.17968525252E+01 -0.42370867894E+02 -0.64684253128E+01  0.42911066767E+02  0.10000000000E+01 0.  0.
<mgrwt>
<rscale>  0 0.12500095E+03</rscale>
<asrwt>0</asrwt>
<pdfrwt beam="2">  1        4 0.43801225E-02 0.12500095E+03</pdfrwt>
<pdfrwt beam="1">  1       -4 0.21108321E-01 0.12500095E+03</pdfrwt>
<totfact> 0.96257671E+03</totfact>
</mgrwt>
</event>
<event>
 5    1  0.3337119E-002  0.1249971E+03  0.7818608E-02  0.1235074E+00
          4   -1    0    0  501    0  0.00000000000E+00  0.00000000000E+00  0.10293422211E+03  0.10294205643E+03  0.12700000000E+01 0. -1.
         -4   -1    0    0    0  501 -0.00000000000E+00 -0.00000000000E+00 -0.37927314576E+02  0.37948571659E+02  0.12700000000E+01 0. -1.
         25    2    1    2    0    0  0.00000000000E+00  0.00000000000E+00  0.65006907538E+02  0.14089062809E+03  0.12499708419E+03 0.  0.
    9000005    1    3    3    0    0  0.58671845254E+01 -0.56735228022E+02  0.37277903351E+01  0.57168228709E+02  0.10000000000E+01 0.  0.
    9000005    1    3    3    0    0 -0.58671845254E+01  0.56735228022E+02  0.61279117202E+02  0.83722399381E+02  0.10000000000E+01 0.  0.
<mgrwt>
<rscale>  0 0.12499708E+03</rscale>
<asrwt>0</asrwt>
<pdfrwt beam="1">  1        4 0.15838272E-01 0.12499708E+03</pdfrwt>
<pdfrwt beam="2">  1       -4 0.58372094E-02 0.12499708E+03</pdfrwt>
<totfact> 0.10115825E+04</totfact>
</mgrwt>
</event>
<event>
 5    1  0.3337119E-002  0.1249960E+03  0.7818608E-02  0.1235076E+00
          4   -1    0    0  501    0  0.00000000000E+00  0.00000000000E+00  0.34273723217E+02  0.34297244834E+02  0.12700000000E+01 0.  1.
         -4   -1    0    0    0  501 -0.00000000000E+00 -0.00000000000E+00 -0.11389862382E+03  0.11390570402E+03  0.12700000000E+01 0.  1.
         25    2    1    2    0    0  0.00000000000E+00  0.00000000000E+00 -0.79624900600E+02  0.14820294885E+03  0.12499595694E+03 0.  0.
    9000005    1    3    3    0    0 -0.55335941659E+02  0.28784933499E+02 -0.35319671151E+02  0.71687641934E+02  0.10000000000E+01 0.  0.
    9000005    1    3    3    0    0  0.55335941659E+02 -0.28784933499E+02 -0.44305229448E+02  0.76515306915E+02  0.10000000000E+01 0.  0.
<mgrwt>
<rscale>  0 0.12499596E+03</rscale>
<asrwt>0</asrwt>
<pdfrwt beam="1">  1        4 0.52752345E-02 0.12499596E+03</pdfrwt>
<pdfrwt beam="2">  1       -4 0.17525219E-01 0.12499596E+03</pdfrwt>
<totfact> 0.99672197E+03</totfact>
</mgrwt>
</event>
<event>
 5    1  0.3337119E-002  0.1249430E+03  0.7818608E-02  0.1235158E+00
          4   -1    0    0  501    0  0.00000000000E+00  0.00000000000E+00  0.30124135617E+03  0.30124403325E+03  0.12700000000E+01 0.  1.
         -4   -1    0    0    0  501 -0.00000000000E+00 -0.00000000000E+00 -0.12921491479E+02  0.12983753003E+02  0.12700000000E+01 0.  1.
         25    2    1    2    0    0  0.00000000000E+00  0.00000000000E+00  0.28831986469E+03  0.31422778625E+03  0.12494301612E+03 0.  0.
    9000005    1    3    3    0    0 -0.19499098114E+02 -0.38540491527E+02  0.30676441672E+02  0.52987058685E+02  0.10000000000E+01 0.  0.
    9000005    1    3    3    0    0  0.19499098114E+02  0.38540491527E+02  0.25764342302E+03  0.26124072757E+03  0.10000000000E+01 0.  0.
<mgrwt>
<rscale>  0 0.12494302E+03</rscale>
<asrwt>0</asrwt>
<pdfrwt beam="1">  1        4 0.46349819E-01 0.12494302E+03</pdfrwt>
<pdfrwt beam="2">  1       -4 0.19929170E-02 0.12494302E+03</pdfrwt>
<totfact> 0.73941345E+03</totfact>
</mgrwt>
</event>
<event>
 5    1  0.3337119E-002  0.1249991E+03  0.7818608E-02  0.1235071E+00
          4   -1    0    0  501    0  0.00000000000E+00  0.00000000000E+00  0.23143709201E+02  0.23178528331E+02  0.12700000000E+01 0.  1.
         -4   -1    0    0    0  501 -0.00000000000E+00 -0.00000000000E+00 -0.16861587844E+03  0.16862066114E+03  0.12700000000E+01 0.  1.
         25    2    1    2    0    0  0.00000000000E+00  0.00000000000E+00 -0.14547216924E+03  0.19179918947E+03  0.12499910823E+03 0.  0.
    9000005    1    3    3    0    0 -0.12987261422E+02 -0.39511739760E+02 -0.14430166489E+03  0.15017928295E+03  0.10000000000E+01 0.  0.
    9000005    1    3    3    0    0  0.12987261422E+02  0.39511739760E+02 -0.11705043521E+01  0.41619906518E+02  0.10000000000E+01 0.  0.
<mgrwt>
<rscale>  0 0.12499911E+03</rscale>
<asrwt>0</asrwt>
<pdfrwt beam="1">  1        4 0.35636170E-02 0.12499911E+03</pdfrwt>
<pdfrwt beam="2">  1       -4 0.25943950E-01 0.12499911E+03</pdfrwt>
<totfact> 0.91537029E+03</totfact>
</mgrwt>
</event>
<event>
 5    1  0.3337119E-002  0.1249987E+03  0.7818608E-02  0.1235071E+00
          4   -1    0    0  501    0  0.00000000000E+00  0.00000000000E+00  0.89446973334E+02  0.89455988836E+02  0.12700000000E+01 0. -1.
         -4   -1    0    0    0  501 -0.00000000000E+00 -0.00000000000E+00 -0.43649784687E+02  0.43668256242E+02  0.12700000000E+01 0. -1.
         25    2    1    2    0    0  0.00000000000E+00  0.00000000000E+00  0.45797188647E+02  0.13312424508E+03  0.12499872855E+03 0.  0.
    9000005    1    3    3    0    0 -0.51315054539E+02 -0.10256658779E+02 -0.13479335858E+02  0.54047445516E+02  0.10000000000E+01 0.  0.
    9000005    1    3    3    0    0  0.51315054539E+02  0.10256658779E+02  0.59276524505E+02  0.79076799562E+02  0.10000000000E+01 0.  0.
<mgrwt>
<rscale>  0 0.12499873E+03</rscale>
<asrwt>0</asrwt>
<pdfrwt beam="1">  1        4 0.13763187E-01 0.12499873E+03</pdfrwt>
<pdfrwt beam="2">  1       -4 0.67174659E-02 0.12499873E+03</pdfrwt>
<totfact> 0.10278055E+04</totfact>
</mgrwt>
</event>
<event>
 5    1  0.3337119E-002  0.1249991E+03  0.7818608E-02  0.1235071E+00
          4   -1    0    0  501    0  0.00000000000E+00  0.00000000000E+00  0.40097776408E+03  0.40097977528E+03  0.12700000000E+01 0.  1.
         -4   -1    0    0    0  501 -0.00000000000E+00 -0.00000000000E+00 -0.96982348250E+01  0.97810356671E+01  0.12700000000E+01 0.  1.
         25    2    1    2    0    0  0.00000000000E+00  0.00000000000E+00  0.39127952925E+03  0.41076081095E+03  0.12499909519E+03 0.  0.
    9000005    1    3    3    0    0  0.50354472465E+02 -0.30289349868E+02  0.12576251403E+03  0.13881724514E+03  0.10000000000E+01 0.  0.
    9000005    1    3    3    0    0 -0.50354472465E+02  0.30289349868E+02  0.26551701522E+03  0.27194356581E+03  0.10000000000E+01 0.  0.
<mgrwt>
<rscale>  0 0.12499910E+03</rscale>
<asrwt>0</asrwt>
<pdfrwt beam="1">  1        4 0.61695407E-01 0.12499910E+03</pdfrwt>
<pdfrwt beam="2">  1       -4 0.14985602E-02 0.12499910E+03</pdfrwt>
<totfact> 0.63520760E+03</totfact>
</mgrwt>
</event>
<event>
 5    1  0.3337119E-002  0.1250005E+03  0.7818608E-02  0.1235068E+00
          4   -1    0    0  501    0  0.00000000000E+00  0.00000000000E+00  0.15171866996E+03  0.15172398530E+03  0.12700000000E+01 0.  1.
         -4   -1    0    0    0  501 -0.00000000000E+00 -0.00000000000E+00 -0.25725444681E+02  0.25756773945E+02  0.12700000000E+01 0.  1.
         25    2    1    2    0    0  0.00000000000E+00  0.00000000000E+00  0.12599322528E+03  0.17748075924E+03  0.12500050834E+03 0.  0.
    9000005    1    3    3    0    0 -0.61517111611E+01 -0.32195841996E+02  0.13854046942E+03  0.14236880789E+03  0.10000000000E+01 0.  0.
    9000005    1    3    3    0    0  0.61517111611E+01  0.32195841996E+02 -0.12547244145E+02  0.35111951351E+02  0.10000000000E+01 0.  0.
<mgrwt>
<rscale>  0 0.12500051E+03</rscale>
<asrwt>0</asrwt>
<pdfrwt beam="1">  1        4 0.23344153E-01 0.12500051E+03</pdfrwt>
<pdfrwt beam="2">  1       -4 0.39605794E-02 0.12500051E+03</pdfrwt>
<totfact> 0.94071377E+03</totfact>
</mgrwt>
</event>
<event>
 5    1  0.3337119E-002  0.1249930E+03  0.7818608E-02  0.1235080E+00
          4   -1    0    0  501    0  0.00000000000E+00  0.00000000000E+00  0.13851658603E+02  0.13909757225E+02  0.12700000000E+01 0.  1.
         -4   -1    0    0    0  501 -0.00000000000E+00 -0.00000000000E+00 -0.28132477012E+03  0.28132763672E+03  0.12700000000E+01 0.  1.
         25    2    1    2    0    0  0.00000000000E+00  0.00000000000E+00 -0.26747311152E+03  0.29523739395E+03  0.12499301340E+03 0.  0.
    9000005    1    3    3    0    0 -0.52676275721E+02 -0.10580957020E+02 -0.20910225546E+03  0.21589696597E+03  0.10000000000E+01 0.  0.
    9000005    1    3    3    0    0  0.52676275721E+02  0.10580957020E+02 -0.58370856062E+02  0.79340427984E+02  0.10000000000E+01 0.  0.
<mgrwt>
<rscale>  0 0.12499301E+03</rscale>
<asrwt>0</asrwt>
<pdfrwt beam="1">  1        4 0.21357142E-02 0.12499301E+03</pdfrwt>
<pdfrwt beam="2">  1       -4 0.43285419E-01 0.12499301E+03</pdfrwt>
<totfact> 0.76211986E+03</totfact>
</mgrwt>
</event>
<event>
 5    1  0.3337119E-002  0.1249991E+03  0.7818608E-02  0.1235071E+00
         -4   -1    0    0    0  501 -0.00000000000E+00  0.00000000000E+00  0.11851409410E+03  0.11852089858E+03  0.12700000000E+01 0.  1.
          4   -1    0    0  501    0  0.00000000000E+00 -0.00000000000E+00 -0.32939746533E+02  0.32964220022E+02  0.12700000000E+01 0.  1.
         25    2    1    2    0    0  0.00000000000E+00  0.00000000000E+00  0.85574347568E+02  0.15148511860E+03  0.12499908878E+03 0.  0.
    9000005    1    3    3    0    0 -0.55492267623E+02 -0.19521321513E+02  0.68343952215E+02  0.90179651607E+02  0.10000000000E+01 0.  0.
    9000005    1    3    3    0    0  0.55492267623E+02  0.19521321513E+02  0.17230395352E+02  0.61305466996E+02  0.10000000000E+01 0.  0.
<mgrwt>
<rscale>  0 0.12499909E+03</rscale>
<asrwt>0</asrwt>
<pdfrwt beam="2">  1        4 0.50700592E-02 0.12499909E+03</pdfrwt>
<pdfrwt beam="1">  1       -4 0.18235344E-01 0.12499909E+03</pdfrwt>
<totfact> 0.99010512E+03</totfact>
</mgrwt>
</event>
<event>
 5    1  0.3337119E-002  0.1250013E+03  0.7818608E-02  0.1235067E+00
          4   -1    0    0  501    0  0.00000000000E+00  0.00000000000E+00  0.55061599350E+02  0.55076243726E+02  0.12700000000E+01 0.  1.
         -4   -1    0    0    0  501 -0.00000000000E+00 -0.00000000000E+00 -0.70914954424E+02  0.70926325585E+02  0.12700000000E+01 0.  1.
         25    2    1    2    0    0  0.00000000000E+00  0.00000000000E+00 -0.15853355074E+02  0.12600256931E+03  0.12500127442E+03 0.  0.
    9000005    1    3    3    0    0  0.47842172241E+02 -0.24138986831E+02  0.24483094908E+02  0.58923561215E+02  0.10000000000E+01 0.  0.
    9000005    1    3    3    0    0 -0.47842172241E+02  0.24138986831E+02 -0.40336449982E+02  0.67079008096E+02  0.10000000000E+01 0.  0.
<mgrwt>
<rscale>  0 0.12500127E+03</rscale>
<asrwt>0</asrwt>
<pdfrwt beam="1">  1        4 0.84730165E-02 0.12500127E+03</pdfrwt>
<pdfrwt beam="2">  1       -4 0.10911994E-01 0.12500127E+03</pdfrwt>
<totfact> 0.10430601E+04</totfact>
</mgrwt>
</event>
<event>
 5    1  0.3337119E-002  0.1250004E+03  0.7818608E-02  0.1235069E+00
          4   -1    0    0  501    0  0.00000000000E+00  0.00000000000E+00  0.94919874901E+02  0.94928370634E+02  0.12700000000E+01 0. -1.
         -4   -1    0    0    0  501 -0.00000000000E+00 -0.00000000000E+00 -0.41133237254E+02  0.41152838383E+02  0.12700000000E+01 0. -1.
         25    2    1    2    0    0  0.00000000000E+00  0.00000000000E+00  0.53786637647E+02  0.13608120902E+03  0.12500037223E+03 0.  0.
    9000005    1    3    3    0    0  0.35694107926E+02  0.32624929134E+02  0.69985265945E+02  0.85072867538E+02  0.10000000000E+01 0.  0.
    9000005    1    3    3    0    0 -0.35694107926E+02 -0.32624929134E+02 -0.16198628298E+02  0.51008341479E+02  0.10000000000E+01 0.  0.
<mgrwt>
<rscale>  0 0.12500037E+03</rscale>
<asrwt>0</asrwt>
<pdfrwt beam="1">  1        4 0.14605219E-01 0.12500037E+03</pdfrwt>
<pdfrwt beam="2">  1       -4 0.63303517E-02 0.12500037E+03</pdfrwt>
<totfact> 0.10215246E+04</totfact>
</mgrwt>
</event>
<event>
 5    1  0.3337119E-002  0.1250020E+03  0.7818608E-02  0.1235066E+00
          4   -1    0    0  501    0  0.00000000000E+00  0.00000000000E+00  0.39607823389E+01  0.41594106237E+01  0.12700000000E+01 0.  1.
         -4   -1    0    0    0  501 -0.00000000000E+00 -0.00000000000E+00 -0.96193889652E+03  0.96193973488E+03  0.12700000000E+01 0.  1.
         25    2    1    2    0    0  0.00000000000E+00  0.00000000000E+00 -0.95797811418E+03  0.96609914550E+03  0.12500196675E+03 0.  0.
    9000005    1    3    3    0    0 -0.26370609171E+02 -0.49336208013E+02 -0.69427140437E+03  0.69652225620E+03  0.10000000000E+01 0.  0.
    9000005    1    3    3    0    0  0.26370609171E+02  0.49336208013E+02 -0.26370670981E+03  0.26957688930E+03  0.10000000000E+01 0.  0.
<mgrwt>
<rscale>  0 0.12500197E+03</rscale>
<asrwt>0</asrwt>
<pdfrwt beam="1">  1        4 0.62469548E-03 0.12500197E+03</pdfrwt>
<pdfrwt beam="2">  1       -4 0.14800576E+00 0.12500197E+03</pdfrwt>
<totfact> 0.31749874E+03</totfact>
</mgrwt>
</event>
<event>
 5    1  0.3337119E-002  0.1249984E+03  0.7818608E-02  0.1235072E+00
          4   -1    0    0  501    0  0.00000000000E+00  0.00000000000E+00  0.57017945945E+02  0.57032087983E+02  0.12700000000E+01 0. -1.
         -4   -1    0    0    0  501 -0.00000000000E+00 -0.00000000000E+00 -0.68478801543E+02  0.68490577168E+02  0.12700000000E+01 0. -1.
         25    2    1    2    0    0  0.00000000000E+00  0.00000000000E+00 -0.11460855599E+02  0.12552266515E+03  0.12499835301E+03 0.  0.
    9000005    1    3    3    0    0  0.36129762957E+02 -0.71812066504E+01  0.44961185529E+02  0.58132931325E+02  0.10000000000E+01 0.  0.
    9000005    1    3    3    0    0 -0.36129762957E+02  0.71812066504E+01 -0.56422041127E+02  0.67389733827E+02  0.10000000000E+01 0.  0.
<mgrwt>
<rscale>  0 0.12499835E+03</rscale>
<asrwt>0</asrwt>
<pdfrwt beam="1">  1        4 0.87739853E-02 0.12499835E+03</pdfrwt>
<pdfrwt beam="2">  1       -4 0.10537194E-01 0.12499835E+03</pdfrwt>
<totfact> 0.10441841E+04</totfact>
</mgrwt>
</event>
<event>
 5    1  0.3337119E-002  0.1250006E+03  0.7818608E-02  0.1235068E+00
          4   -1    0    0  501    0  0.00000000000E+00  0.00000000000E+00  0.65605029864E+01  0.66822974668E+01  0.12700000000E+01 0. -1.
         -4   -1    0    0    0  501 -0.00000000000E+00 -0.00000000000E+00 -0.58982665118E+03  0.58982801845E+03  0.12700000000E+01 0. -1.
         25    2    1    2    0    0  0.00000000000E+00  0.00000000000E+00 -0.58326614820E+03  0.59651031591E+03  0.12500062944E+03 0.  0.
    9000005    1    3    3    0    0 -0.47277528644E+02 -0.38122423028E+02 -0.36189837239E+03  0.36696037360E+03  0.10000000000E+01 0.  0.
    9000005    1    3    3    0    0  0.47277528644E+02  0.38122423028E+02 -0.22136777581E+03  0.22954994232E+03  0.10000000000E+01 0.  0.
<mgrwt>
<rscale>  0 0.12500063E+03</rscale>
<asrwt>0</asrwt>
<pdfrwt beam="1">  1        4 0.10187826E-02 0.12500063E+03</pdfrwt>
<pdfrwt beam="2">  1       -4 0.90751994E-01 0.12500063E+03</pdfrwt>
<totfact> 0.49087972E+03</totfact>
</mgrwt>
</event>
<event>
 5    1  0.3337119E-002  0.1250010E+03  0.7818608E-02  0.1235068E+00
         -4   -1    0    0    0  501 -0.00000000000E+00  0.00000000000E+00  0.16428371996E+01  0.20764908052E+01  0.12700000000E+01 0. -1.
          4   -1    0    0  501    0  0.00000000000E+00 -0.00000000000E+00 -0.21001139231E+04  0.21001143071E+04  0.12700000000E+01 0. -1.
         25    2    1    2    0    0  0.00000000000E+00  0.00000000000E+00 -0.20984710859E+04  0.21021907979E+04  0.12500100980E+03 0.  0.
    9000005    1    3    3    0    0  0.38618122176E+01  0.61204882139E+02 -0.84717340871E+03  0.84939080265E+03  0.10000000000E+01 0.  0.
    9000005    1    3    3    0    0 -0.38618122176E+01 -0.61204882139E+02 -0.12512976772E+04  0.12527999953E+04  0.10000000000E+01 0.  0.
<mgrwt>
<rscale>  0 0.12500101E+03</rscale>
<asrwt>0</asrwt>
<pdfrwt beam="2">  1        4 0.32312594E+00 0.12500101E+03</pdfrwt>
<pdfrwt beam="1">  1       -4 0.28613337E-03 0.12500101E+03</pdfrwt>
<totfact> 0.85857151E+02</totfact>
</mgrwt>
</event>
<event>
 5    1  0.3337119E-002  0.1249998E+03  0.7818608E-02  0.1235070E+00
         -4   -1    0    0    0  501 -0.00000000000E+00  0.00000000000E+00  0.19920098955E+02  0.19960542137E+02  0.12700000000E+01 0. -1.
          4   -1    0    0  501    0  0.00000000000E+00 -0.00000000000E+00 -0.19585394666E+03  0.19585806422E+03  0.12700000000E+01 0. -1.
         25    2    1    2    0    0  0.00000000000E+00  0.00000000000E+00 -0.17593384770E+03  0.21581860636E+03  0.12499980834E+03 0.  0.
    9000005    1    3    3    0    0 -0.17184976251E+02 -0.29238173310E+02 -0.17859104193E+03  0.18178546269E+03  0.10000000000E+01 0.  0.
    9000005    1    3    3    0    0  0.17184976251E+02  0.29238173310E+02  0.26571942247E+01  0.34033143675E+02  0.10000000000E+01 0.  0.
<mgrwt>
<rscale>  0 0.12499981E+03</rscale>
<asrwt>0</asrwt>
<pdfrwt beam="2">  1        4 0.30134803E-01 0.12499981E+03</pdfrwt>
<pdfrwt beam="1">  1       -4 0.30680585E-02 0.12499981E+03</pdfrwt>
<totfact> 0.87534731E+03</totfact>
</mgrwt>
</event>
<event>
 5    1  0.3337119E-002  0.1250121E+03  0.7818608E-02  0.1235050E+00
         -4   -1    0    0    0  501 -0.00000000000E+00  0.00000000000E+00  0.11872595335E+03  0.11873274569E+03  0.12700000000E+01 0.  1.
          4   -1    0    0  501    0  0.00000000000E+00 -0.00000000000E+00 -0.32887799361E+02  0.32912311478E+02  0.12700000000E+01 0.  1.
         25    2    1    2    0    0  0.00000000000E+00  0.00000000000E+00  0.85838153987E+02  0.15164505716E+03  0.12501213814E+03 0.  0.
    9000005    1    3    3    0    0  0.54466660924E+02 -0.30602536351E+02  0.40861802668E+02  0.74658015649E+02  0.10000000000E+01 0.  0.
    9000005    1    3    3    0    0 -0.54466660924E+02  0.30602536351E+02  0.44976351318E+02  0.76987041515E+02  0.10000000000E+01 0.  0.
<mgrwt>
<rscale>  0 0.12501214E+03</rscale>
<asrwt>0</asrwt>
<pdfrwt beam="2">  1        4 0.50620695E-02 0.12501214E+03</pdfrwt>
<pdfrwt beam="1">  1       -4 0.18267939E-01 0.12501214E+03</pdfrwt>
<totfact> 0.98949758E+03</totfact>
</mgrwt>
</event>
<event>
 5    1  0.3337119E-002  0.1250021E+03  0.7818608E-02  0.1235066E+00
          4   -1    0    0  501    0  0.00000000000E+00  0.00000000000E+00  0.44843633913E+03  0.44843813749E+03  0.12700000000E+01 0.  1.
         -4   -1    0    0    0  501 -0.00000000000E+00 -0.00000000000E+00 -0.86629977840E+01  0.87555942463E+01  0.12700000000E+01 0.  1.
         25    2    1    2    0    0  0.00000000000E+00  0.00000000000E+00  0.43977334135E+03  0.45719373173E+03  0.12500206629E+03 0.  0.
    9000005    1    3    3    0    0 -0.55566137882E+02  0.19212722264E+02  0.14241566041E+03  0.15407772294E+03  0.10000000000E+01 0.  0.
    9000005    1    3    3    0    0  0.55566137882E+02 -0.19212722264E+02  0.29735768094E+03  0.30311600879E+03  0.10000000000E+01 0.  0.
<mgrwt>
<rscale>  0 0.12500207E+03</rscale>
<asrwt>0</asrwt>
<pdfrwt beam="1">  1        4 0.68997485E-01 0.12500207E+03</pdfrwt>
<pdfrwt beam="2">  1       -4 0.13400297E-02 0.12500207E+03</pdfrwt>
<totfact> 0.59342918E+03</totfact>
</mgrwt>
</event>
<event>
 5    1  0.3337119E-002  0.1249981E+03  0.7818608E-02  0.1235072E+00
         -4   -1    0    0    0  501 -0.00000000000E+00  0.00000000000E+00  0.21972150465E+03  0.21972517494E+03  0.12700000000E+01 0.  1.
          4   -1    0    0  501    0  0.00000000000E+00 -0.00000000000E+00 -0.17751128562E+02  0.17796501488E+02  0.12700000000E+01 0.  1.
         25    2    1    2    0    0  0.00000000000E+00  0.00000000000E+00  0.20197037609E+03  0.23752167643E+03  0.12499805582E+03 0.  0.
    9000005    1    3    3    0    0  0.54985743074E+02  0.17893804019E+02  0.14601271469E+03  0.15704882367E+03  0.10000000000E+01 0.  0.
    9000005    1    3    3    0    0 -0.54985743074E+02 -0.17893804019E+02  0.55957661395E+02  0.80472852767E+02  0.10000000000E+01 0.  0.
<mgrwt>
<rscale>  0 0.12499806E+03</rscale>
<asrwt>0</asrwt>
<pdfrwt beam="2">  1        4 0.27347154E-02 0.12499806E+03</pdfrwt>
<pdfrwt beam="1">  1       -4 0.33807081E-01 0.12499806E+03</pdfrwt>
<totfact> 0.84171507E+03</totfact>
</mgrwt>
</event>
<event>
 5    1  0.3337119E-002  0.1250019E+03  0.7818608E-02  0.1235066E+00
         -4   -1    0    0    0  501 -0.00000000000E+00  0.00000000000E+00  0.93352280462E+02  0.93360918845E+02  0.12700000000E+01 0.  1.
          4   -1    0    0  501    0  0.00000000000E+00 -0.00000000000E+00 -0.41825260714E+02  0.41844537681E+02  0.12700000000E+01 0.  1.
         25    2    1    2    0    0  0.00000000000E+00  0.00000000000E+00  0.51527019749E+02  0.13520545653E+03  0.12500192683E+03 0.  0.
    9000005    1    3    3    0    0 -0.15566497043E+02 -0.56556431150E+02  0.49073128222E+02  0.76486061790E+02  0.10000000000E+01 0.  0.
    9000005    1    3    3    0    0  0.15566497043E+02  0.56556431150E+02  0.24538915266E+01  0.58719394736E+02  0.10000000000E+01 0.  0.
<mgrwt>
<rscale>  0 0.12500193E+03</rscale>
<asrwt>0</asrwt>
<pdfrwt beam="2">  1        4 0.64368029E-02 0.12500193E+03</pdfrwt>
<pdfrwt beam="1">  1       -4 0.14364037E-01 0.12500193E+03</pdfrwt>
<totfact> 0.10233298E+04</totfact>
</mgrwt>
</event>
<event>
 5    1  0.3337119E-002  0.1250029E+03  0.7818608E-02  0.1235065E+00
         -4   -1    0    0    0  501 -0.00000000000E+00  0.00000000000E+00  0.58094310941E+03  0.58094449759E+03  0.12700000000E+01 0. -1.
          4   -1    0    0  501    0  0.00000000000E+00 -0.00000000000E+00 -0.66629228812E+01  0.67828785424E+01  0.12700000000E+01 0. -1.
         25    2    1    2    0    0  0.00000000000E+00  0.00000000000E+00  0.57428018653E+03  0.58772737613E+03  0.12500294399E+03 0.  0.
    9000005    1    3    3    0    0 -0.16281836719E+02 -0.59456840047E+02  0.23891148180E+03  0.24673854618E+03  0.10000000000E+01 0.  0.
    9000005    1    3    3    0    0  0.16281836719E+02  0.59456840047E+02  0.33536870474E+03  0.34098882995E+03  0.10000000000E+01 0.  0.
<mgrwt>
<rscale>  0 0.12500294E+03</rscale>
<asrwt>0</asrwt>
<pdfrwt beam="2">  1        4 0.10343993E-02 0.12500294E+03</pdfrwt>
<pdfrwt beam="1">  1       -4 0.89385188E-01 0.12500294E+03</pdfrwt>
<totfact> 0.49648369E+03</totfact>
</mgrwt>
</event>
<event>
 5    1  0.3337119E-002  0.1250030E+03  0.7818608E-02  0.1235065E+00
          4   -1    0    0  501    0  0.00000000000E+00  0.00000000000E+00  0.37548540402E+03  0.37548755177E+03  0.12700000000E+01 0.  1.
         -4   -1    0    0    0  501 -0.00000000000E+00 -0.00000000000E+00 -0.10362753479E+02  0.10440285421E+02  0.12700000000E+01 0.  1.
         25    2    1    2    0    0  0.00000000000E+00  0.00000000000E+00  0.36512265054E+03  0.38592783719E+03  0.12500298228E+03 0.  0.
    9000005    1    3    3    0    0 -0.58635054769E+01  0.48506479915E+02  0.62266498798E+02  0.79154129158E+02  0.10000000000E+01 0.  0.
    9000005    1    3    3    0    0  0.58635054769E+01 -0.48506479915E+02  0.30285615175E+03  0.30677370803E+03  0.10000000000E+01 0.  0.
<mgrwt>
<rscale>  0 0.12500298E+03</rscale>
<asrwt>0</asrwt>
<pdfrwt beam="1">  1        4 0.57773122E-01 0.12500298E+03</pdfrwt>
<pdfrwt beam="2">  1       -4 0.16003988E-02 0.12500298E+03</pdfrwt>
<totfact> 0.65940484E+03</totfact>
</mgrwt>
</event>
<event>
 5    1  0.3337119E-002  0.1249932E+03  0.7818608E-02  0.1235080E+00
          4   -1    0    0  501    0  0.00000000000E+00  0.00000000000E+00  0.84335513781E+02  0.84345075640E+02  0.12700000000E+01 0.  1.
         -4   -1    0    0    0  501 -0.00000000000E+00 -0.00000000000E+00 -0.46292071747E+02  0.46309489380E+02  0.12700000000E+01 0.  1.
         25    2    1    2    0    0  0.00000000000E+00  0.00000000000E+00  0.38043442034E+02  0.13065456502E+03  0.12499324733E+03 0.  0.
    9000005    1    3    3    0    0 -0.60383072876E+02  0.14218041880E+02  0.26882975130E+02  0.67616289137E+02  0.10000000000E+01 0.  0.
    9000005    1    3    3    0    0  0.60383072876E+02 -0.14218041880E+02  0.11160466904E+02  0.63038275883E+02  0.10000000000E+01 0.  0.
<mgrwt>
<rscale>  0 0.12499325E+03</rscale>
<asrwt>0</asrwt>
<pdfrwt beam="1">  1        4 0.12976770E-01 0.12499325E+03</pdfrwt>
<pdfrwt beam="2">  1       -4 0.71239326E-02 0.12499325E+03</pdfrwt>
<totfact> 0.10332074E+04</totfact>
</mgrwt>
</event>
<event>
 5    1  0.3337119E-002  0.1249970E+03  0.7818608E-02  0.1235074E+00
          4   -1    0    0  501    0  0.00000000000E+00  0.00000000000E+00  0.96116163497E+02  0.96124553499E+02  0.12700000000E+01 0. -1.
         -4   -1    0    0    0  501 -0.00000000000E+00 -0.00000000000E+00 -0.40618920039E+02  0.40638769238E+02  0.12700000000E+01 0. -1.
         25    2    1    2    0    0  0.00000000000E+00  0.00000000000E+00  0.55497243458E+02  0.13676332274E+03  0.12499704962E+03 0.  0.
    9000005    1    3    3    0    0 -0.59798587341E+02 -0.17457420498E+02  0.22340350013E+02  0.66187036625E+02  0.10000000000E+01 0.  0.
    9000005    1    3    3    0    0  0.59798587341E+02  0.17457420498E+02  0.33156893445E+02  0.70576286112E+02  0.10000000000E+01 0.  0.
<mgrwt>
<rscale>  0 0.12499705E+03</rscale>
<asrwt>0</asrwt>
<pdfrwt beam="1">  1        4 0.14789274E-01 0.12499705E+03</pdfrwt>
<pdfrwt beam="2">  1       -4 0.62512368E-02 0.12499705E+03</pdfrwt>
<totfact> 0.10201715E+04</totfact>
</mgrwt>
</event>
<event>
 5    1  0.3337119E-002  0.1250078E+03  0.7818608E-02  0.1235057E+00
          4   -1    0    0  501    0  0.00000000000E+00  0.00000000000E+00  0.76956396251E+01  0.77997287927E+01  0.12700000000E+01 0.  1.
         -4   -1    0    0    0  501 -0.00000000000E+00 -0.00000000000E+00 -0.50414065214E+03  0.50414225179E+03  0.12700000000E+01 0.  1.
         25    2    1    2    0    0  0.00000000000E+00  0.00000000000E+00 -0.49644501251E+03  0.51194198058E+03  0.12500776389E+03 0.  0.
    9000005    1    3    3    0    0 -0.57557628050E+02 -0.14064376422E+00 -0.34793524619E+03  0.35266533125E+03  0.10000000000E+01 0.  0.
    9000005    1    3    3    0    0  0.57557628050E+02  0.14064376422E+00 -0.14850976632E+03  0.15927664933E+03  0.10000000000E+01 0.  0.
<mgrwt>
<rscale>  0 0.12500776E+03</rscale>
<asrwt>0</asrwt>
<pdfrwt beam="1">  1        4 0.11920749E-02 0.12500776E+03</pdfrwt>
<pdfrwt beam="2">  1       -4 0.77568205E-01 0.12500776E+03</pdfrwt>
<totfact> 0.54940211E+03</totfact>
</mgrwt>
</event>
<event>
 5    1  0.3337119E-002  0.1250012E+03  0.7818608E-02  0.1235067E+00
          4   -1    0    0  501    0  0.00000000000E+00  0.00000000000E+00  0.50558692270E+01  0.52129371414E+01  0.12700000000E+01 0.  1.
         -4   -1    0    0    0  501 -0.00000000000E+00 -0.00000000000E+00 -0.76065622029E+03  0.76065728050E+03  0.12700000000E+01 0.  1.
         25    2    1    2    0    0  0.00000000000E+00  0.00000000000E+00 -0.75560035107E+03  0.76587021764E+03  0.12500119892E+03 0.  0.
    9000005    1    3    3    0    0 -0.59993762037E+02  0.16072947986E+02 -0.42013073164E+03  0.42469803721E+03  0.10000000000E+01 0.  0.
    9000005    1    3    3    0    0  0.59993762037E+02 -0.16072947986E+02 -0.33546961942E+03  0.34117218043E+03  0.10000000000E+01 0.  0.
<mgrwt>
<rscale>  0 0.12500120E+03</rscale>
<asrwt>0</asrwt>
<pdfrwt beam="1">  1        4 0.78999034E-03 0.12500120E+03</pdfrwt>
<pdfrwt beam="2">  1       -4 0.11703611E+00 0.12500120E+03</pdfrwt>
<totfact> 0.39825306E+03</totfact>
</mgrwt>
</event>
<event>
 5    1  0.3337119E-002  0.1249985E+03  0.7818608E-02  0.1235072E+00
         -4   -1    0    0    0  501 -0.00000000000E+00  0.00000000000E+00  0.27146209653E+03  0.27146506727E+03  0.12700000000E+01 0.  1.
          4   -1    0    0  501    0  0.00000000000E+00 -0.00000000000E+00 -0.14358251499E+02  0.14414308381E+02  0.12700000000E+01 0.  1.
         25    2    1    2    0    0  0.00000000000E+00  0.00000000000E+00  0.25710384503E+03  0.28587937565E+03  0.12499852118E+03 0.  0.
    9000005    1    3    3    0    0  0.40041759234E+02 -0.43408103223E+02  0.17528593395E+03  0.18496963143E+03  0.10000000000E+01 0.  0.
    9000005    1    3    3    0    0 -0.40041759234E+02  0.43408103223E+02  0.81817911074E+02  0.10090974423E+03  0.10000000000E+01 0.  0.
<mgrwt>
<rscale>  0 0.12499852E+03</rscale>
<asrwt>0</asrwt>
<pdfrwt beam="2">  1        4 0.22135025E-02 0.12499852E+03</pdfrwt>
<pdfrwt beam="1">  1       -4 0.41767938E-01 0.12499852E+03</pdfrwt>
<totfact> 0.77407490E+03</totfact>
</mgrwt>
</event>
<event>
 5    1  0.3337119E-002  0.1250009E+03  0.7818608E-02  0.1235068E+00
          4   -1    0    0  501    0  0.00000000000E+00  0.00000000000E+00  0.85224421701E+02  0.85233883839E+02  0.12700000000E+01 0.  1.
         -4   -1    0    0    0  501 -0.00000000000E+00 -0.00000000000E+00 -0.45814720571E+02  0.45832319612E+02  0.12700000000E+01 0.  1.
         25    2    1    2    0    0  0.00000000000E+00  0.00000000000E+00  0.39409701130E+02  0.13106620345E+03  0.12500090057E+03 0.  0.
    9000005    1    3    3    0    0  0.19752927423E+02  0.11337656974E+02 -0.41313239749E+02  0.47185849425E+02  0.10000000000E+01 0.  0.
    9000005    1    3    3    0    0 -0.19752927423E+02 -0.11337656974E+02  0.80722940879E+02  0.83880354026E+02  0.10000000000E+01 0.  0.
<mgrwt>
<rscale>  0 0.12500090E+03</rscale>
<asrwt>0</asrwt>
<pdfrwt beam="1">  1        4 0.13113531E-01 0.12500090E+03</pdfrwt>
<pdfrwt beam="2">  1       -4 0.70505002E-02 0.12500090E+03</pdfrwt>
<totfact> 0.10321461E+04</totfact>
</mgrwt>
</event>
<event>
 5    1  0.3337119E-002  0.1249967E+03  0.7818608E-02  0.1235074E+00
          4   -1    0    0  501    0  0.00000000000E+00  0.00000000000E+00  0.26587875094E+03  0.26588178407E+03  0.12700000000E+01 0. -1.
         -4   -1    0    0    0  501 -0.00000000000E+00 -0.00000000000E+00 -0.14660501424E+02  0.14715406960E+02  0.12700000000E+01 0. -1.
         25    2    1    2    0    0  0.00000000000E+00  0.00000000000E+00  0.25121824951E+03  0.28059719103E+03  0.12499669886E+03 0.  0.
    9000005    1    3    3    0    0 -0.20982440320E+02 -0.36157048560E+02  0.22987807866E+03  0.23365043551E+03  0.10000000000E+01 0.  0.
    9000005    1    3    3    0    0  0.20982440320E+02  0.36157048560E+02  0.21340170850E+02  0.46946755524E+02  0.10000000000E+01 0.  0.
<mgrwt>
<rscale>  0 0.12499670E+03</rscale>
<asrwt>0</asrwt>
<pdfrwt beam="1">  1        4 0.40908876E-01 0.12499670E+03</pdfrwt>
<pdfrwt beam="2">  1       -4 0.22599188E-02 0.12499670E+03</pdfrwt>
<totfact> 0.78104721E+03</totfact>
</mgrwt>
</event>
<event>
 5    1  0.3337119E-002  0.1250038E+03  0.7818608E-02  0.1235063E+00
          4   -1    0    0  501    0  0.00000000000E+00  0.00000000000E+00  0.10204205552E+03  0.10204995833E+03  0.12700000000E+01 0.  1.
         -4   -1    0    0    0  501 -0.00000000000E+00 -0.00000000000E+00 -0.38263210788E+02  0.38284281367E+02  0.12700000000E+01 0.  1.
         25    2    1    2    0    0  0.00000000000E+00  0.00000000000E+00  0.63778844735E+02  0.14033423970E+03  0.12500383112E+03 0.  0.
    9000005    1    3    3    0    0 -0.12626555262E+02  0.22658042685E+02 -0.31940040118E+02  0.41158024234E+02  0.10000000000E+01 0.  0.
    9000005    1    3    3    0    0  0.12626555262E+02 -0.22658042685E+02  0.95718884853E+02  0.99176215463E+02  0.10000000000E+01 0.  0.
<mgrwt>
<rscale>  0 0.12500383E+03</rscale>
<asrwt>0</asrwt>
<pdfrwt beam="1">  1        4 0.15701006E-01 0.12500383E+03</pdfrwt>
<pdfrwt beam="2">  1       -4 0.58888767E-02 0.12500383E+03</pdfrwt>
<totfact> 0.10125789E+04</totfact>
</mgrwt>
</event>
<event>
 5    1  0.3337119E-002  0.1250016E+03  0.7818608E-02  0.1235067E+00
         -4   -1    0    0    0  501 -0.00000000000E+00  0.00000000000E+00  0.66436688900E+02  0.66448826415E+02  0.12700000000E+01 0. -1.
          4   -1    0    0  501    0  0.00000000000E+00 -0.00000000000E+00 -0.58773669018E+02  0.58787388697E+02  0.12700000000E+01 0. -1.
         25    2    1    2    0    0  0.00000000000E+00  0.00000000000E+00  0.76630198821E+01  0.12523621511E+03  0.12500155080E+03 0.  0.
    9000005    1    3    3    0    0  0.37564139002E+02  0.42533400801E+02 -0.22393806610E+02  0.61013418992E+02  0.10000000000E+01 0.  0.
    9000005    1    3    3    0    0 -0.37564139002E+02 -0.42533400801E+02  0.30056826492E+02  0.64222796120E+02  0.10000000000E+01 0.  0.
<mgrwt>
<rscale>  0 0.12500155E+03</rscale>
<asrwt>0</asrwt>
<pdfrwt beam="2">  1        4 0.90440919E-02 0.12500155E+03</pdfrwt>
<pdfrwt beam="1">  1       -4 0.10223018E-01 0.12500155E+03</pdfrwt>
<totfact> 0.10447368E+04</totfact>
</mgrwt>
</event>
<event>
 5    1  0.3337119E-002  0.1250022E+03  0.7818608E-02  0.1235066E+00
         -4   -1    0    0    0  501 -0.00000000000E+00  0.00000000000E+00  0.26716206217E+03  0.26716508074E+03  0.12700000000E+01 0.  1.
          4   -1    0    0  501    0  0.00000000000E+00 -0.00000000000E+00 -0.14591107937E+02  0.14646273616E+02  0.12700000000E+01 0.  1.
         25    2    1    2    0    0  0.00000000000E+00  0.00000000000E+00  0.25257095424E+03  0.28181135435E+03  0.12500221005E+03 0.  0.
    9000005    1    3    3    0    0  0.23824467520E+02 -0.31132098466E+01 -0.37729145290E+01  0.24341984558E+02  0.10000000000E+01 0.  0.
    9000005    1    3    3    0    0 -0.23824467520E+02  0.31132098466E+01  0.25634386877E+03  0.25746936979E+03  0.10000000000E+01 0.  0.
<mgrwt>
<rscale>  0 0.12500221E+03</rscale>
<asrwt>0</asrwt>
<pdfrwt beam="2">  1        4 0.22492617E-02 0.12500221E+03</pdfrwt>
<pdfrwt beam="1">  1       -4 0.41106329E-01 0.12500221E+03</pdfrwt>
<totfact> 0.77934717E+03</totfact>
</mgrwt>
</event>
<event>
 5    1  0.3337119E-002  0.1249994E+03  0.7818608E-02  0.1235070E+00
         -4   -1    0    0    0  501 -0.00000000000E+00  0.00000000000E+00  0.36331206907E+03  0.36331428878E+03  0.12700000000E+01 0.  1.
          4   -1    0    0  501    0  0.00000000000E+00 -0.00000000000E+00 -0.10711900882E+02  0.10786923588E+02  0.12700000000E+01 0.  1.
         25    2    1    2    0    0  0.00000000000E+00  0.00000000000E+00  0.35260016819E+03  0.37410121237E+03  0.12499935396E+03 0.  0.
    9000005    1    3    3    0    0 -0.13737707869E+02 -0.80734597815E+00  0.35873562658E+03  0.35900087215E+03  0.10000000000E+01 0.  0.
    9000005    1    3    3    0    0  0.13737707869E+02  0.80734597815E+00 -0.61354583941E+01  0.15100340219E+02  0.10000000000E+01 0.  0.
<mgrwt>
<rscale>  0 0.12499935E+03</rscale>
<asrwt>0</asrwt>
<pdfrwt beam="2">  1        4 0.16539263E-02 0.12499935E+03</pdfrwt>
<pdfrwt beam="1">  1       -4 0.55900113E-01 0.12499935E+03</pdfrwt>
<totfact> 0.67152998E+03</totfact>
</mgrwt>
</event>
<event>
 5    1  0.3337119E-002  0.1250072E+03  0.7818608E-02  0.1235058E+00
         -4   -1    0    0    0  501 -0.00000000000E+00  0.00000000000E+00  0.12300573422E+02  0.12365961609E+02  0.12700000000E+01 0. -1.
          4   -1    0    0  501    0  0.00000000000E+00 -0.00000000000E+00 -0.31669469795E+03  0.31669724439E+03  0.12700000000E+01 0. -1.
         25    2    1    2    0    0  0.00000000000E+00  0.00000000000E+00 -0.30439412452E+03  0.32906320600E+03  0.12500724179E+03 0.  0.
    9000005    1    3    3    0    0 -0.45261804349E+01 -0.15550002959E+02 -0.31108773240E+03  0.31151061965E+03  0.10000000000E+01 0.  0.
    9000005    1    3    3    0    0  0.45261804349E+01  0.15550002959E+02  0.66936078797E+01  0.17552586356E+02  0.10000000000E+01 0.  0.
<mgrwt>
<rscale>  0 0.12500724E+03</rscale>
<asrwt>0</asrwt>
<pdfrwt beam="2">  1        4 0.48727481E-01 0.12500724E+03</pdfrwt>
<pdfrwt beam="1">  1       -4 0.18976219E-02 0.12500724E+03</pdfrwt>
<totfact> 0.72079425E+03</totfact>
</mgrwt>
</event>
<event>
 5    1  0.3337119E-002  0.1249966E+03  0.7818608E-02  0.1235075E+00
         -4   -1    0    0    0  501 -0.00000000000E+00  0.00000000000E+00  0.28566833722E+03  0.28567116024E+03  0.12700000000E+01 0.  1.
          4   -1    0    0  501    0  0.00000000000E+00 -0.00000000000E+00 -0.13640941864E+02  0.13699934121E+02  0.12700000000E+01 0.  1.
         25    2    1    2    0    0  0.00000000000E+00  0.00000000000E+00  0.27202739536E+03  0.29937109436E+03  0.12499659320E+03 0.  0.
    9000005    1    3    3    0    0  0.31013258243E+02  0.49072729803E+02  0.80612150649E+02  0.99344218903E+02  0.10000000000E+01 0.  0.
    9000005    1    3    3    0    0 -0.31013258243E+02 -0.49072729803E+02  0.19141524471E+03  0.20002687546E+03  0.10000000000E+01 0.  0.
<mgrwt>
<rscale>  0 0.12499659E+03</rscale>
<asrwt>0</asrwt>
<pdfrwt beam="2">  1        4 0.21033615E-02 0.12499659E+03</pdfrwt>
<pdfrwt beam="1">  1       -4 0.43953729E-01 0.12499659E+03</pdfrwt>
<totfact> 0.75683518E+03</totfact>
</mgrwt>
</event>
<event>
 5    1  0.3337119E-002  0.1249904E+03  0.7818608E-02  0.1235084E+00
          4   -1    0    0  501    0  0.00000000000E+00  0.00000000000E+00  0.17562317443E+03  0.17562776630E+03  0.12700000000E+01 0.  1.
         -4   -1    0    0    0  501 -0.00000000000E+00 -0.00000000000E+00 -0.22215792531E+02  0.22252063675E+02  0.12700000000E+01 0.  1.
         25    2    1    2    0    0  0.00000000000E+00  0.00000000000E+00  0.15340738190E+03  0.19787982998E+03  0.12499040880E+03 0.  0.
    9000005    1    3    3    0    0  0.24206447527E+02  0.33919901313E+01 -0.14340994921E+02  0.28357042058E+02  0.10000000000E+01 0.  0.
    9000005    1    3    3    0    0 -0.24206447527E+02 -0.33919901313E+01  0.16774837682E+03  0.16952278792E+03  0.10000000000E+01 0.  0.
<mgrwt>
<rscale>  0 0.12499041E+03</rscale>
<asrwt>0</asrwt>
<pdfrwt beam="1">  1        4 0.27022094E-01 0.12499041E+03</pdfrwt>
<pdfrwt beam="2">  1       -4 0.34209575E-02 0.12499041E+03</pdfrwt>
<totfact> 0.90513467E+03</totfact>
</mgrwt>
</event>
<event>
 5    1  0.3337119E-002  0.1249962E+03  0.7818608E-02  0.1235075E+00
          4   -1    0    0  501    0  0.00000000000E+00  0.00000000000E+00  0.46969061157E+02  0.46986227833E+02  0.12700000000E+01 0. -1.
         -4   -1    0    0    0  501 -0.00000000000E+00 -0.00000000000E+00 -0.83124190196E+02  0.83133891378E+02  0.12700000000E+01 0. -1.
         25    2    1    2    0    0  0.00000000000E+00  0.00000000000E+00 -0.36155129039E+02  0.13012011921E+03  0.12499620821E+03 0.  0.
    9000005    1    3    3    0    0  0.15893805506E+02 -0.36916299935E+02 -0.67888668409E+02  0.78900554831E+02  0.10000000000E+01 0.  0.
    9000005    1    3    3    0    0 -0.15893805506E+02  0.36916299935E+02  0.31733539370E+02  0.51219564380E+02  0.10000000000E+01 0.  0.
<mgrwt>
<rscale>  0 0.12499621E+03</rscale>
<asrwt>0</asrwt>
<pdfrwt beam="1">  1        4 0.72280762E-02 0.12499621E+03</pdfrwt>
<pdfrwt beam="2">  1       -4 0.12790404E-01 0.12499621E+03</pdfrwt>
<totfact> 0.10342824E+04</totfact>
</mgrwt>
</event>
<event>
 5    1  0.3337119E-002  0.1249959E+03  0.7818608E-02  0.1235076E+00
         -4   -1    0    0    0  501 -0.00000000000E+00  0.00000000000E+00  0.66806445507E+02  0.66818515856E+02  0.12700000000E+01 0. -1.
          4   -1    0    0  501    0  0.00000000000E+00 -0.00000000000E+00 -0.58443033951E+02  0.58456831230E+02  0.12700000000E+01 0. -1.
         25    2    1    2    0    0  0.00000000000E+00  0.00000000000E+00  0.83634115554E+01  0.12527534709E+03  0.12499586367E+03 0.  0.
    9000005    1    3    3    0    0 -0.48180174652E+02  0.14708324512E+02  0.41241776041E+02  0.65111812527E+02  0.10000000000E+01 0.  0.
    9000005    1    3    3    0    0  0.48180174652E+02 -0.14708324512E+02 -0.32878364486E+02  0.60163534560E+02  0.10000000000E+01 0.  0.
<mgrwt>
<rscale>  0 0.12499586E+03</rscale>
<asrwt>0</asrwt>
<pdfrwt beam="2">  1        4 0.89932258E-02 0.12499586E+03</pdfrwt>
<pdfrwt beam="1">  1       -4 0.10279905E-01 0.12499586E+03</pdfrwt>
<totfact> 0.10447862E+04</totfact>
</mgrwt>
</event>
<event>
 5    1  0.3337119E-002  0.1249956E+03  0.7818608E-02  0.1235076E+00
         -4   -1    0    0    0  501 -0.00000000000E+00  0.00000000000E+00  0.15378701080E+03  0.15379225465E+03  0.12700000000E+01 0. -1.
          4   -1    0    0  501    0  0.00000000000E+00 -0.00000000000E+00 -0.25377037161E+02  0.25408796018E+02  0.12700000000E+01 0. -1.
         25    2    1    2    0    0  0.00000000000E+00  0.00000000000E+00  0.12840997364E+03  0.17920105067E+03  0.12499558085E+03 0.  0.
    9000005    1    3    3    0    0 -0.72295732733E+01 -0.96584200228E+01  0.15210854036E+03  0.15258951424E+03  0.10000000000E+01 0.  0.
    9000005    1    3    3    0    0  0.72295732733E+01  0.96584200228E+01 -0.23698566713E+02  0.26611536433E+02  0.10000000000E+01 0.  0.
<mgrwt>
<rscale>  0 0.12499558E+03</rscale>
<asrwt>0</asrwt>
<pdfrwt beam="2">  1        4 0.39070059E-02 0.12499558E+03</pdfrwt>
<pdfrwt beam="1">  1       -4 0.23662386E-01 0.12499558E+03</pdfrwt>
<totfact> 0.93770306E+03</totfact>
</mgrwt>
</event>
<event>
 5    1  0.3337119E-002  0.1250045E+03  0.7818608E-02  0.1235062E+00
         -4   -1    0    0    0  501 -0.00000000000E+00  0.00000000000E+00  0.52471279262E+03  0.52471432956E+03  0.12700000000E+01 0. -1.
          4   -1    0    0  501    0  0.00000000000E+00 -0.00000000000E+00 -0.73893623244E+01  0.74977046862E+01  0.12700000000E+01 0. -1.
         25    2    1    2    0    0  0.00000000000E+00  0.00000000000E+00  0.51732343030E+03  0.53221203424E+03  0.12500447135E+03 0.  0.
    9000005    1    3    3    0    0 -0.51957919035E+02 -0.26348219268E+02  0.16235502996E+03  0.17249350644E+03  0.10000000000E+01 0.  0.
    9000005    1    3    3    0    0  0.51957919035E+02  0.26348219268E+02  0.35496840034E+03  0.35971852781E+03  0.10000000000E+01 0.  0.
<mgrwt>
<rscale>  0 0.12500447E+03</rscale>
<asrwt>0</asrwt>
<pdfrwt beam="2">  1        4 0.11452774E-02 0.12500447E+03</pdfrwt>
<pdfrwt beam="1">  1       -4 0.80733486E-01 0.12500447E+03</pdfrwt>
<totfact> 0.53443704E+03</totfact>
</mgrwt>
</event>
<event>
 5    1  0.3337119E-002  0.1249997E+03  0.7818608E-02  0.1235070E+00
         -4   -1    0    0    0  501 -0.00000000000E+00  0.00000000000E+00  0.68125245990E+02  0.68137082717E+02  0.12700000000E+01 0. -1.
          4   -1    0    0  501    0  0.00000000000E+00 -0.00000000000E+00 -0.57315121607E+02  0.57329190338E+02  0.12700000000E+01 0. -1.
         25    2    1    2    0    0  0.00000000000E+00  0.00000000000E+00  0.10810124383E+02  0.12546627306E+03  0.12499970754E+03 0.  0.
    9000005    1    3    3    0    0  0.60102713423E+02  0.12074531644E+02 -0.67687381993E+01  0.61684246709E+02  0.10000000000E+01 0.  0.
    9000005    1    3    3    0    0 -0.60102713423E+02 -0.12074531644E+02  0.17578862582E+02  0.63782026347E+02  0.10000000000E+01 0.  0.
<mgrwt>
<rscale>  0 0.12499971E+03</rscale>
<asrwt>0</asrwt>
<pdfrwt beam="2">  1        4 0.88197037E-02 0.12499971E+03</pdfrwt>
<pdfrwt beam="1">  1       -4 0.10482800E-01 0.12499971E+03</pdfrwt>
<totfact> 0.10442769E+04</totfact>
</mgrwt>
</event>
<event>
 5    1  0.3337119E-002  0.1249897E+03  0.7818608E-02  0.1235085E+00
          4   -1    0    0  501    0  0.00000000000E+00  0.00000000000E+00  0.12693331737E+02  0.12756706886E+02  0.12700000000E+01 0.  1.
         -4   -1    0    0    0  501 -0.00000000000E+00 -0.00000000000E+00 -0.30685863194E+03  0.30686126001E+03  0.12700000000E+01 0.  1.
         25    2    1    2    0    0  0.00000000000E+00  0.00000000000E+00 -0.29416530020E+03  0.31961796690E+03  0.12498968325E+03 0.  0.
    9000005    1    3    3    0    0  0.45090246002E+02 -0.38966031486E+02 -0.99029681088E+02  0.11558269607E+03  0.10000000000E+01 0.  0.
    9000005    1    3    3    0    0 -0.45090246002E+02  0.38966031486E+02 -0.19513561911E+03  0.20403527083E+03  0.10000000000E+01 0.  0.
<mgrwt>
<rscale>  0 0.12498968E+03</rscale>
<asrwt>0</asrwt>
<pdfrwt beam="1">  1        4 0.19578977E-02 0.12498968E+03</pdfrwt>
<pdfrwt beam="2">  1       -4 0.47214092E-01 0.12498968E+03</pdfrwt>
<totfact> 0.73218332E+03</totfact>
</mgrwt>
</event>
<event>
 5    1  0.3337119E-002  0.1249949E+03  0.7818608E-02  0.1235077E+00
          4   -1    0    0  501    0  0.00000000000E+00  0.00000000000E+00  0.42186597355E+03  0.42186788518E+03  0.12700000000E+01 0. -1.
         -4   -1    0    0    0  501 -0.00000000000E+00 -0.00000000000E+00 -0.92132146403E+01  0.93003346181E+01  0.12700000000E+01 0. -1.
         25    2    1    2    0    0  0.00000000000E+00  0.00000000000E+00  0.41265275891E+03  0.43116821979E+03  0.12499493718E+03 0.  0.
    9000005    1    3    3    0    0  0.24189827428E+02  0.50786281517E+02  0.30019672498E+03  0.30542342384E+03  0.10000000000E+01 0.  0.
    9000005    1    3    3    0    0 -0.24189827428E+02 -0.50786281517E+02  0.11245603393E+03  0.12574479595E+03  0.10000000000E+01 0.  0.
<mgrwt>
<rscale>  0 0.12499494E+03</rscale>
<asrwt>0</asrwt>
<pdfrwt beam="1">  1        4 0.64909287E-01 0.12499494E+03</pdfrwt>
<pdfrwt beam="2">  1       -4 0.14242666E-02 0.12499494E+03</pdfrwt>
<totfact> 0.61637131E+03</totfact>
</mgrwt>
</event>
<event>
 5    1  0.3337119E-002  0.1249862E+03  0.7818608E-02  0.1235091E+00
          4   -1    0    0  501    0  0.00000000000E+00  0.00000000000E+00  0.83517083385E+02  0.83526738935E+02  0.12700000000E+01 0.  1.
         -4   -1    0    0    0  501 -0.00000000000E+00 -0.00000000000E+00 -0.46740566572E+02  0.46757817138E+02  0.12700000000E+01 0.  1.
         25    2    1    2    0    0  0.00000000000E+00  0.00000000000E+00  0.36776516813E+02  0.13028455607E+03  0.12498621269E+03 0.  0.
    9000005    1    3    3    0    0  0.54976135652E+02  0.13956274605E+02 -0.89382121425E+01  0.57428605488E+02  0.10000000000E+01 0.  0.
    9000005    1    3    3    0    0 -0.54976135652E+02 -0.13956274605E+02  0.45714728955E+02  0.72855950584E+02  0.10000000000E+01 0.  0.
<mgrwt>
<rscale>  0 0.12498621E+03</rscale>
<asrwt>0</asrwt>
<pdfrwt beam="1">  1        4 0.12850852E-01 0.12498621E+03</pdfrwt>
<pdfrwt beam="2">  1       -4 0.71929262E-02 0.12498621E+03</pdfrwt>
<totfact> 0.10341642E+04</totfact>
</mgrwt>
</event>
<event>
 5    1  0.3337119E-002  0.1249993E+03  0.7818608E-02  0.1235070E+00
         -4   -1    0    0    0  501 -0.00000000000E+00  0.00000000000E+00  0.16816451035E+04  0.16816455831E+04  0.12700000000E+01 0.  1.
          4   -1    0    0  501    0  0.00000000000E+00 -0.00000000000E+00 -0.21487420626E+01  0.24959952827E+01  0.12700000000E+01 0.  1.
         25    2    1    2    0    0  0.00000000000E+00  0.00000000000E+00  0.16794963615E+04  0.16841415784E+04  0.12499931128E+03 0.  0.
    9000005    1    3    3    0    0 -0.58480509497E+02 -0.21827212085E+02  0.87973836761E+03  0.88195067471E+03  0.10000000000E+01 0.  0.
    9000005    1    3    3    0    0  0.58480509497E+02  0.21827212085E+02  0.79975799384E+03  0.80219090365E+03  0.10000000000E+01 0.  0.
<mgrwt>
<rscale>  0 0.12499931E+03</rscale>
<asrwt>0</asrwt>
<pdfrwt beam="2">  1        4 0.35732423E-03 0.12499931E+03</pdfrwt>
<pdfrwt beam="1">  1       -4 0.25874149E+00 0.12499931E+03</pdfrwt>
<totfact> 0.14574427E+03</totfact>
</mgrwt>
</event>
<event>
 5    1  0.3337119E-002  0.1249992E+03  0.7818608E-02  0.1235071E+00
         -4   -1    0    0    0  501 -0.00000000000E+00  0.00000000000E+00  0.43681184900E+02  0.43699643182E+02  0.12700000000E+01 0. -1.
          4   -1    0    0  501    0  0.00000000000E+00 -0.00000000000E+00 -0.89383361664E+02  0.89392383581E+02  0.12700000000E+01 0. -1.
         25    2    1    2    0    0  0.00000000000E+00  0.00000000000E+00 -0.45702176764E+02  0.13309202676E+03  0.12499919451E+03 0.  0.
    9000005    1    3    3    0    0 -0.62744004783E+01 -0.47061233412E+02 -0.66115202225E+02  0.81402381764E+02  0.10000000000E+01 0.  0.
    9000005    1    3    3    0    0  0.62744004783E+01  0.47061233412E+02  0.20413025462E+02  0.51689644999E+02  0.10000000000E+01 0.  0.
<mgrwt>
<rscale>  0 0.12499919E+03</rscale>
<asrwt>0</asrwt>
<pdfrwt beam="2">  1        4 0.13753400E-01 0.12499919E+03</pdfrwt>
<pdfrwt beam="1">  1       -4 0.67222962E-02 0.12499919E+03</pdfrwt>
<totfact> 0.10278631E+04</totfact>
</mgrwt>
</event>
<event>
 4    1  0.3337119E-002  0.1247532E+03  0.7818608E-02  0.1235456E+00
          4   -1    0    0  501    0  0.00000000000E+00  0.00000000000E+00  0.30490076151E+03  0.30490340645E+03  0.12700000000E+01 0. -1.
         -4   -1    0    0    0  501 -0.00000000000E+00 -0.00000000000E+00 -0.12726692784E+02  0.12789902627E+02  0.12700000000E+01 0. -1.
    9000005    1    1    2    0    0  0.27820865352E+02  0.54308512468E+02  0.11323493440E+03  0.12863345383E+03  0.10000000000E+01 0.  0.
    9000005    1    1    2    0    0 -0.27820865352E+02 -0.54308512468E+02  0.17893913432E+03  0.18905985525E+03  0.10000000000E+01 0.  0.
<mgrwt>
<rscale>  0 0.12475317E+03</rscale>
<asrwt>0</asrwt>
<pdfrwt beam="1">  1        4 0.46912872E-01 0.12475317E+03</pdfrwt>
<pdfrwt beam="2">  1       -4 0.19630186E-02 0.12475317E+03</pdfrwt>
<totfact> 0.73834617E+03</totfact>
</mgrwt>
</event>
<event>
 5    1  0.3337119E-002  0.1250027E+03  0.7818608E-02  0.1235065E+00
          4   -1    0    0  501    0  0.00000000000E+00  0.00000000000E+00  0.11748528820E+03  0.11749215226E+03  0.12700000000E+01 0.  1.
         -4   -1    0    0    0  501 -0.00000000000E+00 -0.00000000000E+00 -0.33230312028E+02  0.33254571678E+02  0.12700000000E+01 0.  1.
         25    2    1    2    0    0  0.00000000000E+00  0.00000000000E+00  0.84254976172E+02  0.15074672394E+03  0.12500269505E+03 0.  0.
    9000005    1    3    3    0    0 -0.55059864491E+02  0.29546055266E+02  0.41008889242E+02  0.74748157545E+02  0.10000000000E+01 0.  0.
    9000005    1    3    3    0    0  0.55059864491E+02 -0.29546055266E+02  0.43246086930E+02  0.75998566396E+02  0.10000000000E+01 0.  0.
<mgrwt>
<rscale>  0 0.12500270E+03</rscale>
<asrwt>0</asrwt>
<pdfrwt beam="1">  1        4 0.18077054E-01 0.12500270E+03</pdfrwt>
<pdfrwt beam="2">  1       -4 0.51147497E-02 0.12500270E+03</pdfrwt>
<totfact> 0.99149044E+03</totfact>
</mgrwt>
</event>
<event>
 5    1  0.3337119E-002  0.1249973E+03  0.7818608E-02  0.1235074E+00
          4   -1    0    0  501    0  0.00000000000E+00  0.00000000000E+00  0.67735696975E+01  0.68915997016E+01  0.12700000000E+01 0. -1.
         -4   -1    0    0    0  501 -0.00000000000E+00 -0.00000000000E+00 -0.57156517361E+03  0.57156658456E+03  0.12700000000E+01 0. -1.
         25    2    1    2    0    0  0.00000000000E+00  0.00000000000E+00 -0.56479160391E+03  0.57845818426E+03  0.12499726032E+03 0.  0.
    9000005    1    3    3    0    0 -0.52070379539E+02 -0.11912484708E+02 -0.43248442502E+03  0.43577174025E+03  0.10000000000E+01 0.  0.
    9000005    1    3    3    0    0  0.52070379539E+02  0.11912484708E+02 -0.13230717889E+03  0.14268644401E+03  0.10000000000E+01 0.  0.
<mgrwt>
<rscale>  0 0.12499726E+03</rscale>
<asrwt>0</asrwt>
<pdfrwt beam="1">  1        4 0.10512759E-02 0.12499726E+03</pdfrwt>
<pdfrwt beam="2">  1       -4 0.87942254E-01 0.12499726E+03</pdfrwt>
<totfact> 0.50259287E+03</totfact>
</mgrwt>
</event>
<event>
 5    1  0.3337119E-002  0.1249984E+03  0.7818608E-02  0.1235072E+00
          4   -1    0    0  501    0  0.00000000000E+00  0.00000000000E+00  0.59594262725E+02  0.59607793532E+02  0.12700000000E+01 0.  1.
         -4   -1    0    0    0  501 -0.00000000000E+00 -0.00000000000E+00 -0.65518628217E+02  0.65530935774E+02  0.12700000000E+01 0.  1.
         25    2    1    2    0    0  0.00000000000E+00  0.00000000000E+00 -0.59243654921E+01  0.12513872931E+03  0.12499841385E+03 0.  0.
    9000005    1    3    3    0    0  0.57686941502E+02 -0.15344934509E+02 -0.21473494291E+02  0.63445734230E+02  0.10000000000E+01 0.  0.
    9000005    1    3    3    0    0 -0.57686941502E+02  0.15344934509E+02  0.15549128799E+02  0.61692995076E+02  0.10000000000E+01 0.  0.
<mgrwt>
<rscale>  0 0.12499841E+03</rscale>
<asrwt>0</asrwt>
<pdfrwt beam="1">  1        4 0.91703356E-02 0.12499841E+03</pdfrwt>
<pdfrwt beam="2">  1       -4 0.10081777E-01 0.12499841E+03</pdfrwt>
<totfact> 0.10450225E+04</totfact>
</mgrwt>
</event>
<event>
 5    1  0.3337119E-002  0.1250002E+03  0.7818608E-02  0.1235069E+00
         -4   -1    0    0    0  501 -0.00000000000E+00  0.00000000000E+00  0.16177251144E+03  0.16177749645E+03  0.12700000000E+01 0.  1.
          4   -1    0    0  501    0  0.00000000000E+00 -0.00000000000E+00 -0.24124591796E+02  0.24157997213E+02  0.12700000000E+01 0.  1.
         25    2    1    2    0    0  0.00000000000E+00  0.00000000000E+00  0.13764791964E+03  0.18593549366E+03  0.12500023208E+03 0.  0.
    9000005    1    3    3    0    0  0.16929477423E+02 -0.33801191452E+02 -0.51942871689E+01  0.38172088868E+02  0.10000000000E+01 0.  0.
    9000005    1    3    3    0    0 -0.16929477423E+02  0.33801191452E+02  0.14284220681E+03  0.14776340479E+03  0.10000000000E+01 0.  0.
<mgrwt>
<rscale>  0 0.12500023E+03</rscale>
<asrwt>0</asrwt>
<pdfrwt beam="2">  1        4 0.37144287E-02 0.12500023E+03</pdfrwt>
<pdfrwt beam="1">  1       -4 0.24891032E-01 0.12500023E+03</pdfrwt>
<totfact> 0.92558892E+03</totfact>
</mgrwt>
</event>
<event>
 5    1  0.3337119E-002  0.1250035E+03  0.7818608E-02  0.1235064E+00
          4   -1    0    0  501    0  0.00000000000E+00  0.00000000000E+00  0.29938299849E+02  0.29965224809E+02  0.12700000000E+01 0.  1.
         -4   -1    0    0    0  501 -0.00000000000E+00 -0.00000000000E+00 -0.13039537111E+03  0.13040155561E+03  0.12700000000E+01 0.  1.
         25    2    1    2    0    0  0.00000000000E+00  0.00000000000E+00 -0.10045707126E+03  0.16036678042E+03  0.12500352434E+03 0.  0.
    9000005    1    3    3    0    0 -0.33208981742E+02 -0.34185467240E+02  0.16295565716E+01  0.47698407661E+02  0.10000000000E+01 0.  0.
    9000005    1    3    3    0    0  0.33208981742E+02  0.34185467240E+02 -0.10208662783E+03  0.11266837276E+03  0.10000000000E+01 0.  0.
<mgrwt>
<rscale>  0 0.12500352E+03</rscale>
<asrwt>0</asrwt>
<pdfrwt beam="1">  1        4 0.46084392E-02 0.12500352E+03</pdfrwt>
<pdfrwt beam="2">  1       -4 0.20063373E-01 0.12500352E+03</pdfrwt>
<totfact> 0.97264414E+03</totfact>
</mgrwt>
</event>
<event>
 5    1  0.3337119E-002  0.1250053E+03  0.7818608E-02  0.1235061E+00
         -4   -1    0    0    0  501 -0.00000000000E+00  0.00000000000E+00  0.69259969031E+02  0.69271611864E+02  0.12700000000E+01 0. -1.
          4   -1    0    0  501    0  0.00000000000E+00 -0.00000000000E+00 -0.56381051062E+02  0.56395352812E+02  0.12700000000E+01 0. -1.
         25    2    1    2    0    0  0.00000000000E+00  0.00000000000E+00  0.12878917970E+02  0.12566696468E+03  0.12500527782E+03 0.  0.
    9000005    1    3    3    0    0  0.13270714030E+02  0.60604651049E+02 -0.11199380726E+01  0.62058761194E+02  0.10000000000E+01 0.  0.
    9000005    1    3    3    0    0 -0.13270714030E+02 -0.60604651049E+02  0.13998856042E+02  0.63608203482E+02  0.10000000000E+01 0.  0.
<mgrwt>
<rscale>  0 0.12500528E+03</rscale>
<asrwt>0</asrwt>
<pdfrwt beam="2">  1        4 0.86760036E-02 0.12500528E+03</pdfrwt>
<pdfrwt beam="1">  1       -4 0.10657376E-01 0.12500528E+03</pdfrwt>
<totfact> 0.10437029E+04</totfact>
</mgrwt>
</event>
<event>
 5    1  0.3337119E-002  0.1250543E+03  0.7818608E-02  0.1234985E+00
          4   -1    0    0  501    0  0.00000000000E+00  0.00000000000E+00  0.62802882278E+02  0.62815721937E+02  0.12700000000E+01 0. -1.
         -4   -1    0    0    0  501 -0.00000000000E+00 -0.00000000000E+00 -0.62226904175E+02  0.62239862654E+02  0.12700000000E+01 0. -1.
         25    2    1    2    0    0  0.00000000000E+00  0.00000000000E+00  0.57597810283E+00  0.12505558459E+03  0.12505425817E+03 0.  0.
    9000005    1    3    3    0    0 -0.43598337889E+02 -0.44785863479E+02  0.17209164782E+01  0.62534392039E+02  0.10000000000E+01 0.  0.
    9000005    1    3    3    0    0  0.43598337889E+02  0.44785863479E+02 -0.11449383753E+01  0.62521192552E+02  0.10000000000E+01 0.  0.
<mgrwt>
<rscale>  0 0.12505426E+03</rscale>
<asrwt>0</asrwt>
<pdfrwt beam="1">  1        4 0.96639663E-02 0.12505426E+03</pdfrwt>
<pdfrwt beam="2">  1       -4 0.95753544E-02 0.12505426E+03</pdfrwt>
<totfact> 0.10438849E+04</totfact>
</mgrwt>
</event>
<event>
 5    1  0.3337119E-002  0.1250368E+03  0.7818608E-02  0.1235012E+00
          4   -1    0    0  501    0  0.00000000000E+00  0.00000000000E+00  0.68604352204E+02  0.68616106282E+02  0.12700000000E+01 0. -1.
         -4   -1    0    0    0  501 -0.00000000000E+00 -0.00000000000E+00 -0.56948630260E+02  0.56962789507E+02  0.12700000000E+01 0. -1.
         25    2    1    2    0    0  0.00000000000E+00  0.00000000000E+00  0.11655721944E+02  0.12557889579E+03  0.12503680744E+03 0.  0.
    9000005    1    3    3    0    0  0.26757924055E+02 -0.17849689566E+02 -0.48004451438E+02  0.57792951778E+02  0.10000000000E+01 0.  0.
    9000005    1    3    3    0    0 -0.26757924055E+02  0.17849689566E+02  0.59660173383E+02  0.67785944011E+02  0.10000000000E+01 0.  0.
<mgrwt>
<rscale>  0 0.12503681E+03</rscale>
<asrwt>0</asrwt>
<pdfrwt beam="1">  1        4 0.10556509E-01 0.12503681E+03</pdfrwt>
<pdfrwt beam="2">  1       -4 0.87633211E-02 0.12503681E+03</pdfrwt>
<totfact> 0.10431549E+04</totfact>
</mgrwt>
</event>
<event>
 5    1  0.3337119E-002  0.1249980E+03  0.7818608E-02  0.1235072E+00
          4   -1    0    0  501    0  0.00000000000E+00  0.00000000000E+00  0.23776236649E+03  0.23776575829E+03  0.12700000000E+01 0. -1.
         -4   -1    0    0    0  501 -0.00000000000E+00 -0.00000000000E+00 -0.16400635410E+02  0.16449733793E+02  0.12700000000E+01 0. -1.
         25    2    1    2    0    0  0.00000000000E+00  0.00000000000E+00  0.22136173108E+03  0.25421549209E+03  0.12499800171E+03 0.  0.
    9000005    1    3    3    0    0  0.46441879913E+02  0.22339408770E+02  0.38798932381E+02  0.64515537260E+02  0.10000000000E+01 0.  0.
    9000005    1    3    3    0    0 -0.46441879913E+02 -0.22339408770E+02  0.18256279870E+03  0.18969995483E+03  0.10000000000E+01 0.  0.
<mgrwt>
<rscale>  0 0.12499800E+03</rscale>
<asrwt>0</asrwt>
<pdfrwt beam="1">  1        4 0.36582859E-01 0.12499800E+03</pdfrwt>
<pdfrwt beam="2">  1       -4 0.25272127E-02 0.12499800E+03</pdfrwt>
<totfact> 0.81728390E+03</totfact>
</mgrwt>
</event>
<event>
 5    1  0.3337119E-002  0.1250030E+03  0.7818608E-02  0.1235065E+00
         -4   -1    0    0    0  501 -0.00000000000E+00  0.00000000000E+00  0.30571248224E+02  0.30597616214E+02  0.12700000000E+01 0.  1.
          4   -1    0    0  501    0  0.00000000000E+00 -0.00000000000E+00 -0.12769686835E+03  0.12770318354E+03  0.12700000000E+01 0.  1.
         25    2    1    2    0    0  0.00000000000E+00  0.00000000000E+00 -0.97125620129E+02  0.15830079976E+03  0.12500302844E+03 0.  0.
    9000005    1    3    3    0    0  0.16514660528E+02 -0.19076422502E+02  0.23840169926E+02  0.34727476296E+02  0.10000000000E+01 0.  0.
    9000005    1    3    3    0    0 -0.16514660528E+02  0.19076422502E+02 -0.12096579005E+03  0.12357332346E+03  0.10000000000E+01 0.  0.
<mgrwt>
<rscale>  0 0.12500303E+03</rscale>
<asrwt>0</asrwt>
<pdfrwt beam="2">  1        4 0.19648186E-01 0.12500303E+03</pdfrwt>
<pdfrwt beam="1">  1       -4 0.47057831E-02 0.12500303E+03</pdfrwt>
<totfact> 0.97664731E+03</totfact>
</mgrwt>
</event>
<event>
 5    1  0.3337119E-002  0.1249649E+03  0.7818608E-02  0.1235124E+00
          4   -1    0    0  501    0  0.00000000000E+00  0.00000000000E+00  0.67423796131E+02  0.67435755981E+02  0.12700000000E+01 0.  1.
         -4   -1    0    0    0  501 -0.00000000000E+00 -0.00000000000E+00 -0.57879220386E+02  0.57893152035E+02  0.12700000000E+01 0.  1.
         25    2    1    2    0    0  0.00000000000E+00  0.00000000000E+00  0.95445757445E+01  0.12532890802E+03  0.12496494012E+03 0.  0.
    9000005    1    3    3    0    0  0.40439831371E+02 -0.14942955769E+02  0.50118878921E+02  0.66117878919E+02  0.10000000000E+01 0.  0.
    9000005    1    3    3    0    0 -0.40439831371E+02  0.14942955769E+02 -0.40574303176E+02  0.59211029097E+02  0.10000000000E+01 0.  0.
<mgrwt>
<rscale>  0 0.12496494E+03</rscale>
<asrwt>0</asrwt>
<pdfrwt beam="1">  1        4 0.10374883E-01 0.12496494E+03</pdfrwt>
<pdfrwt beam="2">  1       -4 0.89064871E-02 0.12496494E+03</pdfrwt>
<totfact> 0.10454003E+04</totfact>
</mgrwt>
</event>
<event>
 5    1  0.3337119E-002  0.1250000E+03  0.7818608E-02  0.1235069E+00
         -4   -1    0    0    0  501 -0.00000000000E+00  0.00000000000E+00  0.81974981228E+02  0.81984818395E+02  0.12700000000E+01 0.  1.
          4   -1    0    0  501    0  0.00000000000E+00 -0.00000000000E+00 -0.47630570983E+02  0.47647499328E+02  0.12700000000E+01 0.  1.
         25    2    1    2    0    0  0.00000000000E+00  0.00000000000E+00  0.34344410244E+02  0.12963231772E+03  0.12499999713E+03 0.  0.
    9000005    1    3    3    0    0  0.46369557860E+02  0.32512321107E+02 -0.10227794809E+02  0.57556882356E+02  0.10000000000E+01 0.  0.
    9000005    1    3    3    0    0 -0.46369557860E+02 -0.32512321107E+02  0.44572205053E+02  0.72075435366E+02  0.10000000000E+01 0.  0.
<mgrwt>
<rscale>  0 0.12500000E+03</rscale>
<asrwt>0</asrwt>
<pdfrwt beam="2">  1        4 0.73298391E-02 0.12500000E+03</pdfrwt>
<pdfrwt beam="1">  1       -4 0.12613594E-01 0.12500000E+03</pdfrwt>
<totfact> 0.10352380E+04</totfact>
</mgrwt>
</event>
<event>
 5    1  0.3337119E-002  0.1249971E+03  0.7818608E-02  0.1235074E+00
          4   -1    0    0  501    0  0.00000000000E+00  0.00000000000E+00  0.81947697711E+01  0.82925961919E+01  0.12700000000E+01 0. -1.
         -4   -1    0    0    0  501 -0.00000000000E+00 -0.00000000000E+00 -0.47372700418E+03  0.47372870653E+03  0.12700000000E+01 0. -1.
         25    2    1    2    0    0  0.00000000000E+00  0.00000000000E+00 -0.46553223441E+03  0.48202130272E+03  0.12499709998E+03 0.  0.
    9000005    1    3    3    0    0  0.17624772286E+02 -0.44369283507E+02 -0.38825531861E+03  0.39118085120E+03  0.10000000000E+01 0.  0.
    9000005    1    3    3    0    0 -0.17624772286E+02  0.44369283507E+02 -0.77276915802E+02  0.90840451523E+02  0.10000000000E+01 0.  0.
<mgrwt>
<rscale>  0 0.12499710E+03</rscale>
<asrwt>0</asrwt>
<pdfrwt beam="1">  1        4 0.12683902E-02 0.12499710E+03</pdfrwt>
<pdfrwt beam="2">  1       -4 0.72888712E-01 0.12499710E+03</pdfrwt>
<totfact> 0.57290447E+03</totfact>
</mgrwt>
</event>
<event>
 5    1  0.3337119E-002  0.1250104E+03  0.7818608E-02  0.1235053E+00
         -4   -1    0    0    0  501 -0.00000000000E+00  0.00000000000E+00  0.14602027006E+03  0.14602579282E+03  0.12700000000E+01 0. -1.
          4   -1    0    0  501    0  0.00000000000E+00 -0.00000000000E+00 -0.26734783244E+02  0.26764931069E+02  0.12700000000E+01 0. -1.
         25    2    1    2    0    0  0.00000000000E+00  0.00000000000E+00  0.11928548681E+03  0.17279072388E+03  0.12501042715E+03 0.  0.
    9000005    1    3    3    0    0 -0.55074058340E+02  0.10175872199E+02  0.97977634272E+02  0.11285972308E+03  0.10000000000E+01 0.  0.
    9000005    1    3    3    0    0  0.55074058340E+02 -0.10175872199E+02  0.21307852540E+02  0.59931000800E+02  0.10000000000E+01 0.  0.
<mgrwt>
<rscale>  0 0.12501043E+03</rscale>
<asrwt>0</asrwt>
<pdfrwt beam="2">  1        4 0.41157874E-02 0.12501043E+03</pdfrwt>
<pdfrwt beam="1">  1       -4 0.22467401E-01 0.12501043E+03</pdfrwt>
<totfact> 0.94908820E+03</totfact>
</mgrwt>
</event>
<event>
 5    1  0.3337119E-002  0.1249940E+03  0.7818608E-02  0.1235079E+00
         -4   -1    0    0    0  501 -0.00000000000E+00  0.00000000000E+00  0.13644577450E+03  0.13645168478E+03  0.12700000000E+01 0.  1.
          4   -1    0    0  501    0  0.00000000000E+00 -0.00000000000E+00 -0.28605238520E+02  0.28633417029E+02  0.12700000000E+01 0.  1.
         25    2    1    2    0    0  0.00000000000E+00  0.00000000000E+00  0.10784053599E+03  0.16508510181E+03  0.12499403841E+03 0.  0.
    9000005    1    3    3    0    0 -0.32783402073E+02 -0.97964932591E+01 -0.15140296214E+02  0.37429284005E+02  0.10000000000E+01 0.  0.
    9000005    1    3    3    0    0  0.32783402073E+02  0.97964932591E+01  0.12298083220E+03  0.12765581781E+03  0.10000000000E+01 0.  0.
<mgrwt>
<rscale>  0 0.12499404E+03</rscale>
<asrwt>0</asrwt>
<pdfrwt beam="2">  1        4 0.44034283E-02 0.12499404E+03</pdfrwt>
<pdfrwt beam="1">  1       -4 0.20994279E-01 0.12499404E+03</pdfrwt>
<totfact> 0.96384186E+03</totfact>
</mgrwt>
</event>
<event>
 5    1  0.3337119E-002  0.1249693E+03  0.7818608E-02  0.1235117E+00
          4   -1    0    0  501    0  0.00000000000E+00  0.00000000000E+00  0.85633687480E+02  0.85643104401E+02  0.12700000000E+01 0. -1.
         -4   -1    0    0    0  501 -0.00000000000E+00 -0.00000000000E+00 -0.45572648768E+02  0.45590341254E+02  0.12700000000E+01 0. -1.
         25    2    1    2    0    0  0.00000000000E+00  0.00000000000E+00  0.40061038712E+02  0.13123344566E+03  0.12496931798E+03 0.  0.
    9000005    1    3    3    0    0 -0.11647988889E+02  0.55316424533E+02  0.47967605974E+02  0.74144950544E+02  0.10000000000E+01 0.  0.
    9000005    1    3    3    0    0  0.11647988889E+02 -0.55316424533E+02 -0.79065672611E+01  0.57088495112E+02  0.10000000000E+01 0.  0.
<mgrwt>
<rscale>  0 0.12496932E+03</rscale>
<asrwt>0</asrwt>
<pdfrwt beam="1">  1        4 0.13176499E-01 0.12496932E+03</pdfrwt>
<pdfrwt beam="2">  1       -4 0.70132621E-02 0.12496932E+03</pdfrwt>
<totfact> 0.10325233E+04</totfact>
</mgrwt>
</event>
<event>
 5    1  0.3337119E-002  0.1250003E+03  0.7818608E-02  0.1235069E+00
         -4   -1    0    0    0  501 -0.00000000000E+00  0.00000000000E+00  0.40911453999E+02  0.40931161336E+02  0.12700000000E+01 0. -1.
          4   -1    0    0  501    0  0.00000000000E+00 -0.00000000000E+00 -0.95434177548E+02  0.95442627501E+02  0.12700000000E+01 0. -1.
         25    2    1    2    0    0  0.00000000000E+00  0.00000000000E+00 -0.54522723549E+02  0.13637378884E+03  0.12500033159E+03 0.  0.
    9000005    1    3    3    0    0  0.37628864974E+02  0.30642784273E+02  0.15695829865E+02  0.51012457130E+02  0.10000000000E+01 0.  0.
    9000005    1    3    3    0    0 -0.37628864974E+02 -0.30642784273E+02 -0.70218553414E+02  0.85361331707E+02  0.10000000000E+01 0.  0.
<mgrwt>
<rscale>  0 0.12500033E+03</rscale>
<asrwt>0</asrwt>
<pdfrwt beam="2">  1        4 0.14684347E-01 0.12500033E+03</pdfrwt>
<pdfrwt beam="1">  1       -4 0.62962358E-02 0.12500033E+03</pdfrwt>
<totfact> 0.10209119E+04</totfact>
</mgrwt>
</event>
<event>
 5    1  0.3337119E-002  0.1250027E+03  0.7818608E-02  0.1235065E+00
         -4   -1    0    0    0  501 -0.00000000000E+00  0.00000000000E+00  0.17709739890E+02  0.17755218584E+02  0.12700000000E+01 0. -1.
          4   -1    0    0  501    0  0.00000000000E+00 -0.00000000000E+00 -0.22025000730E+03  0.22025366879E+03  0.12700000000E+01 0. -1.
         25    2    1    2    0    0  0.00000000000E+00  0.00000000000E+00 -0.20254026741E+03  0.23800888737E+03  0.12500268216E+03 0.  0.
    9000005    1    3    3    0    0  0.19260225116E+02  0.58715484797E+02 -0.83515298218E+02  0.10389547374E+03  0.10000000000E+01 0.  0.
    9000005    1    3    3    0    0 -0.19260225116E+02 -0.58715484797E+02 -0.11902496919E+03  0.13411341363E+03  0.10000000000E+01 0.  0.
<mgrwt>
<rscale>  0 0.12500268E+03</rscale>
<asrwt>0</asrwt>
<pdfrwt beam="2">  1        4 0.33888395E-01 0.12500268E+03</pdfrwt>
<pdfrwt beam="1">  1       -4 0.27283555E-02 0.12500268E+03</pdfrwt>
<totfact> 0.84089777E+03</totfact>
</mgrwt>
</event>
<event>
 5    1  0.3337119E-002  0.1250027E+03  0.7818608E-02  0.1235065E+00
          4   -1    0    0  501    0  0.00000000000E+00  0.00000000000E+00  0.16016374605E+03  0.16016878113E+03  0.12700000000E+01 0. -1.
         -4   -1    0    0    0  501 -0.00000000000E+00 -0.00000000000E+00 -0.24368205917E+02  0.24401277828E+02  0.12700000000E+01 0. -1.
         25    2    1    2    0    0  0.00000000000E+00  0.00000000000E+00  0.13579554013E+03  0.18457005895E+03  0.12500271174E+03 0.  0.
    9000005    1    3    3    0    0 -0.16115070414E+02 -0.29201864544E+02 -0.10134698899E+02  0.34873435579E+02  0.10000000000E+01 0.  0.
    9000005    1    3    3    0    0  0.16115070414E+02  0.29201864544E+02  0.14593023903E+03  0.14969662337E+03  0.10000000000E+01 0.  0.
<mgrwt>
<rscale>  0 0.12500271E+03</rscale>
<asrwt>0</asrwt>
<pdfrwt beam="1">  1        4 0.24643508E-01 0.12500271E+03</pdfrwt>
<pdfrwt beam="2">  1       -4 0.37518860E-02 0.12500271E+03</pdfrwt>
<totfact> 0.92795145E+03</totfact>
</mgrwt>
</event>
<event>
 5    1  0.3337119E-002  0.1250158E+03  0.7818608E-02  0.1235045E+00
          4   -1    0    0  501    0  0.00000000000E+00  0.00000000000E+00  0.57207983277E+03  0.57208124244E+03  0.12700000000E+01 0.  1.
         -4   -1    0    0    0  501 -0.00000000000E+00 -0.00000000000E+00 -0.67694080319E+01  0.68875093541E+01  0.12700000000E+01 0.  1.
         25    2    1    2    0    0  0.00000000000E+00  0.00000000000E+00  0.56531042473E+03  0.57896875180E+03  0.12501575599E+03 0.  0.
    9000005    1    3    3    0    0 -0.22804227098E+02  0.50798034725E+02  0.15119519512E+03  0.16112560359E+03  0.10000000000E+01 0.  0.
    9000005    1    3    3    0    0  0.22804227098E+02 -0.50798034725E+02  0.41411522962E+03  0.41784314821E+03  0.10000000000E+01 0.  0.
<mgrwt>
<rscale>  0 0.12501576E+03</rscale>
<asrwt>0</asrwt>
<pdfrwt beam="1">  1        4 0.88021495E-01 0.12501576E+03</pdfrwt>
<pdfrwt beam="2">  1       -4 0.10506403E-02 0.12501576E+03</pdfrwt>
<totfact> 0.50205291E+03</totfact>
</mgrwt>
</event>
<event>
 5    1  0.3337119E-002  0.1250006E+03  0.7818608E-02  0.1235068E+00
         -4   -1    0    0    0  501 -0.00000000000E+00  0.00000000000E+00  0.11811100414E+02  0.11879183178E+02  0.12700000000E+01 0. -1.
          4   -1    0    0  501    0  0.00000000000E+00 -0.00000000000E+00 -0.32971014423E+03  0.32971259016E+03  0.12700000000E+01 0. -1.
         25    2    1    2    0    0  0.00000000000E+00  0.00000000000E+00 -0.31789904382E+03  0.34159177334E+03  0.12500055020E+03 0.  0.
    9000005    1    3    3    0    0 -0.26516621545E+02 -0.50757128814E+02 -0.22731494726E+03  0.23441950131E+03  0.10000000000E+01 0.  0.
    9000005    1    3    3    0    0  0.26516621545E+02  0.50757128814E+02 -0.90584096557E+02  0.10717227203E+03  0.10000000000E+01 0.  0.
<mgrwt>
<rscale>  0 0.12500055E+03</rscale>
<asrwt>0</asrwt>
<pdfrwt beam="2">  1        4 0.50730056E-01 0.12500055E+03</pdfrwt>
<pdfrwt beam="1">  1       -4 0.18225179E-02 0.12500055E+03</pdfrwt>
<totfact> 0.70658720E+03</totfact>
</mgrwt>
</event>
<event>
 5    1  0.3337119E-002  0.1250021E+03  0.7818608E-02  0.1235066E+00
          4   -1    0    0  501    0  0.00000000000E+00  0.00000000000E+00  0.29590662172E+03  0.29590934706E+03  0.12700000000E+01 0. -1.
         -4   -1    0    0    0  501 -0.00000000000E+00 -0.00000000000E+00 -0.13168052483E+02  0.13229153646E+02  0.12700000000E+01 0. -1.
         25    2    1    2    0    0  0.00000000000E+00  0.00000000000E+00  0.28273856924E+03  0.30913850071E+03  0.12500205632E+03 0.  0.
    9000005    1    3    3    0    0 -0.37914882596E+02  0.26442532853E+02  0.37364155224E+02  0.59445991972E+02  0.10000000000E+01 0.  0.
    9000005    1    3    3    0    0  0.37914882596E+02 -0.26442532853E+02  0.24537441401E+03  0.24969250873E+03  0.10000000000E+01 0.  0.
<mgrwt>
<rscale>  0 0.12500206E+03</rscale>
<asrwt>0</asrwt>
<pdfrwt beam="1">  1        4 0.45529003E-01 0.12500206E+03</pdfrwt>
<pdfrwt beam="2">  1       -4 0.20307641E-02 0.12500206E+03</pdfrwt>
<totfact> 0.74463239E+03</totfact>
</mgrwt>
</event>
<event>
 5    1  0.3337119E-002  0.1249923E+03  0.7818608E-02  0.1235081E+00
         -4   -1    0    0    0  501 -0.00000000000E+00  0.00000000000E+00  0.18907120144E+03  0.18907546671E+03  0.12700000000E+01 0.  1.
          4   -1    0    0  501    0  0.00000000000E+00 -0.00000000000E+00 -0.20633649085E+02  0.20672696354E+02  0.12700000000E+01 0.  1.
         25    2    1    2    0    0  0.00000000000E+00  0.00000000000E+00  0.16843755235E+03  0.20974816307E+03  0.12499233124E+03 0.  0.
    9000005    1    3    3    0    0 -0.60692288466E+02  0.12137828217E+02  0.98643500605E+02  0.11645780766E+03  0.10000000000E+01 0.  0.
    9000005    1    3    3    0    0  0.60692288466E+02 -0.12137828217E+02  0.69794051746E+02  0.93290355408E+02  0.10000000000E+01 0.  0.
<mgrwt>
<rscale>  0 0.12499233E+03</rscale>
<asrwt>0</asrwt>
<pdfrwt beam="2">  1        4 0.31777393E-02 0.12499233E+03</pdfrwt>
<pdfrwt beam="1">  1       -4 0.29091209E-01 0.12499233E+03</pdfrwt>
<totfact> 0.88532203E+03</totfact>
</mgrwt>
</event>
<event>
 5    1  0.3337119E-002  0.1249903E+03  0.7818608E-02  0.1235084E+00
          4   -1    0    0  501    0  0.00000000000E+00  0.00000000000E+00  0.70085208815E+01  0.71226585589E+01  0.12700000000E+01 0.  1.
         -4   -1    0    0    0  501 -0.00000000000E+00 -0.00000000000E+00 -0.55265473461E+03  0.55265619384E+03  0.12700000000E+01 0.  1.
         25    2    1    2    0    0  0.00000000000E+00  0.00000000000E+00 -0.54564621373E+03  0.55977885240E+03  0.12499029176E+03 0.  0.
    9000005    1    3    3    0    0 -0.45180867159E+02 -0.42629814766E+02 -0.24243754504E+03  0.25027100334E+03  0.10000000000E+01 0.  0.
    9000005    1    3    3    0    0  0.45180867159E+02  0.42629814766E+02 -0.30320866869E+03  0.30950784906E+03  0.10000000000E+01 0.  0.
<mgrwt>
<rscale>  0 0.12499029E+03</rscale>
<asrwt>0</asrwt>
<pdfrwt beam="1">  1        4 0.10871265E-02 0.12499029E+03</pdfrwt>
<pdfrwt beam="2">  1       -4 0.85032663E-01 0.12499029E+03</pdfrwt>
<totfact> 0.51520059E+03</totfact>
</mgrwt>
</event>
<event>
 5    1  0.3337119E-002  0.1249989E+03  0.7818608E-02  0.1235071E+00
          4   -1    0    0  501    0  0.00000000000E+00  0.00000000000E+00  0.56906312580E+01  0.58306246762E+01  0.12700000000E+01 0. -1.
         -4   -1    0    0    0  501 -0.00000000000E+00 -0.00000000000E+00 -0.67794200449E+03  0.67794319405E+03  0.12700000000E+01 0. -1.
         25    2    1    2    0    0  0.00000000000E+00  0.00000000000E+00 -0.67225137323E+03  0.68377381872E+03  0.12499890542E+03 0.  0.
    9000005    1    3    3    0    0  0.32814304528E+02 -0.93597953535E+01 -0.62250702335E+03  0.62344236178E+03  0.10000000000E+01 0.  0.
    9000005    1    3    3    0    0 -0.32814304528E+02  0.93597953535E+01 -0.49744349886E+02  0.60331456938E+02  0.10000000000E+01 0.  0.
<mgrwt>
<rscale>  0 0.12499891E+03</rscale>
<asrwt>0</asrwt>
<pdfrwt beam="1">  1        4 0.88634250E-03 0.12499891E+03</pdfrwt>
<pdfrwt beam="2">  1       -4 0.10430957E+00 0.12499891E+03</pdfrwt>
<totfact> 0.43958282E+03</totfact>
</mgrwt>
</event>
<event>
 5    1  0.3337119E-002  0.1250103E+03  0.7818608E-02  0.1235053E+00
          4   -1    0    0  501    0  0.00000000000E+00  0.00000000000E+00  0.18613950385E+01  0.22533733577E+01  0.12700000000E+01 0. -1.
         -4   -1    0    0    0  501 -0.00000000000E+00 -0.00000000000E+00 -0.18985680658E+04  0.18985684906E+04  0.12700000000E+01 0. -1.
         25    2    1    2    0    0  0.00000000000E+00  0.00000000000E+00 -0.18967066708E+04  0.19008218640E+04  0.12501025344E+03 0.  0.
    9000005    1    3    3    0    0 -0.48050830439E+02  0.37192541370E+02 -0.11706443191E+04  0.11722206657E+04  0.10000000000E+01 0.  0.
    9000005    1    3    3    0    0  0.48050830439E+02 -0.37192541370E+02 -0.72606235174E+03  0.72860119822E+03  0.10000000000E+01 0.  0.
<mgrwt>
<rscale>  0 0.12501025E+03</rscale>
<asrwt>0</asrwt>
<pdfrwt beam="1">  1        4 0.31655484E-03 0.12501025E+03</pdfrwt>
<pdfrwt beam="2">  1       -4 0.29211618E+00 0.12501025E+03</pdfrwt>
<totfact> 0.11209408E+03</totfact>
</mgrwt>
</event>
<event>
 4    1  0.3337119E-002  0.1248304E+03  0.7818608E-02  0.1235335E+00
          4   -1    0    0  501    0  0.00000000000E+00  0.00000000000E+00  0.68402693870E+03  0.68402811768E+03  0.12700000000E+01 0. -1.
         -4   -1    0    0    0  501 -0.00000000000E+00 -0.00000000000E+00 -0.56231788929E+01  0.57648105660E+01  0.12700000000E+01 0. -1.
    9000005    1    1    2    0    0 -0.15915772329E+02 -0.11460136292E+02  0.66658221100E+03  0.66687141981E+03  0.10000000000E+01 0.  0.
    9000005    1    1    2    0    0  0.15915772329E+02  0.11460136292E+02  0.11821548809E+02  0.22921508434E+02  0.10000000000E+01 0.  0.
<mgrwt>
<rscale>  0 0.12483038E+03</rscale>
<asrwt>0</asrwt>
<pdfrwt beam="1">  1        4 0.10524590E+00 0.12483038E+03</pdfrwt>
<pdfrwt beam="2">  1       -4 0.87608990E-03 0.12483038E+03</pdfrwt>
<totfact> 0.43793361E+03</totfact>
</mgrwt>
</event>
<event>
 5    1  0.3337119E-002  0.1250189E+03  0.7818608E-02  0.1235040E+00
         -4   -1    0    0    0  501 -0.00000000000E+00  0.00000000000E+00  0.50426248678E+03  0.50426408604E+03  0.12700000000E+01 0. -1.
          4   -1    0    0  501    0  0.00000000000E+00 -0.00000000000E+00 -0.76951441529E+01  0.77992399331E+01  0.12700000000E+01 0. -1.
         25    2    1    2    0    0  0.00000000000E+00  0.00000000000E+00  0.49656734263E+03  0.51206332598E+03  0.12501889476E+03 0.  0.
    9000005    1    3    3    0    0 -0.41181948518E+02  0.42528404507E+02  0.16618049181E+03  0.17641307755E+03  0.10000000000E+01 0.  0.
    9000005    1    3    3    0    0  0.41181948518E+02 -0.42528404507E+02  0.33038685082E+03  0.33565024843E+03  0.10000000000E+01 0.  0.
<mgrwt>
<rscale>  0 0.12501889E+03</rscale>
<asrwt>0</asrwt>
<pdfrwt beam="2">  1        4 0.11919983E-02 0.12501889E+03</pdfrwt>
<pdfrwt beam="1">  1       -4 0.77587000E-01 0.12501889E+03</pdfrwt>
<totfact> 0.54917575E+03</totfact>
</mgrwt>
</event>
<event>
 5    1  0.3337119E-002  0.1249970E+03  0.7818608E-02  0.1235074E+00
          4   -1    0    0  501    0  0.00000000000E+00  0.00000000000E+00  0.60418466449E+01  0.61738813465E+01  0.12700000000E+01 0. -1.
         -4   -1    0    0    0  501 -0.00000000000E+00 -0.00000000000E+00 -0.63938113784E+03  0.63938239914E+03  0.12700000000E+01 0. -1.
         25    2    1    2    0    0  0.00000000000E+00  0.00000000000E+00 -0.63333929119E+03  0.64555628048E+03  0.12499701396E+03 0.  0.
    9000005    1    3    3    0    0  0.25371965194E+02 -0.53971321015E+02 -0.41307208983E+03  0.41735619260E+03  0.10000000000E+01 0.  0.
    9000005    1    3    3    0    0 -0.25371965194E+02  0.53971321015E+02 -0.22026720137E+03  0.22820008788E+03  0.10000000000E+01 0.  0.
<mgrwt>
<rscale>  0 0.12499701E+03</rscale>
<asrwt>0</asrwt>
<pdfrwt beam="1">  1        4 0.93976891E-03 0.12499701E+03</pdfrwt>
<pdfrwt beam="2">  1       -4 0.98376529E-01 0.12499701E+03</pdfrwt>
<totfact> 0.46115606E+03</totfact>
</mgrwt>
</event>
<event>
 5    1  0.3337119E-002  0.1250094E+03  0.7818608E-02  0.1235055E+00
         -4   -1    0    0    0  501 -0.00000000000E+00  0.00000000000E+00  0.16938035567E+03  0.16938511679E+03  0.12700000000E+01 0. -1.
          4   -1    0    0  501    0  0.00000000000E+00 -0.00000000000E+00 -0.23042886807E+02  0.23077858055E+02  0.12700000000E+01 0. -1.
         25    2    1    2    0    0  0.00000000000E+00  0.00000000000E+00  0.14633746887E+03  0.19246297484E+03  0.12500936721E+03 0.  0.
    9000005    1    3    3    0    0 -0.18071574321E+02  0.39324485186E+01  0.16507828889E+03  0.16611407951E+03  0.10000000000E+01 0.  0.
    9000005    1    3    3    0    0  0.18071574321E+02 -0.39324485186E+01 -0.18740820023E+02  0.26348895327E+02  0.10000000000E+01 0.  0.
<mgrwt>
<rscale>  0 0.12500937E+03</rscale>
<asrwt>0</asrwt>
<pdfrwt beam="2">  1        4 0.35481160E-02 0.12500937E+03</pdfrwt>
<pdfrwt beam="1">  1       -4 0.26061572E-01 0.12500937E+03</pdfrwt>
<totfact> 0.91401348E+03</totfact>
</mgrwt>
</event>
<event>
 5    1  0.3337119E-002  0.1249925E+03  0.7818608E-02  0.1235081E+00
         -4   -1    0    0    0  501 -0.00000000000E+00  0.00000000000E+00  0.50640820922E+01  0.52209029331E+01  0.12700000000E+01 0.  1.
          4   -1    0    0  501    0  0.00000000000E+00 -0.00000000000E+00 -0.75935362485E+03  0.75935468687E+03  0.12700000000E+01 0.  1.
         25    2    1    2    0    0  0.00000000000E+00  0.00000000000E+00 -0.75428954276E+03  0.76457558981E+03  0.12499247262E+03 0.  0.
    9000005    1    3    3    0    0 -0.59399956072E+02 -0.17777034808E+02 -0.42468502851E+03  0.42918847979E+03  0.10000000000E+01 0.  0.
    9000005    1    3    3    0    0  0.59399956072E+02  0.17777034808E+02 -0.32960451425E+03  0.33538711002E+03  0.10000000000E+01 0.  0.
<mgrwt>
<rscale>  0 0.12499247E+03</rscale>
<asrwt>0</asrwt>
<pdfrwt beam="2">  1        4 0.11683569E+00 0.12499247E+03</pdfrwt>
<pdfrwt beam="1">  1       -4 0.79123499E-03 0.12499247E+03</pdfrwt>
<totfact> 0.39893091E+03</totfact>
</mgrwt>
</event>
<event>
 5    1  0.3337119E-002  0.1250076E+03  0.7818608E-02  0.1235057E+00
         -4   -1    0    0    0  501 -0.00000000000E+00  0.00000000000E+00  0.16483734957E+02  0.16532586553E+02  0.12700000000E+01 0.  1.
          4   -1    0    0  501    0  0.00000000000E+00 -0.00000000000E+00 -0.23660344834E+03  0.23660685676E+03  0.12700000000E+01 0.  1.
         25    2    1    2    0    0  0.00000000000E+00  0.00000000000E+00 -0.22011971338E+03  0.25313944331E+03  0.12500755794E+03 0.  0.
    9000005    1    3    3    0    0 -0.59501211456E+02 -0.12090134406E+02 -0.14003774897E+03  0.15263727150E+03  0.10000000000E+01 0.  0.
    9000005    1    3    3    0    0  0.59501211456E+02  0.12090134406E+02 -0.80081964408E+02  0.10050217181E+03  0.10000000000E+01 0.  0.
<mgrwt>
<rscale>  0 0.12500756E+03</rscale>
<asrwt>0</asrwt>
<pdfrwt beam="2">  1        4 0.36404548E-01 0.12500756E+03</pdfrwt>
<pdfrwt beam="1">  1       -4 0.25399794E-02 0.12500756E+03</pdfrwt>
<totfact> 0.81864808E+03</totfact>
</mgrwt>
</event>
<event>
 5    1  0.3337119E-002  0.1250001E+03  0.7818608E-02  0.1235069E+00
         -4   -1    0    0    0  501 -0.00000000000E+00  0.00000000000E+00  0.38357830815E+02  0.38378849447E+02  0.12700000000E+01 0.  1.
          4   -1    0    0  501    0  0.00000000000E+00 -0.00000000000E+00 -0.10178435021E+03  0.10179227303E+03  0.12700000000E+01 0.  1.
         25    2    1    2    0    0  0.00000000000E+00  0.00000000000E+00 -0.63426519399E+02  0.14017112248E+03  0.12500008085E+03 0.  0.
    9000005    1    3    3    0    0 -0.42260945016E+02  0.28990725335E+02  0.83873053369E+01  0.51940316902E+02  0.10000000000E+01 0.  0.
    9000005    1    3    3    0    0  0.42260945016E+02 -0.28990725335E+02 -0.71813824736E+02  0.88230805574E+02  0.10000000000E+01 0.  0.
<mgrwt>
<rscale>  0 0.12500008E+03</rscale>
<asrwt>0</asrwt>
<pdfrwt beam="2">  1        4 0.15661357E-01 0.12500008E+03</pdfrwt>
<pdfrwt beam="1">  1       -4 0.59034310E-02 0.12500008E+03</pdfrwt>
<totfact> 0.10130022E+04</totfact>
</mgrwt>
</event>
<event>
 5    1  0.3337119E-002  0.1249986E+03  0.7818608E-02  0.1235071E+00
          4   -1    0    0  501    0  0.00000000000E+00  0.00000000000E+00  0.19640028684E+02  0.19681047399E+02  0.12700000000E+01 0.  1.
         -4   -1    0    0    0  501 -0.00000000000E+00 -0.00000000000E+00 -0.19863727929E+03  0.19864133916E+03  0.12700000000E+01 0.  1.
         25    2    1    2    0    0  0.00000000000E+00  0.00000000000E+00 -0.17899725060E+03  0.21832238655E+03  0.12499859499E+03 0.  0.
    9000005    1    3    3    0    0  0.37235456943E+02  0.49149625871E+02 -0.10722442629E+03  0.12369414930E+03  0.10000000000E+01 0.  0.
    9000005    1    3    3    0    0 -0.37235456943E+02 -0.49149625871E+02 -0.71772824313E+02  0.94628237260E+02  0.10000000000E+01 0.  0.
<mgrwt>
<rscale>  0 0.12499859E+03</rscale>
<asrwt>0</asrwt>
<pdfrwt beam="1">  1        4 0.30250106E-02 0.12499859E+03</pdfrwt>
<pdfrwt beam="2">  1       -4 0.30563048E-01 0.12499859E+03</pdfrwt>
<totfact> 0.87137244E+03</totfact>
</mgrwt>
</event>
<event>
 5    1  0.3337119E-002  0.1249794E+03  0.7818608E-02  0.1235102E+00
         -4   -1    0    0    0  501 -0.00000000000E+00  0.00000000000E+00  0.14829155590E+04  0.14829161029E+04  0.12700000000E+01 0.  1.
          4   -1    0    0  501    0  0.00000000000E+00 -0.00000000000E+00 -0.24795986957E+01  0.27859127215E+01  0.12700000000E+01 0.  1.
         25    2    1    2    0    0  0.00000000000E+00  0.00000000000E+00  0.14804359603E+04  0.14857020156E+04  0.12497938407E+03 0.  0.
    9000005    1    3    3    0    0 -0.35936345159E+02 -0.27177779800E+02  0.22562058899E+03  0.23007760168E+03  0.10000000000E+01 0.  0.
    9000005    1    3    3    0    0  0.35936345159E+02  0.27177779800E+02  0.12548153714E+04  0.12556244139E+04  0.10000000000E+01 0.  0.
<mgrwt>
<rscale>  0 0.12497938E+03</rscale>
<asrwt>0</asrwt>
<pdfrwt beam="2">  1        4 0.40508022E-03 0.12497938E+03</pdfrwt>
<pdfrwt beam="1">  1       -4 0.22816499E+00 0.12497938E+03</pdfrwt>
<totfact> 0.18221267E+03</totfact>
</mgrwt>
</event>
<event>
 5    1  0.3337119E-002  0.1249984E+03  0.7818608E-02  0.1235072E+00
          4   -1    0    0  501    0  0.00000000000E+00  0.00000000000E+00  0.27347497938E+04  0.27347500887E+04  0.12700000000E+01 0. -1.
         -4   -1    0    0    0  501 -0.00000000000E+00 -0.00000000000E+00 -0.11456836032E+01  0.17104066530E+01  0.12700000000E+01 0. -1.
         25    2    1    2    0    0  0.00000000000E+00  0.00000000000E+00  0.27336041102E+04  0.27364604953E+04  0.12499844514E+03 0.  0.
    9000005    1    3    3    0    0 -0.53792701880E+02 -0.61635920994E+01  0.68374910045E+03  0.68589028059E+03  0.10000000000E+01 0.  0.
    9000005    1    3    3    0    0  0.53792701880E+02  0.61635920994E+01  0.20498550097E+04  0.20505702148E+04  0.10000000000E+01 0.  0.
<mgrwt>
<rscale>  0 0.12499845E+03</rscale>
<asrwt>0</asrwt>
<pdfrwt beam="1">  1        4 0.42077344E+00 0.12499845E+03</pdfrwt>
<pdfrwt beam="2">  1       -4 0.21972233E-03 0.12499845E+03</pdfrwt>
<totfact> 0.30668027E+02</totfact>
</mgrwt>
</event>
<event>
 5    1  0.3337119E-002  0.1249983E+03  0.7818608E-02  0.1235072E+00
          4   -1    0    0  501    0  0.00000000000E+00  0.00000000000E+00  0.74704884887E+02  0.74715679251E+02  0.12700000000E+01 0. -1.
         -4   -1    0    0    0  501 -0.00000000000E+00 -0.00000000000E+00 -0.52265397009E+02  0.52280824634E+02  0.12700000000E+01 0. -1.
         25    2    1    2    0    0  0.00000000000E+00  0.00000000000E+00  0.22439487878E+02  0.12699650389E+03  0.12499832552E+03 0.  0.
    9000005    1    3    3    0    0 -0.39176735632E+02  0.27803607281E+02 -0.29385227129E+02  0.56323607537E+02  0.10000000000E+01 0.  0.
    9000005    1    3    3    0    0  0.39176735632E+02 -0.27803607281E+02  0.51824715007E+02  0.70672896348E+02  0.10000000000E+01 0.  0.
<mgrwt>
<rscale>  0 0.12499833E+03</rscale>
<asrwt>0</asrwt>
<pdfrwt beam="1">  1        4 0.11495076E-01 0.12499833E+03</pdfrwt>
<pdfrwt beam="2">  1       -4 0.80428474E-02 0.12499833E+03</pdfrwt>
<totfact> 0.10409615E+04</totfact>
</mgrwt>
</event>
<event>
 4    1  0.3337119E-002  0.1250673E+03  0.7818608E-02  0.1234964E+00
         -4   -1    0    0    0  501 -0.00000000000E+00  0.00000000000E+00  0.26483416619E+02  0.26513850264E+02  0.12700000000E+01 0.  1.
          4   -1    0    0  501    0  0.00000000000E+00 -0.00000000000E+00 -0.14753895272E+03  0.14754441863E+03  0.12700000000E+01 0.  1.
    9000005    1    1    2    0    0 -0.64035060530E+00 -0.28169385688E+01 -0.14745284946E+03  0.14748453480E+03  0.10000000000E+01 0.  0.
    9000005    1    1    2    0    0  0.64035060530E+00  0.28169385688E+01  0.26397313353E+02  0.26573734101E+02  0.10000000000E+01 0.  0.
<mgrwt>
<rscale>  0 0.12506733E+03</rscale>
<asrwt>0</asrwt>
<pdfrwt beam="2">  1        4 0.22701061E-01 0.12506733E+03</pdfrwt>
<pdfrwt beam="1">  1       -4 0.40771334E-02 0.12506733E+03</pdfrwt>
<totfact> 0.94554684E+03</totfact>
</mgrwt>
</event>
<event>
 5    1  0.3337119E-002  0.1249946E+03  0.7818608E-02  0.1235078E+00
         -4   -1    0    0    0  501 -0.00000000000E+00  0.00000000000E+00  0.32394179573E+02  0.32419064919E+02  0.12700000000E+01 0.  1.
          4   -1    0    0  501    0  0.00000000000E+00 -0.00000000000E+00 -0.12049989423E+03  0.12050658659E+03  0.12700000000E+01 0.  1.
         25    2    1    2    0    0  0.00000000000E+00  0.00000000000E+00 -0.88105714661E+02  0.15292565150E+03  0.12499455161E+03 0.  0.
    9000005    1    3    3    0    0  0.39209346791E+02 -0.31218728505E+02  0.16089952888E+01  0.50155465815E+02  0.10000000000E+01 0.  0.
    9000005    1    3    3    0    0 -0.39209346791E+02  0.31218728505E+02 -0.89714709950E+02  0.10277018569E+03  0.10000000000E+01 0.  0.
<mgrwt>
<rscale>  0 0.12499455E+03</rscale>
<asrwt>0</asrwt>
<pdfrwt beam="2">  1        4 0.18540874E-01 0.12499455E+03</pdfrwt>
<pdfrwt beam="1">  1       -4 0.49861490E-02 0.12499455E+03</pdfrwt>
<totfact> 0.98735780E+03</totfact>
</mgrwt>
</event>
<event>
 5    1  0.3337119E-002  0.1249954E+03  0.7818608E-02  0.1235076E+00
          4   -1    0    0  501    0  0.00000000000E+00  0.00000000000E+00  0.85403291637E+01  0.86342412651E+01  0.12700000000E+01 0. -1.
         -4   -1    0    0    0  501 -0.00000000000E+00 -0.00000000000E+00 -0.45475959911E+03  0.45476137246E+03  0.12700000000E+01 0. -1.
         25    2    1    2    0    0  0.00000000000E+00  0.00000000000E+00 -0.44621926995E+03  0.46339561373E+03  0.12499543171E+03 0.  0.
    9000005    1    3    3    0    0  0.55453772073E+02  0.25212411649E+02 -0.17144923877E+03  0.18195226850E+03  0.10000000000E+01 0.  0.
    9000005    1    3    3    0    0 -0.55453772073E+02 -0.25212411649E+02 -0.27477003118E+03  0.28144334522E+03  0.10000000000E+01 0.  0.
<mgrwt>
<rscale>  0 0.12499543E+03</rscale>
<asrwt>0</asrwt>
<pdfrwt beam="1">  1        4 0.13212576E-02 0.12499543E+03</pdfrwt>
<pdfrwt beam="2">  1       -4 0.69970357E-01 0.12499543E+03</pdfrwt>
<totfact> 0.58826574E+03</totfact>
</mgrwt>
</event>
<event>
 5    1  0.3337119E-002  0.1249991E+03  0.7818608E-02  0.1235071E+00
         -4   -1    0    0    0  501 -0.00000000000E+00  0.00000000000E+00  0.71826492098E+03  0.71826604375E+03  0.12700000000E+01 0.  1.
          4   -1    0    0  501    0  0.00000000000E+00 -0.00000000000E+00 -0.53630890836E+01  0.55114085784E+01  0.12700000000E+01 0.  1.
         25    2    1    2    0    0  0.00000000000E+00  0.00000000000E+00  0.71290183189E+03  0.72377745233E+03  0.12499911433E+03 0.  0.
    9000005    1    3    3    0    0  0.21376524991E+02 -0.57952356644E+02  0.41130983423E+03  0.41592332369E+03  0.10000000000E+01 0.  0.
    9000005    1    3    3    0    0 -0.21376524991E+02  0.57952356644E+02  0.30159199767E+03  0.30785412864E+03  0.10000000000E+01 0.  0.
<mgrwt>
<rscale>  0 0.12499911E+03</rscale>
<asrwt>0</asrwt>
<pdfrwt beam="2">  1        4 0.83658641E-03 0.12499911E+03</pdfrwt>
<pdfrwt beam="1">  1       -4 0.11051376E+00 0.12499911E+03</pdfrwt>
<totfact> 0.41861654E+03</totfact>
</mgrwt>
</event>
<event>
 5    1  0.3337119E-002  0.1250039E+03  0.7818608E-02  0.1235063E+00
         -4   -1    0    0    0  501 -0.00000000000E+00  0.00000000000E+00  0.25137548065E+02  0.25169609110E+02  0.12700000000E+01 0. -1.
          4   -1    0    0  501    0  0.00000000000E+00 -0.00000000000E+00 -0.15527097078E+03  0.15527616452E+03  0.12700000000E+01 0. -1.
         25    2    1    2    0    0  0.00000000000E+00  0.00000000000E+00 -0.13013342272E+03  0.18044577363E+03  0.12500387799E+03 0.  0.
    9000005    1    3    3    0    0  0.48945009359E+02  0.28563432685E+02 -0.27038517314E+02  0.62797810842E+02  0.10000000000E+01 0.  0.
    9000005    1    3    3    0    0 -0.48945009359E+02 -0.28563432685E+02 -0.10309490540E+03  0.11764796279E+03  0.10000000000E+01 0.  0.
<mgrwt>
<rscale>  0 0.12500388E+03</rscale>
<asrwt>0</asrwt>
<pdfrwt beam="2">  1        4 0.23890707E-01 0.12500388E+03</pdfrwt>
<pdfrwt beam="1">  1       -4 0.38701809E-02 0.12500388E+03</pdfrwt>
<totfact> 0.93528692E+03</totfact>
</mgrwt>
</event>
<event>
 5    1  0.3337119E-002  0.1249994E+03  0.7818608E-02  0.1235070E+00
         -4   -1    0    0    0  501 -0.00000000000E+00  0.00000000000E+00  0.13256262767E+01  0.18358063693E+01  0.12700000000E+01 0.  1.
          4   -1    0    0  501    0  0.00000000000E+00 -0.00000000000E+00 -0.24706561949E+04  0.24706565213E+04  0.12700000000E+01 0.  1.
         25    2    1    2    0    0  0.00000000000E+00  0.00000000000E+00 -0.24693305686E+04  0.24724923277E+04  0.12499941320E+03 0.  0.
    9000005    1    3    3    0    0  0.13723120238E+02  0.33861125183E+02 -0.23185211926E+03  0.23471537026E+03  0.10000000000E+01 0.  0.
    9000005    1    3    3    0    0 -0.13723120238E+02 -0.33861125183E+02 -0.22374784494E+04  0.22377769574E+04  0.10000000000E+01 0.  0.
<mgrwt>
<rscale>  0 0.12499941E+03</rscale>
<asrwt>0</asrwt>
<pdfrwt beam="2">  1        4 0.38013713E+00 0.12499941E+03</pdfrwt>
<pdfrwt beam="1">  1       -4 0.24321421E-03 0.12499941E+03</pdfrwt>
<totfact> 0.48893155E+02</totfact>
</mgrwt>
</event>
<event>
 5    1  0.3337119E-002  0.1250029E+03  0.7818608E-02  0.1235065E+00
          4   -1    0    0  501    0  0.00000000000E+00  0.00000000000E+00  0.47795670523E+02  0.47812540413E+02  0.12700000000E+01 0.  1.
         -4   -1    0    0    0  501 -0.00000000000E+00 -0.00000000000E+00 -0.81695713555E+02  0.81705584346E+02  0.12700000000E+01 0.  1.
         25    2    1    2    0    0  0.00000000000E+00  0.00000000000E+00 -0.33900043032E+02  0.12951812476E+03  0.12500292686E+03 0.  0.
    9000005    1    3    3    0    0 -0.20936857761E+02  0.40483052850E+02 -0.61251948418E+02  0.76354638143E+02  0.10000000000E+01 0.  0.
    9000005    1    3    3    0    0  0.20936857761E+02 -0.40483052850E+02  0.27351905385E+02  0.53163486616E+02  0.10000000000E+01 0.  0.
<mgrwt>
<rscale>  0 0.12500293E+03</rscale>
<asrwt>0</asrwt>
<pdfrwt beam="1">  1        4 0.73552371E-02 0.12500293E+03</pdfrwt>
<pdfrwt beam="2">  1       -4 0.12570628E-01 0.12500293E+03</pdfrwt>
<totfact> 0.10354142E+04</totfact>
</mgrwt>
</event>
<event>
 5    1  0.3337119E-002  0.1250037E+03  0.7818608E-02  0.1235064E+00
          4   -1    0    0  501    0  0.00000000000E+00  0.00000000000E+00  0.29175518886E+03  0.29175795298E+03  0.12700000000E+01 0.  1.
         -4   -1    0    0    0  501 -0.00000000000E+00 -0.00000000000E+00 -0.13356628937E+02  0.13416871340E+02  0.12700000000E+01 0.  1.
         25    2    1    2    0    0  0.00000000000E+00  0.00000000000E+00  0.27839855993E+03  0.30517482432E+03  0.12500366087E+03 0.  0.
    9000005    1    3    3    0    0  0.42252547489E+02 -0.14763367058E+02  0.32721475800E+02  0.55452049148E+02  0.10000000000E+01 0.  0.
    9000005    1    3    3    0    0 -0.42252547489E+02  0.14763367058E+02  0.24567708413E+03  0.24972277518E+03  0.10000000000E+01 0.  0.
<mgrwt>
<rscale>  0 0.12500366E+03</rscale>
<asrwt>0</asrwt>
<pdfrwt beam="1">  1        4 0.44890257E-01 0.12500366E+03</pdfrwt>
<pdfrwt beam="2">  1       -4 0.20597128E-02 0.12500366E+03</pdfrwt>
<totfact> 0.74948182E+03</totfact>
</mgrwt>
</event>
<event>
 5    1  0.3337119E-002  0.1249787E+03  0.7818608E-02  0.1235103E+00
          4   -1    0    0  501    0  0.00000000000E+00  0.00000000000E+00  0.90289144456E+03  0.90289233775E+03  0.12700000000E+01 0. -1.
         -4   -1    0    0    0  501 -0.00000000000E+00 -0.00000000000E+00 -0.42307539995E+01  0.44172592639E+01  0.12700000000E+01 0. -1.
         25    2    1    2    0    0  0.00000000000E+00  0.00000000000E+00  0.89866069056E+03  0.90730959701E+03  0.12497867045E+03 0.  0.
    9000005    1    3    3    0    0  0.63537730735E+00 -0.16421983564E+02  0.11705456833E+02  0.20201558558E+02  0.10000000000E+01 0.  0.
    9000005    1    3    3    0    0 -0.63537730735E+00  0.16421983564E+02  0.88695523373E+03  0.88710803845E+03  0.10000000000E+01 0.  0.
<mgrwt>
<rscale>  0 0.12497867E+03</rscale>
<asrwt>0</asrwt>
<pdfrwt beam="1">  1        4 0.13892087E+00 0.12497867E+03</pdfrwt>
<pdfrwt beam="2">  1       -4 0.66530012E-03 0.12497867E+03</pdfrwt>
<totfact> 0.33897325E+03</totfact>
</mgrwt>
</event>
<event>
 5    1  0.3337119E-002  0.1250075E+03  0.7818608E-02  0.1235058E+00
         -4   -1    0    0    0  501 -0.00000000000E+00  0.00000000000E+00  0.54757685997E+02  0.54772411630E+02  0.12700000000E+01 0. -1.
          4   -1    0    0  501    0  0.00000000000E+00 -0.00000000000E+00 -0.71315573084E+02  0.71326880377E+02  0.12700000000E+01 0. -1.
         25    2    1    2    0    0  0.00000000000E+00  0.00000000000E+00 -0.16557887087E+02  0.12609929201E+03  0.12500747106E+03 0.  0.
    9000005    1    3    3    0    0  0.49562426685E+02  0.38029661290E+02 -0.10034163448E+02  0.63280120993E+02  0.10000000000E+01 0.  0.
    9000005    1    3    3    0    0 -0.49562426685E+02 -0.38029661290E+02 -0.65237236396E+01  0.62819171014E+02  0.10000000000E+01 0.  0.
<mgrwt>
<rscale>  0 0.12500747E+03</rscale>
<asrwt>0</asrwt>
<pdfrwt beam="2">  1        4 0.10973629E-01 0.12500747E+03</pdfrwt>
<pdfrwt beam="1">  1       -4 0.84262619E-02 0.12500747E+03</pdfrwt>
<totfact> 0.10427024E+04</totfact>
</mgrwt>
</event>
<event>
 5    1  0.3337119E-002  0.1250001E+03  0.7818608E-02  0.1235069E+00
         -4   -1    0    0    0  501 -0.00000000000E+00  0.00000000000E+00  0.16592461740E+03  0.16592947766E+03  0.12700000000E+01 0. -1.
          4   -1    0    0  501    0  0.00000000000E+00 -0.00000000000E+00 -0.23520006963E+02  0.23554269837E+02  0.12700000000E+01 0. -1.
         25    2    1    2    0    0  0.00000000000E+00  0.00000000000E+00  0.14240461043E+03  0.18948374750E+03  0.12500006998E+03 0.  0.
    9000005    1    3    3    0    0 -0.58514391160E+02  0.13305106637E+02  0.97645187266E+02  0.11461475661E+03  0.10000000000E+01 0.  0.
    9000005    1    3    3    0    0  0.58514391160E+02 -0.13305106637E+02  0.44759423167E+02  0.74868990896E+02  0.10000000000E+01 0.  0.
<mgrwt>
<rscale>  0 0.12500007E+03</rscale>
<asrwt>0</asrwt>
<pdfrwt beam="2">  1        4 0.36214722E-02 0.12500007E+03</pdfrwt>
<pdfrwt beam="1">  1       -4 0.25529873E-01 0.12500007E+03</pdfrwt>
<totfact> 0.91937075E+03</totfact>
</mgrwt>
</event>
<event>
 5    1  0.3337119E-002  0.1250075E+03  0.7818608E-02  0.1235057E+00
          4   -1    0    0  501    0  0.00000000000E+00  0.00000000000E+00  0.43095759025E+03  0.43095946155E+03  0.12700000000E+01 0. -1.
         -4   -1    0    0    0  501 -0.00000000000E+00 -0.00000000000E+00 -0.90188301195E+01  0.91078096557E+01  0.12700000000E+01 0. -1.
         25    2    1    2    0    0  0.00000000000E+00  0.00000000000E+00  0.42193876013E+03  0.44006727120E+03  0.12500754329E+03 0.  0.
    9000005    1    3    3    0    0 -0.18064901797E+02 -0.25482183762E+02  0.40152403319E+03  0.40273841585E+03  0.10000000000E+01 0.  0.
    9000005    1    3    3    0    0  0.18064901797E+02  0.25482183762E+02  0.20414726940E+02  0.37328855356E+02  0.10000000000E+01 0.  0.
<mgrwt>
<rscale>  0 0.12500754E+03</rscale>
<asrwt>0</asrwt>
<pdfrwt beam="1">  1        4 0.66308165E-01 0.12500754E+03</pdfrwt>
<pdfrwt beam="2">  1       -4 0.13945007E-02 0.12500754E+03</pdfrwt>
<totfact> 0.60823817E+03</totfact>
</mgrwt>
</event>
<event>
 5    1  0.3337119E-002  0.1249980E+03  0.7818608E-02  0.1235072E+00
         -4   -1    0    0    0  501 -0.00000000000E+00  0.00000000000E+00  0.14473023366E+01  0.19255087778E+01  0.12700000000E+01 0.  1.
          4   -1    0    0  501    0  0.00000000000E+00 -0.00000000000E+00 -0.23157635110E+04  0.23157638593E+04  0.12700000000E+01 0.  1.
         25    2    1    2    0    0  0.00000000000E+00  0.00000000000E+00 -0.23143162087E+04  0.23176893680E+04  0.12499797181E+03 0.  0.
    9000005    1    3    3    0    0  0.24389016746E+02 -0.26832822182E+02 -0.21347280293E+03  0.21653281986E+03  0.10000000000E+01 0.  0.
    9000005    1    3    3    0    0 -0.24389016746E+02  0.26832822182E+02 -0.21008434057E+04  0.21011565482E+04  0.10000000000E+01 0.  0.
<mgrwt>
<rscale>  0 0.12499797E+03</rscale>
<asrwt>0</asrwt>
<pdfrwt beam="2">  1        4 0.35630558E+00 0.12499797E+03</pdfrwt>
<pdfrwt beam="1">  1       -4 0.25947565E-03 0.12499797E+03</pdfrwt>
<totfact> 0.62643432E+02</totfact>
</mgrwt>
</event>
<event>
 5    1  0.3337119E-002  0.1250003E+03  0.7818608E-02  0.1235069E+00
         -4   -1    0    0    0  501 -0.00000000000E+00  0.00000000000E+00  0.64414764794E+01  0.65654793606E+01  0.12700000000E+01 0.  1.
          4   -1    0    0  501    0  0.00000000000E+00 -0.00000000000E+00 -0.60051831276E+03  0.60051965568E+03  0.12700000000E+01 0.  1.
         25    2    1    2    0    0  0.00000000000E+00  0.00000000000E+00 -0.59407683628E+03  0.60708513504E+03  0.12500029514E+03 0.  0.
    9000005    1    3    3    0    0  0.83854826619E+01  0.60300998182E+02 -0.36550570361E+03  0.37054277226E+03  0.10000000000E+01 0.  0.
    9000005    1    3    3    0    0 -0.83854826619E+01 -0.60300998182E+02 -0.22857113267E+03  0.23654236278E+03  0.10000000000E+01 0.  0.
<mgrwt>
<rscale>  0 0.12500030E+03</rscale>
<asrwt>0</asrwt>
<pdfrwt beam="2">  1        4 0.92397031E-01 0.12500030E+03</pdfrwt>
<pdfrwt beam="1">  1       -4 0.10006388E-02 0.12500030E+03</pdfrwt>
<totfact> 0.48423112E+03</totfact>
</mgrwt>
</event>
<event>
 5    1  0.3337119E-002  0.1249888E+03  0.7818608E-02  0.1235087E+00
          4   -1    0    0  501    0  0.00000000000E+00  0.00000000000E+00  0.17483713675E+03  0.17484174926E+03  0.12700000000E+01 0. -1.
         -4   -1    0    0    0  501 -0.00000000000E+00 -0.00000000000E+00 -0.22315247609E+02  0.22351357360E+02  0.12700000000E+01 0. -1.
         25    2    1    2    0    0  0.00000000000E+00  0.00000000000E+00  0.15252188914E+03  0.19719310662E+03  0.12498877803E+03 0.  0.
    9000005    1    3    3    0    0 -0.18337044330E+02 -0.53813013143E+02  0.35348607965E+02  0.66952308872E+02  0.10000000000E+01 0.  0.
    9000005    1    3    3    0    0  0.18337044330E+02  0.53813013143E+02  0.11717328117E+03  0.13024079775E+03  0.10000000000E+01 0.  0.
<mgrwt>
<rscale>  0 0.12498878E+03</rscale>
<asrwt>0</asrwt>
<pdfrwt beam="1">  1        4 0.26901154E-01 0.12498878E+03</pdfrwt>
<pdfrwt beam="2">  1       -4 0.34362474E-02 0.12498878E+03</pdfrwt>
<totfact> 0.90633345E+03</totfact>
</mgrwt>
</event>
<event>
 5    1  0.3337119E-002  0.1250013E+03  0.7818608E-02  0.1235067E+00
         -4   -1    0    0    0  501 -0.00000000000E+00  0.00000000000E+00  0.26983447082E+02  0.27013317390E+02  0.12700000000E+01 0. -1.
          4   -1    0    0  501    0  0.00000000000E+00 -0.00000000000E+00 -0.14465498637E+03  0.14466056125E+03  0.12700000000E+01 0. -1.
         25    2    1    2    0    0  0.00000000000E+00  0.00000000000E+00 -0.11767153929E+03  0.17167387864E+03  0.12500131779E+03 0.  0.
    9000005    1    3    3    0    0 -0.35546208783E+02 -0.22915364215E+01  0.11683448860E+02  0.37500494334E+02  0.10000000000E+01 0.  0.
    9000005    1    3    3    0    0  0.35546208783E+02  0.22915364215E+01 -0.12935498815E+03  0.13417338431E+03  0.10000000000E+01 0.  0.
<mgrwt>
<rscale>  0 0.12500132E+03</rscale>
<asrwt>0</asrwt>
<pdfrwt beam="2">  1        4 0.22257339E-01 0.12500132E+03</pdfrwt>
<pdfrwt beam="1">  1       -4 0.41540262E-02 0.12500132E+03</pdfrwt>
<totfact> 0.95134753E+03</totfact>
</mgrwt>
</event>
<event>
 5    1  0.3337119E-002  0.1249994E+03  0.7818608E-02  0.1235070E+00
         -4   -1    0    0    0  501 -0.00000000000E+00  0.00000000000E+00  0.19370434845E+03  0.19370851171E+03  0.12700000000E+01 0. -1.
          4   -1    0    0  501    0  0.00000000000E+00 -0.00000000000E+00 -0.20141480013E+02  0.20181479557E+02  0.12700000000E+01 0. -1.
         25    2    1    2    0    0  0.00000000000E+00  0.00000000000E+00  0.17356286844E+03  0.21388999127E+03  0.12499943625E+03 0.  0.
    9000005    1    3    3    0    0 -0.15035526562E+02  0.25472781791E+02  0.18097563232E+03  0.18337968580E+03  0.10000000000E+01 0.  0.
    9000005    1    3    3    0    0  0.15035526562E+02 -0.25472781791E+02 -0.74127638825E+01  0.30510305465E+02  0.10000000000E+01 0.  0.
<mgrwt>
<rscale>  0 0.12499944E+03</rscale>
<asrwt>0</asrwt>
<pdfrwt beam="2">  1        4 0.31020865E-02 0.12499944E+03</pdfrwt>
<pdfrwt beam="1">  1       -4 0.29804065E-01 0.12499944E+03</pdfrwt>
<totfact> 0.87845616E+03</totfact>
</mgrwt>
</event>
<event>
 5    1  0.3337119E-002  0.1249997E+03  0.7818608E-02  0.1235070E+00
         -4   -1    0    0    0  501 -0.00000000000E+00  0.00000000000E+00  0.41074916261E+01  0.42993473294E+01  0.12700000000E+01 0.  1.
          4   -1    0    0  501    0  0.00000000000E+00 -0.00000000000E+00 -0.92910607388E+03  0.92910694187E+03  0.12700000000E+01 0.  1.
         25    2    1    2    0    0  0.00000000000E+00  0.00000000000E+00 -0.92499858226E+03  0.93340628920E+03  0.12499969414E+03 0.  0.
    9000005    1    3    3    0    0 -0.19686379954E+02 -0.52838507997E+02 -0.26133027153E+03  0.26734616567E+03  0.10000000000E+01 0.  0.
    9000005    1    3    3    0    0  0.19686379954E+02  0.52838507997E+02 -0.66366831073E+03  0.66606012353E+03  0.10000000000E+01 0.  0.
<mgrwt>
<rscale>  0 0.12499969E+03</rscale>
<asrwt>0</asrwt>
<pdfrwt beam="2">  1        4 0.14295406E+00 0.12499969E+03</pdfrwt>
<pdfrwt beam="1">  1       -4 0.64674743E-03 0.12499969E+03</pdfrwt>
<totfact> 0.32912795E+03</totfact>
</mgrwt>
</event>
<event>
 5    1  0.3337119E-002  0.1249825E+03  0.7818608E-02  0.1235097E+00
          4   -1    0    0  501    0  0.00000000000E+00  0.00000000000E+00  0.44257965335E+03  0.44258147550E+03  0.12700000000E+01 0.  1.
         -4   -1    0    0    0  501 -0.00000000000E+00 -0.00000000000E+00 -0.87760800432E+01  0.88674957527E+01  0.12700000000E+01 0.  1.
         25    2    1    2    0    0  0.00000000000E+00  0.00000000000E+00  0.43380357330E+03  0.45144897125E+03  0.12498253252E+03 0.  0.
    9000005    1    3    3    0    0 -0.57970298557E+02  0.22873936288E+02  0.20059290778E+03  0.21005305789E+03  0.10000000000E+01 0.  0.
    9000005    1    3    3    0    0  0.57970298557E+02 -0.22873936288E+02  0.23321066552E+03  0.24139591337E+03  0.10000000000E+01 0.  0.
<mgrwt>
<rscale>  0 0.12498253E+03</rscale>
<asrwt>0</asrwt>
<pdfrwt beam="1">  1        4 0.68096350E-01 0.12498253E+03</pdfrwt>
<pdfrwt beam="2">  1       -4 0.13573383E-02 0.12498253E+03</pdfrwt>
<totfact> 0.59861502E+03</totfact>
</mgrwt>
</event>
<event>
 5    1  0.3337119E-002  0.1249892E+03  0.7818608E-02  0.1235086E+00
          4   -1    0    0  501    0  0.00000000000E+00  0.00000000000E+00  0.92371439700E+01  0.93240403647E+01  0.12700000000E+01 0. -1.
         -4   -1    0    0    0  501 -0.00000000000E+00 -0.00000000000E+00 -0.42074446605E+03  0.42074638276E+03  0.12700000000E+01 0. -1.
         25    2    1    2    0    0  0.00000000000E+00  0.00000000000E+00 -0.41150732208E+03  0.43007042313E+03  0.12498917044E+03 0.  0.
    9000005    1    3    3    0    0 -0.18165813637E+02 -0.91204812667E+01 -0.24399944438E+01  0.20497159230E+02  0.10000000000E+01 0.  0.
    9000005    1    3    3    0    0  0.18165813637E+02  0.91204812667E+01 -0.40906732763E+03  0.40957326390E+03  0.10000000000E+01 0.  0.
<mgrwt>
<rscale>  0 0.12498917E+03</rscale>
<asrwt>0</asrwt>
<pdfrwt beam="1">  1        4 0.14279312E-02 0.12498917E+03</pdfrwt>
<pdfrwt beam="2">  1       -4 0.64736735E-01 0.12498917E+03</pdfrwt>
<totfact> 0.61744357E+03</totfact>
</mgrwt>
</event>
<event>
 5    1  0.3337119E-002  0.1250020E+03  0.7818608E-02  0.1235066E+00
         -4   -1    0    0    0  501 -0.00000000000E+00  0.00000000000E+00  0.12187824655E+03  0.12188486322E+03  0.12700000000E+01 0. -1.
          4   -1    0    0  501    0  0.00000000000E+00 -0.00000000000E+00 -0.32031400179E+02  0.32056567150E+02  0.12700000000E+01 0. -1.
         25    2    1    2    0    0  0.00000000000E+00  0.00000000000E+00  0.89846846373E+02  0.15394143037E+03  0.12500203271E+03 0.  0.
    9000005    1    3    3    0    0  0.41322522735E+02 -0.18276097434E+02 -0.82432284964E+01  0.45940368291E+02  0.10000000000E+01 0.  0.
    9000005    1    3    3    0    0 -0.41322522735E+02  0.18276097434E+02  0.98090074869E+02  0.10800106208E+03  0.10000000000E+01 0.  0.
<mgrwt>
<rscale>  0 0.12500203E+03</rscale>
<asrwt>0</asrwt>
<pdfrwt beam="2">  1        4 0.49303527E-02 0.12500203E+03</pdfrwt>
<pdfrwt beam="1">  1       -4 0.18752944E-01 0.12500203E+03</pdfrwt>
<totfact> 0.98519206E+03</totfact>
</mgrwt>
</event>
<event>
 5    1  0.3337119E-002  0.1250016E+03  0.7818608E-02  0.1235067E+00
          4   -1    0    0  501    0  0.00000000000E+00  0.00000000000E+00  0.60327499601E+01  0.61649794874E+01  0.12700000000E+01 0. -1.
         -4   -1    0    0    0  501 -0.00000000000E+00 -0.00000000000E+00 -0.64037118986E+03  0.64037244920E+03  0.12700000000E+01 0. -1.
         25    2    1    2    0    0  0.00000000000E+00  0.00000000000E+00 -0.63433843990E+03  0.64653742869E+03  0.12500156146E+03 0.  0.
    9000005    1    3    3    0    0 -0.24329973626E+02 -0.35925603837E+02 -0.54979050046E+03  0.55150085315E+03  0.10000000000E+01 0.  0.
    9000005    1    3    3    0    0  0.24329973626E+02  0.35925603837E+02 -0.84547939434E+02  0.95036575539E+02  0.10000000000E+01 0.  0.
<mgrwt>
<rscale>  0 0.12500156E+03</rscale>
<asrwt>0</asrwt>
<pdfrwt beam="1">  1        4 0.93838426E-03 0.12500156E+03</pdfrwt>
<pdfrwt beam="2">  1       -4 0.98528860E-01 0.12500156E+03</pdfrwt>
<totfact> 0.46054208E+03</totfact>
</mgrwt>
</event>
<event>
 5    1  0.3337119E-002  0.1250005E+03  0.7818608E-02  0.1235069E+00
          4   -1    0    0  501    0  0.00000000000E+00  0.00000000000E+00  0.17337063473E+03  0.17337528626E+03  0.12700000000E+01 0. -1.
         -4   -1    0    0    0  501 -0.00000000000E+00 -0.00000000000E+00 -0.22508520785E+02  0.22544320968E+02  0.12700000000E+01 0. -1.
         25    2    1    2    0    0  0.00000000000E+00  0.00000000000E+00  0.15086211395E+03  0.19591960723E+03  0.12500046029E+03 0.  0.
    9000005    1    3    3    0    0  0.22864716401E+02 -0.53213415072E+02  0.11221595449E+03  0.12628492880E+03  0.10000000000E+01 0.  0.
    9000005    1    3    3    0    0 -0.22864716401E+02  0.53213415072E+02  0.38646159456E+02  0.69634678432E+02  0.10000000000E+01 0.  0.
<mgrwt>
<rscale>  0 0.12500046E+03</rscale>
<asrwt>0</asrwt>
<pdfrwt beam="1">  1        4 0.26675517E-01 0.12500046E+03</pdfrwt>
<pdfrwt beam="2">  1       -4 0.34659610E-02 0.12500046E+03</pdfrwt>
<totfact> 0.90826465E+03</totfact>
</mgrwt>
</event>
<event>
 5    1  0.3337119E-002  0.1250030E+03  0.7818608E-02  0.1235065E+00
         -4   -1    0    0    0  501 -0.00000000000E+00  0.00000000000E+00  0.40331560913E+02  0.40351551466E+02  0.12700000000E+01 0.  1.
          4   -1    0    0  501    0  0.00000000000E+00 -0.00000000000E+00 -0.96809861033E+02  0.96818190921E+02  0.12700000000E+01 0.  1.
         25    2    1    2    0    0  0.00000000000E+00  0.00000000000E+00 -0.56478300120E+02  0.13716974239E+03  0.12500295933E+03 0.  0.
    9000005    1    3    3    0    0  0.57461487408E+02  0.23955936933E+02 -0.34221925377E+02  0.71048220428E+02  0.10000000000E+01 0.  0.
    9000005    1    3    3    0    0 -0.57461487408E+02 -0.23955936933E+02 -0.22256374742E+02  0.66121521959E+02  0.10000000000E+01 0.  0.
<mgrwt>
<rscale>  0 0.12500296E+03</rscale>
<asrwt>0</asrwt>
<pdfrwt beam="2">  1        4 0.14896003E-01 0.12500296E+03</pdfrwt>
<pdfrwt beam="1">  1       -4 0.62070341E-02 0.12500296E+03</pdfrwt>
<totfact> 0.10191858E+04</totfact>
</mgrwt>
</event>
<event>
 5    1  0.3337119E-002  0.1249977E+03  0.7818608E-02  0.1235073E+00
          4   -1    0    0  501    0  0.00000000000E+00  0.00000000000E+00  0.24545084650E+02  0.24577918554E+02  0.12700000000E+01 0. -1.
         -4   -1    0    0    0  501 -0.00000000000E+00 -0.00000000000E+00 -0.15899836238E+03  0.15900343437E+03  0.12700000000E+01 0. -1.
         25    2    1    2    0    0  0.00000000000E+00  0.00000000000E+00 -0.13445327773E+03  0.18358135292E+03  0.12499771697E+03 0.  0.
    9000005    1    3    3    0    0 -0.59881631118E+02  0.13005728336E+02 -0.85223100476E+02  0.10497111779E+03  0.10000000000E+01 0.  0.
    9000005    1    3    3    0    0  0.59881631118E+02 -0.13005728336E+02 -0.49230177257E+02  0.78610235133E+02  0.10000000000E+01 0.  0.
<mgrwt>
<rscale>  0 0.12499772E+03</rscale>
<asrwt>0</asrwt>
<pdfrwt beam="1">  1        4 0.37790828E-02 0.12499772E+03</pdfrwt>
<pdfrwt beam="2">  1       -4 0.24464202E-01 0.12499772E+03</pdfrwt>
<totfact> 0.92981050E+03</totfact>
</mgrwt>
</event>
<event>
 5    1  0.3337119E-002  0.1249975E+03  0.7818608E-02  0.1235073E+00
          4   -1    0    0  501    0  0.00000000000E+00  0.00000000000E+00  0.28433192269E+01  0.31140591237E+01  0.12700000000E+01 0. -1.
         -4   -1    0    0    0  501 -0.00000000000E+00 -0.00000000000E+00 -0.13110747659E+04  0.13110753810E+04  0.12700000000E+01 0. -1.
         25    2    1    2    0    0  0.00000000000E+00  0.00000000000E+00 -0.13082314467E+04  0.13141894402E+04  0.12499746591E+03 0.  0.
    9000005    1    3    3    0    0  0.59541151292E+02 -0.18876254300E+02 -0.63408452507E+03  0.63715433500E+03  0.10000000000E+01 0.  0.
    9000005    1    3    3    0    0 -0.59541151292E+02  0.18876254300E+02 -0.67414692165E+03  0.67703510517E+03  0.10000000000E+01 0.  0.
<mgrwt>
<rscale>  0 0.12499747E+03</rscale>
<asrwt>0</asrwt>
<pdfrwt beam="1">  1        4 0.45830824E-03 0.12499747E+03</pdfrwt>
<pdfrwt beam="2">  1       -4 0.20172422E+00 0.12499747E+03</pdfrwt>
<totfact> 0.21897360E+03</totfact>
</mgrwt>
</event>
<event>
 5    1  0.3337119E-002  0.1250003E+03  0.7818608E-02  0.1235069E+00
         -4   -1    0    0    0  501 -0.00000000000E+00  0.00000000000E+00  0.13330894899E+03  0.13331499833E+03  0.12700000000E+01 0. -1.
          4   -1    0    0  501    0  0.00000000000E+00 -0.00000000000E+00 -0.29281903073E+02  0.29309431035E+02  0.12700000000E+01 0. -1.
         25    2    1    2    0    0  0.00000000000E+00  0.00000000000E+00  0.10402704592E+03  0.16262442937E+03  0.12500031498E+03 0.  0.
    9000005    1    3    3    0    0 -0.21512219557E+02 -0.47366623604E+02  0.97060497360E+02  0.11012771118E+03  0.10000000000E+01 0.  0.
    9000005    1    3    3    0    0  0.21512219557E+02  0.47366623604E+02  0.69665485574E+01  0.52496718190E+02  0.10000000000E+01 0.  0.
<mgrwt>
<rscale>  0 0.12500031E+03</rscale>
<asrwt>0</asrwt>
<pdfrwt beam="2">  1        4 0.45074910E-02 0.12500031E+03</pdfrwt>
<pdfrwt beam="1">  1       -4 0.20511652E-01 0.12500031E+03</pdfrwt>
<totfact> 0.96838503E+03</totfact>
</mgrwt>
</event>
<event>
 5    1  0.3337119E-002  0.1249988E+03  0.7818608E-02  0.1235071E+00
          4   -1    0    0  501    0  0.00000000000E+00  0.00000000000E+00  0.35413464711E+03  0.35413692434E+03  0.12700000000E+01 0. -1.
         -4   -1    0    0    0  501 -0.00000000000E+00 -0.00000000000E+00 -0.10991325976E+02  0.11064454199E+02  0.12700000000E+01 0. -1.
         25    2    1    2    0    0  0.00000000000E+00  0.00000000000E+00  0.34314332113E+03  0.36520137854E+03  0.12499883220E+03 0.  0.
    9000005    1    3    3    0    0  0.35088047602E+02  0.12727954737E+02  0.25139418961E+02  0.45012912615E+02  0.10000000000E+01 0.  0.
    9000005    1    3    3    0    0 -0.35088047602E+02 -0.12727954737E+02  0.31800390217E+03  0.32018846592E+03  0.10000000000E+01 0.  0.
<mgrwt>
<rscale>  0 0.12499883E+03</rscale>
<asrwt>0</asrwt>
<pdfrwt beam="1">  1        4 0.54488054E-01 0.12499883E+03</pdfrwt>
<pdfrwt beam="2">  1       -4 0.16967736E-02 0.12499883E+03</pdfrwt>
<totfact> 0.68085725E+03</totfact>
</mgrwt>
</event>
<event>
 5    1  0.3337119E-002  0.1250000E+03  0.7818608E-02  0.1235069E+00
          4   -1    0    0  501    0  0.00000000000E+00  0.00000000000E+00  0.20590742177E+03  0.20591133830E+03  0.12700000000E+01 0. -1.
         -4   -1    0    0    0  501 -0.00000000000E+00 -0.00000000000E+00 -0.18945534301E+02  0.18988053348E+02  0.12700000000E+01 0. -1.
         25    2    1    2    0    0  0.00000000000E+00  0.00000000000E+00  0.18696188747E+03  0.22489939165E+03  0.12499995599E+03 0.  0.
    9000005    1    3    3    0    0  0.46774124102E+02 -0.36867969837E+02  0.12753194709E+03  0.14075675265E+03  0.10000000000E+01 0.  0.
    9000005    1    3    3    0    0 -0.46774124102E+02  0.36867969837E+02  0.59429940375E+02  0.84142639002E+02  0.10000000000E+01 0.  0.
<mgrwt>
<rscale>  0 0.12499996E+03</rscale>
<asrwt>0</asrwt>
<pdfrwt beam="1">  1        4 0.31681639E-01 0.12499996E+03</pdfrwt>
<pdfrwt beam="2">  1       -4 0.29182693E-02 0.12499996E+03</pdfrwt>
<totfact> 0.86099055E+03</totfact>
</mgrwt>
</event>
<event>
 5    1  0.3337119E-002  0.1249991E+03  0.7818608E-02  0.1235071E+00
         -4   -1    0    0    0  501 -0.00000000000E+00  0.00000000000E+00  0.39576630457E+02  0.39597002138E+02  0.12700000000E+01 0.  1.
          4   -1    0    0  501    0  0.00000000000E+00 -0.00000000000E+00 -0.98649635102E+02  0.98657809654E+02  0.12700000000E+01 0.  1.
         25    2    1    2    0    0  0.00000000000E+00  0.00000000000E+00 -0.59073004645E+02  0.13825481179E+03  0.12499909242E+03 0.  0.
    9000005    1    3    3    0    0  0.21695344748E+02 -0.33797813259E+02 -0.82490760902E+02  0.91753505650E+02  0.10000000000E+01 0.  0.
    9000005    1    3    3    0    0 -0.21695344748E+02  0.33797813259E+02  0.23417756257E+02  0.46501306142E+02  0.10000000000E+01 0.  0.
<mgrwt>
<rscale>  0 0.12499909E+03</rscale>
<asrwt>0</asrwt>
<pdfrwt beam="2">  1        4 0.15179063E-01 0.12499909E+03</pdfrwt>
<pdfrwt beam="1">  1       -4 0.60909083E-02 0.12499909E+03</pdfrwt>
<totfact> 0.10170092E+04</totfact>
</mgrwt>
</event>
<event>
 5    1  0.3337119E-002  0.1250028E+03  0.7818608E-02  0.1235065E+00
         -4   -1    0    0    0  501 -0.00000000000E+00  0.00000000000E+00  0.91719648130E+01  0.92594729079E+01  0.12700000000E+01 0.  1.
          4   -1    0    0  501    0  0.00000000000E+00 -0.00000000000E+00 -0.42379870769E+03  0.42380061059E+03  0.12700000000E+01 0.  1.
         25    2    1    2    0    0  0.00000000000E+00  0.00000000000E+00 -0.41462674288E+03  0.43306008350E+03  0.12500280002E+03 0.  0.
    9000005    1    3    3    0    0 -0.25179318098E+01  0.62209853269E+02 -0.22597592107E+03  0.23439821400E+03  0.10000000000E+01 0.  0.
    9000005    1    3    3    0    0  0.25179318098E+01 -0.62209853269E+02 -0.18865082181E+03  0.19866186950E+03  0.10000000000E+01 0.  0.
<mgrwt>
<rscale>  0 0.12500280E+03</rscale>
<asrwt>0</asrwt>
<pdfrwt beam="2">  1        4 0.65206664E-01 0.12500280E+03</pdfrwt>
<pdfrwt beam="1">  1       -4 0.14179496E-02 0.12500280E+03</pdfrwt>
<totfact> 0.61455803E+03</totfact>
</mgrwt>
</event>
<event>
 5    1  0.3337119E-002  0.1250002E+03  0.7818608E-02  0.1235069E+00
          4   -1    0    0  501    0  0.00000000000E+00  0.00000000000E+00  0.66889007205E+02  0.66901062659E+02  0.12700000000E+01 0. -1.
         -4   -1    0    0    0  501 -0.00000000000E+00 -0.00000000000E+00 -0.58374908604E+02  0.58388721981E+02  0.12700000000E+01 0. -1.
         25    2    1    2    0    0  0.00000000000E+00  0.00000000000E+00  0.85140986010E+01  0.12528978464E+03  0.12500016104E+03 0.  0.
    9000005    1    3    3    0    0  0.55853460232E+02 -0.27891518121E+02  0.70409406692E+01  0.62834072353E+02  0.10000000000E+01 0.  0.
    9000005    1    3    3    0    0 -0.55853460232E+02  0.27891518121E+02  0.14731579318E+01  0.62455712287E+02  0.10000000000E+01 0.  0.
<mgrwt>
<rscale>  0 0.12500016E+03</rscale>
<asrwt>0</asrwt>
<pdfrwt beam="1">  1        4 0.10292606E-01 0.12500016E+03</pdfrwt>
<pdfrwt beam="2">  1       -4 0.89827451E-02 0.12500016E+03</pdfrwt>
<totfact> 0.10446534E+04</totfact>
</mgrwt>
</event>
<event>
 5    1  0.3337119E-002  0.1250012E+03  0.7818608E-02  0.1235067E+00
         -4   -1    0    0    0  501 -0.00000000000E+00  0.00000000000E+00  0.68158715886E+02  0.68170546802E+02  0.12700000000E+01 0. -1.
          4   -1    0    0  501    0  0.00000000000E+00 -0.00000000000E+00 -0.57288319526E+02  0.57302394838E+02  0.12700000000E+01 0. -1.
         25    2    1    2    0    0  0.00000000000E+00  0.00000000000E+00  0.10870396360E+02  0.12547294164E+03  0.12500117426E+03 0.  0.
    9000005    1    3    3    0    0  0.31402740401E+02  0.52269006530E+02 -0.82964258066E+01  0.61546826316E+02  0.10000000000E+01 0.  0.
    9000005    1    3    3    0    0 -0.31402740401E+02 -0.52269006530E+02  0.19166822167E+02  0.63926115324E+02  0.10000000000E+01 0.  0.
<mgrwt>
<rscale>  0 0.12500117E+03</rscale>
<asrwt>0</asrwt>
<pdfrwt beam="2">  1        4 0.88155804E-02 0.12500117E+03</pdfrwt>
<pdfrwt beam="1">  1       -4 0.10487949E-01 0.12500117E+03</pdfrwt>
<totfact> 0.10442276E+04</totfact>
</mgrwt>
</event>
<event>
 5    1  0.3337119E-002  0.1249972E+03  0.7818608E-02  0.1235074E+00
         -4   -1    0    0    0  501 -0.00000000000E+00  0.00000000000E+00  0.28212670341E+03  0.28212956187E+03  0.12700000000E+01 0. -1.
          4   -1    0    0  501    0  0.00000000000E+00 -0.00000000000E+00 -0.13813045875E+02  0.13871306224E+02  0.12700000000E+01 0. -1.
         25    2    1    2    0    0  0.00000000000E+00  0.00000000000E+00  0.26831365754E+03  0.29600086809E+03  0.12499718032E+03 0.  0.
    9000005    1    3    3    0    0 -0.47955239710E+02  0.38180079961E+02  0.10538219117E+03  0.12191730697E+03  0.10000000000E+01 0.  0.
    9000005    1    3    3    0    0  0.47955239710E+02 -0.38180079961E+02  0.16293146636E+03  0.17408356112E+03  0.10000000000E+01 0.  0.
<mgrwt>
<rscale>  0 0.12499718E+03</rscale>
<asrwt>0</asrwt>
<pdfrwt beam="2">  1        4 0.21297856E-02 0.12499718E+03</pdfrwt>
<pdfrwt beam="1">  1       -4 0.43408805E-01 0.12499718E+03</pdfrwt>
<totfact> 0.76108003E+03</totfact>
</mgrwt>
</event>
<event>
 5    1  0.3337119E-002  0.1249920E+03  0.7818608E-02  0.1235082E+00
         -4   -1    0    0    0  501 -0.00000000000E+00  0.00000000000E+00  0.10441527471E+04  0.10441535195E+04  0.12700000000E+01 0.  1.
          4   -1    0    0  501    0  0.00000000000E+00 -0.00000000000E+00 -0.36319966347E+01  0.38476355797E+01  0.12700000000E+01 0.  1.
         25    2    1    2    0    0  0.00000000000E+00  0.00000000000E+00  0.10405207505E+04  0.10480011551E+04  0.12499195491E+03 0.  0.
    9000005    1    3    3    0    0  0.13582862124E+02  0.31258360286E+02  0.95940331115E+03  0.96000900656E+03  0.10000000000E+01 0.  0.
    9000005    1    3    3    0    0 -0.13582862124E+02 -0.31258360286E+02  0.81117439343E+02  0.87992148495E+02  0.10000000000E+01 0.  0.
<mgrwt>
<rscale>  0 0.12499195E+03</rscale>
<asrwt>0</asrwt>
<pdfrwt beam="2">  1        4 0.57541626E-03 0.12499195E+03</pdfrwt>
<pdfrwt beam="1">  1       -4 0.16065539E+00 0.12499195E+03</pdfrwt>
<totfact> 0.29062389E+03</totfact>
</mgrwt>
</event>
<event>
 5    1  0.3337119E-002  0.1250009E+03  0.7818608E-02  0.1235068E+00
          4   -1    0    0  501    0  0.00000000000E+00  0.00000000000E+00  0.73394356060E+01  0.74485042133E+01  0.12700000000E+01 0.  1.
         -4   -1    0    0    0  501 -0.00000000000E+00 -0.00000000000E+00 -0.52819969395E+03  0.52820122074E+03  0.12700000000E+01 0.  1.
         25    2    1    2    0    0  0.00000000000E+00  0.00000000000E+00 -0.52086025835E+03  0.53564972495E+03  0.12500087647E+03 0.  0.
    9000005    1    3    3    0    0 -0.24495799818E+02 -0.50012540436E+02 -0.38193608688E+03  0.38597600038E+03  0.10000000000E+01 0.  0.
    9000005    1    3    3    0    0  0.24495799818E+02  0.50012540436E+02 -0.13892417147E+03  0.14967372458E+03  0.10000000000E+01 0.  0.
<mgrwt>
<rscale>  0 0.12500088E+03</rscale>
<asrwt>0</asrwt>
<pdfrwt beam="1">  1        4 0.11376517E-02 0.12500088E+03</pdfrwt>
<pdfrwt beam="2">  1       -4 0.81269969E-01 0.12500088E+03</pdfrwt>
<totfact> 0.53199716E+03</totfact>
</mgrwt>
</event>
<event>
 5    1  0.3337119E-002  0.1250043E+03  0.7818608E-02  0.1235063E+00
         -4   -1    0    0    0  501 -0.00000000000E+00  0.00000000000E+00  0.14183558352E+03  0.14184126921E+03  0.12700000000E+01 0.  1.
          4   -1    0    0  501    0  0.00000000000E+00 -0.00000000000E+00 -0.27521698580E+02  0.27550985331E+02  0.12700000000E+01 0.  1.
         25    2    1    2    0    0  0.00000000000E+00  0.00000000000E+00  0.11431388494E+03  0.16939225455E+03  0.12500428637E+03 0.  0.
    9000005    1    3    3    0    0  0.19987854348E+02  0.31477114659E+02 -0.10803227972E+02  0.38833398040E+02  0.10000000000E+01 0.  0.
    9000005    1    3    3    0    0 -0.19987854348E+02 -0.31477114659E+02  0.12511711291E+03  0.13055885651E+03  0.10000000000E+01 0.  0.
<mgrwt>
<rscale>  0 0.12500429E+03</rscale>
<asrwt>0</asrwt>
<pdfrwt beam="2">  1        4 0.42367977E-02 0.12500429E+03</pdfrwt>
<pdfrwt beam="1">  1       -4 0.21823549E-01 0.12500429E+03</pdfrwt>
<totfact> 0.95552778E+03</totfact>
</mgrwt>
</event>
<event>
 5    1  0.3337119E-002  0.1250004E+03  0.7818608E-02  0.1235069E+00
          4   -1    0    0  501    0  0.00000000000E+00  0.00000000000E+00  0.11254889990E+03  0.11255606500E+03  0.12700000000E+01 0. -1.
         -4   -1    0    0    0  501 -0.00000000000E+00 -0.00000000000E+00 -0.34687483666E+02  0.34710724900E+02  0.12700000000E+01 0. -1.
         25    2    1    2    0    0  0.00000000000E+00  0.00000000000E+00  0.77861416232E+02  0.14726678990E+03  0.12500042908E+03 0.  0.
    9000005    1    3    3    0    0  0.21629768023E+02 -0.47602891976E+02 -0.13915579079E+01  0.52314611941E+02  0.10000000000E+01 0.  0.
    9000005    1    3    3    0    0 -0.21629768023E+02  0.47602891976E+02  0.79252974139E+02  0.94952177959E+02  0.10000000000E+01 0.  0.
<mgrwt>
<rscale>  0 0.12500043E+03</rscale>
<asrwt>0</asrwt>
<pdfrwt beam="1">  1        4 0.17317554E-01 0.12500043E+03</pdfrwt>
<pdfrwt beam="2">  1       -4 0.53388749E-02 0.12500043E+03</pdfrwt>
<totfact> 0.99850375E+03</totfact>
</mgrwt>
</event>
<event>
 5    1  0.3337119E-002  0.1250017E+03  0.7818608E-02  0.1235067E+00
          4   -1    0    0  501    0  0.00000000000E+00  0.00000000000E+00  0.59437171821E+03  0.59437307502E+03  0.12700000000E+01 0.  1.
         -4   -1    0    0    0  501 -0.00000000000E+00 -0.00000000000E+00 -0.65095170007E+01  0.66322478529E+01  0.12700000000E+01 0.  1.
         25    2    1    2    0    0  0.00000000000E+00  0.00000000000E+00  0.58786220121E+03  0.60100532288E+03  0.12500172203E+03 0.  0.
    9000005    1    3    3    0    0 -0.41075615787E+01  0.15256941968E+02  0.58463326637E+03  0.58484758911E+03  0.10000000000E+01 0.  0.
    9000005    1    3    3    0    0  0.41075615787E+01 -0.15256941968E+02  0.32289348459E+01  0.16157733770E+02  0.10000000000E+01 0.  0.
<mgrwt>
<rscale>  0 0.12500172E+03</rscale>
<asrwt>0</asrwt>
<pdfrwt beam="1">  1        4 0.91451372E-01 0.12500172E+03</pdfrwt>
<pdfrwt beam="2">  1       -4 0.10110091E-02 0.12500172E+03</pdfrwt>
<totfact> 0.48802360E+03</totfact>
</mgrwt>
</event>
<event>
 5    1  0.3337119E-002  0.1250016E+03  0.7818608E-02  0.1235067E+00
          4   -1    0    0  501    0  0.00000000000E+00  0.00000000000E+00  0.16084185613E+03  0.16084686998E+03  0.12700000000E+01 0. -1.
         -4   -1    0    0    0  501 -0.00000000000E+00 -0.00000000000E+00 -0.24264883270E+02  0.24298095813E+02  0.12700000000E+01 0. -1.
         25    2    1    2    0    0  0.00000000000E+00  0.00000000000E+00  0.13657697286E+03  0.18514496579E+03  0.12500155537E+03 0.  0.
    9000005    1    3    3    0    0 -0.42296738674E+02 -0.42541937841E+02  0.94219740136E+02  0.11170134292E+03  0.10000000000E+01 0.  0.
    9000005    1    3    3    0    0  0.42296738674E+02  0.42541937841E+02  0.42357232721E+02  0.73443622878E+02  0.10000000000E+01 0.  0.
<mgrwt>
<rscale>  0 0.12500156E+03</rscale>
<asrwt>0</asrwt>
<pdfrwt beam="1">  1        4 0.24747841E-01 0.12500156E+03</pdfrwt>
<pdfrwt beam="2">  1       -4 0.37359996E-02 0.12500156E+03</pdfrwt>
<totfact> 0.92695774E+03</totfact>
</mgrwt>
</event>
<event>
 5    1  0.3337119E-002  0.1250029E+03  0.7818608E-02  0.1235065E+00
          4   -1    0    0  501    0  0.00000000000E+00  0.00000000000E+00  0.79182818560E+02  0.79193002564E+02  0.12700000000E+01 0. -1.
         -4   -1    0    0    0  501 -0.00000000000E+00 -0.00000000000E+00 -0.49312765560E+02  0.49329116627E+02  0.12700000000E+01 0. -1.
         25    2    1    2    0    0  0.00000000000E+00  0.00000000000E+00  0.29870053000E+02  0.12852211919E+03  0.12500286019E+03 0.  0.
    9000005    1    3    3    0    0  0.49254954607E+02 -0.13525328802E+02 -0.22084832230E+02  0.55657208762E+02  0.10000000000E+01 0.  0.
    9000005    1    3    3    0    0 -0.49254954607E+02  0.13525328802E+02  0.51954885230E+02  0.72864910429E+02  0.10000000000E+01 0.  0.
<mgrwt>
<rscale>  0 0.12500286E+03</rscale>
<asrwt>0</asrwt>
<pdfrwt beam="1">  1        4 0.12184013E-01 0.12500286E+03</pdfrwt>
<pdfrwt beam="2">  1       -4 0.75886206E-02 0.12500286E+03</pdfrwt>
<totfact> 0.10375557E+04</totfact>
</mgrwt>
</event>
<event>
 5    1  0.3337119E-002  0.1250093E+03  0.7818608E-02  0.1235055E+00
          4   -1    0    0  501    0  0.00000000000E+00  0.00000000000E+00  0.56185433350E+02  0.56199784881E+02  0.12700000000E+01 0.  1.
         -4   -1    0    0    0  501 -0.00000000000E+00 -0.00000000000E+00 -0.69505593320E+02  0.69517195015E+02  0.12700000000E+01 0.  1.
         25    2    1    2    0    0  0.00000000000E+00  0.00000000000E+00 -0.13320159971E+02  0.12571697990E+03  0.12500932914E+03 0.  0.
    9000005    1    3    3    0    0  0.10753557960E+02 -0.57701269600E+02 -0.28246854487E+02  0.65145685281E+02  0.10000000000E+01 0.  0.
    9000005    1    3    3    0    0 -0.10753557960E+02  0.57701269600E+02  0.14926694516E+02  0.60571294616E+02  0.10000000000E+01 0.  0.
<mgrwt>
<rscale>  0 0.12500933E+03</rscale>
<asrwt>0</asrwt>
<pdfrwt beam="1">  1        4 0.86459092E-02 0.12500933E+03</pdfrwt>
<pdfrwt beam="2">  1       -4 0.10695165E-01 0.12500933E+03</pdfrwt>
<totfact> 0.10434974E+04</totfact>
</mgrwt>
</event>
<event>
 5    1  0.3337119E-002  0.1250028E+03  0.7818608E-02  0.1235065E+00
          4   -1    0    0  501    0  0.00000000000E+00  0.00000000000E+00  0.24038222895E+03  0.24038558379E+03  0.12700000000E+01 0.  1.
         -4   -1    0    0    0  501 -0.00000000000E+00 -0.00000000000E+00 -0.16222592016E+02  0.16272227620E+02  0.12700000000E+01 0.  1.
         25    2    1    2    0    0  0.00000000000E+00  0.00000000000E+00  0.22415963694E+03  0.25665781141E+03  0.12500275728E+03 0.  0.
    9000005    1    3    3    0    0  0.42366424149E+02  0.15143874396E+02  0.20113292823E+03  0.20610605437E+03  0.10000000000E+01 0.  0.
    9000005    1    3    3    0    0 -0.42366424149E+02 -0.15143874396E+02  0.23026708704E+02  0.50551757048E+02  0.10000000000E+01 0.  0.
<mgrwt>
<rscale>  0 0.12500276E+03</rscale>
<asrwt>0</asrwt>
<pdfrwt beam="1">  1        4 0.36985959E-01 0.12500276E+03</pdfrwt>
<pdfrwt beam="2">  1       -4 0.24998595E-02 0.12500276E+03</pdfrwt>
<totfact> 0.81372391E+03</totfact>
</mgrwt>
</event>
<event>
 5    1  0.3337119E-002  0.1250016E+03  0.7818608E-02  0.1235067E+00
          4   -1    0    0  501    0  0.00000000000E+00  0.00000000000E+00  0.10860175566E+04  0.10860182991E+04  0.12700000000E+01 0.  1.
         -4   -1    0    0    0  501 -0.00000000000E+00 -0.00000000000E+00 -0.34840824434E+01  0.37083325731E+01  0.12700000000E+01 0.  1.
         25    2    1    2    0    0  0.00000000000E+00  0.00000000000E+00  0.10825334741E+04  0.10897266317E+04  0.12500163707E+03 0.  0.
    9000005    1    3    3    0    0  0.51618879674E+02 -0.32851971960E+02  0.43044852385E+03  0.43477660066E+03  0.10000000000E+01 0.  0.
    9000005    1    3    3    0    0 -0.51618879674E+02  0.32851971960E+02  0.65208495028E+03  0.65495003106E+03  0.10000000000E+01 0.  0.
<mgrwt>
<rscale>  0 0.12500164E+03</rscale>
<asrwt>0</asrwt>
<pdfrwt beam="1">  1        4 0.16709700E+00 0.12500164E+03</pdfrwt>
<pdfrwt beam="2">  1       -4 0.55331957E-03 0.12500164E+03</pdfrwt>
<totfact> 0.27785013E+03</totfact>
</mgrwt>
</event>
<event>
 5    1  0.3337119E-002  0.1249993E+03  0.7818608E-02  0.1235070E+00
         -4   -1    0    0    0  501 -0.00000000000E+00  0.00000000000E+00  0.12529904350E+02  0.12594101914E+02  0.12700000000E+01 0. -1.
          4   -1    0    0  501    0  0.00000000000E+00 -0.00000000000E+00 -0.31088872259E+03  0.31089131660E+03  0.12700000000E+01 0. -1.
         25    2    1    2    0    0  0.00000000000E+00  0.00000000000E+00 -0.29835881824E+03  0.32348541851E+03  0.12499932626E+03 0.  0.
    9000005    1    3    3    0    0  0.51696818791E+01  0.25366790823E+02 -0.19872316248E+01  0.25983625169E+02  0.10000000000E+01 0.  0.
    9000005    1    3    3    0    0 -0.51696818791E+01 -0.25366790823E+02 -0.29637158662E+03  0.29750179334E+03  0.10000000000E+01 0.  0.
<mgrwt>
<rscale>  0 0.12499933E+03</rscale>
<asrwt>0</asrwt>
<pdfrwt beam="2">  1        4 0.47834166E-01 0.12499933E+03</pdfrwt>
<pdfrwt beam="1">  1       -4 0.19328156E-02 0.12499933E+03</pdfrwt>
<totfact> 0.72744578E+03</totfact>
</mgrwt>
</event>
<event>
 5    1  0.3337119E-002  0.1249951E+03  0.7818608E-02  0.1235077E+00
          4   -1    0    0  501    0  0.00000000000E+00  0.00000000000E+00  0.47166818017E+03  0.47166988995E+03  0.12700000000E+01 0.  1.
         -4   -1    0    0    0  501 -0.00000000000E+00 -0.00000000000E+00 -0.82306978182E+01  0.83281022193E+01  0.12700000000E+01 0.  1.
         25    2    1    2    0    0  0.00000000000E+00  0.00000000000E+00  0.46343748235E+03  0.47999799217E+03  0.12499508965E+03 0.  0.
    9000005    1    3    3    0    0  0.42186831913E+02 -0.28977330881E+02  0.36940396752E+03  0.37293391601E+03  0.10000000000E+01 0.  0.
    9000005    1    3    3    0    0 -0.42186831913E+02  0.28977330881E+02  0.94033514831E+02  0.10706407616E+03  0.10000000000E+01 0.  0.
<mgrwt>
<rscale>  0 0.12499509E+03</rscale>
<asrwt>0</asrwt>
<pdfrwt beam="1">  1        4 0.72571981E-01 0.12499509E+03</pdfrwt>
<pdfrwt beam="2">  1       -4 0.12738850E-02 0.12499509E+03</pdfrwt>
<totfact> 0.57456569E+03</totfact>
</mgrwt>
</event>
<event>
 5    1  0.3337119E-002  0.1249985E+03  0.7818608E-02  0.1235072E+00
         -4   -1    0    0    0  501 -0.00000000000E+00  0.00000000000E+00  0.18286198957E+03  0.18286639967E+03  0.12700000000E+01 0. -1.
          4   -1    0    0  501    0  0.00000000000E+00 -0.00000000000E+00 -0.21337676599E+02  0.21375437836E+02  0.12700000000E+01 0. -1.
         25    2    1    2    0    0  0.00000000000E+00  0.00000000000E+00  0.16152431297E+03  0.20424183751E+03  0.12499849802E+03 0.  0.
    9000005    1    3    3    0    0  0.20922818629E+02  0.12597253678E+02  0.17474934856E+03  0.17645053120E+03  0.10000000000E+01 0.  0.
    9000005    1    3    3    0    0 -0.20922818629E+02 -0.12597253678E+02 -0.13225035593E+02  0.27791306303E+02  0.10000000000E+01 0.  0.
<mgrwt>
<rscale>  0 0.12499850E+03</rscale>
<asrwt>0</asrwt>
<pdfrwt beam="2">  1        4 0.32859634E-02 0.12499850E+03</pdfrwt>
<pdfrwt beam="1">  1       -4 0.28135858E-01 0.12499850E+03</pdfrwt>
<totfact> 0.89427988E+03</totfact>
</mgrwt>
</event>
<event>
 5    1  0.3337119E-002  0.1249970E+03  0.7818608E-02  0.1235074E+00
         -4   -1    0    0    0  501 -0.00000000000E+00  0.00000000000E+00  0.44164951909E+02  0.44183208090E+02  0.12700000000E+01 0. -1.
          4   -1    0    0  501    0  0.00000000000E+00 -0.00000000000E+00 -0.88401496504E+02  0.88410618617E+02  0.12700000000E+01 0. -1.
         25    2    1    2    0    0  0.00000000000E+00  0.00000000000E+00 -0.44236544595E+02  0.13259382671E+03  0.12499700398E+03 0.  0.
    9000005    1    3    3    0    0 -0.22771223554E+02  0.33139695603E+02 -0.72861685799E+02  0.83226157572E+02  0.10000000000E+01 0.  0.
    9000005    1    3    3    0    0  0.22771223554E+02 -0.33139695603E+02  0.28625141204E+02  0.49367669134E+02  0.10000000000E+01 0.  0.
<mgrwt>
<rscale>  0 0.12499700E+03</rscale>
<asrwt>0</asrwt>
<pdfrwt beam="2">  1        4 0.13602336E-01 0.12499700E+03</pdfrwt>
<pdfrwt beam="1">  1       -4 0.67967140E-02 0.12499700E+03</pdfrwt>
<totfact> 0.10289735E+04</totfact>
</mgrwt>
</event>
<event>
 5    1  0.3337119E-002  0.1249969E+03  0.7818608E-02  0.1235074E+00
         -4   -1    0    0    0  501 -0.00000000000E+00  0.00000000000E+00  0.10229492934E+03  0.10230281262E+03  0.12700000000E+01 0.  1.
          4   -1    0    0  501    0  0.00000000000E+00 -0.00000000000E+00 -0.38164361344E+02  0.38185486468E+02  0.12700000000E+01 0.  1.
         25    2    1    2    0    0  0.00000000000E+00  0.00000000000E+00  0.64130567999E+02  0.14048829909E+03  0.12499692967E+03 0.  0.
    9000005    1    3    3    0    0 -0.13144943187E+02  0.54510981582E+02  0.63066746818E+02  0.84395800835E+02  0.10000000000E+01 0.  0.
    9000005    1    3    3    0    0  0.13144943187E+02 -0.54510981582E+02  0.10638211810E+01  0.56092498250E+02  0.10000000000E+01 0.  0.
<mgrwt>
<rscale>  0 0.12499693E+03</rscale>
<asrwt>0</asrwt>
<pdfrwt beam="2">  1        4 0.58736717E-02 0.12499693E+03</pdfrwt>
<pdfrwt beam="1">  1       -4 0.15739913E-01 0.12499693E+03</pdfrwt>
<totfact> 0.10124176E+04</totfact>
</mgrwt>
</event>
<event>
 5    1  0.3337119E-002  0.1249952E+03  0.7818608E-02  0.1235077E+00
         -4   -1    0    0    0  501 -0.00000000000E+00  0.00000000000E+00  0.49328340741E+03  0.49328504227E+03  0.12700000000E+01 0. -1.
          4   -1    0    0  501    0  0.00000000000E+00 -0.00000000000E+00 -0.78656839673E+01  0.79675519624E+01  0.12700000000E+01 0. -1.
         25    2    1    2    0    0  0.00000000000E+00  0.00000000000E+00  0.48541772345E+03  0.50125259424E+03  0.12499518787E+03 0.  0.
    9000005    1    3    3    0    0  0.50605683236E+02  0.35362833586E+02  0.28148210698E+03  0.28817467224E+03  0.10000000000E+01 0.  0.
    9000005    1    3    3    0    0 -0.50605683236E+02 -0.35362833586E+02  0.20393561647E+03  0.21307792199E+03  0.10000000000E+01 0.  0.
<mgrwt>
<rscale>  0 0.12499519E+03</rscale>
<asrwt>0</asrwt>
<pdfrwt beam="2">  1        4 0.12180672E-02 0.12499519E+03</pdfrwt>
<pdfrwt beam="1">  1       -4 0.75897701E-01 0.12499519E+03</pdfrwt>
<totfact> 0.55773219E+03</totfact>
</mgrwt>
</event>
<event>
 5    1  0.3337119E-002  0.1250018E+03  0.7818608E-02  0.1235066E+00
          4   -1    0    0  501    0  0.00000000000E+00  0.00000000000E+00  0.13743158089E+04  0.13743163957E+04  0.12700000000E+01 0. -1.
         -4   -1    0    0    0  501 -0.00000000000E+00 -0.00000000000E+00 -0.26999287357E+01  0.29837082930E+01  0.12700000000E+01 0. -1.
         25    2    1    2    0    0  0.00000000000E+00  0.00000000000E+00  0.13716158802E+04  0.13773001040E+04  0.12500181496E+03 0.  0.
    9000005    1    3    3    0    0 -0.48592049031E+02 -0.35593995163E+02  0.50234721045E+03  0.50594647896E+03  0.10000000000E+01 0.  0.
    9000005    1    3    3    0    0  0.48592049031E+02  0.35593995163E+02  0.86926866973E+03  0.87135362505E+03  0.10000000000E+01 0.  0.
<mgrwt>
<rscale>  0 0.12500181E+03</rscale>
<asrwt>0</asrwt>
<pdfrwt beam="1">  1        4 0.21145570E+00 0.12500181E+03</pdfrwt>
<pdfrwt beam="2">  1       -4 0.43724669E-03 0.12500181E+03</pdfrwt>
<totfact> 0.20472441E+03</totfact>
</mgrwt>
</event>
<event>
 5    1  0.3337119E-002  0.1250020E+03  0.7818608E-02  0.1235066E+00
          4   -1    0    0  501    0  0.00000000000E+00  0.00000000000E+00  0.13030793971E+02  0.13092535718E+02  0.12700000000E+01 0.  1.
         -4   -1    0    0    0  501 -0.00000000000E+00 -0.00000000000E+00 -0.29900883084E+03  0.29901152791E+03  0.12700000000E+01 0.  1.
         25    2    1    2    0    0  0.00000000000E+00  0.00000000000E+00 -0.28597803687E+03  0.31210406363E+03  0.12500203582E+03 0.  0.
    9000005    1    3    3    0    0 -0.55372844426E+02 -0.65488414150E+01 -0.72530896714E+02  0.91491913314E+02  0.10000000000E+01 0.  0.
    9000005    1    3    3    0    0  0.55372844426E+02  0.65488414150E+01 -0.21344714016E+03  0.22061215031E+03  0.10000000000E+01 0.  0.
<mgrwt>
<rscale>  0 0.12500204E+03</rscale>
<asrwt>0</asrwt>
<pdfrwt beam="1">  1        4 0.20096946E-02 0.12500204E+03</pdfrwt>
<pdfrwt beam="2">  1       -4 0.46006310E-01 0.12500204E+03</pdfrwt>
<totfact> 0.74101841E+03</totfact>
</mgrwt>
</event>
<event>
 5    1  0.3337119E-002  0.1249937E+03  0.7818608E-02  0.1235079E+00
         -4   -1    0    0    0  501 -0.00000000000E+00  0.00000000000E+00  0.32861999276E+02  0.32886530623E+02  0.12700000000E+01 0.  1.
          4   -1    0    0  501    0  0.00000000000E+00 -0.00000000000E+00 -0.11878395431E+03  0.11879074334E+03  0.12700000000E+01 0.  1.
         25    2    1    2    0    0  0.00000000000E+00  0.00000000000E+00 -0.85921955038E+02  0.15167727396E+03  0.12499365215E+03 0.  0.
    9000005    1    3    3    0    0 -0.62715463315E+01 -0.19713700101E+02 -0.11451401837E+03  0.11637191529E+03  0.10000000000E+01 0.  0.
    9000005    1    3    3    0    0  0.62715463315E+01  0.19713700101E+02  0.28592063333E+02  0.35305358669E+02  0.10000000000E+01 0.  0.
<mgrwt>
<rscale>  0 0.12499365E+03</rscale>
<asrwt>0</asrwt>
<pdfrwt beam="2">  1        4 0.18276864E-01 0.12499365E+03</pdfrwt>
<pdfrwt beam="1">  1       -4 0.50581015E-02 0.12499365E+03</pdfrwt>
<totfact> 0.98984542E+03</totfact>
</mgrwt>
</event>
<event>
 5    1  0.3337119E-002  0.1250002E+03  0.7818608E-02  0.1235069E+00
         -4   -1    0    0    0  501 -0.00000000000E+00  0.00000000000E+00  0.38944746255E+01  0.40963193978E+01  0.12700000000E+01 0.  1.
          4   -1    0    0  501    0  0.00000000000E+00 -0.00000000000E+00 -0.97748888562E+03  0.97748971064E+03  0.12700000000E+01 0.  1.
         25    2    1    2    0    0  0.00000000000E+00  0.00000000000E+00 -0.97359441099E+03  0.98158603004E+03  0.12500022900E+03 0.  0.
    9000005    1    3    3    0    0  0.20622786747E+02  0.41009250895E+02 -0.81979190462E+03  0.82107662546E+03  0.10000000000E+01 0.  0.
    9000005    1    3    3    0    0 -0.20622786747E+02 -0.41009250895E+02 -0.15380250637E+03  0.16050940458E+03  0.10000000000E+01 0.  0.
<mgrwt>
<rscale>  0 0.12500023E+03</rscale>
<asrwt>0</asrwt>
<pdfrwt beam="2">  1        4 0.15039830E+00 0.12500023E+03</pdfrwt>
<pdfrwt beam="1">  1       -4 0.61474071E-03 0.12500023E+03</pdfrwt>
<totfact> 0.31220294E+03</totfact>
</mgrwt>
</event>
<event>
 5    1  0.3337119E-002  0.1250028E+03  0.7818608E-02  0.1235065E+00
         -4   -1    0    0    0  501 -0.00000000000E+00  0.00000000000E+00  0.36632635790E+02  0.36654643702E+02  0.12700000000E+01 0. -1.
          4   -1    0    0  501    0  0.00000000000E+00 -0.00000000000E+00 -0.10658003446E+03  0.10658760081E+03  0.12700000000E+01 0. -1.
         25    2    1    2    0    0  0.00000000000E+00  0.00000000000E+00 -0.69947398672E+02  0.14324224451E+03  0.12500280809E+03 0.  0.
    9000005    1    3    3    0    0  0.19205672414E+02 -0.58404460997E+02 -0.47810299331E+02  0.77889432142E+02  0.10000000000E+01 0.  0.
    9000005    1    3    3    0    0 -0.19205672414E+02  0.58404460997E+02 -0.22137099341E+02  0.65352812368E+02  0.10000000000E+01 0.  0.
<mgrwt>
<rscale>  0 0.12500281E+03</rscale>
<asrwt>0</asrwt>
<pdfrwt beam="2">  1        4 0.16399203E-01 0.12500281E+03</pdfrwt>
<pdfrwt beam="1">  1       -4 0.56380651E-02 0.12500281E+03</pdfrwt>
<totfact> 0.10066188E+04</totfact>
</mgrwt>
</event>
<event>
 5    1  0.3337119E-002  0.1249832E+03  0.7818608E-02  0.1235096E+00
          4   -1    0    0  501    0  0.00000000000E+00  0.00000000000E+00  0.12734272188E+02  0.12797444595E+02  0.12700000000E+01 0. -1.
         -4   -1    0    0    0  501 -0.00000000000E+00 -0.00000000000E+00 -0.30584516794E+03  0.30584780472E+03  0.12700000000E+01 0. -1.
         25    2    1    2    0    0  0.00000000000E+00  0.00000000000E+00 -0.29311089575E+03  0.31864524931E+03  0.12498318968E+03 0.  0.
    9000005    1    3    3    0    0  0.25686383387E+02 -0.38937734725E+02 -0.40566488547E+02  0.61826996288E+02  0.10000000000E+01 0.  0.
    9000005    1    3    3    0    0 -0.25686383387E+02  0.38937734725E+02 -0.25254440721E+03  0.25681825303E+03  0.10000000000E+01 0.  0.
<mgrwt>
<rscale>  0 0.12498319E+03</rscale>
<asrwt>0</asrwt>
<pdfrwt beam="1">  1        4 0.19641813E-02 0.12498319E+03</pdfrwt>
<pdfrwt beam="2">  1       -4 0.47058160E-01 0.12498319E+03</pdfrwt>
<totfact> 0.73344877E+03</totfact>
</mgrwt>
</event>
<event>
 5    1  0.3337119E-002  0.1249987E+03  0.7818608E-02  0.1235071E+00
          4   -1    0    0  501    0  0.00000000000E+00  0.00000000000E+00  0.72538202921E+02  0.72549319659E+02  0.12700000000E+01 0.  1.
         -4   -1    0    0    0  501 -0.00000000000E+00 -0.00000000000E+00 -0.53827114538E+02  0.53842094680E+02  0.12700000000E+01 0.  1.
         25    2    1    2    0    0  0.00000000000E+00  0.00000000000E+00  0.18711088383E+02  0.12639141434E+03  0.12499873915E+03 0.  0.
    9000005    1    3    3    0    0 -0.20234336197E+02  0.54758505522E+02  0.31903068347E+02  0.66533661092E+02  0.10000000000E+01 0.  0.
    9000005    1    3    3    0    0  0.20234336197E+02 -0.54758505522E+02 -0.13191979965E+02  0.59857753247E+02  0.10000000000E+01 0.  0.
<mgrwt>
<rscale>  0 0.12499874E+03</rscale>
<asrwt>0</asrwt>
<pdfrwt beam="1">  1        4 0.11161731E-01 0.12499874E+03</pdfrwt>
<pdfrwt beam="2">  1       -4 0.82831020E-02 0.12499874E+03</pdfrwt>
<totfact> 0.10422694E+04</totfact>
</mgrwt>
</event>
<event>
 5    1  0.3337119E-002  0.1249969E+03  0.7818608E-02  0.1235074E+00
          4   -1    0    0  501    0  0.00000000000E+00  0.00000000000E+00  0.17278533866E+02  0.17325144518E+02  0.12700000000E+01 0.  1.
         -4   -1    0    0    0  501 -0.00000000000E+00 -0.00000000000E+00 -0.22571126767E+03  0.22571484057E+03  0.12700000000E+01 0.  1.
         25    2    1    2    0    0  0.00000000000E+00  0.00000000000E+00 -0.20843273380E+03  0.24303998509E+03  0.12499691928E+03 0.  0.
    9000005    1    3    3    0    0  0.60929675027E+02 -0.75262047102E+01 -0.81542303619E+02  0.10207456263E+03  0.10000000000E+01 0.  0.
    9000005    1    3    3    0    0 -0.60929675027E+02  0.75262047102E+01 -0.12689043019E+03  0.14096542246E+03  0.10000000000E+01 0.  0.
<mgrwt>
<rscale>  0 0.12499692E+03</rscale>
<asrwt>0</asrwt>
<pdfrwt beam="1">  1        4 0.26620964E-02 0.12499692E+03</pdfrwt>
<pdfrwt beam="2">  1       -4 0.34728669E-01 0.12499692E+03</pdfrwt>
<totfact> 0.83352413E+03</totfact>
</mgrwt>
</event>
<event>
 5    1  0.3337119E-002  0.1250005E+03  0.7818608E-02  0.1235069E+00
         -4   -1    0    0    0  501 -0.00000000000E+00  0.00000000000E+00  0.14246079406E+02  0.14302575938E+02  0.12700000000E+01 0. -1.
          4   -1    0    0  501    0  0.00000000000E+00 -0.00000000000E+00 -0.27359973064E+03  0.27360267818E+03  0.12700000000E+01 0. -1.
         25    2    1    2    0    0  0.00000000000E+00  0.00000000000E+00 -0.25935365124E+03  0.28790525412E+03  0.12500047576E+03 0.  0.
    9000005    1    3    3    0    0  0.53269522161E+02  0.22583223544E+02 -0.18406609589E+03  0.19294810606E+03  0.10000000000E+01 0.  0.
    9000005    1    3    3    0    0 -0.53269522161E+02 -0.22583223544E+02 -0.75287555346E+02  0.94957148056E+02  0.10000000000E+01 0.  0.
<mgrwt>
<rscale>  0 0.12500048E+03</rscale>
<asrwt>0</asrwt>
<pdfrwt beam="2">  1        4 0.42096835E-01 0.12500048E+03</pdfrwt>
<pdfrwt beam="1">  1       -4 0.21962774E-02 0.12500048E+03</pdfrwt>
<totfact> 0.77140654E+03</totfact>
</mgrwt>
</event>
<event>
 5    1  0.3337119E-002  0.1250017E+03  0.7818608E-02  0.1235067E+00
          4   -1    0    0  501    0  0.00000000000E+00  0.00000000000E+00  0.33574802688E+02  0.33598813603E+02  0.12700000000E+01 0.  1.
         -4   -1    0    0    0  501 -0.00000000000E+00 -0.00000000000E+00 -0.11627872655E+03  0.11628566183E+03  0.12700000000E+01 0.  1.
         25    2    1    2    0    0  0.00000000000E+00  0.00000000000E+00 -0.82703923861E+02  0.14988447544E+03  0.12500166781E+03 0.  0.
    9000005    1    3    3    0    0  0.54596872787E+02 -0.24304935573E+02 -0.19444715086E+02  0.62854159418E+02  0.10000000000E+01 0.  0.
    9000005    1    3    3    0    0 -0.54596872787E+02  0.24304935573E+02 -0.63259208775E+02  0.87030316018E+02  0.10000000000E+01 0.  0.
<mgrwt>
<rscale>  0 0.12500167E+03</rscale>
<asrwt>0</asrwt>
<pdfrwt beam="1">  1        4 0.51677348E-02 0.12500167E+03</pdfrwt>
<pdfrwt beam="2">  1       -4 0.17891415E-01 0.12500167E+03</pdfrwt>
<totfact> 0.99323003E+03</totfact>
</mgrwt>
</event>
<event>
 5    1  0.3337119E-002  0.1250268E+03  0.7818608E-02  0.1235027E+00
         -4   -1    0    0    0  501 -0.00000000000E+00  0.00000000000E+00  0.33834475670E+02  0.33858302436E+02  0.12700000000E+01 0.  1.
          4   -1    0    0  501    0  0.00000000000E+00 -0.00000000000E+00 -0.11543325913E+03  0.11544024520E+03  0.12700000000E+01 0.  1.
         25    2    1    2    0    0  0.00000000000E+00  0.00000000000E+00 -0.81598783458E+02  0.14929854764E+03  0.12502677659E+03 0.  0.
    9000005    1    3    3    0    0  0.54151106346E+01 -0.27771864070E+02 -0.10735366027E+03  0.11102435873E+03  0.10000000000E+01 0.  0.
    9000005    1    3    3    0    0 -0.54151106346E+01  0.27771864070E+02  0.25754876815E+02  0.38274188912E+02  0.10000000000E+01 0.  0.
<mgrwt>
<rscale>  0 0.12502678E+03</rscale>
<asrwt>0</asrwt>
<pdfrwt beam="2">  1        4 0.17761333E-01 0.12502678E+03</pdfrwt>
<pdfrwt beam="1">  1       -4 0.52076742E-02 0.12502678E+03</pdfrwt>
<totfact> 0.99383798E+03</totfact>
</mgrwt>
</event>
<event>
 5    1  0.3337119E-002  0.1250014E+03  0.7818608E-02  0.1235067E+00
          4   -1    0    0  501    0  0.00000000000E+00  0.00000000000E+00  0.61508578599E+02  0.61521688381E+02  0.12700000000E+01 0. -1.
         -4   -1    0    0    0  501 -0.00000000000E+00 -0.00000000000E+00 -0.63482590312E+02  0.63495292525E+02  0.12700000000E+01 0. -1.
         25    2    1    2    0    0  0.00000000000E+00  0.00000000000E+00 -0.19740117131E+01  0.12501698091E+03  0.12500139516E+03 0.  0.
    9000005    1    3    3    0    0 -0.45283747801E+02  0.33244220195E+02 -0.28368169655E+02  0.62940837624E+02  0.10000000000E+01 0.  0.
    9000005    1    3    3    0    0  0.45283747801E+02 -0.33244220195E+02  0.26394157942E+02  0.62076143282E+02  0.10000000000E+01 0.  0.
<mgrwt>
<rscale>  0 0.12500140E+03</rscale>
<asrwt>0</asrwt>
<pdfrwt beam="1">  1        4 0.94648438E-02 0.12500140E+03</pdfrwt>
<pdfrwt beam="2">  1       -4 0.97685379E-02 0.12500140E+03</pdfrwt>
<totfact> 0.10452164E+04</totfact>
</mgrwt>
</event>
<event>
 5    1  0.3337119E-002  0.1249998E+03  0.7818608E-02  0.1235070E+00
         -4   -1    0    0    0  501 -0.00000000000E+00  0.00000000000E+00  0.32882269331E+02  0.32906785567E+02  0.12700000000E+01 0.  1.
          4   -1    0    0  501    0  0.00000000000E+00 -0.00000000000E+00 -0.11872245276E+03  0.11872924530E+03  0.12700000000E+01 0.  1.
         25    2    1    2    0    0  0.00000000000E+00  0.00000000000E+00 -0.85840183433E+02  0.15163603087E+03  0.12499979506E+03 0.  0.
    9000005    1    3    3    0    0 -0.12369586227E+02  0.45756652299E+02 -0.92323693090E+02  0.10378507696E+03  0.10000000000E+01 0.  0.
    9000005    1    3    3    0    0  0.12369586227E+02 -0.45756652299E+02  0.64835096564E+01  0.47850953914E+02  0.10000000000E+01 0.  0.
<mgrwt>
<rscale>  0 0.12499980E+03</rscale>
<asrwt>0</asrwt>
<pdfrwt beam="2">  1        4 0.18267401E-01 0.12499980E+03</pdfrwt>
<pdfrwt beam="1">  1       -4 0.50612191E-02 0.12499980E+03</pdfrwt>
<totfact> 0.98979031E+03</totfact>
</mgrwt>
</event>
<event>
 5    1  0.3337119E-002  0.1250021E+03  0.7818608E-02  0.1235066E+00
          4   -1    0    0  501    0  0.00000000000E+00  0.00000000000E+00  0.50409277703E+03  0.50409437683E+03  0.12700000000E+01 0.  1.
         -4   -1    0    0    0  501 -0.00000000000E+00 -0.00000000000E+00 -0.76956694012E+01  0.77997581714E+01  0.12700000000E+01 0.  1.
         25    2    1    2    0    0  0.00000000000E+00  0.00000000000E+00  0.49639710763E+03  0.51189413500E+03  0.12500206794E+03 0.  0.
    9000005    1    3    3    0    0 -0.24518061598E+02 -0.25100596131E+02  0.45996649827E+03  0.46130397223E+03  0.10000000000E+01 0.  0.
    9000005    1    3    3    0    0  0.24518061598E+02  0.25100596131E+02  0.36430609363E+02  0.50590162771E+02  0.10000000000E+01 0.  0.
<mgrwt>
<rscale>  0 0.12500207E+03</rscale>
<asrwt>0</asrwt>
<pdfrwt beam="1">  1        4 0.77560866E-01 0.12500207E+03</pdfrwt>
<pdfrwt beam="2">  1       -4 0.11920790E-02 0.12500207E+03</pdfrwt>
<totfact> 0.54950695E+03</totfact>
</mgrwt>
</event>
<event>
 5    1  0.3337119E-002  0.1250002E+03  0.7818608E-02  0.1235069E+00
          4   -1    0    0  501    0  0.00000000000E+00  0.00000000000E+00  0.36348630547E+02  0.36370810311E+02  0.12700000000E+01 0. -1.
         -4   -1    0    0    0  501 -0.00000000000E+00 -0.00000000000E+00 -0.10740792059E+03  0.10741542861E+03  0.12700000000E+01 0. -1.
         25    2    1    2    0    0  0.00000000000E+00  0.00000000000E+00 -0.71059290038E+02  0.14378623893E+03  0.12500023921E+03 0.  0.
    9000005    1    3    3    0    0  0.92346266884E+01  0.29691690562E+02  0.26823908397E+02  0.41077936659E+02  0.10000000000E+01 0.  0.
    9000005    1    3    3    0    0 -0.92346266884E+01 -0.29691690562E+02 -0.97883198435E+02  0.10270830227E+03  0.10000000000E+01 0.  0.
<mgrwt>
<rscale>  0 0.12500024E+03</rscale>
<asrwt>0</asrwt>
<pdfrwt beam="1">  1        4 0.55943807E-02 0.12500024E+03</pdfrwt>
<pdfrwt beam="2">  1       -4 0.16526579E-01 0.12500024E+03</pdfrwt>
<totfact> 0.10055654E+04</totfact>
</mgrwt>
</event>
<event>
 5    1  0.3337119E-002  0.1250001E+03  0.7818608E-02  0.1235069E+00
         -4   -1    0    0    0  501 -0.00000000000E+00  0.00000000000E+00  0.60091576635E+03  0.60091710838E+03  0.12700000000E+01 0.  1.
          4   -1    0    0  501    0  0.00000000000E+00 -0.00000000000E+00 -0.64371122520E+01  0.65611976152E+01  0.12700000000E+01 0.  1.
         25    2    1    2    0    0  0.00000000000E+00  0.00000000000E+00  0.59447865410E+03  0.60747830600E+03  0.12500008832E+03 0.  0.
    9000005    1    3    3    0    0 -0.15233651529E+02 -0.58916899577E+02  0.22816991837E+03  0.23614778602E+03  0.10000000000E+01 0.  0.
    9000005    1    3    3    0    0  0.15233651529E+02  0.58916899577E+02  0.36630873573E+03  0.37133051998E+03  0.10000000000E+01 0.  0.
<mgrwt>
<rscale>  0 0.12500009E+03</rscale>
<asrwt>0</asrwt>
<pdfrwt beam="2">  1        4 0.99997286E-03 0.12500009E+03</pdfrwt>
<pdfrwt beam="1">  1       -4 0.92458261E-01 0.12500009E+03</pdfrwt>
<totfact> 0.48398828E+03</totfact>
</mgrwt>
</event>
<event>
 5    1  0.3337119E-002  0.1250018E+03  0.7818608E-02  0.1235067E+00
          4   -1    0    0  501    0  0.00000000000E+00  0.00000000000E+00  0.63274891586E+02  0.63287635485E+02  0.12700000000E+01 0.  1.
         -4   -1    0    0    0  501 -0.00000000000E+00 -0.00000000000E+00 -0.61710835126E+02  0.61723901950E+02  0.12700000000E+01 0.  1.
         25    2    1    2    0    0  0.00000000000E+00  0.00000000000E+00  0.15640564604E+01  0.12501153743E+03  0.12500175286E+03 0.  0.
    9000005    1    3    3    0    0  0.20823559413E+02  0.13888584797E+02  0.58047720115E+02  0.63222236790E+02  0.10000000000E+01 0.  0.
    9000005    1    3    3    0    0 -0.20823559413E+02 -0.13888584797E+02 -0.56483663654E+02  0.61789300644E+02  0.10000000000E+01 0.  0.
<mgrwt>
<rscale>  0 0.12500175E+03</rscale>
<asrwt>0</asrwt>
<pdfrwt beam="1">  1        4 0.97365841E-02 0.12500175E+03</pdfrwt>
<pdfrwt beam="2">  1       -4 0.94959601E-02 0.12500175E+03</pdfrwt>
<totfact> 0.10452198E+04</totfact>
</mgrwt>
</event>
<event>
 5    1  0.3337119E-002  0.1250003E+03  0.7818608E-02  0.1235069E+00
          4   -1    0    0  501    0  0.00000000000E+00  0.00000000000E+00  0.18081388922E+03  0.18081834927E+03  0.12700000000E+01 0. -1.
         -4   -1    0    0    0  501 -0.00000000000E+00 -0.00000000000E+00 -0.21580415344E+02  0.21617752576E+02  0.12700000000E+01 0. -1.
         25    2    1    2    0    0  0.00000000000E+00  0.00000000000E+00  0.15923347387E+03  0.20243610185E+03  0.12500030452E+03 0.  0.
    9000005    1    3    3    0    0 -0.25061375451E+02 -0.53147260969E+02  0.11406897552E+03  0.12831771142E+03  0.10000000000E+01 0.  0.
    9000005    1    3    3    0    0  0.25061375451E+02  0.53147260969E+02  0.45164498350E+02  0.74118390425E+02  0.10000000000E+01 0.  0.
<mgrwt>
<rscale>  0 0.12500030E+03</rscale>
<asrwt>0</asrwt>
<pdfrwt beam="1">  1        4 0.27820736E-01 0.12500030E+03</pdfrwt>
<pdfrwt beam="2">  1       -4 0.33232791E-02 0.12500030E+03</pdfrwt>
<totfact> 0.89725647E+03</totfact>
</mgrwt>
</event>
<event>
 5    1  0.3337119E-002  0.1249932E+03  0.7818608E-02  0.1235080E+00
          4   -1    0    0  501    0  0.00000000000E+00  0.00000000000E+00  0.10195976113E+02  0.10274766610E+02  0.12700000000E+01 0. -1.
         -4   -1    0    0    0  501 -0.00000000000E+00 -0.00000000000E+00 -0.38152069595E+03  0.38152280972E+03  0.12700000000E+01 0. -1.
         25    2    1    2    0    0  0.00000000000E+00  0.00000000000E+00 -0.37132471984E+03  0.39179757633E+03  0.12499317285E+03 0.  0.
    9000005    1    3    3    0    0 -0.42801429397E+02 -0.27957191215E+02 -0.29829952176E+03  0.30265024629E+03  0.10000000000E+01 0.  0.
    9000005    1    3    3    0    0  0.42801429397E+02  0.27957191215E+02 -0.73025198081E+02  0.89147330043E+02  0.10000000000E+01 0.  0.
<mgrwt>
<rscale>  0 0.12499317E+03</rscale>
<asrwt>0</asrwt>
<pdfrwt beam="1">  1        4 0.15748354E-02 0.12499317E+03</pdfrwt>
<pdfrwt beam="2">  1       -4 0.58701704E-01 0.12499317E+03</pdfrwt>
<totfact> 0.65368303E+03</totfact>
</mgrwt>
</event>
<event>
 5    1  0.3337119E-002  0.1250001E+03  0.7818608E-02  0.1235069E+00
         -4   -1    0    0    0  501 -0.00000000000E+00  0.00000000000E+00  0.21491574581E+02  0.21529065887E+02  0.12700000000E+01 0.  1.
          4   -1    0    0  501    0  0.00000000000E+00 -0.00000000000E+00 -0.18155953013E+03  0.18156397187E+03  0.12700000000E+01 0.  1.
         25    2    1    2    0    0  0.00000000000E+00  0.00000000000E+00 -0.16006795555E+03  0.20309303776E+03  0.12500012637E+03 0.  0.
    9000005    1    3    3    0    0  0.50085552722E+02 -0.31209229226E+02 -0.11343733226E+03  0.12787340196E+03  0.10000000000E+01 0.  0.
    9000005    1    3    3    0    0 -0.50085552722E+02  0.31209229226E+02 -0.46630623297E+02  0.75219635797E+02  0.10000000000E+01 0.  0.
<mgrwt>
<rscale>  0 0.12500013E+03</rscale>
<asrwt>0</asrwt>
<pdfrwt beam="2">  1        4 0.27935460E-01 0.12500013E+03</pdfrwt>
<pdfrwt beam="1">  1       -4 0.33096218E-02 0.12500013E+03</pdfrwt>
<totfact> 0.89616197E+03</totfact>
</mgrwt>
</event>
<event>
 5    1  0.3337119E-002  0.1250011E+03  0.7818608E-02  0.1235068E+00
          4   -1    0    0  501    0  0.00000000000E+00  0.00000000000E+00  0.35391792027E+02  0.35414571053E+02  0.12700000000E+01 0.  1.
         -4   -1    0    0    0  501 -0.00000000000E+00 -0.00000000000E+00 -0.11031160741E+03  0.11031891782E+03  0.12700000000E+01 0.  1.
         25    2    1    2    0    0  0.00000000000E+00  0.00000000000E+00 -0.74919815380E+02  0.14573348887E+03  0.12500108416E+03 0.  0.
    9000005    1    3    3    0    0 -0.46952981989E+02  0.39563313294E+02 -0.23889829522E+02  0.65890532181E+02  0.10000000000E+01 0.  0.
    9000005    1    3    3    0    0  0.46952981989E+02 -0.39563313294E+02 -0.51029985858E+02  0.79842956691E+02  0.10000000000E+01 0.  0.
<mgrwt>
<rscale>  0 0.12500108E+03</rscale>
<asrwt>0</asrwt>
<pdfrwt beam="1">  1        4 0.54472057E-02 0.12500108E+03</pdfrwt>
<pdfrwt beam="2">  1       -4 0.16973331E-01 0.12500108E+03</pdfrwt>
<totfact> 0.10015862E+04</totfact>
</mgrwt>
</event>
<event>
 5    1  0.3337119E-002  0.1250004E+03  0.7818608E-02  0.1235069E+00
         -4   -1    0    0    0  501 -0.00000000000E+00  0.00000000000E+00  0.19298729101E+03  0.19299146974E+03  0.12700000000E+01 0. -1.
          4   -1    0    0  501    0  0.00000000000E+00 -0.00000000000E+00 -0.20216769364E+02  0.20256620239E+02  0.12700000000E+01 0. -1.
         25    2    1    2    0    0  0.00000000000E+00  0.00000000000E+00  0.17277052165E+03  0.21324808998E+03  0.12500037891E+03 0.  0.
    9000005    1    3    3    0    0 -0.18586750290E+02  0.55418109528E+02  0.12409626702E+03  0.13717695739E+03  0.10000000000E+01 0.  0.
    9000005    1    3    3    0    0  0.18586750290E+02 -0.55418109528E+02  0.48674254629E+02  0.76071132591E+02  0.10000000000E+01 0.  0.
<mgrwt>
<rscale>  0 0.12500038E+03</rscale>
<asrwt>0</asrwt>
<pdfrwt beam="2">  1        4 0.31136592E-02 0.12500038E+03</pdfrwt>
<pdfrwt beam="1">  1       -4 0.29693738E-01 0.12500038E+03</pdfrwt>
<totfact> 0.87947413E+03</totfact>
</mgrwt>
</event>
<event>
 5    1  0.3337119E-002  0.1250036E+03  0.7818608E-02  0.1235064E+00
         -4   -1    0    0    0  501 -0.00000000000E+00  0.00000000000E+00  0.74380024711E+02  0.74390866213E+02  0.12700000000E+01 0. -1.
          4   -1    0    0  501    0  0.00000000000E+00 -0.00000000000E+00 -0.52498174333E+02  0.52513533573E+02  0.12700000000E+01 0. -1.
         25    2    1    2    0    0  0.00000000000E+00  0.00000000000E+00  0.21881850378E+02  0.12690439979E+03  0.12500364518E+03 0.  0.
    9000005    1    3    3    0    0  0.24893641221E+02  0.41703747369E+02  0.50865515182E+02  0.70336310342E+02  0.10000000000E+01 0.  0.
    9000005    1    3    3    0    0 -0.24893641221E+02 -0.41703747369E+02 -0.28983664804E+02  0.56568089444E+02  0.10000000000E+01 0.  0.
<mgrwt>
<rscale>  0 0.12500365E+03</rscale>
<asrwt>0</asrwt>
<pdfrwt beam="2">  1        4 0.80786576E-02 0.12500365E+03</pdfrwt>
<pdfrwt beam="1">  1       -4 0.11445096E-01 0.12500365E+03</pdfrwt>
<totfact> 0.10410367E+04</totfact>
</mgrwt>
</event>
<event>
 5    1  0.3337119E-002  0.1250012E+03  0.7818608E-02  0.1235067E+00
         -4   -1    0    0    0  501 -0.00000000000E+00  0.00000000000E+00  0.50787780699E+02  0.50803657037E+02  0.12700000000E+01 0.  1.
          4   -1    0    0  501    0  0.00000000000E+00 -0.00000000000E+00 -0.76881533526E+02  0.76892022326E+02  0.12700000000E+01 0.  1.
         25    2    1    2    0    0  0.00000000000E+00  0.00000000000E+00 -0.26093752827E+02  0.12769567936E+03  0.12500121036E+03 0.  0.
    9000005    1    3    3    0    0  0.35281499458E+02  0.10690397522E+02  0.38501274286E+02  0.53314321948E+02  0.10000000000E+01 0.  0.
    9000005    1    3    3    0    0 -0.35281499458E+02 -0.10690397522E+02 -0.64595027113E+02  0.74381357415E+02  0.10000000000E+01 0.  0.
<mgrwt>
<rscale>  0 0.12500121E+03</rscale>
<asrwt>0</asrwt>
<pdfrwt beam="2">  1        4 0.11829956E-01 0.12500121E+03</pdfrwt>
<pdfrwt beam="1">  1       -4 0.78155328E-02 0.12500121E+03</pdfrwt>
<totfact> 0.10393781E+04</totfact>
</mgrwt>
</event>
<event>
 5    1  0.3337119E-002  0.1250147E+03  0.7818608E-02  0.1235046E+00
          4   -1    0    0  501    0  0.00000000000E+00  0.00000000000E+00  0.49342345173E+02  0.49358686441E+02  0.12700000000E+01 0. -1.
         -4   -1    0    0    0  501 -0.00000000000E+00 -0.00000000000E+00 -0.79150311930E+02  0.79160500116E+02  0.12700000000E+01 0. -1.
         25    2    1    2    0    0  0.00000000000E+00  0.00000000000E+00 -0.29807966757E+02  0.12851918656E+03  0.12501466486E+03 0.  0.
    9000005    1    3    3    0    0 -0.60178392772E+02  0.56785307930E+01  0.14311304701E+01  0.60470925270E+02  0.10000000000E+01 0.  0.
    9000005    1    3    3    0    0  0.60178392772E+02 -0.56785307930E+01 -0.31239097228E+02  0.68048261287E+02  0.10000000000E+01 0.  0.
<mgrwt>
<rscale>  0 0.12501466E+03</rscale>
<asrwt>0</asrwt>
<pdfrwt beam="1">  1        4 0.75931707E-02 0.12501466E+03</pdfrwt>
<pdfrwt beam="2">  1       -4 0.12179012E-01 0.12501466E+03</pdfrwt>
<totfact> 0.10372856E+04</totfact>
</mgrwt>
</event>
<event>
 5    1  0.3337119E-002  0.1250028E+03  0.7818608E-02  0.1235065E+00
          4   -1    0    0  501    0  0.00000000000E+00  0.00000000000E+00  0.26222591716E+03  0.26222899255E+03  0.12700000000E+01 0. -1.
         -4   -1    0    0    0  501 -0.00000000000E+00 -0.00000000000E+00 -0.14866927236E+02  0.14921073200E+02  0.12700000000E+01 0. -1.
         25    2    1    2    0    0  0.00000000000E+00  0.00000000000E+00  0.24735898993E+03  0.27715006575E+03  0.12500275615E+03 0.  0.
    9000005    1    3    3    0    0 -0.61953072931E+02  0.70774195870E+01  0.11449793091E+03  0.13038040227E+03  0.10000000000E+01 0.  0.
    9000005    1    3    3    0    0  0.61953072931E+02 -0.70774195870E+01  0.13286105902E+03  0.14676966348E+03  0.10000000000E+01 0.  0.
<mgrwt>
<rscale>  0 0.12500276E+03</rscale>
<asrwt>0</asrwt>
<pdfrwt beam="1">  1        4 0.40346852E-01 0.12500276E+03</pdfrwt>
<pdfrwt beam="2">  1       -4 0.22916211E-02 0.12500276E+03</pdfrwt>
<totfact> 0.78552693E+03</totfact>
</mgrwt>
</event>
<event>
 5    1  0.3337119E-002  0.1249468E+03  0.7818608E-02  0.1235152E+00
          4   -1    0    0  501    0  0.00000000000E+00  0.00000000000E+00  0.44414238133E+02  0.44432391888E+02  0.12700000000E+01 0. -1.
         -4   -1    0    0    0  501 -0.00000000000E+00 -0.00000000000E+00 -0.87834849962E+02  0.87844030917E+02  0.12700000000E+01 0. -1.
         25    2    1    2    0    0  0.00000000000E+00  0.00000000000E+00 -0.43420611829E+02  0.13227642281E+03  0.12494679867E+03 0.  0.
    9000005    1    3    3    0    0  0.39030807426E+02 -0.29884083876E+02 -0.62512945667E+02  0.79531948130E+02  0.10000000000E+01 0.  0.
    9000005    1    3    3    0    0 -0.39030807426E+02  0.29884083876E+02  0.19092333837E+02  0.52744474675E+02  0.10000000000E+01 0.  0.
<mgrwt>
<rscale>  0 0.12494680E+03</rscale>
<asrwt>0</asrwt>
<pdfrwt beam="1">  1        4 0.68350624E-02 0.12494680E+03</pdfrwt>
<pdfrwt beam="2">  1       -4 0.13515157E-01 0.12494680E+03</pdfrwt>
<totfact> 0.10308168E+04</totfact>
</mgrwt>
</event>
<event>
 4    1  0.3337119E-002  0.1248947E+03  0.7818608E-02  0.1235234E+00
          4   -1    0    0  501    0  0.00000000000E+00  0.00000000000E+00  0.69770000295E+02  0.69781558030E+02  0.12700000000E+01 0.  1.
         -4   -1    0    0    0  501 -0.00000000000E+00 -0.00000000000E+00 -0.55869799247E+02  0.55884231836E+02  0.12700000000E+01 0.  1.
    9000005    1    1    2    0    0  0.27608640852E+02 -0.36511287718E+02  0.49678255146E+02  0.67559160851E+02  0.10000000000E+01 0.  0.
    9000005    1    1    2    0    0 -0.27608640852E+02  0.36511287718E+02 -0.35778054099E+02  0.58106629016E+02  0.10000000000E+01 0.  0.
<mgrwt>
<rscale>  0 0.12489466E+03</rscale>
<asrwt>0</asrwt>
<pdfrwt beam="1">  1        4 0.10735846E-01 0.12489466E+03</pdfrwt>
<pdfrwt beam="2">  1       -4 0.85973529E-02 0.12489466E+03</pdfrwt>
<totfact> 0.10463145E+04</totfact>
</mgrwt>
</event>
<event>
 5    1  0.3337119E-002  0.1249969E+03  0.7818608E-02  0.1235074E+00
         -4   -1    0    0    0  501 -0.00000000000E+00  0.00000000000E+00  0.15688890610E+02  0.15740209292E+02  0.12700000000E+01 0. -1.
          4   -1    0    0  501    0  0.00000000000E+00 -0.00000000000E+00 -0.24850992995E+03  0.24851317507E+03  0.12700000000E+01 0. -1.
         25    2    1    2    0    0  0.00000000000E+00  0.00000000000E+00 -0.23282103934E+03  0.26425338436E+03  0.12499685911E+03 0.  0.
    9000005    1    3    3    0    0  0.50983466195E+02 -0.24219748687E+02 -0.17310349910E+03  0.18207616937E+03  0.10000000000E+01 0.  0.
    9000005    1    3    3    0    0 -0.50983466195E+02  0.24219748687E+02 -0.59717540242E+02  0.82177214994E+02  0.10000000000E+01 0.  0.
<mgrwt>
<rscale>  0 0.12499686E+03</rscale>
<asrwt>0</asrwt>
<pdfrwt beam="2">  1        4 0.38236491E-01 0.12499686E+03</pdfrwt>
<pdfrwt beam="1">  1       -4 0.24178729E-02 0.12499686E+03</pdfrwt>
<totfact> 0.80318454E+03</totfact>
</mgrwt>
</event>
<event>
 5    1  0.3337119E-002  0.1249998E+03  0.7818608E-02  0.1235070E+00
          4   -1    0    0  501    0  0.00000000000E+00  0.00000000000E+00  0.25057158520E+01  0.28091834990E+01  0.12700000000E+01 0. -1.
         -4   -1    0    0    0  501 -0.00000000000E+00 -0.00000000000E+00 -0.14696159694E+04  0.14696165182E+04  0.12700000000E+01 0. -1.
         25    2    1    2    0    0  0.00000000000E+00  0.00000000000E+00 -0.14671102536E+04  0.14724257017E+04  0.12499980323E+03 0.  0.
    9000005    1    3    3    0    0 -0.45264630635E+02 -0.42523269068E+02 -0.65184080797E+03  0.65479352023E+03  0.10000000000E+01 0.  0.
    9000005    1    3    3    0    0  0.45264630635E+02  0.42523269068E+02 -0.81526944562E+03  0.81763218146E+03  0.10000000000E+01 0.  0.
<mgrwt>
<rscale>  0 0.12499980E+03</rscale>
<asrwt>0</asrwt>
<pdfrwt beam="1">  1        4 0.40888180E-03 0.12499980E+03</pdfrwt>
<pdfrwt beam="2">  1       -4 0.22611750E+00 0.12499980E+03</pdfrwt>
<totfact> 0.18478211E+03</totfact>
</mgrwt>
</event>
<event>
 5    1  0.3337119E-002  0.1249960E+03  0.7818608E-02  0.1235076E+00
         -4   -1    0    0    0  501 -0.00000000000E+00  0.00000000000E+00  0.84683665164E+01  0.85630678764E+01  0.12700000000E+01 0.  1.
          4   -1    0    0  501    0  0.00000000000E+00 -0.00000000000E+00 -0.45858580971E+03  0.45858756826E+03  0.12700000000E+01 0.  1.
         25    2    1    2    0    0  0.00000000000E+00  0.00000000000E+00 -0.45011744319E+03  0.46715063614E+03  0.12499601666E+03 0.  0.
    9000005    1    3    3    0    0 -0.53521419452E+02 -0.21276236173E+01 -0.10476959280E+03  0.11767215770E+03  0.10000000000E+01 0.  0.
    9000005    1    3    3    0    0  0.53521419452E+02  0.21276236173E+01 -0.34534785039E+03  0.34947847844E+03  0.10000000000E+01 0.  0.
<mgrwt>
<rscale>  0 0.12499602E+03</rscale>
<asrwt>0</asrwt>
<pdfrwt beam="2">  1        4 0.70559064E-01 0.12499602E+03</pdfrwt>
<pdfrwt beam="1">  1       -4 0.13102460E-02 0.12499602E+03</pdfrwt>
<totfact> 0.58511444E+03</totfact>
</mgrwt>
</event>
<event>
 5    1  0.3337119E-002  0.1250045E+03  0.7818608E-02  0.1235062E+00
          4   -1    0    0  501    0  0.00000000000E+00  0.00000000000E+00  0.54274362590E+01  0.55740438055E+01  0.12700000000E+01 0.  1.
         -4   -1    0    0    0  501 -0.00000000000E+00 -0.00000000000E+00 -0.71003548197E+03  0.71003661776E+03  0.12700000000E+01 0.  1.
         25    2    1    2    0    0  0.00000000000E+00  0.00000000000E+00 -0.70460804571E+03  0.71561066156E+03  0.12500448337E+03 0.  0.
    9000005    1    3    3    0    0 -0.44004354963E+02 -0.39482306531E+02 -0.23634647474E+03  0.24363064648E+03  0.10000000000E+01 0.  0.
    9000005    1    3    3    0    0  0.44004354963E+02  0.39482306531E+02 -0.46826157097E+03  0.47198001508E+03  0.10000000000E+01 0.  0.
<mgrwt>
<rscale>  0 0.12500448E+03</rscale>
<asrwt>0</asrwt>
<pdfrwt beam="1">  1        4 0.84635563E-03 0.12500448E+03</pdfrwt>
<pdfrwt beam="2">  1       -4 0.10924752E+00 0.12500448E+03</pdfrwt>
<totfact> 0.42271218E+03</totfact>
</mgrwt>
</event>
<event>
 5    1  0.3337119E-002  0.1250038E+03  0.7818608E-02  0.1235063E+00
          4   -1    0    0  501    0  0.00000000000E+00  0.00000000000E+00  0.13744134236E+02  0.13802685460E+02  0.12700000000E+01 0. -1.
         -4   -1    0    0    0  501 -0.00000000000E+00 -0.00000000000E+00 -0.28356530161E+03  0.28356814556E+03  0.12700000000E+01 0. -1.
         25    2    1    2    0    0  0.00000000000E+00  0.00000000000E+00 -0.26982116738E+03  0.29737083102E+03  0.12500379506E+03 0.  0.
    9000005    1    3    3    0    0  0.26766056217E+02  0.48224237373E+02 -0.65006360829E+02  0.85257408967E+02  0.10000000000E+01 0.  0.
    9000005    1    3    3    0    0 -0.26766056217E+02 -0.48224237373E+02 -0.20481480655E+03  0.21211342206E+03  0.10000000000E+01 0.  0.
<mgrwt>
<rscale>  0 0.12500380E+03</rscale>
<asrwt>0</asrwt>
<pdfrwt beam="1">  1        4 0.21192051E-02 0.12500380E+03</pdfrwt>
<pdfrwt beam="2">  1       -4 0.43630149E-01 0.12500380E+03</pdfrwt>
<totfact> 0.75923429E+03</totfact>
</mgrwt>
</event>
<event>
 5    1  0.3337119E-002  0.1249984E+03  0.7818608E-02  0.1235072E+00
         -4   -1    0    0    0  501 -0.00000000000E+00  0.00000000000E+00  0.18786559625E+01  0.22676525804E+01  0.12700000000E+01 0. -1.
          4   -1    0    0  501    0  0.00000000000E+00 -0.00000000000E+00 -0.18837688998E+04  0.18837693279E+04  0.12700000000E+01 0. -1.
         25    2    1    2    0    0  0.00000000000E+00  0.00000000000E+00 -0.18818902438E+04  0.18860369805E+04  0.12499840761E+03 0.  0.
    9000005    1    3    3    0    0 -0.19009258983E+02  0.30252662833E+02 -0.16736392481E+03  0.17113812802E+03  0.10000000000E+01 0.  0.
    9000005    1    3    3    0    0  0.19009258983E+02 -0.30252662833E+02 -0.17145263190E+04  0.17148988525E+04  0.10000000000E+01 0.  0.
<mgrwt>
<rscale>  0 0.12499841E+03</rscale>
<asrwt>0</asrwt>
<pdfrwt beam="2">  1        4 0.28983919E+00 0.12499841E+03</pdfrwt>
<pdfrwt beam="1">  1       -4 0.31898125E-03 0.12499841E+03</pdfrwt>
<totfact> 0.11423501E+03</totfact>
</mgrwt>
</event>
<event>
 5    1  0.3337119E-002  0.1249965E+03  0.7818608E-02  0.1235075E+00
          4   -1    0    0  501    0  0.00000000000E+00  0.00000000000E+00  0.42570494279E+03  0.42570683717E+03  0.12700000000E+01 0. -1.
         -4   -1    0    0    0  501 -0.00000000000E+00 -0.00000000000E+00 -0.91295782129E+01  0.92174887223E+01  0.12700000000E+01 0. -1.
         25    2    1    2    0    0  0.00000000000E+00  0.00000000000E+00  0.41657536458E+03  0.43492432589E+03  0.12499653948E+03 0.  0.
    9000005    1    3    3    0    0 -0.20062892483E+02  0.48182428435E+02  0.88714245772E+02  0.10293339335E+03  0.10000000000E+01 0.  0.
    9000005    1    3    3    0    0  0.20062892483E+02 -0.48182428435E+02  0.32786111881E+03  0.33199093254E+03  0.10000000000E+01 0.  0.
<mgrwt>
<rscale>  0 0.12499654E+03</rscale>
<asrwt>0</asrwt>
<pdfrwt beam="1">  1        4 0.65499976E-01 0.12499654E+03</pdfrwt>
<pdfrwt beam="2">  1       -4 0.14114586E-02 0.12499654E+03</pdfrwt>
<totfact> 0.61296828E+03</totfact>
</mgrwt>
</event>
<event>
 5    1  0.3337119E-002  0.1249990E+03  0.7818608E-02  0.1235071E+00
         -4   -1    0    0    0  501 -0.00000000000E+00  0.00000000000E+00  0.67938223945E+02  0.67950093251E+02  0.12700000000E+01 0. -1.
          4   -1    0    0  501    0  0.00000000000E+00 -0.00000000000E+00 -0.57472237793E+02  0.57486268073E+02  0.12700000000E+01 0. -1.
         25    2    1    2    0    0  0.00000000000E+00  0.00000000000E+00  0.10465986151E+02  0.12543636132E+03  0.12499897550E+03 0.  0.
    9000005    1    3    3    0    0 -0.58215294756E+02  0.22685734643E+02  0.39946291601E+01  0.62614855761E+02  0.10000000000E+01 0.  0.
    9000005    1    3    3    0    0  0.58215294756E+02 -0.22685734643E+02  0.64713569912E+01  0.62821505563E+02  0.10000000000E+01 0.  0.
<mgrwt>
<rscale>  0 0.12499898E+03</rscale>
<asrwt>0</asrwt>
<pdfrwt beam="2">  1        4 0.88438751E-02 0.12499898E+03</pdfrwt>
<pdfrwt beam="1">  1       -4 0.10454027E-01 0.12499898E+03</pdfrwt>
<totfact> 0.10443603E+04</totfact>
</mgrwt>
</event>
<event>
 5    1  0.3337119E-002  0.1249993E+03  0.7818608E-02  0.1235070E+00
         -4   -1    0    0    0  501 -0.00000000000E+00  0.00000000000E+00  0.19724620427E+02  0.19765463591E+02  0.12700000000E+01 0.  1.
          4   -1    0    0  501    0  0.00000000000E+00 -0.00000000000E+00 -0.19778943851E+03  0.19779351578E+03  0.12700000000E+01 0.  1.
         25    2    1    2    0    0  0.00000000000E+00  0.00000000000E+00 -0.17806481808E+03  0.21755897937E+03  0.12499932027E+03 0.  0.
    9000005    1    3    3    0    0 -0.56526129079E+02 -0.20057450283E+02 -0.11956299797E+03  0.13376776541E+03  0.10000000000E+01 0.  0.
    9000005    1    3    3    0    0  0.56526129079E+02  0.20057450283E+02 -0.58501820117E+02  0.83791213964E+02  0.10000000000E+01 0.  0.
<mgrwt>
<rscale>  0 0.12499932E+03</rscale>
<asrwt>0</asrwt>
<pdfrwt beam="2">  1        4 0.30432599E-01 0.12499932E+03</pdfrwt>
<pdfrwt beam="1">  1       -4 0.30380125E-02 0.12499932E+03</pdfrwt>
<totfact> 0.87257415E+03</totfact>
</mgrwt>
</event>
<event>
 4    1  0.3337119E-002  0.1249273E+03  0.7818608E-02  0.1235183E+00
         -4   -1    0    0    0  501 -0.00000000000E+00  0.00000000000E+00  0.30840413721E+01  0.33352977655E+01  0.12700000000E+01 0. -1.
          4   -1    0    0  501    0  0.00000000000E+00 -0.00000000000E+00 -0.12153592874E+04  0.12153599509E+04  0.12700000000E+01 0. -1.
    9000005    1    1    2    0    0  0.50371242529E+02  0.36784736017E+02 -0.57478338782E+03  0.57815856112E+03  0.10000000000E+01 0.  0.
    9000005    1    1    2    0    0 -0.50371242529E+02 -0.36784736017E+02 -0.63749185820E+03  0.64053668759E+03  0.10000000000E+01 0.  0.
<mgrwt>
<rscale>  0 0.12492733E+03</rscale>
<asrwt>0</asrwt>
<pdfrwt beam="2">  1        4 0.18699736E+00 0.12492733E+03</pdfrwt>
<pdfrwt beam="1">  1       -4 0.49384733E-03 0.12492733E+03</pdfrwt>
<totfact> 0.24267100E+03</totfact>
</mgrwt>
</event>
<event>
 5    1  0.3337119E-002  0.1249883E+03  0.7818608E-02  0.1235088E+00
         -4   -1    0    0    0  501 -0.00000000000E+00  0.00000000000E+00  0.50428401333E+03  0.50428561253E+03  0.12700000000E+01 0.  1.
          4   -1    0    0  501    0  0.00000000000E+00 -0.00000000000E+00 -0.76909891962E+01  0.77951404616E+01  0.12700000000E+01 0.  1.
         25    2    1    2    0    0  0.00000000000E+00  0.00000000000E+00  0.49659302413E+03  0.51208075299E+03  0.12498826330E+03 0.  0.
    9000005    1    3    3    0    0  0.11911955287E+02  0.38596648143E+02  0.52969931123E+02  0.66621389432E+02  0.10000000000E+01 0.  0.
    9000005    1    3    3    0    0 -0.11911955287E+02 -0.38596648143E+02  0.44362309301E+03  0.44545936355E+03  0.10000000000E+01 0.  0.
<mgrwt>
<rscale>  0 0.12498826E+03</rscale>
<asrwt>0</asrwt>
<pdfrwt beam="2">  1        4 0.11913637E-02 0.12498826E+03</pdfrwt>
<pdfrwt beam="1">  1       -4 0.77590293E-01 0.12498826E+03</pdfrwt>
<totfact> 0.54953255E+03</totfact>
</mgrwt>
</event>
<event>
 5    1  0.3337119E-002  0.1249994E+03  0.7818608E-02  0.1235070E+00
         -4   -1    0    0    0  501 -0.00000000000E+00  0.00000000000E+00  0.11805411616E+02  0.11873527000E+02  0.12700000000E+01 0.  1.
          4   -1    0    0  501    0  0.00000000000E+00 -0.00000000000E+00 -0.32986188983E+03  0.32986433464E+03  0.12700000000E+01 0.  1.
         25    2    1    2    0    0  0.00000000000E+00  0.00000000000E+00 -0.31805647822E+03  0.34173786164E+03  0.12499937096E+03 0.  0.
    9000005    1    3    3    0    0  0.15046877254E+02  0.60152018602E+02 -0.13775688681E+03  0.15107161786E+03  0.10000000000E+01 0.  0.
    9000005    1    3    3    0    0 -0.15046877254E+02 -0.60152018602E+02 -0.18029959141E+03  0.19066624378E+03  0.10000000000E+01 0.  0.
<mgrwt>
<rscale>  0 0.12499937E+03</rscale>
<asrwt>0</asrwt>
<pdfrwt beam="2">  1        4 0.50753404E-01 0.12499937E+03</pdfrwt>
<pdfrwt beam="1">  1       -4 0.18216451E-02 0.12499937E+03</pdfrwt>
<totfact> 0.70644146E+03</totfact>
</mgrwt>
</event>
<event>
 5    1  0.3337119E-002  0.1250032E+03  0.7818608E-02  0.1235064E+00
          4   -1    0    0  501    0  0.00000000000E+00  0.00000000000E+00  0.10650781144E+02  0.10726231351E+02  0.12700000000E+01 0.  1.
         -4   -1    0    0    0  501 -0.00000000000E+00 -0.00000000000E+00 -0.36540464621E+03  0.36540685321E+03  0.12700000000E+01 0.  1.
         25    2    1    2    0    0  0.00000000000E+00  0.00000000000E+00 -0.35475386506E+03  0.37613308456E+03  0.12500317004E+03 0.  0.
    9000005    1    3    3    0    0 -0.24134181029E+01  0.17210236408E+02  0.32483886914E+01  0.17707875458E+02  0.10000000000E+01 0.  0.
    9000005    1    3    3    0    0  0.24134181029E+01 -0.17210236408E+02 -0.35800225375E+03  0.35842520910E+03  0.10000000000E+01 0.  0.
<mgrwt>
<rscale>  0 0.12500317E+03</rscale>
<asrwt>0</asrwt>
<pdfrwt beam="1">  1        4 0.16445556E-02 0.12500317E+03</pdfrwt>
<pdfrwt beam="2">  1       -4 0.56222063E-01 0.12500317E+03</pdfrwt>
<totfact> 0.66937460E+03</totfact>
</mgrwt>
</event>
<event>
 5    1  0.3337119E-002  0.1250015E+03  0.7818608E-02  0.1235067E+00
         -4   -1    0    0    0  501 -0.00000000000E+00  0.00000000000E+00  0.47219474718E+02  0.47236550389E+02  0.12700000000E+01 0.  1.
          4   -1    0    0  501    0  0.00000000000E+00 -0.00000000000E+00 -0.82690505262E+02  0.82700257318E+02  0.12700000000E+01 0.  1.
         25    2    1    2    0    0  0.00000000000E+00  0.00000000000E+00 -0.35471030544E+02  0.12993680771E+03  0.12500151995E+03 0.  0.
    9000005    1    3    3    0    0  0.63388486090E+00  0.44116254666E+02  0.28269033863E+02  0.52409770190E+02  0.10000000000E+01 0.  0.
    9000005    1    3    3    0    0 -0.63388486090E+00 -0.44116254666E+02 -0.63740064406E+02  0.77527037518E+02  0.10000000000E+01 0.  0.
<mgrwt>
<rscale>  0 0.12500152E+03</rscale>
<asrwt>0</asrwt>
<pdfrwt beam="2">  1        4 0.12723680E-01 0.12500152E+03</pdfrwt>
<pdfrwt beam="1">  1       -4 0.72665982E-02 0.12500152E+03</pdfrwt>
<totfact> 0.10345505E+04</totfact>
</mgrwt>
</event>
<event>
 5    1  0.3337119E-002  0.1249958E+03  0.7818608E-02  0.1235076E+00
          4   -1    0    0  501    0  0.00000000000E+00  0.00000000000E+00  0.14012151894E+03  0.14012727418E+03  0.12700000000E+01 0.  1.
         -4   -1    0    0    0  501 -0.00000000000E+00 -0.00000000000E+00 -0.27854900902E+02  0.27883837689E+02  0.12700000000E+01 0.  1.
         25    2    1    2    0    0  0.00000000000E+00  0.00000000000E+00  0.11226661804E+03  0.16801111187E+03  0.12499576067E+03 0.  0.
    9000005    1    3    3    0    0 -0.13391682624E+02 -0.48655195708E+02  0.10567191028E+03  0.11710771902E+03  0.10000000000E+01 0.  0.
    9000005    1    3    3    0    0  0.13391682624E+02  0.48655195708E+02  0.65947077554E+01  0.50903392846E+02  0.10000000000E+01 0.  0.
<mgrwt>
<rscale>  0 0.12499576E+03</rscale>
<asrwt>0</asrwt>
<pdfrwt beam="1">  1        4 0.21559825E-01 0.12499576E+03</pdfrwt>
<pdfrwt beam="2">  1       -4 0.42880380E-02 0.12499576E+03</pdfrwt>
<totfact> 0.95829278E+03</totfact>
</mgrwt>
</event>
<event>
 5    1  0.3337119E-002  0.1249980E+03  0.7818608E-02  0.1235072E+00
         -4   -1    0    0    0  501 -0.00000000000E+00  0.00000000000E+00  0.15654155190E+03  0.15654670349E+03  0.12700000000E+01 0. -1.
          4   -1    0    0  501    0  0.00000000000E+00 -0.00000000000E+00 -0.24930933678E+02  0.24963260084E+02  0.12700000000E+01 0. -1.
         25    2    1    2    0    0  0.00000000000E+00  0.00000000000E+00  0.13161061822E+03  0.18150996357E+03  0.12499804817E+03 0.  0.
    9000005    1    3    3    0    0  0.37772200758E+02  0.27732242458E+01 -0.63730621269E+01  0.38419342052E+02  0.10000000000E+01 0.  0.
    9000005    1    3    3    0    0 -0.37772200758E+02 -0.27732242458E+01  0.13798368035E+03  0.14309062152E+03  0.10000000000E+01 0.  0.
<mgrwt>
<rscale>  0 0.12499805E+03</rscale>
<asrwt>0</asrwt>
<pdfrwt beam="2">  1        4 0.38384112E-02 0.12499805E+03</pdfrwt>
<pdfrwt beam="1">  1       -4 0.24086198E-01 0.12499805E+03</pdfrwt>
<totfact> 0.93349993E+03</totfact>
</mgrwt>
</event>
<event>
 5    1  0.3337119E-002  0.1250021E+03  0.7818608E-02  0.1235066E+00
         -4   -1    0    0    0  501 -0.00000000000E+00  0.00000000000E+00  0.36404847400E+02  0.36426992934E+02  0.12700000000E+01 0.  1.
          4   -1    0    0  501    0  0.00000000000E+00 -0.00000000000E+00 -0.10724529300E+03  0.10725281241E+03  0.12700000000E+01 0.  1.
         25    2    1    2    0    0  0.00000000000E+00  0.00000000000E+00 -0.70840445598E+02  0.14367980535E+03  0.12500207091E+03 0.  0.
    9000005    1    3    3    0    0 -0.69678458289E+01  0.29520715984E+02 -0.98222671638E+02  0.10280426436E+03  0.10000000000E+01 0.  0.
    9000005    1    3    3    0    0  0.69678458289E+01 -0.29520715984E+02  0.27382226040E+02  0.40875540982E+02  0.10000000000E+01 0.  0.
<mgrwt>
<rscale>  0 0.12500207E+03</rscale>
<asrwt>0</asrwt>
<pdfrwt beam="2">  1        4 0.16501558E-01 0.12500207E+03</pdfrwt>
<pdfrwt beam="1">  1       -4 0.56030277E-02 0.12500207E+03</pdfrwt>
<totfact> 0.10057412E+04</totfact>
</mgrwt>
</event>
