<event>
 6    4  0.2220150E-003  0.1266264E+03  0.7818608E-02  0.1232549E+00
         -4   -1    0    0    0  501 -0.00000000000E+00  0.00000000000E+00  0.11326329931E+03  0.11327041923E+03  0.12700000000E+01 0.  1.
          4   -1    0    0  502    0  0.00000000000E+00 -0.00000000000E+00 -0.12125210028E+03  0.12125875111E+03  0.12700000000E+01 0.  1.
         25    2    1    2    0    0 -0.23550420135E+01 -0.20060368501E+02 -0.86572119980E+02  0.15339161655E+03  0.12500516575E+03 0.  0.
    9000005    1    3    3    0    0  0.53926838142E+01 -0.72148360226E+02 -0.61934112456E+02  0.95243378813E+02  0.10000000000E+01 0.  0.
    9000005    1    3    3    0    0 -0.77477258277E+01  0.52087991724E+02 -0.24638007524E+02  0.58148237739E+02  0.10000000000E+01 0.  0.
         21    1    1    2  502  501  0.23550420135E+01  0.20060368501E+02  0.78583319017E+02  0.81137553790E+02  0.00000000000E+00 0.  1.
<mgrwt>
<rscale>  1 0.12662644E+03</rscale>
<asrwt>0</asrwt>
<pdfrwt beam="2">  1        4 0.18655229E-01 0.12662644E+03</pdfrwt>
<pdfrwt beam="1">  1       -4 0.17426182E-01 0.12662644E+03</pdfrwt>
<totfact> 0.12006112E+03</totfact>
</mgrwt>
</event>
<event>
 6    4  0.2220150E-003  0.1269942E+03  0.7818608E-02  0.1231985E+00
         -4   -1    0    0    0  501 -0.00000000000E+00  0.00000000000E+00  0.21644627456E+03  0.21645000039E+03  0.12700000000E+01 0. -1.
          4   -1    0    0  502    0  0.00000000000E+00 -0.00000000000E+00 -0.29257228404E+02  0.29284779560E+02  0.12700000000E+01 0. -1.
         25    2    1    2    0    0  0.49937183095E+00  0.22397062501E+02  0.11928632712E+03  0.17423193362E+03  0.12500264427E+03 0.  0.
    9000005    1    3    3    0    0  0.10517965971E+02 -0.35841848949E+02  0.10770810389E+03  0.11400570770E+03  0.10000000000E+01 0.  0.
    9000005    1    3    3    0    0 -0.10018594140E+02  0.58238911450E+02  0.11578223223E+02  0.60226225919E+02  0.10000000000E+01 0.  0.
         21    1    1    2  502  501 -0.49937183095E+00 -0.22397062501E+02  0.67902719038E+02  0.71502846332E+02  0.00000000000E+00 0. -1.
<mgrwt>
<rscale>  1 0.12699425E+03</rscale>
<asrwt>0</asrwt>
<pdfrwt beam="2">  1        4 0.45035182E-02 0.12699425E+03</pdfrwt>
<pdfrwt beam="1">  1       -4 0.33301832E-01 0.12699425E+03</pdfrwt>
<totfact> 0.39631679E+03</totfact>
</mgrwt>
</event>
<event>
 6    4  0.2220150E-003  0.1291502E+03  0.7818608E-02  0.1228722E+00
         -4   -1    0    0    0  501 -0.00000000000E+00  0.00000000000E+00  0.54242405368E+02  0.54257270850E+02  0.12700000000E+01 0.  1.
          4   -1    0    0  502    0  0.00000000000E+00 -0.00000000000E+00 -0.13926891184E+03  0.13927470232E+03  0.12700000000E+01 0.  1.
         25    2    1    2    0    0 -0.30999028602E+02  0.96202154176E+01 -0.94140372741E+02  0.15981920293E+03  0.12500511800E+03 0.  0.
    9000005    1    3    3    0    0 -0.71290653747E+02  0.20789506249E+02 -0.23805035505E+02  0.77988720961E+02  0.10000000000E+01 0.  0.
    9000005    1    3    3    0    0  0.40291625145E+02 -0.11169290831E+02 -0.70335337236E+02  0.81830481965E+02  0.10000000000E+01 0.  0.
         21    1    1    2  502  501  0.30999028602E+02 -0.96202154176E+01  0.91138662673E+01  0.33712770241E+02  0.00000000000E+00 0.  1.
<mgrwt>
<rscale>  1 0.12915018E+03</rscale>
<asrwt>0</asrwt>
<pdfrwt beam="2">  1        4 0.21427575E-01 0.12915018E+03</pdfrwt>
<pdfrwt beam="1">  1       -4 0.83465744E-02 0.12915018E+03</pdfrwt>
<totfact> 0.33136339E+03</totfact>
</mgrwt>
</event>
<event>
 6    4  0.2220150E-003  0.1291319E+03  0.7818608E-02  0.1228750E+00
         -4   -1    0    0    0  501 -0.00000000000E+00  0.00000000000E+00  0.19340000069E+04  0.19340004239E+04  0.12700000000E+01 0.  1.
          4   -1    0    0  502    0  0.00000000000E+00 -0.00000000000E+00 -0.19573490251E+02  0.19614648114E+02  0.12700000000E+01 0.  1.
         25    2    1    2    0    0 -0.10508499031E+02  0.30443375256E+02  0.19496045663E+03  0.23384742513E+03  0.12505123327E+03 0.  0.
    9000005    1    3    3    0    0 -0.45912635666E+02 -0.32078405057E+02  0.10179197903E+03  0.11618778412E+03  0.10000000000E+01 0.  0.
    9000005    1    3    3    0    0  0.35404136635E+02  0.62521780313E+02  0.93168477603E+02  0.11765964101E+03  0.10000000000E+01 0.  0.
         21    1    1    2  502  501  0.10508499031E+02 -0.30443375256E+02  0.17194660600E+04  0.17197676469E+04  0.00000000000E+00 0.  1.
<mgrwt>
<rscale>  1 0.12913187E+03</rscale>
<asrwt>0</asrwt>
<pdfrwt beam="2">  1        4 0.30145033E-02 0.12913187E+03</pdfrwt>
<pdfrwt beam="1">  1       -4 0.29754175E+00 0.12913187E+03</pdfrwt>
<totfact> 0.35173272E+01</totfact>
</mgrwt>
</event>
<event>
 6    4  0.2220150E-003  0.1289590E+03  0.7818608E-02  0.1229009E+00
          4   -1    0    0  502    0  0.00000000000E+00  0.00000000000E+00  0.12143889007E+04  0.12143895647E+04  0.12700000000E+01 0.  1.
         -4   -1    0    0    0  501 -0.00000000000E+00 -0.00000000000E+00 -0.52563465782E+01  0.54075945993E+01  0.12700000000E+01 0.  1.
         25    2    1    2    0    0 -0.10092639332E+02 -0.29962535406E+02  0.93645173859E+03  0.94528952369E+03  0.12502323775E+03 0.  0.
    9000005    1    3    3    0    0  0.14717918333E+02  0.45899345265E+02  0.40906438901E+03  0.41189566807E+03  0.10000000000E+01 0.  0.
    9000005    1    3    3    0    0 -0.24810557664E+02 -0.75861880671E+02  0.52738734959E+03  0.53339385562E+03  0.10000000000E+01 0.  0.
         21    1    1    2  502  501  0.10092639332E+02  0.29962535406E+02  0.27268081548E+03  0.27450763565E+03  0.00000000000E+00 0.  1.
<mgrwt>
<rscale>  1 0.12895900E+03</rscale>
<asrwt>0</asrwt>
<pdfrwt beam="1">  1        4 0.18684069E+00 0.12895900E+03</pdfrwt>
<pdfrwt beam="2">  1       -4 0.82035450E-03 0.12895900E+03</pdfrwt>
<totfact> 0.11520986E+03</totfact>
</mgrwt>
</event>
<event>
 6    4  0.2220150E-003  0.1398661E+03  0.7818608E-02  0.1213509E+00
         -4   -1    0    0    0  501 -0.00000000000E+00  0.00000000000E+00  0.76475590747E+03  0.76475696198E+03  0.12700000000E+01 0. -1.
          4   -1    0    0  502    0  0.00000000000E+00 -0.00000000000E+00 -0.15267100653E+02  0.15319832321E+02  0.12700000000E+01 0. -1.
         25    2    1    2    0    0  0.53774521626E+02 -0.32330153386E+02  0.37231769476E+03  0.39772226542E+03  0.12500238631E+03 0.  0.
    9000005    1    3    3    0    0 -0.21275819581E+02 -0.56984718514E+02  0.16595773410E+03  0.17675657881E+03  0.10000000000E+01 0.  0.
    9000005    1    3    3    0    0  0.75050341207E+02  0.24654565128E+02  0.20635996066E+03  0.22096568661E+03  0.10000000000E+01 0.  0.
         21    1    1    2  502  501 -0.53774521626E+02  0.32330153386E+02  0.37717111205E+03  0.38235452889E+03  0.00000000000E+00 0.  1.
<mgrwt>
<rscale>  1 0.13986613E+03</rscale>
<asrwt>0</asrwt>
<pdfrwt beam="2">  1        4 0.23529224E-02 0.13986613E+03</pdfrwt>
<pdfrwt beam="1">  1       -4 0.11765888E+00 0.13986613E+03</pdfrwt>
<totfact> 0.76706795E+02</totfact>
</mgrwt>
</event>
<event>
 6    4  0.2220150E-003  0.1267534E+03  0.7818608E-02  0.1232354E+00
          4   -1    0    0  502    0  0.00000000000E+00  0.00000000000E+00  0.19364488185E+02  0.19406089320E+02  0.12700000000E+01 0.  1.
         -4   -1    0    0    0  501 -0.00000000000E+00 -0.00000000000E+00 -0.29888110744E+03  0.29888380566E+03  0.12700000000E+01 0.  1.
         25    2    1    2    0    0 -0.20967428746E+02  0.18229486155E+01 -0.20648352508E+03  0.24228470401E+03  0.12499390168E+03 0.  0.
    9000005    1    3    3    0    0 -0.35463180291E+02  0.54473855791E+02 -0.15114042010E+03  0.16452800585E+03  0.10000000000E+01 0.  0.
    9000005    1    3    3    0    0  0.14495751545E+02 -0.52650907175E+02 -0.55343104980E+02  0.77756698156E+02  0.10000000000E+01 0.  0.
         21    1    1    2  502  501  0.20967428746E+02 -0.18229486155E+01 -0.73033094169E+02  0.76005190966E+02  0.00000000000E+00 0. -1.
<mgrwt>
<rscale>  1 0.12675343E+03</rscale>
<asrwt>0</asrwt>
<pdfrwt beam="1">  1        4 0.29825599E-02 0.12675343E+03</pdfrwt>
<pdfrwt beam="2">  1       -4 0.45985113E-01 0.12675343E+03</pdfrwt>
<totfact> 0.40356099E+03</totfact>
</mgrwt>
</event>
<event>
 6    4  0.2220150E-003  0.1290133E+03  0.7818608E-02  0.1228927E+00
         -4   -1    0    0    0  501 -0.00000000000E+00  0.00000000000E+00  0.19293202774E+02  0.19334957287E+02  0.12700000000E+01 0. -1.
          4   -1    0    0  502    0  0.00000000000E+00 -0.00000000000E+00 -0.36654238106E+03  0.36654458121E+03  0.12700000000E+01 0. -1.
         25    2    1    2    0    0 -0.12895695220E+02 -0.29195849328E+02 -0.31550830159E+03  0.34086643122E+03  0.12500295591E+03 0.  0.
    9000005    1    3    3    0    0  0.18426186703E+02 -0.54971272093E+02 -0.28298422146E+03  0.28886404191E+03  0.10000000000E+01 0.  0.
    9000005    1    3    3    0    0 -0.31321881923E+02  0.25775422765E+02 -0.32524080133E+02  0.52002389314E+02  0.10000000000E+01 0.  0.
         21    1    1    2  502  501  0.12895695220E+02  0.29195849328E+02 -0.31740876692E+02  0.45013107273E+02  0.00000000000E+00 0. -1.
<mgrwt>
<rscale>  1 0.12901332E+03</rscale>
<asrwt>0</asrwt>
<pdfrwt beam="2">  1        4 0.56394511E-01 0.12901332E+03</pdfrwt>
<pdfrwt beam="1">  1       -4 0.29715664E-02 0.12901332E+03</pdfrwt>
<totfact> 0.26880023E+03</totfact>
</mgrwt>
</event>
<event>
 6    4  0.2220150E-003  0.1287151E+03  0.7818608E-02  0.1229375E+00
          4   -1    0    0  502    0  0.00000000000E+00  0.00000000000E+00  0.14314752814E+03  0.14315316173E+03  0.12700000000E+01 0.  1.
         -4   -1    0    0    0  501 -0.00000000000E+00 -0.00000000000E+00 -0.88429870679E+02  0.88438989865E+02  0.12700000000E+01 0.  1.
         25    2    1    2    0    0 -0.30178079482E+02  0.56007637820E+01  0.10937280568E+03  0.16890826003E+03  0.12500201857E+03 0.  0.
    9000005    1    3    3    0    0  0.25895879401E+02 -0.38958220313E+02  0.77451198647E+02  0.90487721111E+02  0.10000000000E+01 0.  0.
    9000005    1    3    3    0    0 -0.56073958884E+02  0.44558984095E+02  0.31921607031E+02  0.78420538916E+02  0.10000000000E+01 0.  0.
         21    1    1    2  502  501  0.30178079482E+02 -0.56007637820E+01 -0.54655148213E+02  0.62683891570E+02  0.00000000000E+00 0.  1.
<mgrwt>
<rscale>  1 0.12871515E+03</rscale>
<asrwt>0</asrwt>
<pdfrwt beam="1">  1        4 0.22023831E-01 0.12871515E+03</pdfrwt>
<pdfrwt beam="2">  1       -4 0.13605730E-01 0.12871515E+03</pdfrwt>
<totfact> 0.13777824E+03</totfact>
</mgrwt>
</event>
<event>
 6    4  0.2220150E-003  0.1451329E+03  0.7818608E-02  0.1206585E+00
         -4   -1    0    0    0  501 -0.00000000000E+00  0.00000000000E+00  0.90376621700E+02  0.90385544475E+02  0.12700000000E+01 0.  1.
          4   -1    0    0  502    0  0.00000000000E+00 -0.00000000000E+00 -0.15686098628E+03  0.15686612737E+03  0.12700000000E+01 0.  1.
         25    2    1    2    0    0 -0.15747646786E+02  0.72001648067E+02 -0.88922782387E+02  0.17020812379E+03  0.12502527133E+03 0.  0.
    9000005    1    3    3    0    0 -0.50074005580E+02  0.62968750938E+02 -0.68090019236E+01  0.80745477500E+02  0.10000000000E+01 0.  0.
    9000005    1    3    3    0    0  0.34326358794E+02  0.90328971286E+01 -0.82113780463E+02  0.89462646286E+02  0.10000000000E+01 0.  0.
         21    1    1    2  502  501  0.15747646786E+02 -0.72001648067E+02  0.22438417809E+02  0.77043548058E+02  0.00000000000E+00 0.  1.
<mgrwt>
<rscale>  1 0.14513285E+03</rscale>
<asrwt>0</asrwt>
<pdfrwt beam="2">  1        4 0.24133541E-01 0.14513285E+03</pdfrwt>
<pdfrwt beam="1">  1       -4 0.13905177E-01 0.14513285E+03</pdfrwt>
<totfact> 0.11514584E+03</totfact>
</mgrwt>
</event>
<event>
 6    4  0.2220150E-003  0.1266659E+03  0.7818608E-02  0.1232489E+00
         -4   -1    0    0    0  501 -0.00000000000E+00  0.00000000000E+00  0.36036390466E+03  0.36036614253E+03  0.12700000000E+01 0. -1.
          4   -1    0    0  502    0  0.00000000000E+00 -0.00000000000E+00 -0.15290073673E+02  0.15342726385E+02  0.12700000000E+01 0. -1.
         25    2    1    2    0    0 -0.16271726564E+01 -0.20412660770E+02  0.27628707850E+03  0.30393880741E+03  0.12499969797E+03 0.  0.
    9000005    1    3    3    0    0  0.54469372007E+02  0.13178592312E+02  0.85300956184E+02  0.10206782504E+03  0.10000000000E+01 0.  0.
    9000005    1    3    3    0    0 -0.56096544663E+02 -0.33591253082E+02  0.19098612232E+03  0.20187098237E+03  0.10000000000E+01 0.  0.
         21    1    1    2  502  501  0.16271726564E+01  0.20412660770E+02  0.68786752489E+02  0.71770061505E+02  0.00000000000E+00 0.  1.
<mgrwt>
<rscale>  1 0.12666589E+03</rscale>
<asrwt>0</asrwt>
<pdfrwt beam="2">  1        4 0.23565416E-02 0.12666589E+03</pdfrwt>
<pdfrwt beam="1">  1       -4 0.55444817E-01 0.12666589E+03</pdfrwt>
<totfact> 0.39762848E+03</totfact>
</mgrwt>
</event>
<event>
 6    4  0.2220150E-003  0.1453356E+03  0.7818608E-02  0.1206325E+00
         -4   -1    0    0    0  501 -0.00000000000E+00  0.00000000000E+00  0.84099435263E+03  0.84099531156E+03  0.12700000000E+01 0. -1.
          4   -1    0    0  502    0  0.00000000000E+00 -0.00000000000E+00 -0.24863767709E+02  0.24896181327E+02  0.12700000000E+01 0. -1.
         25    2    1    2    0    0  0.71513984166E+02 -0.19564841574E+02  0.21084600651E+03  0.25608295423E+03  0.12500163209E+03 0.  0.
    9000005    1    3    3    0    0 -0.27381674822E+02  0.13506412138E+02  0.14617240414E+02  0.33865070533E+02  0.10000000000E+01 0.  0.
    9000005    1    3    3    0    0  0.98895658988E+02 -0.33071253711E+02  0.19622876610E+03  0.22221788369E+03  0.10000000000E+01 0.  0.
         21    1    1    2  502  501 -0.71513984166E+02  0.19564841574E+02  0.60528457841E+03  0.60980853866E+03  0.00000000000E+00 0. -1.
<mgrwt>
<rscale>  1 0.14533561E+03</rscale>
<asrwt>0</asrwt>
<pdfrwt beam="2">  1        4 0.38277620E-02 0.14533561E+03</pdfrwt>
<pdfrwt beam="1">  1       -4 0.12938632E+00 0.14533561E+03</pdfrwt>
<totfact> 0.28600660E+02</totfact>
</mgrwt>
</event>
<event>
 6    4  0.2220150E-003  0.1266775E+03  0.7818608E-02  0.1232471E+00
          4   -1    0    0  502    0  0.00000000000E+00  0.00000000000E+00  0.55989236247E+02  0.56003638056E+02  0.12700000000E+01 0.  1.
         -4   -1    0    0    0  501 -0.00000000000E+00 -0.00000000000E+00 -0.10268039267E+03  0.10268824635E+03  0.12700000000E+01 0.  1.
         25    2    1    2    0    0 -0.20175108632E+02  0.40086828483E+01 -0.25614112915E+02  0.12924114062E+03  0.12499634036E+03 0.  0.
    9000005    1    3    3    0    0 -0.30418281815E+02 -0.13655916170E+02 -0.71559472366E+02  0.78952606039E+02  0.10000000000E+01 0.  0.
    9000005    1    3    3    0    0  0.10243173183E+02  0.17664599018E+02  0.45945359451E+02  0.50288534582E+02  0.10000000000E+01 0.  0.
         21    1    1    2  502  501  0.20175108632E+02 -0.40086828483E+01 -0.21077043504E+02  0.29450743783E+02  0.00000000000E+00 0.  1.
<mgrwt>
<rscale>  1 0.12667750E+03</rscale>
<asrwt>0</asrwt>
<pdfrwt beam="1">  1        4 0.86154406E-02 0.12667750E+03</pdfrwt>
<pdfrwt beam="2">  1       -4 0.15798695E-01 0.12667750E+03</pdfrwt>
<totfact> 0.53830501E+03</totfact>
</mgrwt>
</event>
<event>
 6    4  0.2220150E-003  0.1269220E+03  0.7818608E-02  0.1232096E+00
          4   -1    0    0  502    0  0.00000000000E+00  0.00000000000E+00  0.10496002217E+03  0.10496770529E+03  0.12700000000E+01 0. -1.
         -4   -1    0    0    0  501 -0.00000000000E+00 -0.00000000000E+00 -0.67864031842E+02  0.67875914121E+02  0.12700000000E+01 0. -1.
         25    2    1    2    0    0 -0.13432002724E+02  0.17430939278E+02  0.60599111001E+02  0.14064652292E+03  0.12499974326E+03 0.  0.
    9000005    1    3    3    0    0  0.35008159596E+02 -0.33947902396E+02  0.18936256417E+01  0.48812059304E+02  0.10000000000E+01 0.  0.
    9000005    1    3    3    0    0 -0.48440162320E+02  0.51378841674E+02  0.58705485359E+02  0.91834463621E+02  0.10000000000E+01 0.  0.
         21    1    1    2  502  501  0.13432002724E+02 -0.17430939278E+02 -0.23503120668E+02  0.32197096491E+02  0.00000000000E+00 0. -1.
<mgrwt>
<rscale>  1 0.12692199E+03</rscale>
<asrwt>0</asrwt>
<pdfrwt beam="1">  1        4 0.16149201E-01 0.12692199E+03</pdfrwt>
<pdfrwt beam="2">  1       -4 0.10442125E-01 0.12692199E+03</pdfrwt>
<totfact> 0.37547981E+03</totfact>
</mgrwt>
</event>
<event>
 6    4  0.2220150E-003  0.1289843E+03  0.7818608E-02  0.1228971E+00
          4   -1    0    0  502    0  0.00000000000E+00  0.00000000000E+00  0.12999910857E+02  0.13061798586E+02  0.12700000000E+01 0.  1.
         -4   -1    0    0    0  501 -0.00000000000E+00 -0.00000000000E+00 -0.13365183379E+04  0.13365189413E+04  0.12700000000E+01 0.  1.
         25    2    1    2    0    0  0.30347142094E+02  0.95141023214E+01 -0.31264071764E+03  0.33820286265E+03  0.12500196321E+03 0.  0.
    9000005    1    3    3    0    0  0.59287304675E+02  0.36381733645E+02 -0.27491419376E+03  0.28357966953E+03  0.10000000000E+01 0.  0.
    9000005    1    3    3    0    0 -0.28940162581E+02 -0.26867631324E+02 -0.37726523874E+02  0.54623193122E+02  0.10000000000E+01 0.  0.
         21    1    1    2  502  501 -0.30347142094E+02 -0.95141023214E+01 -0.10108777094E+04  0.10113778772E+04  0.00000000000E+00 0.  1.
<mgrwt>
<rscale>  1 0.12898433E+03</rscale>
<asrwt>0</asrwt>
<pdfrwt beam="1">  1        4 0.20047944E-02 0.12898433E+03</pdfrwt>
<pdfrwt beam="2">  1       -4 0.20562290E+00 0.12898433E+03</pdfrwt>
<totfact> 0.22678072E+02</totfact>
</mgrwt>
</event>
<event>
 6    4  0.2220150E-003  0.1406802E+03  0.7818608E-02  0.1212417E+00
          4   -1    0    0  502    0  0.00000000000E+00  0.00000000000E+00  0.22142603757E+03  0.22142967961E+03  0.12700000000E+01 0. -1.
         -4   -1    0    0    0  501 -0.00000000000E+00 -0.00000000000E+00 -0.86440106645E+02  0.86449435723E+02  0.12700000000E+01 0. -1.
         25    2    1    2    0    0 -0.45190950927E+02  0.46079235201E+02  0.18054149663E+03  0.22888020693E+03  0.12500159660E+03 0.  0.
    9000005    1    3    3    0    0 -0.83462573738E+02  0.19999851755E+02  0.76430773291E+02  0.11492892756E+03  0.10000000000E+01 0.  0.
    9000005    1    3    3    0    0  0.38271622810E+02  0.26079383446E+02  0.10411072334E+03  0.11395127936E+03  0.10000000000E+01 0.  0.
         21    1    1    2  502  501  0.45190950927E+02 -0.46079235201E+02 -0.45555565711E+02  0.78998908408E+02  0.00000000000E+00 0. -1.
<mgrwt>
<rscale>  1 0.14068019E+03</rscale>
<asrwt>0</asrwt>
<pdfrwt beam="1">  1        4 0.34066541E-01 0.14068019E+03</pdfrwt>
<pdfrwt beam="2">  1       -4 0.13299476E-01 0.14068019E+03</pdfrwt>
<totfact> 0.64623265E+02</totfact>
</mgrwt>
</event>
<event>
 6    4  0.2220150E-003  0.1267356E+03  0.7818608E-02  0.1232382E+00
          4   -1    0    0  502    0  0.00000000000E+00  0.00000000000E+00  0.25418612680E+03  0.25418929946E+03  0.12700000000E+01 0. -1.
         -4   -1    0    0    0  501 -0.00000000000E+00 -0.00000000000E+00 -0.25985690343E+02  0.26016706221E+02  0.12700000000E+01 0. -1.
         25    2    1    2    0    0 -0.90953657303E+01 -0.18822478481E+02  0.22609853617E+03  0.25919578534E+03  0.12499958281E+03 0.  0.
    9000005    1    3    3    0    0  0.28457369330E+02  0.34161785530E+02  0.16180444444E+03  0.16780502883E+03  0.10000000000E+01 0.  0.
    9000005    1    3    3    0    0 -0.37552735061E+02 -0.52984264011E+02  0.64294091730E+02  0.91390756506E+02  0.10000000000E+01 0.  0.
         21    1    1    2  502  501  0.90953657303E+01  0.18822478481E+02  0.21019002852E+01  0.21010220340E+02  0.00000000000E+00 0. -1.
<mgrwt>
<rscale>  1 0.12673558E+03</rscale>
<asrwt>0</asrwt>
<pdfrwt beam="1">  1        4 0.39108189E-01 0.12673558E+03</pdfrwt>
<pdfrwt beam="2">  1       -4 0.40004283E-02 0.12673558E+03</pdfrwt>
<totfact> 0.35039649E+03</totfact>
</mgrwt>
</event>
<event>
 6    4  0.2220150E-003  0.1803698E+03  0.7818608E-02  0.1167446E+00
         -4   -1    0    0    0  501 -0.00000000000E+00  0.00000000000E+00  0.54194261428E+02  0.54209140113E+02  0.12700000000E+01 0. -1.
          4   -1    0    0  502    0  0.00000000000E+00 -0.00000000000E+00 -0.45381195369E+03  0.45381373075E+03  0.12700000000E+01 0. -1.
         25    2    1    2    0    0 -0.11723959089E+03 -0.56240604431E+02 -0.19540176020E+03  0.26592315139E+03  0.12500058919E+03 0.  0.
    9000005    1    3    3    0    0 -0.37213414878E+02  0.29508908426E+02 -0.13327771772E+02  0.49338052493E+02  0.10000000000E+01 0.  0.
    9000005    1    3    3    0    0 -0.80026176011E+02 -0.85749512857E+02 -0.18207398843E+03  0.21658509890E+03  0.10000000000E+01 0.  0.
         21    1    1    2  502  501  0.11723959089E+03  0.56240604431E+02 -0.20421593206E+03  0.24209971947E+03  0.00000000000E+00 0. -1.
<mgrwt>
<rscale>  1 0.18036983E+03</rscale>
<asrwt>0</asrwt>
<pdfrwt beam="2">  1        4 0.69818502E-01 0.18036983E+03</pdfrwt>
<pdfrwt beam="1">  1       -4 0.83388602E-02 0.18036983E+03</pdfrwt>
<totfact> 0.34570509E+02</totfact>
</mgrwt>
</event>
<event>
 6    4  0.2220150E-003  0.1334078E+03  0.7818608E-02  0.1222485E+00
          4   -1    0    0  502    0  0.00000000000E+00  0.00000000000E+00  0.22146616953E+02  0.22183001205E+02  0.12700000000E+01 0.  1.
         -4   -1    0    0    0  501 -0.00000000000E+00 -0.00000000000E+00 -0.56767149192E+03  0.56767291255E+03  0.12700000000E+01 0.  1.
         25    2    1    2    0    0 -0.39676607039E+01 -0.46434564298E+02 -0.19513042818E+03  0.23637581610E+03  0.12500292534E+03 0.  0.
    9000005    1    3    3    0    0 -0.15130635426E+02 -0.85821409432E+01 -0.19611426588E+03  0.19688675565E+03  0.10000000000E+01 0.  0.
    9000005    1    3    3    0    0  0.11162974722E+02 -0.37852423355E+02  0.98383769949E+00  0.39489060448E+02  0.10000000000E+01 0.  0.
         21    1    1    2  502  501  0.39676607039E+01  0.46434564298E+02 -0.35039444679E+03  0.35348009765E+03  0.00000000000E+00 0.  1.
<mgrwt>
<rscale>  1 0.13340781E+03</rscale>
<asrwt>0</asrwt>
<pdfrwt beam="1">  1        4 0.34100803E-02 0.13340781E+03</pdfrwt>
<pdfrwt beam="2">  1       -4 0.87336973E-01 0.13340781E+03</pdfrwt>
<totfact> 0.84890375E+02</totfact>
</mgrwt>
</event>
<event>
 6    4  0.2220150E-003  0.1268308E+03  0.7818608E-02  0.1232236E+00
         -4   -1    0    0    0  501 -0.00000000000E+00  0.00000000000E+00  0.19787864671E+03  0.19788272215E+03  0.12700000000E+01 0.  1.
          4   -1    0    0  502    0  0.00000000000E+00 -0.00000000000E+00 -0.32329822114E+02  0.32354756960E+02  0.12700000000E+01 0.  1.
         25    2    1    2    0    0  0.21441318350E+02  0.10504339411E+01  0.10075569968E+03  0.16198073892E+03  0.12500086088E+03 0.  0.
    9000005    1    3    3    0    0  0.52437545043E+02 -0.89084641751E+01 -0.29501403897E+01  0.53280016821E+02  0.10000000000E+01 0.  0.
    9000005    1    3    3    0    0 -0.30996226694E+02  0.99588981162E+01  0.10370584007E+03  0.10870072210E+03  0.10000000000E+01 0.  0.
         21    1    1    2  502  501 -0.21441318350E+02 -0.10504339411E+01  0.64793124914E+02  0.68256740181E+02  0.00000000000E+00 0. -1.
<mgrwt>
<rscale>  1 0.12683079E+03</rscale>
<asrwt>0</asrwt>
<pdfrwt beam="2">  1        4 0.49760503E-02 0.12683079E+03</pdfrwt>
<pdfrwt beam="1">  1       -4 0.30445100E-01 0.12683079E+03</pdfrwt>
<totfact> 0.40053893E+03</totfact>
</mgrwt>
</event>
<event>
 6    4  0.2220150E-003  0.1281299E+03  0.7818608E-02  0.1230257E+00
          4   -1    0    0  502    0  0.00000000000E+00  0.00000000000E+00  0.12765280768E+04  0.12765287085E+04  0.12700000000E+01 0.  1.
         -4   -1    0    0    0  501 -0.00000000000E+00 -0.00000000000E+00 -0.11609136329E+02  0.11678396564E+02  0.12700000000E+01 0.  1.
         25    2    1    2    0    0 -0.10280833589E+02 -0.26215678615E+02  0.12495973833E+04  0.12561492284E+04  0.12499722541E+03 0.  0.
    9000005    1    3    3    0    0 -0.35765656588E+02 -0.74976105968E+01  0.11689098851E+04  0.11694813875E+04  0.10000000000E+01 0.  0.
    9000005    1    3    3    0    0  0.25484822999E+02 -0.18718068019E+02  0.80687498186E+02  0.86667840847E+02  0.10000000000E+01 0.  0.
         21    1    1    2  502  501  0.10280833589E+02  0.26215678615E+02  0.15321557180E+02  0.32057876707E+02  0.00000000000E+00 0.  1.
<mgrwt>
<rscale>  1 0.12812987E+03</rscale>
<asrwt>0</asrwt>
<pdfrwt beam="1">  1        4 0.19639423E+00 0.12812987E+03</pdfrwt>
<pdfrwt beam="2">  1       -4 0.17913981E-02 0.12812987E+03</pdfrwt>
<totfact> 0.30706301E+02</totfact>
</mgrwt>
</event>
<event>
 6    4  0.2220150E-003  0.1333190E+03  0.7818608E-02  0.1222612E+00
         -4   -1    0    0    0  501 -0.00000000000E+00  0.00000000000E+00  0.28339343222E+03  0.28339627790E+03  0.12700000000E+01 0.  1.
          4   -1    0    0  502    0  0.00000000000E+00 -0.00000000000E+00 -0.62515505434E+02  0.62528404103E+02  0.12700000000E+01 0.  1.
         25    2    1    2    0    0 -0.34633002576E+02  0.30834029617E+02  0.14158898400E+02  0.13406874286E+03  0.12499508454E+03 0.  0.
    9000005    1    3    3    0    0 -0.16239870925E+02  0.45403131979E+02  0.63313767516E+02  0.79591525669E+02  0.10000000000E+01 0.  0.
    9000005    1    3    3    0    0 -0.18393131651E+02 -0.14569102362E+02 -0.49154869116E+02  0.54477217195E+02  0.10000000000E+01 0.  0.
         21    1    1    2  502  501  0.34633002576E+02 -0.30834029617E+02  0.20671902839E+03  0.21185593914E+03  0.00000000000E+00 0.  1.
<mgrwt>
<rscale>  1 0.13331899E+03</rscale>
<asrwt>0</asrwt>
<pdfrwt beam="2">  1        4 0.96189812E-02 0.13331899E+03</pdfrwt>
<pdfrwt beam="1">  1       -4 0.43600200E-01 0.13331899E+03</pdfrwt>
<totfact> 0.68481246E+02</totfact>
</mgrwt>
</event>
<event>
 6    4  0.2220150E-003  0.1266214E+03  0.7818608E-02  0.1232557E+00
         -4   -1    0    0    0  501 -0.00000000000E+00  0.00000000000E+00  0.16191030165E+03  0.16191528242E+03  0.12700000000E+01 0.  1.
          4   -1    0    0  502    0  0.00000000000E+00 -0.00000000000E+00 -0.53586364757E+02  0.53601412181E+02  0.12700000000E+01 0.  1.
         25    2    1    2    0    0  0.51128411306E+01  0.19536120183E+02  0.24085766547E+02  0.12889181088E+03  0.12500069450E+03 0.  0.
    9000005    1    3    3    0    0  0.18010465291E+02 -0.50278395009E+02  0.22250488068E+02  0.57865171597E+02  0.10000000000E+01 0.  0.
    9000005    1    3    3    0    0 -0.12897624160E+02  0.69814515192E+02  0.18352784787E+01  0.71026639281E+02  0.10000000000E+01 0.  0.
         21    1    1    2  502  501 -0.51128411306E+01 -0.19536120183E+02  0.84238170345E+02  0.86624883719E+02  0.00000000000E+00 0.  1.
<mgrwt>
<rscale>  1 0.12662138E+03</rscale>
<asrwt>0</asrwt>
<pdfrwt beam="2">  1        4 0.82455971E-02 0.12662138E+03</pdfrwt>
<pdfrwt beam="1">  1       -4 0.24910817E-01 0.12662138E+03</pdfrwt>
<totfact> 0.25557541E+03</totfact>
</mgrwt>
</event>
<event>
 6    4  0.2220150E-003  0.1266693E+03  0.7818608E-02  0.1232483E+00
          4   -1    0    0  502    0  0.00000000000E+00  0.00000000000E+00  0.63871581635E+02  0.63884206503E+02  0.12700000000E+01 0. -1.
         -4   -1    0    0    0  501 -0.00000000000E+00 -0.00000000000E+00 -0.11705093540E+03  0.11705782494E+03  0.12700000000E+01 0. -1.
         25    2    1    2    0    0  0.80255976887E+01 -0.18811278360E+02 -0.29444823252E+01  0.12670351449E+03  0.12500734457E+03 0.  0.
    9000005    1    3    3    0    0  0.66476550929E+02 -0.61317213271E+01  0.75440475922E+00  0.66770494654E+02  0.10000000000E+01 0.  0.
    9000005    1    3    3    0    0 -0.58450953240E+02 -0.12679557032E+02 -0.36988870844E+01  0.59933019838E+02  0.10000000000E+01 0.  0.
         21    1    1    2  502  501 -0.80255976887E+01  0.18811278360E+02 -0.50234871445E+02  0.54238516949E+02  0.00000000000E+00 0. -1.
<mgrwt>
<rscale>  1 0.12666930E+03</rscale>
<asrwt>0</asrwt>
<pdfrwt beam="1">  1        4 0.98278983E-02 0.12666930E+03</pdfrwt>
<pdfrwt beam="2">  1       -4 0.18009337E-01 0.12666930E+03</pdfrwt>
<totfact> 0.34285638E+03</totfact>
</mgrwt>
</event>
<event>
 6    4  0.2220150E-003  0.1282371E+03  0.7818608E-02  0.1230095E+00
          4   -1    0    0  502    0  0.00000000000E+00  0.00000000000E+00  0.70626681377E+02  0.70638098943E+02  0.12700000000E+01 0.  1.
         -4   -1    0    0    0  501 -0.00000000000E+00 -0.00000000000E+00 -0.90495319322E+02  0.90504230393E+02  0.12700000000E+01 0.  1.
         25    2    1    2    0    0 -0.26619502179E+02 -0.10545731820E+02 -0.37655722904E+01  0.12829238140E+03  0.12499978094E+03 0.  0.
    9000005    1    3    3    0    0 -0.31610898992E+01 -0.59634482013E+02  0.27260445957E+02  0.65653604989E+02  0.10000000000E+01 0.  0.
    9000005    1    3    3    0    0 -0.23458412280E+02  0.49088750193E+02 -0.31026018247E+02  0.62638776413E+02  0.10000000000E+01 0.  0.
         21    1    1    2  502  501  0.26619502179E+02  0.10545731820E+02 -0.16103065654E+02  0.32849947935E+02  0.00000000000E+00 0. -1.
<mgrwt>
<rscale>  1 0.12823711E+03</rscale>
<asrwt>0</asrwt>
<pdfrwt beam="1">  1        4 0.10867207E-01 0.12823711E+03</pdfrwt>
<pdfrwt beam="2">  1       -4 0.13923921E-01 0.12823711E+03</pdfrwt>
<totfact> 0.45569149E+03</totfact>
</mgrwt>
</event>
<event>
 6    4  0.2220150E-003  0.1268850E+03  0.7818608E-02  0.1232152E+00
          4   -1    0    0  502    0  0.00000000000E+00  0.00000000000E+00  0.30582915838E+03  0.30583179530E+03  0.12700000000E+01 0.  1.
         -4   -1    0    0    0  501 -0.00000000000E+00 -0.00000000000E+00 -0.19539787007E+02  0.19581015711E+02  0.12700000000E+01 0.  1.
         25    2    1    2    0    0 -0.21043810400E+02 -0.54746997145E+01  0.26971993980E+03  0.29807491870E+03  0.12500798751E+03 0.  0.
    9000005    1    3    3    0    0 -0.25877383707E+02  0.55050330000E+02  0.92263244821E+02  0.11051553812E+03  0.10000000000E+01 0.  0.
    9000005    1    3    3    0    0  0.48335733065E+01 -0.60525029714E+02  0.17745669498E+03  0.18755938059E+03  0.10000000000E+01 0.  0.
         21    1    1    2  502  501  0.21043810400E+02  0.54746997145E+01  0.16569431575E+02  0.27337892308E+02  0.00000000000E+00 0. -1.
<mgrwt>
<rscale>  1 0.12688503E+03</rscale>
<asrwt>0</asrwt>
<pdfrwt beam="1">  1        4 0.47054011E-01 0.12688503E+03</pdfrwt>
<pdfrwt beam="2">  1       -4 0.30094956E-02 0.12688503E+03</pdfrwt>
<totfact> 0.38005444E+03</totfact>
</mgrwt>
</event>
<event>
 6    4  0.2220150E-003  0.1267622E+03  0.7818608E-02  0.1232341E+00
         -4   -1    0    0    0  501 -0.00000000000E+00  0.00000000000E+00  0.13139550693E+03  0.13140164436E+03  0.12700000000E+01 0.  1.
          4   -1    0    0  502    0  0.00000000000E+00 -0.00000000000E+00 -0.49248968527E+02  0.49265340768E+02  0.12700000000E+01 0.  1.
         25    2    1    2    0    0 -0.13002634127E+02  0.16694684200E+02  0.39025299710E+02  0.13263343226E+03  0.12498348836E+03 0.  0.
    9000005    1    3    3    0    0  0.34781936663E+02  0.36602875837E+02  0.58529354785E+02  0.77306138237E+02  0.10000000000E+01 0.  0.
    9000005    1    3    3    0    0 -0.47784570790E+02 -0.19908191637E+02 -0.19504055075E+02  0.55327294025E+02  0.10000000000E+01 0.  0.
         21    1    1    2  502  501  0.13002634127E+02 -0.16694684200E+02  0.43121238688E+02  0.48033552864E+02  0.00000000000E+00 0. -1.
<mgrwt>
<rscale>  1 0.12676219E+03</rscale>
<asrwt>0</asrwt>
<pdfrwt beam="2">  1        4 0.75784958E-02 0.12676219E+03</pdfrwt>
<pdfrwt beam="1">  1       -4 0.20216425E-01 0.12676219E+03</pdfrwt>
<totfact> 0.42978783E+03</totfact>
</mgrwt>
</event>
<event>
 6    4  0.2220150E-003  0.1292179E+03  0.7818608E-02  0.1228621E+00
         -4   -1    0    0    0  501 -0.00000000000E+00  0.00000000000E+00  0.24964041672E+03  0.24964364714E+03  0.12700000000E+01 0.  1.
          4   -1    0    0  502    0  0.00000000000E+00 -0.00000000000E+00 -0.26338277664E+02  0.26368878821E+02  0.12700000000E+01 0.  1.
         25    2    1    2    0    0 -0.62729684313E+01 -0.32230643404E+02  0.17270886948E+03  0.21569798847E+03  0.12497641427E+03 0.  0.
    9000005    1    3    3    0    0 -0.36025928648E+02 -0.17899316709E+02  0.17777477619E+03  0.18227211559E+03  0.10000000000E+01 0.  0.
    9000005    1    3    3    0    0  0.29752960217E+02 -0.14331326696E+02 -0.50659067117E+01  0.33425872873E+02  0.10000000000E+01 0.  0.
         21    1    1    2  502  501  0.62729684313E+01  0.32230643404E+02  0.50593269576E+02  0.60314537498E+02  0.00000000000E+00 0.  1.
<mgrwt>
<rscale>  1 0.12921791E+03</rscale>
<asrwt>0</asrwt>
<pdfrwt beam="2">  1        4 0.40546450E-02 0.12921791E+03</pdfrwt>
<pdfrwt beam="1">  1       -4 0.38408822E-01 0.12921791E+03</pdfrwt>
<totfact> 0.35700321E+03</totfact>
</mgrwt>
</event>
<event>
 6    4  0.2220150E-003  0.1272666E+03  0.7818608E-02  0.1231569E+00
         -4   -1    0    0    0  501 -0.00000000000E+00  0.00000000000E+00  0.37412902212E+03  0.37413117766E+03  0.12700000000E+01 0. -1.
          4   -1    0    0  502    0  0.00000000000E+00 -0.00000000000E+00 -0.62210423167E+02  0.62223385078E+02  0.12700000000E+01 0. -1.
         25    2    1    2    0    0 -0.74798542950E+01 -0.22666815696E+02  0.38108902853E+01  0.12732366962E+03  0.12500824456E+03 0.  0.
    9000005    1    3    3    0    0  0.57515783610E+02 -0.31939866732E+01  0.12377564442E+02  0.58927676152E+02  0.10000000000E+01 0.  0.
    9000005    1    3    3    0    0 -0.64995637905E+02 -0.19472829023E+02 -0.85666741566E+01  0.68395993472E+02  0.10000000000E+01 0.  0.
         21    1    1    2  502  501  0.74798542950E+01  0.22666815696E+02  0.30810770867E+03  0.30903089311E+03  0.00000000000E+00 0. -1.
<mgrwt>
<rscale>  1 0.12726663E+03</rscale>
<asrwt>0</asrwt>
<pdfrwt beam="2">  1        4 0.95719970E-02 0.12726663E+03</pdfrwt>
<pdfrwt beam="1">  1       -4 0.57559475E-01 0.12726663E+03</pdfrwt>
<totfact> 0.38852395E+02</totfact>
</mgrwt>
</event>
<event>
 6    4  0.2220150E-003  0.1276458E+03  0.7818608E-02  0.1230991E+00
         -4   -1    0    0    0  501 -0.00000000000E+00  0.00000000000E+00  0.93716906441E+02  0.93725511217E+02  0.12700000000E+01 0.  1.
          4   -1    0    0  502    0  0.00000000000E+00 -0.00000000000E+00 -0.66140839402E+02  0.66153031198E+02  0.12700000000E+01 0.  1.
         25    2    1    2    0    0 -0.87367475950E+01  0.24320973843E+02  0.88263219631E+01  0.12795060061E+03  0.12500244682E+03 0.  0.
    9000005    1    3    3    0    0 -0.46395394552E+02 -0.15413150701E+02 -0.33048635332E+02  0.59019574274E+02  0.10000000000E+01 0.  0.
    9000005    1    3    3    0    0  0.37658646957E+02  0.39734124544E+02  0.41874957295E+02  0.68931026341E+02  0.10000000000E+01 0.  0.
         21    1    1    2  502  501  0.87367475950E+01 -0.24320973843E+02  0.18749745077E+02  0.31927941801E+02  0.00000000000E+00 0.  1.
<mgrwt>
<rscale>  1 0.12764581E+03</rscale>
<asrwt>0</asrwt>
<pdfrwt beam="2">  1        4 0.10177114E-01 0.12764581E+03</pdfrwt>
<pdfrwt beam="1">  1       -4 0.14419585E-01 0.12764581E+03</pdfrwt>
<totfact> 0.47858781E+03</totfact>
</mgrwt>
</event>
<event>
 6    4  0.2220150E-003  0.1273349E+03  0.7818608E-02  0.1231465E+00
         -4   -1    0    0    0  501 -0.00000000000E+00  0.00000000000E+00  0.32214012952E+02  0.32239037369E+02  0.12700000000E+01 0. -1.
          4   -1    0    0  502    0  0.00000000000E+00 -0.00000000000E+00 -0.30129930765E+03  0.30130198421E+03  0.12700000000E+01 0. -1.
         25    2    1    2    0    0 -0.85638171745E+01  0.22729598304E+02 -0.27947997552E+03  0.30712089681E+03  0.12499685970E+03 0.  0.
    9000005    1    3    3    0    0 -0.27411544706E+02 -0.44248026816E+02 -0.16631879455E+03  0.17427628089E+03  0.10000000000E+01 0.  0.
    9000005    1    3    3    0    0  0.18847727532E+02  0.66977625120E+02 -0.11316118097E+03  0.13284461592E+03  0.10000000000E+01 0.  0.
         21    1    1    2  502  501  0.85638171745E+01 -0.22729598304E+02  0.10394680823E+02  0.26420124774E+02  0.00000000000E+00 0. -1.
<mgrwt>
<rscale>  1 0.12733495E+03</rscale>
<asrwt>0</asrwt>
<pdfrwt beam="2">  1        4 0.46355869E-01 0.12733495E+03</pdfrwt>
<pdfrwt beam="1">  1       -4 0.49581330E-02 0.12733495E+03</pdfrwt>
<totfact> 0.17777575E+03</totfact>
</mgrwt>
</event>
<event>
 6    4  0.2220150E-003  0.1269201E+03  0.7818608E-02  0.1232099E+00
         -4   -1    0    0    0  501 -0.00000000000E+00  0.00000000000E+00  0.10390215460E+03  0.10390991594E+03  0.12700000000E+01 0. -1.
          4   -1    0    0  502    0  0.00000000000E+00 -0.00000000000E+00 -0.53883755397E+02  0.53898719796E+02  0.12700000000E+01 0. -1.
         25    2    1    2    0    0  0.15967477203E+02  0.15093741196E+02  0.36719085667E+02  0.13212492315E+03  0.12500369080E+03 0.  0.
    9000005    1    3    3    0    0 -0.16739507414E+02  0.52330855669E+02  0.56441309474E+02  0.78774050160E+02  0.10000000000E+01 0.  0.
    9000005    1    3    3    0    0  0.32706984616E+02 -0.37237114473E+02 -0.19722223807E+02  0.53350872991E+02  0.10000000000E+01 0.  0.
         21    1    1    2  502  501 -0.15967477203E+02 -0.15093741196E+02  0.13299313533E+02  0.25683712581E+02  0.00000000000E+00 0. -1.
<mgrwt>
<rscale>  1 0.12692007E+03</rscale>
<asrwt>0</asrwt>
<pdfrwt beam="2">  1        4 0.82915567E-02 0.12692007E+03</pdfrwt>
<pdfrwt beam="1">  1       -4 0.15986695E-01 0.12692007E+03</pdfrwt>
<totfact> 0.56217225E+03</totfact>
</mgrwt>
</event>
<event>
 6    4  0.2220150E-003  0.1281987E+03  0.7818608E-02  0.1230153E+00
         -4   -1    0    0    0  501 -0.00000000000E+00  0.00000000000E+00  0.97475299345E+02  0.97483572372E+02  0.12700000000E+01 0.  1.
          4   -1    0    0  502    0  0.00000000000E+00 -0.00000000000E+00 -0.66673548229E+02  0.66685642634E+02  0.12700000000E+01 0.  1.
         25    2    1    2    0    0  0.23123981993E+02  0.16620092109E+02  0.93931563635E+01  0.12854234405E+03  0.12499582722E+03 0.  0.
    9000005    1    3    3    0    0 -0.27820809720E+02  0.45409622945E+02 -0.26906272536E+02  0.59673937454E+02  0.10000000000E+01 0.  0.
    9000005    1    3    3    0    0  0.50944791713E+02 -0.28789530836E+02  0.36299428900E+02  0.68868406595E+02  0.10000000000E+01 0.  0.
         21    1    1    2  502  501 -0.23123981993E+02 -0.16620092109E+02  0.21408594752E+02  0.35626870957E+02  0.00000000000E+00 0.  1.
<mgrwt>
<rscale>  1 0.12819868E+03</rscale>
<asrwt>0</asrwt>
<pdfrwt beam="2">  1        4 0.10259036E-01 0.12819868E+03</pdfrwt>
<pdfrwt beam="1">  1       -4 0.14997767E-01 0.12819868E+03</pdfrwt>
<totfact> 0.44141186E+03</totfact>
</mgrwt>
</event>
<event>
 6    4  0.2220150E-003  0.1276201E+03  0.7818608E-02  0.1231030E+00
          4   -1    0    0  502    0  0.00000000000E+00  0.00000000000E+00  0.15970080348E+03  0.15970585316E+03  0.12700000000E+01 0. -1.
         -4   -1    0    0    0  501 -0.00000000000E+00 -0.00000000000E+00 -0.40627781101E+02  0.40647625972E+02  0.12700000000E+01 0. -1.
         25    2    1    2    0    0  0.19532205438E+02 -0.16739821592E+02  0.11919913719E+03  0.17462908251E+03  0.12500061390E+03 0.  0.
    9000005    1    3    3    0    0  0.28778530258E+02 -0.67803338162E+02  0.84964350694E+02  0.11245193355E+03  0.10000000000E+01 0.  0.
    9000005    1    3    3    0    0 -0.92463248205E+01  0.51063516569E+02  0.34234786499E+02  0.62177148967E+02  0.10000000000E+01 0.  0.
         21    1    1    2  502  501 -0.19532205438E+02  0.16739821592E+02 -0.12611481235E+00  0.25724396614E+02  0.00000000000E+00 0. -1.
<mgrwt>
<rscale>  1 0.12762007E+03</rscale>
<asrwt>0</asrwt>
<pdfrwt beam="1">  1        4 0.24571269E-01 0.12762007E+03</pdfrwt>
<pdfrwt beam="2">  1       -4 0.62523429E-02 0.12762007E+03</pdfrwt>
<totfact> 0.41370295E+03</totfact>
</mgrwt>
</event>
<event>
 6    4  0.2220150E-003  0.1275634E+03  0.7818608E-02  0.1231117E+00
          4   -1    0    0  502    0  0.00000000000E+00  0.00000000000E+00  0.13714788185E+03  0.13715376187E+03  0.12700000000E+01 0.  1.
         -4   -1    0    0    0  501 -0.00000000000E+00 -0.00000000000E+00 -0.72041537038E+02  0.72052730405E+02  0.12700000000E+01 0.  1.
         25    2    1    2    0    0  0.14102739854E+02 -0.21165712156E+02  0.10273453520E+03  0.16378892569E+03  0.12500221124E+03 0.  0.
    9000005    1    3    3    0    0  0.66097432245E+01 -0.72711854444E+02  0.75378872402E+02  0.10494606656E+03  0.10000000000E+01 0.  0.
    9000005    1    3    3    0    0  0.74929966291E+01  0.51546142289E+02  0.27355662800E+02  0.58842859130E+02  0.10000000000E+01 0.  0.
         21    1    1    2  502  501 -0.14102739854E+02  0.21165712156E+02 -0.37628190391E+02  0.45417566586E+02  0.00000000000E+00 0.  1.
<mgrwt>
<rscale>  1 0.12756343E+03</rscale>
<asrwt>0</asrwt>
<pdfrwt beam="1">  1        4 0.21100987E-01 0.12756343E+03</pdfrwt>
<pdfrwt beam="2">  1       -4 0.11084627E-01 0.12756343E+03</pdfrwt>
<totfact> 0.21102997E+03</totfact>
</mgrwt>
</event>
<event>
 6    4  0.2220150E-003  0.1274243E+03  0.7818608E-02  0.1231328E+00
          4   -1    0    0  502    0  0.00000000000E+00  0.00000000000E+00  0.14944747276E+03  0.14945286887E+03  0.12700000000E+01 0.  1.
         -4   -1    0    0    0  501 -0.00000000000E+00 -0.00000000000E+00 -0.46303712561E+02  0.46321125817E+02  0.12700000000E+01 0.  1.
         25    2    1    2    0    0  0.14143309065E+02  0.20288055459E+02  0.11185447850E+03  0.16955348747E+03  0.12500128946E+03 0.  0.
    9000005    1    3    3    0    0 -0.33659712100E+02 -0.38776748003E+02  0.42274339389E+02  0.66518660353E+02  0.10000000000E+01 0.  0.
    9000005    1    3    3    0    0  0.47803021165E+02  0.59064803463E+02  0.69580139110E+02  0.10303482712E+03  0.10000000000E+01 0.  0.
         21    1    1    2  502  501 -0.14143309065E+02 -0.20288055459E+02 -0.87107182987E+01  0.26220507221E+02  0.00000000000E+00 0.  1.
<mgrwt>
<rscale>  1 0.12742433E+03</rscale>
<asrwt>0</asrwt>
<pdfrwt beam="1">  1        4 0.22993674E-01 0.12742433E+03</pdfrwt>
<pdfrwt beam="2">  1       -4 0.71254026E-02 0.12742433E+03</pdfrwt>
<totfact> 0.37719033E+03</totfact>
</mgrwt>
</event>
<event>
 6    4  0.2220150E-003  0.1381295E+03  0.7818608E-02  0.1215868E+00
         -4   -1    0    0    0  501 -0.00000000000E+00  0.00000000000E+00  0.37902452841E+02  0.37923723859E+02  0.12700000000E+01 0.  1.
          4   -1    0    0  502    0  0.00000000000E+00 -0.00000000000E+00 -0.90951017053E+03  0.90951105721E+03  0.12700000000E+01 0.  1.
         25    2    1    2    0    0  0.81170039582E+01 -0.58225144417E+02 -0.87754310814E+03  0.88834770926E+03  0.12499477068E+03 0.  0.
    9000005    1    3    3    0    0 -0.57475660403E+01  0.29758005059E+02 -0.75330799016E+02  0.81205311777E+02  0.10000000000E+01 0.  0.
    9000005    1    3    3    0    0  0.13864569999E+02 -0.87983149476E+02 -0.80221230913E+03  0.80714239748E+03  0.10000000000E+01 0.  0.
         21    1    1    2  502  501 -0.81170039582E+01  0.58225144417E+02  0.59353904580E+01  0.59087071814E+02  0.00000000000E+00 0.  1.
<mgrwt>
<rscale>  1 0.13812945E+03</rscale>
<asrwt>0</asrwt>
<pdfrwt beam="2">  1        4 0.13992633E+00 0.13812945E+03</pdfrwt>
<pdfrwt beam="1">  1       -4 0.58328518E-02 0.13812945E+03</pdfrwt>
<totfact> 0.11890372E+02</totfact>
</mgrwt>
</event>
<event>
 6    4  0.2220150E-003  0.1302446E+03  0.7818608E-02  0.1227093E+00
         -4   -1    0    0    0  501 -0.00000000000E+00  0.00000000000E+00  0.24787966943E+03  0.24788292280E+03  0.12700000000E+01 0. -1.
          4   -1    0    0  502    0  0.00000000000E+00 -0.00000000000E+00 -0.91694642749E+02  0.91703437280E+02  0.12700000000E+01 0. -1.
         25    2    1    2    0    0 -0.24844252834E+02  0.26858389931E+02 -0.42930395658E+02  0.13713744944E+03  0.12500020463E+03 0.  0.
    9000005    1    3    3    0    0  0.22017849470E+02 -0.27500025216E+02  0.20994011958E+02  0.41021770077E+02  0.10000000000E+01 0.  0.
    9000005    1    3    3    0    0 -0.46862102304E+02  0.54358415147E+02 -0.63924407615E+02  0.96115679359E+02  0.10000000000E+01 0.  0.
         21    1    1    2  502  501  0.24844252834E+02 -0.26858389931E+02  0.19911542234E+03  0.20244891064E+03  0.00000000000E+00 0. -1.
<mgrwt>
<rscale>  1 0.13024462E+03</rscale>
<asrwt>0</asrwt>
<pdfrwt beam="2">  1        4 0.14107795E-01 0.13024462E+03</pdfrwt>
<pdfrwt beam="1">  1       -4 0.38136260E-01 0.13024462E+03</pdfrwt>
<totfact> 0.46186131E+02</totfact>
</mgrwt>
</event>
<event>
 6    4  0.2220150E-003  0.1293639E+03  0.7818608E-02  0.1228403E+00
         -4   -1    0    0    0  501 -0.00000000000E+00  0.00000000000E+00  0.34022134002E+02  0.34045829437E+02  0.12700000000E+01 0. -1.
          4   -1    0    0  502    0  0.00000000000E+00 -0.00000000000E+00 -0.22797190421E+03  0.22797544168E+03  0.12700000000E+01 0. -1.
         25    2    1    2    0    0 -0.13488138820E+02  0.30458838602E+02 -0.18795995911E+03  0.22817531752E+03  0.12500143423E+03 0.  0.
    9000005    1    3    3    0    0  0.27922807745E+02  0.51753566339E+02 -0.16708689788E+03  0.17713595418E+03  0.10000000000E+01 0.  0.
    9000005    1    3    3    0    0 -0.41410946565E+02 -0.21294727737E+02 -0.20873061231E+02  0.51039363338E+02  0.10000000000E+01 0.  0.
         21    1    1    2  502  501  0.13488138820E+02 -0.30458838602E+02 -0.59898110969E+01  0.33845953596E+02  0.00000000000E+00 0. -1.
<mgrwt>
<rscale>  1 0.12936394E+03</rscale>
<asrwt>0</asrwt>
<pdfrwt beam="2">  1        4 0.35074695E-01 0.12936394E+03</pdfrwt>
<pdfrwt beam="1">  1       -4 0.52362694E-02 0.12936394E+03</pdfrwt>
<totfact> 0.28298157E+03</totfact>
</mgrwt>
</event>
<event>
 6    4  0.2220150E-003  0.1555599E+03  0.7818608E-02  0.1193803E+00
          4   -1    0    0  502    0  0.00000000000E+00  0.00000000000E+00  0.87201279506E+02  0.87210527159E+02  0.12700000000E+01 0.  1.
         -4   -1    0    0    0  501 -0.00000000000E+00 -0.00000000000E+00 -0.28133221063E+03  0.28133507716E+03  0.12700000000E+01 0.  1.
         25    2    1    2    0    0  0.90610349060E+02 -0.19109601686E+02 -0.23499752685E+01  0.15557765541E+03  0.12499388883E+03 0.  0.
    9000005    1    3    3    0    0  0.34556108152E+02  0.51083866652E+02  0.16361746719E+02  0.63815302228E+02  0.10000000000E+01 0.  0.
    9000005    1    3    3    0    0  0.56054240908E+02 -0.70193468338E+02 -0.18711721988E+02  0.91762353179E+02  0.10000000000E+01 0.  0.
         21    1    1    2  502  501 -0.90610349060E+02  0.19109601686E+02 -0.19178095586E+03  0.21296794891E+03  0.00000000000E+00 0.  1.
<mgrwt>
<rscale>  1 0.15555991E+03</rscale>
<asrwt>0</asrwt>
<pdfrwt beam="1">  1        4 0.13416513E-01 0.15555991E+03</pdfrwt>
<pdfrwt beam="2">  1       -4 0.43282810E-01 0.15555991E+03</pdfrwt>
<totfact> 0.40577380E+02</totfact>
</mgrwt>
</event>
<event>
 6    4  0.2220150E-003  0.1266933E+03  0.7818608E-02  0.1232446E+00
         -4   -1    0    0    0  501 -0.00000000000E+00  0.00000000000E+00  0.94028691260E+02  0.94037267506E+02  0.12700000000E+01 0. -1.
          4   -1    0    0  502    0  0.00000000000E+00 -0.00000000000E+00 -0.22875101596E+03  0.22875454138E+03  0.12700000000E+01 0. -1.
         25    2    1    2    0    0  0.11249706075E+02 -0.17312719830E+02 -0.20971248866E+03  0.24501127890E+03  0.12499965093E+03 0.  0.
    9000005    1    3    3    0    0 -0.15464087939E+02  0.25599777052E+02 -0.18735623512E+03  0.18973098176E+03  0.10000000000E+01 0.  0.
    9000005    1    3    3    0    0  0.26713794014E+02 -0.42912496882E+02 -0.22356253539E+02  0.55280297138E+02  0.10000000000E+01 0.  0.
         21    1    1    2  502  501 -0.11249706075E+02  0.17312719830E+02  0.74990163961E+02  0.77780529990E+02  0.00000000000E+00 0. -1.
<mgrwt>
<rscale>  1 0.12669333E+03</rscale>
<asrwt>0</asrwt>
<pdfrwt beam="2">  1        4 0.35193395E-01 0.12669333E+03</pdfrwt>
<pdfrwt beam="1">  1       -4 0.14466884E-01 0.12669333E+03</pdfrwt>
<totfact> 0.51381330E+02</totfact>
</mgrwt>
</event>
<event>
 6    4  0.2220150E-003  0.1276659E+03  0.7818608E-02  0.1230961E+00
          4   -1    0    0  502    0  0.00000000000E+00  0.00000000000E+00  0.97543667240E+02  0.97551934469E+02  0.12700000000E+01 0.  1.
         -4   -1    0    0    0  501 -0.00000000000E+00 -0.00000000000E+00 -0.61120009552E+02  0.61133202661E+02  0.12700000000E+01 0.  1.
         25    2    1    2    0    0 -0.23361326850E+02 -0.11319601620E+02  0.36297204099E+02  0.13272553460E+03  0.12499878214E+03 0.  0.
    9000005    1    3    3    0    0  0.24984912013E+02 -0.52520619167E+02  0.37457815101E+02  0.69186336643E+02  0.10000000000E+01 0.  0.
    9000005    1    3    3    0    0 -0.48346238863E+02  0.41201017547E+02 -0.11606110020E+01  0.63539197957E+02  0.10000000000E+01 0.  0.
         21    1    1    2  502  501  0.23361326850E+02  0.11319601620E+02  0.12645358908E+00  0.25959602530E+02  0.00000000000E+00 0.  1.
<mgrwt>
<rscale>  1 0.12766589E+03</rscale>
<asrwt>0</asrwt>
<pdfrwt beam="1">  1        4 0.15008369E-01 0.12766589E+03</pdfrwt>
<pdfrwt beam="2">  1       -4 0.94047292E-02 0.12766589E+03</pdfrwt>
<totfact> 0.50969544E+03</totfact>
</mgrwt>
</event>
<event>
 6    4  0.2220150E-003  0.1275853E+03  0.7818608E-02  0.1231083E+00
          4   -1    0    0  502    0  0.00000000000E+00  0.00000000000E+00  0.25760274709E+02  0.25791561664E+02  0.12700000000E+01 0.  1.
         -4   -1    0    0    0  501 -0.00000000000E+00 -0.00000000000E+00 -0.29305702573E+03  0.29305977757E+03  0.12700000000E+01 0.  1.
         25    2    1    2    0    0  0.39285479816E+01  0.25241994645E+02 -0.14166585529E+03  0.19064949157E+03  0.12500168918E+03 0.  0.
    9000005    1    3    3    0    0 -0.34250058978E+02 -0.39366890217E+02 -0.65039861538E+02  0.83390659994E+02  0.10000000000E+01 0.  0.
    9000005    1    3    3    0    0  0.38178606959E+02  0.64608884862E+02 -0.76625993753E+02  0.10725883158E+03  0.10000000000E+01 0.  0.
         21    1    1    2  502  501 -0.39285479816E+01 -0.25241994645E+02 -0.12563089573E+03  0.12820184767E+03  0.00000000000E+00 0. -1.
<mgrwt>
<rscale>  1 0.12758532E+03</rscale>
<asrwt>0</asrwt>
<pdfrwt beam="1">  1        4 0.39657378E-02 0.12758532E+03</pdfrwt>
<pdfrwt beam="2">  1       -4 0.45088312E-01 0.12758532E+03</pdfrwt>
<totfact> 0.26848996E+03</totfact>
</mgrwt>
</event>
<event>
 6    4  0.2220150E-003  0.1300584E+03  0.7818608E-02  0.1227369E+00
          4   -1    0    0  502    0  0.00000000000E+00  0.00000000000E+00  0.25682171006E+03  0.25682485015E+03  0.12700000000E+01 0.  1.
         -4   -1    0    0    0  501 -0.00000000000E+00 -0.00000000000E+00 -0.28786832492E+02  0.28814833418E+02  0.12700000000E+01 0.  1.
         25    2    1    2    0    0 -0.26834511243E+02  0.23876326958E+02  0.20562272133E+03  0.24330205575E+03  0.12500006728E+03 0.  0.
    9000005    1    3    3    0    0 -0.38096000092E+02 -0.33909078101E+02  0.16250114493E+03  0.17031956113E+03  0.10000000000E+01 0.  0.
    9000005    1    3    3    0    0  0.11261488848E+02  0.57785405060E+02  0.43121576400E+02  0.72982494615E+02  0.10000000000E+01 0.  0.
         21    1    1    2  502  501  0.26834511243E+02 -0.23876326958E+02  0.22412156235E+02  0.42337627824E+02  0.00000000000E+00 0.  1.
<mgrwt>
<rscale>  1 0.13005840E+03</rscale>
<asrwt>0</asrwt>
<pdfrwt beam="1">  1        4 0.39513428E-01 0.13005840E+03</pdfrwt>
<pdfrwt beam="2">  1       -4 0.44311389E-02 0.13005840E+03</pdfrwt>
<totfact> 0.29367460E+03</totfact>
</mgrwt>
</event>
<event>
 6    4  0.2220150E-003  0.1269788E+03  0.7818608E-02  0.1232009E+00
          4   -1    0    0  502    0  0.00000000000E+00  0.00000000000E+00  0.33288161630E+03  0.33288403892E+03  0.12700000000E+01 0. -1.
         -4   -1    0    0    0  501 -0.00000000000E+00 -0.00000000000E+00 -0.28640327992E+02  0.28668472012E+02  0.12700000000E+01 0. -1.
         25    2    1    2    0    0 -0.14608046451E+02 -0.16878359161E+02  0.31284297650E+03  0.33763049035E+03  0.12500138415E+03 0.  0.
    9000005    1    3    3    0    0 -0.21717399531E+02  0.14702322181E+02  0.33619833463E+01  0.26459528566E+02  0.10000000000E+01 0.  0.
    9000005    1    3    3    0    0  0.71093530796E+01 -0.31580681341E+02  0.30948099315E+03  0.31117096179E+03  0.10000000000E+01 0.  0.
         21    1    1    2  502  501  0.14608046451E+02  0.16878359161E+02 -0.86016881925E+01  0.23922020584E+02  0.00000000000E+00 0. -1.
<mgrwt>
<rscale>  1 0.12697882E+03</rscale>
<asrwt>0</asrwt>
<pdfrwt beam="1">  1        4 0.51214909E-01 0.12697882E+03</pdfrwt>
<pdfrwt beam="2">  1       -4 0.44085554E-02 0.12697882E+03</pdfrwt>
<totfact> 0.17518732E+03</totfact>
</mgrwt>
</event>
<event>
 6    4  0.2220150E-003  0.1273168E+03  0.7818608E-02  0.1231492E+00
         -4   -1    0    0    0  501 -0.00000000000E+00  0.00000000000E+00  0.73390584741E+01  0.74481326040E+01  0.12700000000E+01 0. -1.
          4   -1    0    0  502    0  0.00000000000E+00 -0.00000000000E+00 -0.91864531749E+03  0.91864619536E+03  0.12700000000E+01 0. -1.
         25    2    1    2    0    0  0.13173377232E+02  0.20233971693E+02 -0.86020962733E+03  0.86958046021E+03  0.12500648926E+03 0.  0.
    9000005    1    3    3    0    0  0.62121313183E+02  0.18239015873E+02 -0.28385019485E+03  0.29114197974E+03  0.10000000000E+01 0.  0.
    9000005    1    3    3    0    0 -0.48947935951E+02  0.19949558198E+01 -0.57635943248E+03  0.57843848047E+03  0.10000000000E+01 0.  0.
         21    1    1    2  502  501 -0.13173377232E+02 -0.20233971693E+02 -0.51096631686E+02  0.56513867748E+02  0.00000000000E+00 0. -1.
<mgrwt>
<rscale>  1 0.12731682E+03</rscale>
<asrwt>0</asrwt>
<pdfrwt beam="2">  1        4 0.14133842E+00 0.12731682E+03</pdfrwt>
<pdfrwt beam="1">  1       -4 0.11375445E-02 0.12731682E+03</pdfrwt>
<totfact> 0.14601142E+03</totfact>
</mgrwt>
</event>
<event>
 6    4  0.2220150E-003  0.1315078E+03  0.7818608E-02  0.1225235E+00
         -4   -1    0    0    0  501 -0.00000000000E+00  0.00000000000E+00  0.72813420268E+02  0.72824494994E+02  0.12700000000E+01 0.  1.
          4   -1    0    0  502    0  0.00000000000E+00 -0.00000000000E+00 -0.10202370482E+03  0.10203160905E+03  0.12700000000E+01 0.  1.
         25    2    1    2    0    0  0.20658909341E+01 -0.40792348079E+02 -0.24012742539E+02  0.13368210727E+03  0.12500404167E+03 0.  0.
    9000005    1    3    3    0    0  0.17306833334E+02  0.38827206581E+02 -0.30534090652E+02  0.52348917304E+02  0.10000000000E+01 0.  0.
    9000005    1    3    3    0    0 -0.15240942400E+02 -0.79619554661E+02  0.65213481128E+01  0.81333189970E+02  0.10000000000E+01 0.  0.
         21    1    1    2  502  501 -0.20658909341E+01  0.40792348079E+02 -0.51975420154E+01  0.41173996772E+02  0.00000000000E+00 0.  1.
<mgrwt>
<rscale>  1 0.13150777E+03</rscale>
<asrwt>0</asrwt>
<pdfrwt beam="2">  1        4 0.15697414E-01 0.13150777E+03</pdfrwt>
<pdfrwt beam="1">  1       -4 0.11203525E-01 0.13150777E+03</pdfrwt>
<totfact> 0.35335343E+03</totfact>
</mgrwt>
</event>
<event>
 6    4  0.2220150E-003  0.1394553E+03  0.7818608E-02  0.1214064E+00
          4   -1    0    0  502    0  0.00000000000E+00  0.00000000000E+00  0.91288378229E+02  0.91297211895E+02  0.12700000000E+01 0. -1.
         -4   -1    0    0    0  501 -0.00000000000E+00 -0.00000000000E+00 -0.13115200039E+03  0.13115814922E+03  0.12700000000E+01 0. -1.
         25    2    1    2    0    0 -0.58548183209E+02 -0.19870668723E+02  0.14393574132E+02  0.14019615748E+03  0.12500021746E+03 0.  0.
    9000005    1    3    3    0    0 -0.43534711737E+02 -0.54078414156E+02 -0.35402844389E+02  0.77936560063E+02  0.10000000000E+01 0.  0.
    9000005    1    3    3    0    0 -0.15013471471E+02  0.34207745432E+02  0.49796418521E+02  0.62259597419E+02  0.10000000000E+01 0.  0.
         21    1    1    2  502  501  0.58548183209E+02  0.19870668723E+02 -0.54257196296E+02  0.82259203633E+02  0.00000000000E+00 0. -1.
<mgrwt>
<rscale>  1 0.13945532E+03</rscale>
<asrwt>0</asrwt>
<pdfrwt beam="1">  1        4 0.14045518E-01 0.13945532E+03</pdfrwt>
<pdfrwt beam="2">  1       -4 0.20178384E-01 0.13945532E+03</pdfrwt>
<totfact> 0.15544954E+03</totfact>
</mgrwt>
</event>
<event>
 6    4  0.2220150E-003  0.1266593E+03  0.7818608E-02  0.1232499E+00
          4   -1    0    0  502    0  0.00000000000E+00  0.00000000000E+00  0.23342123600E+02  0.23376647197E+02  0.12700000000E+01 0.  1.
         -4   -1    0    0    0  501 -0.00000000000E+00 -0.00000000000E+00 -0.23290229713E+03  0.23290575971E+03  0.12700000000E+01 0.  1.
         25    2    1    2    0    0  0.16152567495E+02  0.12543005435E+02 -0.17328837523E+03  0.21464257293E+03  0.12499736278E+03 0.  0.
    9000005    1    3    3    0    0  0.66440706371E+02 -0.71121099950E+01 -0.12703279856E+03  0.14353843207E+03  0.10000000000E+01 0.  0.
    9000005    1    3    3    0    0 -0.50288138876E+02  0.19655115430E+02 -0.46255576669E+02  0.71104140858E+02  0.10000000000E+01 0.  0.
         21    1    1    2  502  501 -0.16152567495E+02 -0.12543005435E+02 -0.36271798293E+02  0.41639833975E+02  0.00000000000E+00 0.  1.
<mgrwt>
<rscale>  1 0.12665928E+03</rscale>
<asrwt>0</asrwt>
<pdfrwt beam="1">  1        4 0.35940181E-02 0.12665928E+03</pdfrwt>
<pdfrwt beam="2">  1       -4 0.35834043E-01 0.12665928E+03</pdfrwt>
<totfact> 0.49200508E+03</totfact>
</mgrwt>
</event>
<event>
 6    4  0.2220150E-003  0.1268732E+03  0.7818608E-02  0.1232171E+00
          4   -1    0    0  502    0  0.00000000000E+00  0.00000000000E+00  0.43721882504E+02  0.43740323612E+02  0.12700000000E+01 0.  1.
         -4   -1    0    0    0  501 -0.00000000000E+00 -0.00000000000E+00 -0.12655067342E+03  0.12655704581E+03  0.12700000000E+01 0.  1.
         25    2    1    2    0    0  0.15420955097E+02  0.15298058571E+02 -0.67501960045E+02  0.14371263326E+03  0.12499987958E+03 0.  0.
    9000005    1    3    3    0    0  0.53413905516E+02  0.48513413668E+02 -0.21189508833E+02  0.75210317728E+02  0.10000000000E+01 0.  0.
    9000005    1    3    3    0    0 -0.37992950418E+02 -0.33215355096E+02 -0.46312451212E+02  0.68502315530E+02  0.10000000000E+01 0.  0.
         21    1    1    2  502  501 -0.15420955097E+02 -0.15298058571E+02 -0.15326830873E+02  0.26584736162E+02  0.00000000000E+00 0.  1.
<mgrwt>
<rscale>  1 0.12687319E+03</rscale>
<asrwt>0</asrwt>
<pdfrwt beam="1">  1        4 0.67283523E-02 0.12687319E+03</pdfrwt>
<pdfrwt beam="2">  1       -4 0.19471243E-01 0.12687319E+03</pdfrwt>
<totfact> 0.55904263E+03</totfact>
</mgrwt>
</event>
<event>
 6    4  0.2220150E-003  0.1443509E+03  0.7818608E-02  0.1207592E+00
          4   -1    0    0  502    0  0.00000000000E+00  0.00000000000E+00  0.72737367012E+02  0.72748453316E+02  0.12700000000E+01 0. -1.
         -4   -1    0    0    0  501 -0.00000000000E+00 -0.00000000000E+00 -0.18687696481E+03  0.18688128017E+03  0.12700000000E+01 0. -1.
         25    2    1    2    0    0  0.69071467106E+02  0.20954780843E+02 -0.27645141546E+02  0.14697423486E+03  0.12500880550E+03 0.  0.
    9000005    1    3    3    0    0  0.68165768319E+02 -0.39887873447E+02  0.25740679868E+01  0.79026832434E+02  0.10000000000E+01 0.  0.
    9000005    1    3    3    0    0  0.90569878781E+00  0.60842654290E+02 -0.30219209533E+02  0.67947402424E+02  0.10000000000E+01 0.  0.
         21    1    1    2  502  501 -0.69071467106E+02 -0.20954780843E+02 -0.86494456256E+02  0.11265549863E+03  0.00000000000E+00 0. -1.
<mgrwt>
<rscale>  1 0.14435086E+03</rscale>
<asrwt>0</asrwt>
<pdfrwt beam="1">  1        4 0.11191549E-01 0.14435086E+03</pdfrwt>
<pdfrwt beam="2">  1       -4 0.28751487E-01 0.14435086E+03</pdfrwt>
<totfact> 0.12059438E+03</totfact>
</mgrwt>
</event>
<event>
 6    4  0.2220150E-003  0.1285785E+03  0.7818608E-02  0.1229580E+00
         -4   -1    0    0    0  501 -0.00000000000E+00  0.00000000000E+00  0.54415901217E+03  0.54416049418E+03  0.12700000000E+01 0.  1.
          4   -1    0    0  502    0  0.00000000000E+00 -0.00000000000E+00 -0.12780268756E+02  0.12843214920E+02  0.12700000000E+01 0.  1.
         25    2    1    2    0    0 -0.12909734413E+02  0.27169363474E+02  0.34436614825E+03  0.36758737848E+03  0.12501040439E+03 0.  0.
    9000005    1    3    3    0    0  0.21604585418E+02  0.40727928706E+02  0.31977112817E+03  0.32307908738E+03  0.10000000000E+01 0.  0.
    9000005    1    3    3    0    0 -0.34514319831E+02 -0.13558565232E+02  0.24595020077E+02  0.44508291105E+02  0.10000000000E+01 0.  0.
         21    1    1    2  502  501  0.12909734413E+02 -0.27169363474E+02  0.18701259517E+03  0.18941633062E+03  0.00000000000E+00 0.  1.
<mgrwt>
<rscale>  1 0.12857852E+03</rscale>
<asrwt>0</asrwt>
<pdfrwt beam="2">  1        4 0.19711511E-02 0.12857852E+03</pdfrwt>
<pdfrwt beam="1">  1       -4 0.83721731E-01 0.12857852E+03</pdfrwt>
<totfact> 0.21712919E+03</totfact>
</mgrwt>
</event>
<event>
 6    4  0.2220150E-003  0.1299753E+03  0.7818608E-02  0.1227492E+00
          4   -1    0    0  502    0  0.00000000000E+00  0.00000000000E+00  0.61784529778E+03  0.61784660304E+03  0.12700000000E+01 0.  1.
         -4   -1    0    0    0  501 -0.00000000000E+00 -0.00000000000E+00 -0.12783214499E+02  0.12846146228E+02  0.12700000000E+01 0.  1.
         25    2    1    2    0    0 -0.34818456764E+02  0.68879539370E+01  0.35346953442E+03  0.37660894521E+03  0.12503526307E+03 0.  0.
    9000005    1    3    3    0    0 -0.57828564263E+02  0.43880636157E+02  0.29431339076E+03  0.30313532465E+03  0.10000000000E+01 0.  0.
    9000005    1    3    3    0    0  0.23010107499E+02 -0.36992682220E+02  0.59156143662E+02  0.73473620558E+02  0.10000000000E+01 0.  0.
         21    1    1    2  502  501  0.34818456764E+02 -0.68879539370E+01  0.25159254886E+03  0.25408380405E+03  0.00000000000E+00 0.  1.
<mgrwt>
<rscale>  1 0.12997533E+03</rscale>
<asrwt>0</asrwt>
<pdfrwt beam="1">  1        4 0.95058064E-01 0.12997533E+03</pdfrwt>
<pdfrwt beam="2">  1       -4 0.19715897E-02 0.12997533E+03</pdfrwt>
<totfact> 0.16344035E+03</totfact>
</mgrwt>
</event>
<event>
 6    4  0.2220150E-003  0.2047283E+03  0.7818608E-02  0.1145810E+00
         -4   -1    0    0    0  501 -0.00000000000E+00  0.00000000000E+00  0.19351170837E+03  0.19351587577E+03  0.12700000000E+01 0. -1.
          4   -1    0    0  502    0  0.00000000000E+00 -0.00000000000E+00 -0.19116789816E+03  0.19117211665E+03  0.12700000000E+01 0. -1.
         25    2    1    2    0    0  0.13833241150E+03 -0.84575617194E+02  0.58794501943E+02  0.21300348033E+03  0.12499919231E+03 0.  0.
    9000005    1    3    3    0    0 -0.90274279225E+00  0.22297929712E+02  0.26280077592E+02  0.34491377070E+02  0.10000000000E+01 0.  0.
    9000005    1    3    3    0    0  0.13923515430E+03 -0.10687354691E+03  0.32514424351E+02  0.17851210326E+03  0.10000000000E+01 0.  0.
         21    1    1    2  502  501 -0.13833241150E+03  0.84575617194E+02 -0.56450691728E+02  0.17168451209E+03  0.00000000000E+00 0. -1.
<mgrwt>
<rscale>  1 0.20472833E+03</rscale>
<asrwt>0</asrwt>
<pdfrwt beam="2">  1        4 0.29411091E-01 0.20472833E+03</pdfrwt>
<pdfrwt beam="1">  1       -4 0.29771677E-01 0.20472833E+03</pdfrwt>
<totfact> 0.21249081E+02</totfact>
</mgrwt>
</event>
<event>
 6    4  0.2220150E-003  0.1269945E+03  0.7818608E-02  0.1231985E+00
          4   -1    0    0  502    0  0.00000000000E+00  0.00000000000E+00  0.56729967714E+03  0.56730109870E+03  0.12700000000E+01 0.  1.
         -4   -1    0    0    0  501 -0.00000000000E+00 -0.00000000000E+00 -0.16038228206E+02  0.16088432614E+02  0.12700000000E+01 0.  1.
         25    2    1    2    0    0 -0.41169168180E+01  0.22050473856E+02  0.54569553490E+03  0.56027780701E+03  0.12499772721E+03 0.  0.
    9000005    1    3    3    0    0  0.37149866084E+01 -0.50909615911E+02  0.28085924141E+03  0.28546191270E+03  0.10000000000E+01 0.  0.
    9000005    1    3    3    0    0 -0.78319034264E+01  0.72960089767E+02  0.26483629350E+03  0.27481589430E+03  0.10000000000E+01 0.  0.
         21    1    1    2  502  501  0.41169168180E+01 -0.22050473856E+02  0.55659140280E+01  0.23111724305E+02  0.00000000000E+00 0.  1.
<mgrwt>
<rscale>  1 0.12699450E+03</rscale>
<asrwt>0</asrwt>
<pdfrwt beam="1">  1        4 0.87280824E-01 0.12699450E+03</pdfrwt>
<pdfrwt beam="2">  1       -4 0.24713915E-02 0.12699450E+03</pdfrwt>
<totfact> 0.13912102E+03</totfact>
</mgrwt>
</event>
<event>
 6    4  0.2220150E-003  0.1678644E+03  0.7818608E-02  0.1180093E+00
         -4   -1    0    0    0  501 -0.00000000000E+00  0.00000000000E+00  0.94889369597E+03  0.94889454586E+03  0.12700000000E+01 0.  1.
          4   -1    0    0  502    0  0.00000000000E+00 -0.00000000000E+00 -0.21378999285E+02  0.21416687662E+02  0.12700000000E+01 0.  1.
         25    2    1    2    0    0 -0.67367874909E+01 -0.11187197308E+03  0.64212504893E+03  0.66370403577E+03  0.12497098049E+03 0.  0.
    9000005    1    3    3    0    0  0.53878273388E+02 -0.70323802270E+02  0.26301743308E+03  0.27753824171E+03  0.10000000000E+01 0.  0.
    9000005    1    3    3    0    0 -0.60615060879E+02 -0.41548170806E+02  0.37910761585E+03  0.38616579406E+03  0.10000000000E+01 0.  0.
         21    1    1    2  502  501  0.67367874909E+01  0.11187197308E+03  0.28538964776E+03  0.30660719775E+03  0.00000000000E+00 0.  1.
<mgrwt>
<rscale>  1 0.16786444E+03</rscale>
<asrwt>0</asrwt>
<pdfrwt beam="2">  1        4 0.32920404E-02 0.16786444E+03</pdfrwt>
<pdfrwt beam="1">  1       -4 0.14598665E+00 0.16786444E+03</pdfrwt>
<totfact> 0.27519898E+02</totfact>
</mgrwt>
</event>
<event>
 6    4  0.2220150E-003  0.1266956E+03  0.7818608E-02  0.1232443E+00
          4   -1    0    0  502    0  0.00000000000E+00  0.00000000000E+00  0.69864951924E+01  0.71009869084E+01  0.12700000000E+01 0.  1.
         -4   -1    0    0    0  501 -0.00000000000E+00 -0.00000000000E+00 -0.77065651232E+03  0.77065755877E+03  0.12700000000E+01 0.  1.
         25    2    1    2    0    0 -0.27315369359E+01 -0.20469141047E+02 -0.66089108885E+03  0.67292555884E+03  0.12500131758E+03 0.  0.
    9000005    1    3    3    0    0 -0.52163351252E+02 -0.17361410339E+02 -0.53212968837E+03  0.53496302585E+03  0.10000000000E+01 0.  0.
    9000005    1    3    3    0    0  0.49431814316E+02 -0.31077307086E+01 -0.12876140048E+03  0.13796253299E+03  0.10000000000E+01 0.  0.
         21    1    1    2  502  501  0.27315369359E+01  0.20469141047E+02 -0.10277892828E+03  0.10483298683E+03  0.00000000000E+00 0.  1.
<mgrwt>
<rscale>  1 0.12669561E+03</rscale>
<asrwt>0</asrwt>
<pdfrwt beam="1">  1        4 0.10837336E-02 0.12669561E+03</pdfrwt>
<pdfrwt beam="2">  1       -4 0.11857136E+00 0.12669561E+03</pdfrwt>
<totfact> 0.24105301E+03</totfact>
</mgrwt>
</event>
<event>
 6    4  0.2220150E-003  0.1559703E+03  0.7818608E-02  0.1193323E+00
         -4   -1    0    0    0  501 -0.00000000000E+00  0.00000000000E+00  0.14355376967E+04  0.14355382585E+04  0.12700000000E+01 0.  1.
          4   -1    0    0  502    0  0.00000000000E+00 -0.00000000000E+00 -0.17648003407E+02  0.17693640786E+02  0.12700000000E+01 0.  1.
         25    2    1    2    0    0  0.88318289344E+02  0.30041032934E+02  0.37451008975E+03  0.40569021466E+03  0.12499663616E+03 0.  0.
    9000005    1    3    3    0    0  0.75263227293E+02  0.37342162267E+02  0.38041052611E+03  0.38957946409E+03  0.10000000000E+01 0.  0.
    9000005    1    3    3    0    0  0.13055062051E+02 -0.73011293330E+01 -0.59004363586E+01  0.16110750569E+02  0.10000000000E+01 0.  0.
         21    1    1    2  502  501 -0.88318289344E+02 -0.30041032934E+02  0.10433796036E+04  0.10475416846E+04  0.00000000000E+00 0.  1.
<mgrwt>
<rscale>  1 0.15597033E+03</rscale>
<asrwt>0</asrwt>
<pdfrwt beam="2">  1        4 0.27186316E-02 0.15597033E+03</pdfrwt>
<pdfrwt beam="1">  1       -4 0.22085547E+00 0.15597033E+03</pdfrwt>
<totfact> 0.11756749E+02</totfact>
</mgrwt>
</event>
<event>
 6    4  0.2220150E-003  0.1291620E+03  0.7818608E-02  0.1228704E+00
          4   -1    0    0  502    0  0.00000000000E+00  0.00000000000E+00  0.79699935591E+02  0.79710053526E+02  0.12700000000E+01 0. -1.
         -4   -1    0    0    0  501 -0.00000000000E+00 -0.00000000000E+00 -0.88192231414E+02  0.88201375170E+02  0.12700000000E+01 0. -1.
         25    2    1    2    0    0 -0.26518592690E+02 -0.18829087037E+02  0.11600584393E+02  0.12968193599E+03  0.12500024275E+03 0.  0.
    9000005    1    3    3    0    0 -0.27090319811E+02 -0.59403565592E+02  0.43155020033E+02  0.78268926060E+02  0.10000000000E+01 0.  0.
    9000005    1    3    3    0    0  0.57172712041E+00  0.40574478554E+02 -0.31554435640E+02  0.51413009933E+02  0.10000000000E+01 0.  0.
         21    1    1    2  502  501  0.26518592690E+02  0.18829087037E+02 -0.20092880216E+02  0.38229492703E+02  0.00000000000E+00 0.  1.
<mgrwt>
<rscale>  1 0.12916203E+03</rscale>
<asrwt>0</asrwt>
<pdfrwt beam="1">  1        4 0.12263010E-01 0.12916203E+03</pdfrwt>
<pdfrwt beam="2">  1       -4 0.13569517E-01 0.12916203E+03</pdfrwt>
<totfact> 0.38855082E+03</totfact>
</mgrwt>
</event>
<event>
 6    4  0.2220150E-003  0.1268680E+03  0.7818608E-02  0.1232178E+00
         -4   -1    0    0    0  501 -0.00000000000E+00  0.00000000000E+00  0.13852475916E+04  0.13852481738E+04  0.12700000000E+01 0. -1.
          4   -1    0    0  502    0  0.00000000000E+00 -0.00000000000E+00 -0.16876870961E+02  0.16924587837E+02  0.12700000000E+01 0. -1.
         25    2    1    2    0    0  0.18766377619E+01 -0.21617977107E+02  0.22274247104E+03  0.25633902804E+03  0.12499852074E+03 0.  0.
    9000005    1    3    3    0    0 -0.36021353607E+02 -0.54064326708E+02  0.69336395495E+02  0.95021182261E+02  0.10000000000E+01 0.  0.
    9000005    1    3    3    0    0  0.37897991368E+02  0.32446349601E+02  0.15340607554E+03  0.16131784578E+03  0.10000000000E+01 0.  0.
         21    1    1    2  502  501 -0.18766377619E+01  0.21617977107E+02  0.11456282496E+04  0.11458337336E+04  0.00000000000E+00 0. -1.
<mgrwt>
<rscale>  1 0.12686800E+03</rscale>
<asrwt>0</asrwt>
<pdfrwt beam="2">  1        4 0.26001562E-02 0.12686800E+03</pdfrwt>
<pdfrwt beam="1">  1       -4 0.21311879E+00 0.12686800E+03</pdfrwt>
<totfact> 0.13625391E+02</totfact>
</mgrwt>
</event>
<event>
 6    4  0.2220150E-003  0.1268160E+03  0.7818608E-02  0.1232258E+00
         -4   -1    0    0    0  501 -0.00000000000E+00  0.00000000000E+00  0.70676157983E+01  0.71808142346E+01  0.12700000000E+01 0.  1.
          4   -1    0    0  502    0  0.00000000000E+00 -0.00000000000E+00 -0.85509866924E+03  0.85509961235E+03  0.12700000000E+01 0.  1.
         25    2    1    2    0    0  0.44088974188E+01 -0.20947849622E+02 -0.79566568271E+03  0.80570850040E+03  0.12499623271E+03 0.  0.
    9000005    1    3    3    0    0 -0.54277187428E+02 -0.32531002293E+02 -0.31177887399E+03  0.31813730598E+03  0.10000000000E+01 0.  0.
    9000005    1    3    3    0    0  0.58686084847E+02  0.11583152671E+02 -0.48388680871E+03  0.48757119442E+03  0.10000000000E+01 0.  0.
         21    1    1    2  502  501 -0.44088974188E+01  0.20947849622E+02 -0.52365370736E+02  0.56571926187E+02  0.00000000000E+00 0.  1.
<mgrwt>
<rscale>  1 0.12681604E+03</rscale>
<asrwt>0</asrwt>
<pdfrwt beam="2">  1        4 0.13156234E+00 0.12681604E+03</pdfrwt>
<pdfrwt beam="1">  1       -4 0.10961063E-02 0.12681604E+03</pdfrwt>
<totfact> 0.18421769E+03</totfact>
</mgrwt>
</event>
<event>
 6    4  0.2220150E-003  0.1278679E+03  0.7818608E-02  0.1230654E+00
         -4   -1    0    0    0  501 -0.00000000000E+00  0.00000000000E+00  0.13006941776E+02  0.13068796210E+02  0.12700000000E+01 0. -1.
          4   -1    0    0  502    0  0.00000000000E+00 -0.00000000000E+00 -0.90790806816E+03  0.90790895641E+03  0.12700000000E+01 0. -1.
         25    2    1    2    0    0  0.26153601115E+02  0.63807867008E+01 -0.88182842632E+03  0.89105082867E+03  0.12500192202E+03 0.  0.
    9000005    1    3    3    0    0 -0.39907588716E+02  0.83937421350E+01 -0.60763113952E+03  0.60899890989E+03  0.10000000000E+01 0.  0.
    9000005    1    3    3    0    0  0.66061189831E+02 -0.20129554342E+01 -0.27419728681E+03  0.28205191878E+03  0.10000000000E+01 0.  0.
         21    1    1    2  502  501 -0.26153601115E+02 -0.63807867008E+01 -0.13072700058E+02  0.29926923949E+02  0.00000000000E+00 0. -1.
<mgrwt>
<rscale>  1 0.12786792E+03</rscale>
<asrwt>0</asrwt>
<pdfrwt beam="2">  1        4 0.13968294E+00 0.12786792E+03</pdfrwt>
<pdfrwt beam="1">  1       -4 0.20058950E-02 0.12786792E+03</pdfrwt>
<totfact> 0.63428004E+02</totfact>
</mgrwt>
</event>
<event>
 6    4  0.2220150E-003  0.1354352E+03  0.7818608E-02  0.1219607E+00
          4   -1    0    0  502    0  0.00000000000E+00  0.00000000000E+00  0.18598720813E+02  0.18642030895E+02  0.12700000000E+01 0.  1.
         -4   -1    0    0    0  501 -0.00000000000E+00 -0.00000000000E+00 -0.47836120485E+03  0.47836289070E+03  0.12700000000E+01 0.  1.
         25    2    1    2    0    0  0.10564124995E+02  0.51057926891E+02 -0.30567186950E+03  0.33433215153E+03  0.12499673238E+03 0.  0.
    9000005    1    3    3    0    0  0.77803782822E+01  0.92069354714E+02 -0.18397065407E+03  0.20587253805E+03  0.10000000000E+01 0.  0.
    9000005    1    3    3    0    0  0.27837467133E+01 -0.41011427823E+02 -0.12170121543E+03  0.12845961348E+03  0.10000000000E+01 0.  0.
         21    1    1    2  502  501 -0.10564124995E+02 -0.51057926891E+02 -0.15409061453E+03  0.16267277007E+03  0.00000000000E+00 0. -1.
<mgrwt>
<rscale>  1 0.13543521E+03</rscale>
<asrwt>0</asrwt>
<pdfrwt beam="1">  1        4 0.28648033E-02 0.13543521E+03</pdfrwt>
<pdfrwt beam="2">  1       -4 0.73597483E-01 0.13543521E+03</pdfrwt>
<totfact> 0.16343184E+03</totfact>
</mgrwt>
</event>
<event>
 6    4  0.2220150E-003  0.1371218E+03  0.7818608E-02  0.1217255E+00
          4   -1    0    0  502    0  0.00000000000E+00  0.00000000000E+00  0.47275073599E+03  0.47275244185E+03  0.12700000000E+01 0.  1.
         -4   -1    0    0    0  501 -0.00000000000E+00 -0.00000000000E+00 -0.26802594469E+02  0.26832666104E+02  0.12700000000E+01 0.  1.
         25    2    1    2    0    0  0.32287366907E+02 -0.46295358147E+02  0.41083025250E+03  0.43310954570E+03  0.12496658738E+03 0.  0.
    9000005    1    3    3    0    0  0.40172812628E+01 -0.87138981656E+02  0.27287820724E+03  0.28648360626E+03  0.10000000000E+01 0.  0.
    9000005    1    3    3    0    0  0.28270085644E+02  0.40843623509E+02  0.13795204527E+03  0.14662593944E+03  0.10000000000E+01 0.  0.
         21    1    1    2  502  501 -0.32287366907E+02  0.46295358147E+02  0.35117889015E+02  0.66475562251E+02  0.00000000000E+00 0.  1.
<mgrwt>
<rscale>  1 0.13712178E+03</rscale>
<asrwt>0</asrwt>
<pdfrwt beam="1">  1        4 0.72733318E-01 0.13712178E+03</pdfrwt>
<pdfrwt beam="2">  1       -4 0.41259210E-02 0.13712178E+03</pdfrwt>
<totfact> 0.94584480E+02</totfact>
</mgrwt>
</event>
<event>
 6    4  0.2220150E-003  0.1270146E+03  0.7818608E-02  0.1231954E+00
         -4   -1    0    0    0  501 -0.00000000000E+00  0.00000000000E+00  0.15279991492E+03  0.15280519264E+03  0.12700000000E+01 0.  1.
          4   -1    0    0  502    0  0.00000000000E+00 -0.00000000000E+00 -0.37243680485E+02  0.37265327532E+02  0.12700000000E+01 0.  1.
         25    2    1    2    0    0  0.16378480528E+02  0.15468142588E+02  0.88214016145E+02  0.15464291850E+03  0.12500080615E+03 0.  0.
    9000005    1    3    3    0    0 -0.28885119927E+02 -0.43660889314E+02  0.40518987399E+02  0.66207339085E+02  0.10000000000E+01 0.  0.
    9000005    1    3    3    0    0  0.45263600455E+02  0.59129031902E+02  0.47695028746E+02  0.88435579417E+02  0.10000000000E+01 0.  0.
         21    1    1    2  502  501 -0.16378480528E+02 -0.15468142588E+02  0.27342218288E+02  0.35427601675E+02  0.00000000000E+00 0.  1.
<mgrwt>
<rscale>  1 0.12701464E+03</rscale>
<asrwt>0</asrwt>
<pdfrwt beam="2">  1        4 0.57318682E-02 0.12701464E+03</pdfrwt>
<pdfrwt beam="1">  1       -4 0.23509750E-01 0.12701464E+03</pdfrwt>
<totfact> 0.51596032E+03</totfact>
</mgrwt>
</event>
<event>
 6    4  0.2220150E-003  0.1630654E+03  0.7818608E-02  0.1185279E+00
          4   -1    0    0  502    0  0.00000000000E+00  0.00000000000E+00  0.29835293725E+03  0.29835564025E+03  0.12700000000E+01 0. -1.
         -4   -1    0    0    0  501 -0.00000000000E+00 -0.00000000000E+00 -0.17215961729E+03  0.17216430154E+03  0.12700000000E+01 0. -1.
         25    2    1    2    0    0  0.46111289329E+02 -0.93995030979E+02  0.25614191242E+03  0.30364288065E+03  0.12501601026E+03 0.  0.
    9000005    1    3    3    0    0  0.65358840232E+02 -0.43867816316E+02  0.56487742359E+02  0.96891838364E+02  0.10000000000E+01 0.  0.
    9000005    1    3    3    0    0 -0.19247550903E+02 -0.50127214663E+02  0.19965417006E+03  0.20675104229E+03  0.10000000000E+01 0.  0.
         21    1    1    2  502  501 -0.46111289329E+02  0.93995030979E+02 -0.12994859245E+03  0.16687706113E+03  0.00000000000E+00 0. -1.
<mgrwt>
<rscale>  1 0.16306538E+03</rscale>
<asrwt>0</asrwt>
<pdfrwt beam="1">  1        4 0.45901020E-01 0.16306538E+03</pdfrwt>
<pdfrwt beam="2">  1       -4 0.26486663E-01 0.16306538E+03</pdfrwt>
<totfact> 0.10719092E+02</totfact>
</mgrwt>
</event>
<event>
 6    4  0.2220150E-003  0.1288903E+03  0.7818608E-02  0.1229112E+00
         -4   -1    0    0    0  501 -0.00000000000E+00  0.00000000000E+00  0.18731445421E+03  0.18731875949E+03  0.12700000000E+01 0. -1.
          4   -1    0    0  502    0  0.00000000000E+00 -0.00000000000E+00 -0.40337406758E+02  0.40357394414E+02  0.12700000000E+01 0. -1.
         25    2    1    2    0    0  0.29287711311E+02 -0.11402964310E+02  0.74967899552E+02  0.14910698049E+03  0.12499963216E+03 0.  0.
    9000005    1    3    3    0    0  0.57931517430E+02 -0.52715139628E+02  0.50393749925E+02  0.93142239018E+02  0.10000000000E+01 0.  0.
    9000005    1    3    3    0    0 -0.28643806118E+02  0.41312175318E+02  0.24574149627E+02  0.55964741475E+02  0.10000000000E+01 0.  0.
         21    1    1    2  502  501 -0.29287711311E+02  0.11402964310E+02  0.72009147901E+02  0.78569173410E+02  0.00000000000E+00 0. -1.
<mgrwt>
<rscale>  1 0.12889029E+03</rscale>
<asrwt>0</asrwt>
<pdfrwt beam="2">  1        4 0.62076235E-02 0.12889029E+03</pdfrwt>
<pdfrwt beam="1">  1       -4 0.28819477E-01 0.12889029E+03</pdfrwt>
<totfact> 0.31195836E+03</totfact>
</mgrwt>
</event>
<event>
 6    4  0.2220150E-003  0.1531939E+03  0.7818608E-02  0.1196602E+00
         -4   -1    0    0    0  501 -0.00000000000E+00  0.00000000000E+00  0.27624575244E+03  0.27624867175E+03  0.12700000000E+01 0.  1.
          4   -1    0    0  502    0  0.00000000000E+00 -0.00000000000E+00 -0.59497909316E+02  0.59511462031E+02  0.12700000000E+01 0.  1.
         25    2    1    2    0    0 -0.88049918232E+02  0.95216908889E+01  0.79963041865E+02  0.17280758684E+03  0.12499969323E+03 0.  0.
    9000005    1    3    3    0    0 -0.70885851287E+02 -0.50350233687E+02  0.27015613468E+02  0.91053793529E+02  0.10000000000E+01 0.  0.
    9000005    1    3    3    0    0 -0.17164066946E+02  0.59871924576E+02  0.52947428397E+02  0.81753793309E+02  0.10000000000E+01 0.  0.
         21    1    1    2  502  501  0.88049918232E+02 -0.95216908889E+01  0.13678480126E+03  0.16295254694E+03  0.00000000000E+00 0.  1.
<mgrwt>
<rscale>  1 0.15319391E+03</rscale>
<asrwt>0</asrwt>
<pdfrwt beam="2">  1        4 0.91547915E-02 0.15319391E+03</pdfrwt>
<pdfrwt beam="1">  1       -4 0.42500614E-01 0.15319391E+03</pdfrwt>
<totfact> 0.80477183E+02</totfact>
</mgrwt>
</event>
<event>
 6    4  0.2220150E-003  0.1593239E+03  0.7818608E-02  0.1189462E+00
         -4   -1    0    0    0  501 -0.00000000000E+00  0.00000000000E+00  0.59919035587E+02  0.59932493070E+02  0.12700000000E+01 0.  1.
          4   -1    0    0  502    0  0.00000000000E+00 -0.00000000000E+00 -0.28925446957E+03  0.28925725758E+03  0.12700000000E+01 0.  1.
         25    2    1    2    0    0  0.98193641332E+02  0.10778172685E+02 -0.10685907574E+03  0.19184103432E+03  0.12500384064E+03 0.  0.
    9000005    1    3    3    0    0  0.28424643681E+02 -0.49987935938E+02 -0.73847995273E+02  0.93601712130E+02  0.10000000000E+01 0.  0.
    9000005    1    3    3    0    0  0.69768997651E+02  0.60766108624E+02 -0.33011080468E+02  0.98239322189E+02  0.10000000000E+01 0.  0.
         21    1    1    2  502  501 -0.98193641332E+02 -0.10778172685E+02 -0.12247635824E+03  0.15734871633E+03  0.00000000000E+00 0.  1.
<mgrwt>
<rscale>  1 0.15932395E+03</rscale>
<asrwt>0</asrwt>
<pdfrwt beam="2">  1        4 0.44501937E-01 0.15932395E+03</pdfrwt>
<pdfrwt beam="1">  1       -4 0.92195629E-02 0.15932395E+03</pdfrwt>
<totfact> 0.73103535E+02</totfact>
</mgrwt>
</event>
<event>
 6    4  0.2220150E-003  0.1271664E+03  0.7818608E-02  0.1231722E+00
         -4   -1    0    0    0  501 -0.00000000000E+00  0.00000000000E+00  0.50153979877E+03  0.50154140671E+03  0.12700000000E+01 0. -1.
          4   -1    0    0  502    0  0.00000000000E+00 -0.00000000000E+00 -0.14375030266E+02  0.14431021972E+02  0.12700000000E+01 0. -1.
         25    2    1    2    0    0  0.13815585695E+02 -0.18863923806E+02  0.28038703340E+03  0.30787689831E+03  0.12499831192E+03 0.  0.
    9000005    1    3    3    0    0 -0.41865150415E+02  0.29216866640E+02  0.14594471902E+03  0.15461945908E+03  0.10000000000E+01 0.  0.
    9000005    1    3    3    0    0  0.55680736110E+02 -0.48080790446E+02  0.13444231438E+03  0.15325743923E+03  0.10000000000E+01 0.  0.
         21    1    1    2  502  501 -0.13815585695E+02  0.18863923806E+02  0.20677773510E+03  0.20809553038E+03  0.00000000000E+00 0. -1.
<mgrwt>
<rscale>  1 0.12716641E+03</rscale>
<asrwt>0</asrwt>
<pdfrwt beam="2">  1        4 0.22159740E-02 0.12716641E+03</pdfrwt>
<pdfrwt beam="1">  1       -4 0.77164395E-01 0.12716641E+03</pdfrwt>
<totfact> 0.21652689E+03</totfact>
</mgrwt>
</event>
<event>
 6    4  0.2220150E-003  0.1313152E+03  0.7818608E-02  0.1225517E+00
          4   -1    0    0  502    0  0.00000000000E+00  0.00000000000E+00  0.44074517159E+03  0.44074700132E+03  0.12700000000E+01 0. -1.
         -4   -1    0    0    0  501 -0.00000000000E+00 -0.00000000000E+00 -0.16669671808E+02  0.16717980087E+02  0.12700000000E+01 0. -1.
         25    2    1    2    0    0 -0.38720363173E+02 -0.10954242597E+02  0.32264199778E+03  0.34834111929E+03  0.12499765880E+03 0.  0.
    9000005    1    3    3    0    0 -0.60252859229E+02 -0.32044971091E+02  0.86032437296E+02  0.10981742796E+03  0.10000000000E+01 0.  0.
    9000005    1    3    3    0    0  0.21532496056E+02  0.21090728494E+02  0.23660956048E+03  0.23852369133E+03  0.10000000000E+01 0.  0.
         21    1    1    2  502  501  0.38720363173E+02  0.10954242597E+02  0.10143350200E+03  0.10912386212E+03  0.00000000000E+00 0. -1.
<mgrwt>
<rscale>  1 0.13131518E+03</rscale>
<asrwt>0</asrwt>
<pdfrwt beam="1">  1        4 0.67810812E-01 0.13131518E+03</pdfrwt>
<pdfrwt beam="2">  1       -4 0.25684214E-02 0.13131518E+03</pdfrwt>
<totfact> 0.22967345E+03</totfact>
</mgrwt>
</event>
<event>
 6    4  0.2220150E-003  0.1310209E+03  0.7818608E-02  0.1225949E+00
          4   -1    0    0  502    0  0.00000000000E+00  0.00000000000E+00  0.49027016607E+03  0.49027181098E+03  0.12700000000E+01 0.  1.
         -4   -1    0    0    0  501 -0.00000000000E+00 -0.00000000000E+00 -0.16017365671E+02  0.16067635266E+02  0.12700000000E+01 0.  1.
         25    2    1    2    0    0  0.28802632504E+02  0.26689303795E+02  0.41553662954E+03  0.43570305833E+03  0.12499821589E+03 0.  0.
    9000005    1    3    3    0    0  0.35691503565E+02  0.73300297978E+02  0.22163896197E+03  0.23616021378E+03  0.10000000000E+01 0.  0.
    9000005    1    3    3    0    0 -0.68888710603E+01 -0.46610994183E+02  0.19389766757E+03  0.19954284455E+03  0.10000000000E+01 0.  0.
         21    1    1    2  502  501 -0.28802632504E+02 -0.26689303795E+02  0.58716170861E+02  0.70636387909E+02  0.00000000000E+00 0.  1.
<mgrwt>
<rscale>  1 0.13102086E+03</rscale>
<asrwt>0</asrwt>
<pdfrwt beam="1">  1        4 0.75430179E-01 0.13102086E+03</pdfrwt>
<pdfrwt beam="2">  1       -4 0.24682033E-02 0.13102086E+03</pdfrwt>
<totfact> 0.19392781E+03</totfact>
</mgrwt>
</event>
<event>
 6    4  0.2220150E-003  0.1267973E+03  0.7818608E-02  0.1232287E+00
         -4   -1    0    0    0  501 -0.00000000000E+00  0.00000000000E+00  0.76168560648E+02  0.76179147614E+02  0.12700000000E+01 0.  1.
          4   -1    0    0  502    0  0.00000000000E+00 -0.00000000000E+00 -0.72277958469E+02  0.72289115228E+02  0.12700000000E+01 0.  1.
         25    2    1    2    0    0 -0.20954434282E+02 -0.41188795855E+01  0.64430514679E+01  0.12696085755E+03  0.12498597102E+03 0.  0.
    9000005    1    3    3    0    0  0.37091844024E+02  0.56714216609E+01 -0.37833725932E+02  0.53295034803E+02  0.10000000000E+01 0.  0.
    9000005    1    3    3    0    0 -0.58046278307E+02 -0.97903012464E+01  0.44276777400E+02  0.73665822745E+02  0.10000000000E+01 0.  0.
         21    1    1    2  502  501  0.20954434282E+02  0.41188795855E+01 -0.25524492897E+01  0.21507405294E+02  0.00000000000E+00 0. -1.
<mgrwt>
<rscale>  1 0.12679727E+03</rscale>
<asrwt>0</asrwt>
<pdfrwt beam="2">  1        4 0.11121358E-01 0.12679727E+03</pdfrwt>
<pdfrwt beam="1">  1       -4 0.11719913E-01 0.12679727E+03</pdfrwt>
<totfact> 0.58744284E+03</totfact>
</mgrwt>
</event>
<event>
 6    4  0.2220150E-003  0.1280249E+03  0.7818608E-02  0.1230416E+00
         -4   -1    0    0    0  501 -0.00000000000E+00  0.00000000000E+00  0.25915072654E+02  0.25946172948E+02  0.12700000000E+01 0. -1.
          4   -1    0    0  502    0  0.00000000000E+00 -0.00000000000E+00 -0.24791353095E+03  0.24791678388E+03  0.12700000000E+01 0. -1.
         25    2    1    2    0    0 -0.12729451756E+02  0.24594163708E+02 -0.20396594282E+03  0.24081627099E+03  0.12499383469E+03 0.  0.
    9000005    1    3    3    0    0  0.54542704463E+02  0.25023647358E+02 -0.83441002014E+02  0.10278370666E+03  0.10000000000E+01 0.  0.
    9000005    1    3    3    0    0 -0.67272156219E+02 -0.42948364981E+00 -0.12052494081E+03  0.13803256433E+03  0.10000000000E+01 0.  0.
         21    1    1    2  502  501  0.12729451756E+02 -0.24594163708E+02 -0.18032515474E+02  0.33046685838E+02  0.00000000000E+00 0. -1.
<mgrwt>
<rscale>  1 0.12802488E+03</rscale>
<asrwt>0</asrwt>
<pdfrwt beam="2">  1        4 0.38143184E-01 0.12802488E+03</pdfrwt>
<pdfrwt beam="1">  1       -4 0.39895770E-02 0.12802488E+03</pdfrwt>
<totfact> 0.37044152E+03</totfact>
</mgrwt>
</event>
<event>
 6    4  0.2220150E-003  0.1294595E+03  0.7818608E-02  0.1228260E+00
          4   -1    0    0  502    0  0.00000000000E+00  0.00000000000E+00  0.28666546059E+03  0.28666827378E+03  0.12700000000E+01 0.  1.
         -4   -1    0    0    0  501 -0.00000000000E+00 -0.00000000000E+00 -0.48047972105E+02  0.48064753442E+02  0.12700000000E+01 0.  1.
         25    2    1    2    0    0  0.20341662939E+02 -0.26875258322E+02  0.26299784992E+03  0.29313417166E+03  0.12499484298E+03 0.  0.
    9000005    1    3    3    0    0  0.25941531967E+02  0.11657412248E+02  0.12302508450E+01  0.28484589839E+02  0.10000000000E+01 0.  0.
    9000005    1    3    3    0    0 -0.55998690279E+01 -0.38532670570E+02  0.26176759907E+03  0.26464958182E+03  0.10000000000E+01 0.  0.
         21    1    1    2  502  501 -0.20341662939E+02  0.26875258322E+02 -0.24380361432E+02  0.41598855568E+02  0.00000000000E+00 0.  1.
<mgrwt>
<rscale>  1 0.12945954E+03</rscale>
<asrwt>0</asrwt>
<pdfrwt beam="1">  1        4 0.44103886E-01 0.12945954E+03</pdfrwt>
<pdfrwt beam="2">  1       -4 0.73935030E-02 0.12945954E+03</pdfrwt>
<totfact> 0.10300752E+03</totfact>
</mgrwt>
</event>
<event>
 6    4  0.2220150E-003  0.1285397E+03  0.7818608E-02  0.1229639E+00
          4   -1    0    0  502    0  0.00000000000E+00  0.00000000000E+00  0.96056368634E+02  0.96064763858E+02  0.12700000000E+01 0.  1.
         -4   -1    0    0    0  501 -0.00000000000E+00 -0.00000000000E+00 -0.94219804655E+02  0.94228363507E+02  0.12700000000E+01 0.  1.
         25    2    1    2    0    0 -0.31358580324E+01 -0.29897603442E+02  0.46297361058E+02  0.13662318444E+03  0.12497499185E+03 0.  0.
    9000005    1    3    3    0    0 -0.10758069580E+02 -0.76665725602E+02  0.44265098681E+02  0.89183902720E+02  0.10000000000E+01 0.  0.
    9000005    1    3    3    0    0  0.76222115476E+01  0.46768122160E+02  0.20322623770E+01  0.47439281715E+02  0.10000000000E+01 0.  0.
         21    1    1    2  502  501  0.31358580324E+01  0.29897603442E+02 -0.44460797079E+02  0.53669942930E+02  0.00000000000E+00 0.  1.
<mgrwt>
<rscale>  1 0.12853968E+03</rscale>
<asrwt>0</asrwt>
<pdfrwt beam="1">  1        4 0.14779207E-01 0.12853968E+03</pdfrwt>
<pdfrwt beam="2">  1       -4 0.14496659E-01 0.12853968E+03</pdfrwt>
<totfact> 0.25075583E+03</totfact>
</mgrwt>
</event>
<event>
 6    4  0.2220150E-003  0.1359652E+03  0.7818608E-02  0.1218864E+00
         -4   -1    0    0    0  501 -0.00000000000E+00  0.00000000000E+00  0.15812518782E+03  0.15813028781E+03  0.12700000000E+01 0. -1.
          4   -1    0    0  502    0  0.00000000000E+00 -0.00000000000E+00 -0.57786808846E+02  0.57800762769E+02  0.12700000000E+01 0. -1.
         25    2    1    2    0    0 -0.38518349715E+02 -0.37113189409E+02  0.58469120097E+02  0.14800397990E+03  0.12500195186E+03 0.  0.
    9000005    1    3    3    0    0 -0.26198375499E+01 -0.19465758956E+02 -0.38428949261E+02  0.43169010433E+02  0.10000000000E+01 0.  0.
    9000005    1    3    3    0    0 -0.35898512165E+02 -0.17647430452E+02  0.96898069358E+02  0.10483496946E+03  0.10000000000E+01 0.  0.
         21    1    1    2  502  501  0.38518349715E+02  0.37113189409E+02  0.41869258881E+02  0.67927070686E+02  0.00000000000E+00 0. -1.
<mgrwt>
<rscale>  1 0.13596522E+03</rscale>
<asrwt>0</asrwt>
<pdfrwt beam="2">  1        4 0.88917440E-02 0.13596522E+03</pdfrwt>
<pdfrwt beam="1">  1       -4 0.24328417E-01 0.13596522E+03</pdfrwt>
<totfact> 0.23939894E+03</totfact>
</mgrwt>
</event>
<event>
 6    4  0.2220150E-003  0.1349951E+03  0.7818608E-02  0.1220227E+00
          4   -1    0    0  502    0  0.00000000000E+00  0.00000000000E+00  0.96359916048E+02  0.96368284829E+02  0.12700000000E+01 0. -1.
         -4   -1    0    0    0  501 -0.00000000000E+00 -0.00000000000E+00 -0.10271925832E+03  0.10272710903E+03  0.12700000000E+01 0. -1.
         25    2    1    2    0    0 -0.20469578596E+02 -0.46630191534E+02  0.27729778041E+02  0.13781369566E+03  0.12502118105E+03 0.  0.
    9000005    1    3    3    0    0  0.37845465022E+02  0.15789910601E+02  0.32379711393E+02  0.52259412640E+02  0.10000000000E+01 0.  0.
    9000005    1    3    3    0    0 -0.58315043619E+02 -0.62420102135E+02 -0.46499333524E+01  0.85554283019E+02  0.10000000000E+01 0.  0.
         21    1    1    2  502  501  0.20469578596E+02  0.46630191534E+02 -0.34089120310E+02  0.61281698197E+02  0.00000000000E+00 0. -1.
<mgrwt>
<rscale>  1 0.13499509E+03</rscale>
<asrwt>0</asrwt>
<pdfrwt beam="1">  1        4 0.14825850E-01 0.13499509E+03</pdfrwt>
<pdfrwt beam="2">  1       -4 0.15804210E-01 0.13499509E+03</pdfrwt>
<totfact> 0.21691004E+03</totfact>
</mgrwt>
</event>
<event>
 6    4  0.2220150E-003  0.1305763E+03  0.7818608E-02  0.1226603E+00
          4   -1    0    0  502    0  0.00000000000E+00  0.00000000000E+00  0.34571497205E+03  0.34571730474E+03  0.12700000000E+01 0. -1.
         -4   -1    0    0    0  501 -0.00000000000E+00 -0.00000000000E+00 -0.20480444401E+02  0.20519783207E+02  0.12700000000E+01 0. -1.
         25    2    1    2    0    0  0.30748531713E+02  0.21903348731E+02  0.25604416281E+03  0.28741744906E+03  0.12499979131E+03 0.  0.
    9000005    1    3    3    0    0  0.23052753881E+02  0.53616804917E+02  0.44580096001E+02  0.73447778663E+02  0.10000000000E+01 0.  0.
    9000005    1    3    3    0    0  0.76957778323E+01 -0.31713456186E+02  0.21146406681E+03  0.21396967040E+03  0.10000000000E+01 0.  0.
         21    1    1    2  502  501 -0.30748531713E+02 -0.21903348731E+02  0.69190364841E+02  0.78819638891E+02  0.00000000000E+00 0. -1.
<mgrwt>
<rscale>  1 0.13057633E+03</rscale>
<asrwt>0</asrwt>
<pdfrwt beam="1">  1        4 0.53190129E-01 0.13057633E+03</pdfrwt>
<pdfrwt beam="2">  1       -4 0.31540428E-02 0.13057633E+03</pdfrwt>
<totfact> 0.27708349E+03</totfact>
</mgrwt>
</event>
<event>
 6    4  0.2220150E-003  0.1302198E+03  0.7818608E-02  0.1227130E+00
         -4   -1    0    0    0  501 -0.00000000000E+00  0.00000000000E+00  0.27251432644E+03  0.27251728572E+03  0.12700000000E+01 0.  1.
          4   -1    0    0  502    0  0.00000000000E+00 -0.00000000000E+00 -0.39486725577E+02  0.39507143618E+02  0.12700000000E+01 0.  1.
         25    2    1    2    0    0  0.19254288048E+02 -0.31004000399E+02  0.75923336980E+02  0.15073671939E+03  0.12500091930E+03 0.  0.
    9000005    1    3    3    0    0 -0.30325697663E+01 -0.46763119403E+02 -0.20029335671E+02  0.50972150270E+02  0.10000000000E+01 0.  0.
    9000005    1    3    3    0    0  0.22286857814E+02  0.15759119004E+02  0.95952672651E+02  0.99764569121E+02  0.10000000000E+01 0.  0.
         21    1    1    2  502  501 -0.19254288048E+02  0.31004000399E+02  0.15710426388E+03  0.16128770995E+03  0.00000000000E+00 0.  1.
<mgrwt>
<rscale>  1 0.13021984E+03</rscale>
<asrwt>0</asrwt>
<pdfrwt beam="2">  1        4 0.60766793E-02 0.13021984E+03</pdfrwt>
<pdfrwt beam="1">  1       -4 0.41927078E-01 0.13021984E+03</pdfrwt>
<totfact> 0.15719490E+03</totfact>
</mgrwt>
</event>
<event>
 6    4  0.2220150E-003  0.1270182E+03  0.7818608E-02  0.1231948E+00
         -4   -1    0    0    0  501 -0.00000000000E+00  0.00000000000E+00  0.85210759532E+02  0.85220223187E+02  0.12700000000E+01 0. -1.
          4   -1    0    0  502    0  0.00000000000E+00 -0.00000000000E+00 -0.80638433592E+02  0.80648433787E+02  0.12700000000E+01 0. -1.
         25    2    1    2    0    0  0.15791060413E+02 -0.16081587640E+02 -0.24217161698E+02  0.12930624939E+03  0.12500264061E+03 0.  0.
    9000005    1    3    3    0    0  0.65226491469E+01  0.10304216284E+02  0.49219864225E+02  0.50718013166E+02  0.10000000000E+01 0.  0.
    9000005    1    3    3    0    0  0.92684112659E+01 -0.26385803924E+02 -0.73437025923E+02  0.78588236222E+02  0.10000000000E+01 0.  0.
         21    1    1    2  502  501 -0.15791060413E+02  0.16081587640E+02  0.28789487637E+02  0.36562407585E+02  0.00000000000E+00 0. -1.
<mgrwt>
<rscale>  1 0.12701825E+03</rscale>
<asrwt>0</asrwt>
<pdfrwt beam="2">  1        4 0.12407410E-01 0.12701825E+03</pdfrwt>
<pdfrwt beam="1">  1       -4 0.13110845E-01 0.12701825E+03</pdfrwt>
<totfact> 0.40244333E+03</totfact>
</mgrwt>
</event>
<event>
 6    4  0.2220150E-003  0.1715386E+03  0.7818608E-02  0.1176253E+00
         -4   -1    0    0    0  501 -0.00000000000E+00  0.00000000000E+00  0.19201518076E+03  0.19201938064E+03  0.12700000000E+01 0.  1.
          4   -1    0    0  502    0  0.00000000000E+00 -0.00000000000E+00 -0.11696912405E+03  0.11697601840E+03  0.12700000000E+01 0.  1.
         25    2    1    2    0    0 -0.11724479193E+03  0.73390244829E+01  0.37516403830E+01  0.17157962005E+03  0.12500115478E+03 0.  0.
    9000005    1    3    3    0    0 -0.40710898708E+02 -0.16704356086E+02  0.59407525639E+02  0.73936911543E+02  0.10000000000E+01 0.  0.
    9000005    1    3    3    0    0 -0.76533893224E+02  0.24043380569E+02 -0.55655885256E+02  0.97642708508E+02  0.10000000000E+01 0.  0.
         21    1    1    2  502  501  0.11724479193E+03 -0.73390244829E+01  0.71294416331E+02  0.13741577899E+03  0.00000000000E+00 0. -1.
<mgrwt>
<rscale>  1 0.17153860E+03</rscale>
<asrwt>0</asrwt>
<pdfrwt beam="2">  1        4 0.17996103E-01 0.17153860E+03</pdfrwt>
<pdfrwt beam="1">  1       -4 0.29541650E-01 0.17153860E+03</pdfrwt>
<totfact> 0.51760998E+02</totfact>
</mgrwt>
</event>
<event>
 6    4  0.2220150E-003  0.1296982E+03  0.7818608E-02  0.1227904E+00
          4   -1    0    0  502    0  0.00000000000E+00  0.00000000000E+00  0.63130463772E+02  0.63143236820E+02  0.12700000000E+01 0. -1.
         -4   -1    0    0    0  501 -0.00000000000E+00 -0.00000000000E+00 -0.15762608424E+03  0.15763120038E+03  0.12700000000E+01 0. -1.
         25    2    1    2    0    0 -0.23948760533E+02 -0.24959612216E+02 -0.10722399053E+02  0.13014067970E+03  0.12500040519E+03 0.  0.
    9000005    1    3    3    0    0 -0.16703239850E+02  0.25117386679E+02 -0.55104455453E+02  0.62828197060E+02  0.10000000000E+01 0.  0.
    9000005    1    3    3    0    0 -0.72455206832E+01 -0.50076998894E+02  0.44382056400E+02  0.67312482635E+02  0.10000000000E+01 0.  0.
         21    1    1    2  502  501  0.23948760533E+02  0.24959612216E+02 -0.83773221416E+02  0.90633757505E+02  0.00000000000E+00 0. -1.
<mgrwt>
<rscale>  1 0.12969821E+03</rscale>
<asrwt>0</asrwt>
<pdfrwt beam="1">  1        4 0.97137552E-02 0.12969821E+03</pdfrwt>
<pdfrwt beam="2">  1       -4 0.24251543E-01 0.12969821E+03</pdfrwt>
<totfact> 0.20543373E+03</totfact>
</mgrwt>
</event>
<event>
 6    4  0.2220150E-003  0.1373574E+03  0.7818608E-02  0.1216930E+00
         -4   -1    0    0    0  501 -0.00000000000E+00  0.00000000000E+00  0.16611568783E+04  0.16611573638E+04  0.12700000000E+01 0. -1.
          4   -1    0    0  502    0  0.00000000000E+00 -0.00000000000E+00 -0.64313141772E+01  0.65555092896E+01  0.12700000000E+01 0. -1.
         25    2    1    2    0    0 -0.56736138175E+02  0.47785631262E+01  0.13989273860E+04  0.14056546124E+04  0.12500093632E+03 0.  0.
    9000005    1    3    3    0    0  0.39193855402E+02  0.10045126123E+02  0.48742263183E+03  0.48910007655E+03  0.10000000000E+01 0.  0.
    9000005    1    3    3    0    0 -0.95929993577E+02 -0.52665629971E+01  0.91150475415E+03  0.91655453585E+03  0.10000000000E+01 0.  0.
         21    1    1    2  502  501  0.56736138175E+02 -0.47785631262E+01  0.25579817813E+03  0.26205826065E+03  0.00000000000E+00 0. -1.
<mgrwt>
<rscale>  1 0.13735741E+03</rscale>
<asrwt>0</asrwt>
<pdfrwt beam="2">  1        4 0.99902198E-03 0.13735741E+03</pdfrwt>
<pdfrwt beam="1">  1       -4 0.25557265E+00 0.13735741E+03</pdfrwt>
<totfact> 0.33561346E+02</totfact>
</mgrwt>
</event>
<event>
 6    4  0.2220150E-003  0.1300193E+03  0.7818608E-02  0.1227427E+00
          4   -1    0    0  502    0  0.00000000000E+00  0.00000000000E+00  0.24304647485E+03  0.24304979291E+03  0.12700000000E+01 0. -1.
         -4   -1    0    0    0  501 -0.00000000000E+00 -0.00000000000E+00 -0.36525910718E+02  0.36547982896E+02  0.12700000000E+01 0. -1.
         25    2    1    2    0    0  0.35577699291E+02  0.38272644341E+01  0.20625263848E+03  0.24381380700E+03  0.12499840385E+03 0.  0.
    9000005    1    3    3    0    0  0.47862944431E+02 -0.19105523982E+02  0.19273011580E+02  0.55030277771E+02  0.10000000000E+01 0.  0.
    9000005    1    3    3    0    0 -0.12285245140E+02  0.22932788416E+02  0.18697962690E+03  0.18878352922E+03  0.10000000000E+01 0.  0.
         21    1    1    2  502  501 -0.35577699291E+02 -0.38272644341E+01  0.26792565342E+00  0.35783968813E+02  0.00000000000E+00 0. -1.
<mgrwt>
<rscale>  1 0.13001931E+03</rscale>
<asrwt>0</asrwt>
<pdfrwt beam="1">  1        4 0.37393719E-01 0.13001931E+03</pdfrwt>
<pdfrwt beam="2">  1       -4 0.56213239E-02 0.13001931E+03</pdfrwt>
<totfact> 0.22319103E+03</totfact>
</mgrwt>
</event>
<event>
 6    4  0.2220150E-003  0.1282858E+03  0.7818608E-02  0.1230022E+00
          4   -1    0    0  502    0  0.00000000000E+00  0.00000000000E+00  0.51481204896E+02  0.51496867454E+02  0.12700000000E+01 0. -1.
         -4   -1    0    0    0  501 -0.00000000000E+00 -0.00000000000E+00 -0.18170061690E+03  0.18170505519E+03  0.12700000000E+01 0. -1.
         25    2    1    2    0    0 -0.24347528367E+02 -0.15497154585E+02 -0.33953872345E+02  0.13270307656E+03  0.12499710854E+03 0.  0.
    9000005    1    3    3    0    0  0.37815501751E+02 -0.45139498915E+02 -0.97398251344E+01  0.59694645728E+02  0.10000000000E+01 0.  0.
    9000005    1    3    3    0    0 -0.62163030118E+02  0.29642344330E+02 -0.24214047211E+02  0.73008430836E+02  0.10000000000E+01 0.  0.
         21    1    1    2  502  501  0.24347528367E+02  0.15497154585E+02 -0.96265539656E+02  0.10049884608E+03  0.00000000000E+00 0. -1.
<mgrwt>
<rscale>  1 0.12828578E+03</rscale>
<asrwt>0</asrwt>
<pdfrwt beam="1">  1        4 0.79217317E-02 0.12828578E+03</pdfrwt>
<pdfrwt beam="2">  1       -4 0.27955487E-01 0.12828578E+03</pdfrwt>
<totfact> 0.22116381E+03</totfact>
</mgrwt>
</event>
<event>
 6    4  0.2220150E-003  0.1268736E+03  0.7818608E-02  0.1232170E+00
         -4   -1    0    0    0  501 -0.00000000000E+00  0.00000000000E+00  0.50094554210E+02  0.50110650180E+02  0.12700000000E+01 0. -1.
          4   -1    0    0  502    0  0.00000000000E+00 -0.00000000000E+00 -0.11079770710E+03  0.11080498544E+03  0.12700000000E+01 0. -1.
         25    2    1    2    0    0  0.19231799743E+02 -0.10117032282E+02 -0.55995590348E+02  0.13868103176E+03  0.12499882387E+03 0.  0.
    9000005    1    3    3    0    0 -0.34662082844E+02 -0.35646827280E+02 -0.61145546688E+02  0.78815824312E+02  0.10000000000E+01 0.  0.
    9000005    1    3    3    0    0  0.53893882587E+02  0.25529794998E+02  0.51499563400E+01  0.59865207452E+02  0.10000000000E+01 0.  0.
         21    1    1    2  502  501 -0.19231799743E+02  0.10117032282E+02 -0.47075625397E+01  0.22234603856E+02  0.00000000000E+00 0.  1.
<mgrwt>
<rscale>  1 0.12687365E+03</rscale>
<asrwt>0</asrwt>
<pdfrwt beam="2">  1        4 0.17047599E-01 0.12687365E+03</pdfrwt>
<pdfrwt beam="1">  1       -4 0.77086526E-02 0.12687365E+03</pdfrwt>
<totfact> 0.56634913E+03</totfact>
</mgrwt>
</event>
<event>
 6    4  0.2220150E-003  0.1279058E+03  0.7818608E-02  0.1230597E+00
          4   -1    0    0  502    0  0.00000000000E+00  0.00000000000E+00  0.40285618365E+02  0.40305631704E+02  0.12700000000E+01 0. -1.
         -4   -1    0    0    0  501 -0.00000000000E+00 -0.00000000000E+00 -0.18865563324E+03  0.18865990791E+03  0.12700000000E+01 0. -1.
         25    2    1    2    0    0  0.74686718689E+01 -0.26054108108E+02 -0.69499772202E+02  0.14556822079E+03  0.12500116383E+03 0.  0.
    9000005    1    3    3    0    0 -0.24444203797E+02 -0.69658311918E+02 -0.38510244613E+02  0.83269673103E+02  0.10000000000E+01 0.  0.
    9000005    1    3    3    0    0  0.31912875665E+02  0.43604203810E+02 -0.30989527589E+02  0.62298547683E+02  0.10000000000E+01 0.  0.
         21    1    1    2  502  501 -0.74686718689E+01  0.26054108108E+02 -0.78870242670E+02  0.83397318827E+02  0.00000000000E+00 0. -1.
<mgrwt>
<rscale>  1 0.12790578E+03</rscale>
<asrwt>0</asrwt>
<pdfrwt beam="1">  1        4 0.61996558E-02 0.12790578E+03</pdfrwt>
<pdfrwt beam="2">  1       -4 0.29025811E-01 0.12790578E+03</pdfrwt>
<totfact> 0.30787779E+03</totfact>
</mgrwt>
</event>
<event>
 6    4  0.2220150E-003  0.1282403E+03  0.7818608E-02  0.1230090E+00
          4   -1    0    0  502    0  0.00000000000E+00  0.00000000000E+00  0.60610558079E+02  0.60623862056E+02  0.12700000000E+01 0. -1.
         -4   -1    0    0    0  501 -0.00000000000E+00 -0.00000000000E+00 -0.22238384424E+03  0.22238747060E+03  0.12700000000E+01 0. -1.
         25    2    1    2    0    0  0.28493390643E+02 -0.29818720151E+01 -0.10079408368E+02  0.12863582478E+03  0.12499926429E+03 0.  0.
    9000005    1    3    3    0    0 -0.39886767470E+02  0.17132147632E+02 -0.32132773493E+02  0.54018328686E+02  0.10000000000E+01 0.  0.
    9000005    1    3    3    0    0  0.68380158114E+02 -0.20114019647E+02  0.22053365125E+02  0.74617496094E+02  0.10000000000E+01 0.  0.
         21    1    1    2  502  501 -0.28493390643E+02  0.29818720151E+01 -0.15169387779E+03  0.15437550787E+03  0.00000000000E+00 0. -1.
<mgrwt>
<rscale>  1 0.12824032E+03</rscale>
<asrwt>0</asrwt>
<pdfrwt beam="1">  1        4 0.93260037E-02 0.12824032E+03</pdfrwt>
<pdfrwt beam="2">  1       -4 0.34214201E-01 0.12824032E+03</pdfrwt>
<totfact> 0.11494040E+03</totfact>
</mgrwt>
</event>
<event>
 6    4  0.2220150E-003  0.1288688E+03  0.7818608E-02  0.1229144E+00
         -4   -1    0    0    0  501 -0.00000000000E+00  0.00000000000E+00  0.10723912333E+03  0.10724664318E+03  0.12700000000E+01 0.  1.
          4   -1    0    0  502    0  0.00000000000E+00 -0.00000000000E+00 -0.59818869567E+02  0.59832349580E+02  0.12700000000E+01 0.  1.
         25    2    1    2    0    0 -0.12183317132E+02 -0.28863517752E+02  0.37400692147E+02  0.13418632658E+03  0.12500249035E+03 0.  0.
    9000005    1    3    3    0    0 -0.29151267055E+02 -0.33617759001E+02 -0.36901996031E+02  0.57816151742E+02  0.10000000000E+01 0.  0.
    9000005    1    3    3    0    0  0.16967949923E+02  0.47542412487E+01  0.74302688178E+02  0.76370174839E+02  0.10000000000E+01 0.  0.
         21    1    1    2  502  501  0.12183317132E+02  0.28863517752E+02  0.10019561620E+02  0.32892666180E+02  0.00000000000E+00 0.  1.
<mgrwt>
<rscale>  1 0.12886876E+03</rscale>
<asrwt>0</asrwt>
<pdfrwt beam="2">  1        4 0.92045185E-02 0.12886876E+03</pdfrwt>
<pdfrwt beam="1">  1       -4 0.16499942E-01 0.12886876E+03</pdfrwt>
<totfact> 0.44861719E+03</totfact>
</mgrwt>
</event>
<event>
 6    4  0.2220150E-003  0.1268415E+03  0.7818608E-02  0.1232219E+00
          4   -1    0    0  502    0  0.00000000000E+00  0.00000000000E+00  0.17717601801E+02  0.17763060367E+02  0.12700000000E+01 0.  1.
         -4   -1    0    0    0  501 -0.00000000000E+00 -0.00000000000E+00 -0.31236892891E+03  0.31237151063E+03  0.12700000000E+01 0.  1.
         25    2    1    2    0    0 -0.80438185285E+01 -0.19964118183E+02 -0.24133885440E+03  0.27264119070E+03  0.12500202874E+03 0.  0.
    9000005    1    3    3    0    0  0.49101604817E+02 -0.15732257801E+02 -0.18583987962E+03  0.19286247014E+03  0.10000000000E+01 0.  0.
    9000005    1    3    3    0    0 -0.57145423346E+02 -0.42318603819E+01 -0.55498974779E+02  0.79778720554E+02  0.10000000000E+01 0.  0.
         21    1    1    2  502  501  0.80438185285E+01  0.19964118183E+02 -0.53312472711E+02  0.57493380297E+02  0.00000000000E+00 0.  1.
<mgrwt>
<rscale>  1 0.12684154E+03</rscale>
<asrwt>0</asrwt>
<pdfrwt beam="1">  1        4 0.27294805E-02 0.12684154E+03</pdfrwt>
<pdfrwt beam="2">  1       -4 0.48060450E-01 0.12684154E+03</pdfrwt>
<totfact> 0.42410315E+03</totfact>
</mgrwt>
</event>
<event>
 6    4  0.2220150E-003  0.1272013E+03  0.7818608E-02  0.1231669E+00
         -4   -1    0    0    0  501 -0.00000000000E+00  0.00000000000E+00  0.20369620198E+02  0.20409172619E+02  0.12700000000E+01 0.  1.
          4   -1    0    0  502    0  0.00000000000E+00 -0.00000000000E+00 -0.98431802694E+03  0.98431884624E+03  0.12700000000E+01 0.  1.
         25    2    1    2    0    0 -0.62809374250E+01  0.22700211840E+02 -0.97165532455E+03  0.97994604205E+03  0.12500170325E+03 0.  0.
    9000005    1    3    3    0    0  0.36312018189E+02 -0.23069172812E+01 -0.92501087656E+02  0.99404908077E+02  0.10000000000E+01 0.  0.
    9000005    1    3    3    0    0 -0.42592955614E+02  0.25007129122E+02 -0.87915423689E+03  0.88054113397E+03  0.10000000000E+01 0.  0.
         21    1    1    2  502  501  0.62809374250E+01 -0.22700211840E+02  0.77069178030E+01  0.24781976809E+02  0.00000000000E+00 0.  1.
<mgrwt>
<rscale>  1 0.12720132E+03</rscale>
<asrwt>0</asrwt>
<pdfrwt beam="2">  1        4 0.15143661E+00 0.12720132E+03</pdfrwt>
<pdfrwt beam="1">  1       -4 0.31368940E-02 0.12720132E+03</pdfrwt>
<totfact> 0.25816029E+02</totfact>
</mgrwt>
</event>
<event>
 6    4  0.2220150E-003  0.1267157E+03  0.7818608E-02  0.1232412E+00
          4   -1    0    0  502    0  0.00000000000E+00  0.00000000000E+00  0.20757930051E+03  0.20758318549E+03  0.12700000000E+01 0.  1.
         -4   -1    0    0    0  501 -0.00000000000E+00 -0.00000000000E+00 -0.28414715267E+02  0.28443082528E+02  0.12700000000E+01 0.  1.
         25    2    1    2    0    0  0.18292485565E+01  0.20701918084E+02  0.17281779645E+03  0.21429616699E+03  0.12499976342E+03 0.  0.
    9000005    1    3    3    0    0 -0.36559562987E+02  0.58412688095E+02  0.69939208250E+02  0.98189289777E+02  0.10000000000E+01 0.  0.
    9000005    1    3    3    0    0  0.38388811544E+02 -0.37710770011E+02  0.10287858820E+03  0.11610687722E+03  0.10000000000E+01 0.  0.
         21    1    1    2  502  501 -0.18292485565E+01 -0.20701918084E+02  0.63467887862E+01  0.21730101025E+02  0.00000000000E+00 0.  1.
<mgrwt>
<rscale>  1 0.12671565E+03</rscale>
<asrwt>0</asrwt>
<pdfrwt beam="1">  1        4 0.31937757E-01 0.12671565E+03</pdfrwt>
<pdfrwt beam="2">  1       -4 0.43739758E-02 0.12671565E+03</pdfrwt>
<totfact> 0.44945615E+03</totfact>
</mgrwt>
</event>
<event>
 6    4  0.2220150E-003  0.1332247E+03  0.7818608E-02  0.1222748E+00
         -4   -1    0    0    0  501 -0.00000000000E+00  0.00000000000E+00  0.21739281656E+03  0.21739652617E+03  0.12700000000E+01 0.  1.
          4   -1    0    0  502    0  0.00000000000E+00 -0.00000000000E+00 -0.38771949062E+02  0.38792743317E+02  0.12700000000E+01 0.  1.
         25    2    1    2    0    0  0.36731462676E+02  0.27834759695E+02  0.10631848232E+03  0.17044774454E+03  0.12499935896E+03 0.  0.
    9000005    1    3    3    0    0  0.26021757442E+02 -0.24550476756E+02 -0.14273065541E+02  0.38530224101E+02  0.10000000000E+01 0.  0.
    9000005    1    3    3    0    0  0.10709705234E+02  0.52385236451E+02  0.12059154786E+03  0.13191752044E+03  0.10000000000E+01 0.  0.
         21    1    1    2  502  501 -0.36731462676E+02 -0.27834759695E+02  0.72302385184E+02  0.85741524950E+02  0.00000000000E+00 0.  1.
<mgrwt>
<rscale>  1 0.13322467E+03</rscale>
<asrwt>0</asrwt>
<pdfrwt beam="2">  1        4 0.59668001E-02 0.13322467E+03</pdfrwt>
<pdfrwt beam="1">  1       -4 0.33446934E-01 0.13322467E+03</pdfrwt>
<totfact> 0.25277905E+03</totfact>
</mgrwt>
</event>
<event>
 6    4  0.2220150E-003  0.1279847E+03  0.7818608E-02  0.1230477E+00
         -4   -1    0    0    0  501 -0.00000000000E+00  0.00000000000E+00  0.49142164862E+02  0.49158572674E+02  0.12700000000E+01 0. -1.
          4   -1    0    0  502    0  0.00000000000E+00 -0.00000000000E+00 -0.38055683482E+03  0.38055895395E+03  0.12700000000E+01 0. -1.
         25    2    1    2    0    0 -0.21426558711E+02 -0.17211468022E+02 -0.36472748285E+03  0.38653100613E+03  0.12499899962E+03 0.  0.
    9000005    1    3    3    0    0  0.10289869577E+02  0.26564290531E+01 -0.34315660973E+03  0.34332258421E+03  0.10000000000E+01 0.  0.
    9000005    1    3    3    0    0 -0.31716428288E+02 -0.19867897075E+02 -0.21570873122E+02  0.43208421920E+02  0.10000000000E+01 0.  0.
         21    1    1    2  502  501  0.21426558711E+02  0.17211468022E+02  0.33312812887E+02  0.43186520491E+02  0.00000000000E+00 0. -1.
<mgrwt>
<rscale>  1 0.12798469E+03</rscale>
<asrwt>0</asrwt>
<pdfrwt beam="2">  1        4 0.58548629E-01 0.12798469E+03</pdfrwt>
<pdfrwt beam="1">  1       -4 0.75617584E-02 0.12798469E+03</pdfrwt>
<totfact> 0.55544632E+02</totfact>
</mgrwt>
</event>
<event>
 6    4  0.2220150E-003  0.1411092E+03  0.7818608E-02  0.1211844E+00
          4   -1    0    0  502    0  0.00000000000E+00  0.00000000000E+00  0.17790015990E+03  0.17790469301E+03  0.12700000000E+01 0.  1.
         -4   -1    0    0    0  501 -0.00000000000E+00 -0.00000000000E+00 -0.59960857436E+02  0.59974305536E+02  0.12700000000E+01 0.  1.
         25    2    1    2    0    0  0.22133277363E+02 -0.61599160522E+02  0.82083030274E+02  0.16324649356E+03  0.12500982064E+03 0.  0.
    9000005    1    3    3    0    0  0.10051150506E+02 -0.72125934672E+02  0.10947988110E+03  0.13149152233E+03  0.10000000000E+01 0.  0.
    9000005    1    3    3    0    0  0.12082126858E+02  0.10526774150E+02 -0.27396850821E+02  0.31754971238E+02  0.10000000000E+01 0.  0.
         21    1    1    2  502  501 -0.22133277363E+02  0.61599160522E+02  0.35856272192E+02  0.74632504979E+02  0.00000000000E+00 0.  1.
<mgrwt>
<rscale>  1 0.14110916E+03</rscale>
<asrwt>0</asrwt>
<pdfrwt beam="1">  1        4 0.27370639E-01 0.14110916E+03</pdfrwt>
<pdfrwt beam="2">  1       -4 0.92261305E-02 0.14110916E+03</pdfrwt>
<totfact> 0.18237976E+03</totfact>
</mgrwt>
</event>
<event>
 6    4  0.2220150E-003  0.1276191E+03  0.7818608E-02  0.1231032E+00
          4   -1    0    0  502    0  0.00000000000E+00  0.00000000000E+00  0.18005910809E+02  0.18050643315E+02  0.12700000000E+01 0. -1.
         -4   -1    0    0    0  501 -0.00000000000E+00 -0.00000000000E+00 -0.32810762185E+03  0.32811007973E+03  0.12700000000E+01 0. -1.
         25    2    1    2    0    0 -0.71532820264E+01  0.24715183827E+02 -0.24715838458E+03  0.27816166348E+03  0.12499853681E+03 0.  0.
    9000005    1    3    3    0    0  0.45357019725E+02 -0.21855912149E+02 -0.15052015915E+03  0.15872069318E+03  0.10000000000E+01 0.  0.
    9000005    1    3    3    0    0 -0.52510301751E+02  0.46571095976E+02 -0.96638225437E+02  0.11944097030E+03  0.10000000000E+01 0.  0.
         21    1    1    2  502  501  0.71532820264E+01 -0.24715183827E+02 -0.62943326460E+02  0.67999059561E+02  0.00000000000E+00 0.  1.
<mgrwt>
<rscale>  1 0.12761914E+03</rscale>
<asrwt>0</asrwt>
<pdfrwt beam="1">  1        4 0.27737704E-02 0.12761914E+03</pdfrwt>
<pdfrwt beam="2">  1       -4 0.50481721E-01 0.12761914E+03</pdfrwt>
<totfact> 0.37490027E+03</totfact>
</mgrwt>
</event>
<event>
 6    4  0.2220150E-003  0.1266811E+03  0.7818608E-02  0.1232465E+00
          4   -1    0    0  502    0  0.00000000000E+00  0.00000000000E+00  0.81192669988E+02  0.81202601927E+02  0.12700000000E+01 0.  1.
         -4   -1    0    0    0  501 -0.00000000000E+00 -0.00000000000E+00 -0.87956170742E+02  0.87965339035E+02  0.12700000000E+01 0.  1.
         25    2    1    2    0    0 -0.20547913021E+02 -0.93520198373E+00  0.27099579938E+02  0.12954724478E+03  0.12500004026E+03 0.  0.
    9000005    1    3    3    0    0  0.28705421631E+02 -0.27677706818E+02  0.54192121370E+02  0.67289246573E+02  0.10000000000E+01 0.  0.
    9000005    1    3    3    0    0 -0.49253334652E+02  0.26742504834E+02 -0.27092541432E+02  0.62257998204E+02  0.10000000000E+01 0.  0.
         21    1    1    2  502  501  0.20547913021E+02  0.93520198373E+00 -0.33863080692E+02  0.39620696185E+02  0.00000000000E+00 0.  1.
<mgrwt>
<rscale>  1 0.12668110E+03</rscale>
<asrwt>0</asrwt>
<pdfrwt beam="1">  1        4 0.12492649E-01 0.12668110E+03</pdfrwt>
<pdfrwt beam="2">  1       -4 0.13533188E-01 0.12668110E+03</pdfrwt>
<totfact> 0.37634139E+03</totfact>
</mgrwt>
</event>
<event>
 6    4  0.2220150E-003  0.1307565E+03  0.7818608E-02  0.1226338E+00
         -4   -1    0    0    0  501 -0.00000000000E+00  0.00000000000E+00  0.57742234093E+02  0.57756198784E+02  0.12700000000E+01 0. -1.
          4   -1    0    0  502    0  0.00000000000E+00 -0.00000000000E+00 -0.16125520923E+03  0.16126021023E+03  0.12700000000E+01 0. -1.
         25    2    1    2    0    0  0.31090167516E+02  0.22442747742E+02 -0.11981601209E+03  0.17735030221E+03  0.12500790974E+03 0.  0.
    9000005    1    3    3    0    0 -0.30244607470E+02  0.46606182275E+02 -0.88165627248E+02  0.10421636309E+03  0.10000000000E+01 0.  0.
    9000005    1    3    3    0    0  0.61334774986E+02 -0.24163434533E+02 -0.31650384845E+02  0.73133939125E+02  0.10000000000E+01 0.  0.
         21    1    1    2  502  501 -0.31090167516E+02 -0.22442747742E+02  0.16303036953E+02  0.41666106805E+02  0.00000000000E+00 0. -1.
<mgrwt>
<rscale>  1 0.13075646E+03</rscale>
<asrwt>0</asrwt>
<pdfrwt beam="2">  1        4 0.24809952E-01 0.13075646E+03</pdfrwt>
<pdfrwt beam="1">  1       -4 0.88848796E-02 0.13075646E+03</pdfrwt>
<totfact> 0.22916186E+03</totfact>
</mgrwt>
</event>
<event>
 6    4  0.2220150E-003  0.1387022E+03  0.7818608E-02  0.1215086E+00
          4   -1    0    0  502    0  0.00000000000E+00  0.00000000000E+00  0.40923438881E+03  0.40923635943E+03  0.12700000000E+01 0.  1.
         -4   -1    0    0    0  501 -0.00000000000E+00 -0.00000000000E+00 -0.24456640942E+02  0.24489593425E+02  0.12700000000E+01 0.  1.
         25    2    1    2    0    0 -0.10267619330E+02  0.59233487971E+02  0.29047092950E+03  0.32188764952E+03  0.12499707166E+03 0.  0.
    9000005    1    3    3    0    0  0.30663275961E+02 -0.26983038596E+02  0.61658980130E+02  0.73967227170E+02  0.10000000000E+01 0.  0.
    9000005    1    3    3    0    0 -0.40930895291E+02  0.86216526567E+02  0.22881194937E+03  0.24792042235E+03  0.10000000000E+01 0.  0.
         21    1    1    2  502  501  0.10267619330E+02 -0.59233487971E+02  0.94306818362E+02  0.11183830334E+03  0.00000000000E+00 0.  1.
<mgrwt>
<rscale>  1 0.13870219E+03</rscale>
<asrwt>0</asrwt>
<pdfrwt beam="1">  1        4 0.62961821E-01 0.13870219E+03</pdfrwt>
<pdfrwt beam="2">  1       -4 0.37652467E-02 0.13870219E+03</pdfrwt>
<totfact> 0.14940157E+03</totfact>
</mgrwt>
</event>
<event>
 6    4  0.2220150E-003  0.1273158E+03  0.7818608E-02  0.1231494E+00
         -4   -1    0    0    0  501 -0.00000000000E+00  0.00000000000E+00  0.69466954814E+01  0.70618324896E+01  0.12700000000E+01 0.  1.
          4   -1    0    0  502    0  0.00000000000E+00 -0.00000000000E+00 -0.10342965369E+04  0.10342973166E+04  0.12700000000E+01 0.  1.
         25    2    1    2    0    0  0.24143141258E+01 -0.24053850294E+02 -0.97959676658E+03  0.98783557687E+03  0.12499954087E+03 0.  0.
    9000005    1    3    3    0    0 -0.43789078330E+02 -0.52266632144E+02 -0.67764931612E+03  0.68107186101E+03  0.10000000000E+01 0.  0.
    9000005    1    3    3    0    0  0.46203392456E+02  0.28212781850E+02 -0.30194745046E+03  0.30676371587E+03  0.10000000000E+01 0.  0.
         21    1    1    2  502  501 -0.24143141258E+01  0.24053850294E+02 -0.47753074808E+02  0.53523572193E+02  0.00000000000E+00 0.  1.
<mgrwt>
<rscale>  1 0.12731576E+03</rscale>
<asrwt>0</asrwt>
<pdfrwt beam="2">  1        4 0.15913134E+00 0.12731576E+03</pdfrwt>
<pdfrwt beam="1">  1       -4 0.10776399E-02 0.12731576E+03</pdfrwt>
<totfact> 0.11717178E+03</totfact>
</mgrwt>
</event>
<event>
 6    4  0.2220150E-003  0.1291012E+03  0.7818608E-02  0.1228795E+00
         -4   -1    0    0    0  501 -0.00000000000E+00  0.00000000000E+00  0.26261451563E+03  0.26261758646E+03  0.12700000000E+01 0.  1.
          4   -1    0    0  502    0  0.00000000000E+00 -0.00000000000E+00 -0.27676970785E+02  0.27706093406E+02  0.12700000000E+01 0.  1.
         25    2    1    2    0    0  0.19228878329E+02  0.25939337558E+02  0.14189074377E+03  0.19183354745E+03  0.12499811104E+03 0.  0.
    9000005    1    3    3    0    0  0.37520584097E+02 -0.22128735703E+00  0.15337008499E+03  0.15789625129E+03  0.10000000000E+01 0.  0.
    9000005    1    3    3    0    0 -0.18291705767E+02  0.26160624915E+02 -0.11479341221E+02  0.33937296161E+02  0.10000000000E+01 0.  0.
         21    1    1    2  502  501 -0.19228878329E+02 -0.25939337558E+02  0.93046801071E+02  0.98490132421E+02  0.00000000000E+00 0.  1.
<mgrwt>
<rscale>  1 0.12910123E+03</rscale>
<asrwt>0</asrwt>
<pdfrwt beam="2">  1        4 0.42604721E-02 0.12910123E+03</pdfrwt>
<pdfrwt beam="1">  1       -4 0.40404708E-01 0.12910123E+03</pdfrwt>
<totfact> 0.29870429E+03</totfact>
</mgrwt>
</event>
<event>
 6    4  0.2220150E-003  0.1324432E+03  0.7818608E-02  0.1223875E+00
         -4   -1    0    0    0  501 -0.00000000000E+00  0.00000000000E+00  0.66807803977E+02  0.66819874081E+02  0.12700000000E+01 0. -1.
          4   -1    0    0  502    0  0.00000000000E+00 -0.00000000000E+00 -0.15460705007E+03  0.15461226611E+03  0.12700000000E+01 0. -1.
         25    2    1    2    0    0  0.64385843753E+01  0.43292069917E+02 -0.11017301638E+03  0.17227683240E+03  0.12500221902E+03 0.  0.
    9000005    1    3    3    0    0  0.24505683014E+02  0.82430308326E+02 -0.90616310799E+02  0.12493038067E+03  0.10000000000E+01 0.  0.
    9000005    1    3    3    0    0 -0.18067098639E+02 -0.39138238409E+02 -0.19556705581E+02  0.47346451738E+02  0.10000000000E+01 0.  0.
         21    1    1    2  502  501 -0.64385843753E+01 -0.43292069917E+02  0.22373770288E+02  0.49155307784E+02  0.00000000000E+00 0. -1.
<mgrwt>
<rscale>  1 0.13244325E+03</rscale>
<asrwt>0</asrwt>
<pdfrwt beam="2">  1        4 0.23787030E-01 0.13244325E+03</pdfrwt>
<pdfrwt beam="1">  1       -4 0.10279453E-01 0.13244325E+03</pdfrwt>
<totfact> 0.19445169E+03</totfact>
</mgrwt>
</event>
<event>
 6    4  0.2220150E-003  0.1269942E+03  0.7818608E-02  0.1231985E+00
         -4   -1    0    0    0  501 -0.00000000000E+00  0.00000000000E+00  0.99726421685E+01  0.10053183169E+02  0.12700000000E+01 0.  1.
          4   -1    0    0  502    0  0.00000000000E+00 -0.00000000000E+00 -0.55740674636E+03  0.55740819315E+03  0.12700000000E+01 0.  1.
         25    2    1    2    0    0  0.14310794110E+02  0.17253651500E+02 -0.46824123527E+03  0.48515707627E+03  0.12500018771E+03 0.  0.
    9000005    1    3    3    0    0 -0.22625720441E+01 -0.11046487810E+02  0.38273501950E+01  0.11949591403E+02  0.10000000000E+01 0.  0.
    9000005    1    3    3    0    0  0.16573366155E+02  0.28300139310E+02 -0.47206858546E+03  0.47320748486E+03  0.10000000000E+01 0.  0.
         21    1    1    2  502  501 -0.14310794110E+02 -0.17253651500E+02 -0.79192868928E+02  0.82304300053E+02  0.00000000000E+00 0. -1.
<mgrwt>
<rscale>  1 0.12699423E+03</rscale>
<asrwt>0</asrwt>
<pdfrwt beam="2">  1        4 0.85761167E-01 0.12699423E+03</pdfrwt>
<pdfrwt beam="1">  1       -4 0.15405598E-02 0.12699423E+03</pdfrwt>
<totfact> 0.29922260E+03</totfact>
</mgrwt>
</event>
<event>
 6    4  0.2220150E-003  0.1351086E+03  0.7818608E-02  0.1220066E+00
          4   -1    0    0  502    0  0.00000000000E+00  0.00000000000E+00  0.98961898484E+02  0.98970047245E+02  0.12700000000E+01 0.  1.
         -4   -1    0    0    0  501 -0.00000000000E+00 -0.00000000000E+00 -0.98519199439E+02  0.98527384813E+02  0.12700000000E+01 0.  1.
         25    2    1    2    0    0 -0.15349159114E+02  0.48947892853E+02  0.29851847360E+02  0.13836714452E+03  0.12499136366E+03 0.  0.
    9000005    1    3    3    0    0 -0.22949603539E+02  0.69902101969E+02 -0.26146488079E+02  0.78087303713E+02  0.10000000000E+01 0.  0.
    9000005    1    3    3    0    0  0.76004444250E+01 -0.20954209116E+02  0.55998335440E+02  0.60279840802E+02  0.10000000000E+01 0.  0.
         21    1    1    2  502  501  0.15349159114E+02 -0.48947892853E+02 -0.29409148315E+02  0.59130287542E+02  0.00000000000E+00 0.  1.
<mgrwt>
<rscale>  1 0.13510860E+03</rscale>
<asrwt>0</asrwt>
<pdfrwt beam="1">  1        4 0.15226164E-01 0.13510860E+03</pdfrwt>
<pdfrwt beam="2">  1       -4 0.15158056E-01 0.13510860E+03</pdfrwt>
<totfact> 0.22279409E+03</totfact>
</mgrwt>
</event>
<event>
 6    4  0.2220150E-003  0.1276301E+03  0.7818608E-02  0.1231015E+00
         -4   -1    0    0    0  501 -0.00000000000E+00  0.00000000000E+00  0.47166456188E+02  0.47183551046E+02  0.12700000000E+01 0. -1.
          4   -1    0    0  502    0  0.00000000000E+00 -0.00000000000E+00 -0.23593908058E+03  0.23594249859E+03  0.12700000000E+01 0. -1.
         25    2    1    2    0    0 -0.23251789204E+02  0.11129540584E+02 -0.21263540324E+03  0.24799850220E+03  0.12499972001E+03 0.  0.
    9000005    1    3    3    0    0  0.12924910091E+02  0.51728375769E+02 -0.39062590953E+02  0.66104191792E+02  0.10000000000E+01 0.  0.
    9000005    1    3    3    0    0 -0.36176699295E+02 -0.40598835185E+02 -0.17357281229E+03  0.18189431040E+03  0.10000000000E+01 0.  0.
         21    1    1    2  502  501  0.23251789204E+02 -0.11129540584E+02  0.23862778857E+02  0.35127547446E+02  0.00000000000E+00 0. -1.
<mgrwt>
<rscale>  1 0.12763010E+03</rscale>
<asrwt>0</asrwt>
<pdfrwt beam="2">  1        4 0.36299897E-01 0.12763010E+03</pdfrwt>
<pdfrwt beam="1">  1       -4 0.72579559E-02 0.12763010E+03</pdfrwt>
<totfact> 0.15522432E+03</totfact>
</mgrwt>
</event>
<event>
 6    4  0.2220150E-003  0.1297179E+03  0.7818608E-02  0.1227875E+00
          4   -1    0    0  502    0  0.00000000000E+00  0.00000000000E+00  0.76264310949E+02  0.76274884625E+02  0.12700000000E+01 0. -1.
         -4   -1    0    0    0  501 -0.00000000000E+00 -0.00000000000E+00 -0.10651821341E+03  0.10652578415E+03  0.12700000000E+01 0. -1.
         25    2    1    2    0    0  0.22431402235E+02 -0.26431901984E+02  0.94866262668E+01  0.13006431630E+03  0.12499966819E+03 0.  0.
    9000005    1    3    3    0    0 -0.49864242084E+02  0.59875018952E+01  0.75975147647E+01  0.50803691284E+02  0.10000000000E+01 0.  0.
    9000005    1    3    3    0    0  0.72295644319E+02 -0.32419403879E+02  0.18891115020E+01  0.79260625014E+02  0.10000000000E+01 0.  0.
         21    1    1    2  502  501 -0.22431402235E+02  0.26431901984E+02 -0.39740528732E+02  0.52736352477E+02  0.00000000000E+00 0. -1.
<mgrwt>
<rscale>  1 0.12971789E+03</rscale>
<asrwt>0</asrwt>
<pdfrwt beam="1">  1        4 0.11734367E-01 0.12971789E+03</pdfrwt>
<pdfrwt beam="2">  1       -4 0.16388813E-01 0.12971789E+03</pdfrwt>
<totfact> 0.30176431E+03</totfact>
</mgrwt>
</event>
<event>
 6    4  0.2220150E-003  0.1335453E+03  0.7818608E-02  0.1222288E+00
         -4   -1    0    0    0  501 -0.00000000000E+00  0.00000000000E+00  0.35822262447E+03  0.35822487571E+03  0.12700000000E+01 0.  1.
          4   -1    0    0  502    0  0.00000000000E+00 -0.00000000000E+00 -0.24233626535E+02  0.24266881857E+02  0.12700000000E+01 0.  1.
         25    2    1    2    0    0  0.64318641788E+01  0.46564877613E+02  0.19992346680E+03  0.24042408587E+03  0.12499876714E+03 0.  0.
    9000005    1    3    3    0    0 -0.23512721273E+02  0.80734425864E+02  0.10005231929E+03  0.13069951101E+03  0.10000000000E+01 0.  0.
    9000005    1    3    3    0    0  0.29944585451E+02 -0.34169548251E+02  0.99871147503E+02  0.10972457486E+03  0.10000000000E+01 0.  0.
         21    1    1    2  502  501 -0.64318641788E+01 -0.46564877613E+02  0.13406553113E+03  0.14206767170E+03  0.00000000000E+00 0.  1.
<mgrwt>
<rscale>  1 0.13354531E+03</rscale>
<asrwt>0</asrwt>
<pdfrwt beam="2">  1        4 0.37309815E-02 0.13354531E+03</pdfrwt>
<pdfrwt beam="1">  1       -4 0.55113905E-01 0.13354531E+03</pdfrwt>
<totfact> 0.19865889E+03</totfact>
</mgrwt>
</event>
<event>
 6    4  0.2220150E-003  0.1312924E+03  0.7818608E-02  0.1225551E+00
          4   -1    0    0  502    0  0.00000000000E+00  0.00000000000E+00  0.42484773200E+02  0.42503751056E+02  0.12700000000E+01 0.  1.
         -4   -1    0    0    0  501 -0.00000000000E+00 -0.00000000000E+00 -0.17618300716E+03  0.17618758445E+03  0.12700000000E+01 0.  1.
         25    2    1    2    0    0 -0.40002997147E+02 -0.34761305856E+01 -0.89049233291E+02  0.15864255095E+03  0.12500147903E+03 0.  0.
    9000005    1    3    3    0    0 -0.65348747766E+02 -0.44137143083E+02 -0.34638905949E+02  0.86135939302E+02  0.10000000000E+01 0.  0.
    9000005    1    3    3    0    0  0.25345750619E+02  0.40661012497E+02 -0.54410327342E+02  0.72506611652E+02  0.10000000000E+01 0.  0.
         21    1    1    2  502  501  0.40002997147E+02  0.34761305856E+01 -0.44649000671E+02  0.60048784547E+02  0.00000000000E+00 0.  1.
<mgrwt>
<rscale>  1 0.13129240E+03</rscale>
<asrwt>0</asrwt>
<pdfrwt beam="1">  1        4 0.65379310E-02 0.13129240E+03</pdfrwt>
<pdfrwt beam="2">  1       -4 0.27106890E-01 0.13129240E+03</pdfrwt>
<totfact> 0.32293239E+03</totfact>
</mgrwt>
</event>
<event>
 6    4  0.2220150E-003  0.1281990E+03  0.7818608E-02  0.1230153E+00
         -4   -1    0    0    0  501 -0.00000000000E+00  0.00000000000E+00  0.31557004589E+03  0.31557260141E+03  0.12700000000E+01 0.  1.
          4   -1    0    0  502    0  0.00000000000E+00 -0.00000000000E+00 -0.19535293452E+02  0.19576531620E+02  0.12700000000E+01 0.  1.
         25    2    1    2    0    0 -0.20323420068E+02  0.19922566560E+02  0.25166827175E+03  0.28243922249E+03  0.12500018132E+03 0.  0.
    9000005    1    3    3    0    0 -0.38547491121E+02  0.55391799222E+02  0.73194480938E+02  0.99562003458E+02  0.10000000000E+01 0.  0.
    9000005    1    3    3    0    0  0.18224071053E+02 -0.35469232662E+02  0.17847379082E+03  0.18287721903E+03  0.10000000000E+01 0.  0.
         21    1    1    2  502  501  0.20323420068E+02 -0.19922566560E+02  0.44366480683E+02  0.52709910546E+02  0.00000000000E+00 0.  1.
<mgrwt>
<rscale>  1 0.12819905E+03</rscale>
<asrwt>0</asrwt>
<pdfrwt beam="2">  1        4 0.30087984E-02 0.12819905E+03</pdfrwt>
<pdfrwt beam="1">  1       -4 0.48552608E-01 0.12819905E+03</pdfrwt>
<totfact> 0.35776766E+03</totfact>
</mgrwt>
</event>
<event>
 6    4  0.2220150E-003  0.2365918E+03  0.7818608E-02  0.1122084E+00
          4   -1    0    0  502    0  0.00000000000E+00  0.00000000000E+00  0.45414941341E+03  0.45415118914E+03  0.12700000000E+01 0. -1.
         -4   -1    0    0    0  501 -0.00000000000E+00 -0.00000000000E+00 -0.11027238908E+03  0.11027970209E+03  0.12700000000E+01 0. -1.
         25    2    1    2    0    0  0.22676082816E+01  0.20086387615E+03  0.24481650789E+03  0.34045673043E+03  0.12499689585E+03 0.  0.
    9000005    1    3    3    0    0  0.35521797012E+01  0.18977978037E+03  0.14205322171E+03  0.23708458578E+03  0.10000000000E+01 0.  0.
    9000005    1    3    3    0    0 -0.12845714197E+01  0.11084095783E+02  0.10276328618E+03  0.10337214465E+03  0.10000000000E+01 0.  0.
         21    1    1    2  502  501 -0.22676082816E+01 -0.20086387615E+03  0.99060516440E+02  0.22397416080E+03  0.00000000000E+00 0. -1.
<mgrwt>
<rscale>  1 0.23659176E+03</rscale>
<asrwt>0</asrwt>
<pdfrwt beam="1">  1        4 0.69869841E-01 0.23659176E+03</pdfrwt>
<pdfrwt beam="2">  1       -4 0.16965682E-01 0.23659176E+03</pdfrwt>
<totfact> 0.10541936E+02</totfact>
</mgrwt>
</event>
<event>
 6    4  0.2220150E-003  0.1269423E+03  0.7818608E-02  0.1232065E+00
         -4   -1    0    0    0  501 -0.00000000000E+00  0.00000000000E+00  0.28074828121E+03  0.28075115370E+03  0.12700000000E+01 0. -1.
          4   -1    0    0  502    0  0.00000000000E+00 -0.00000000000E+00 -0.21318307588E+02  0.21356103072E+02  0.12700000000E+01 0. -1.
         25    2    1    2    0    0  0.56282082253E+01  0.21389357704E+02  0.18428634631E+03  0.22377625348E+03  0.12500069133E+03 0.  0.
    9000005    1    3    3    0    0 -0.12973342186E+02 -0.46418901104E+02  0.11660022132E+03  0.12617303040E+03  0.10000000000E+01 0.  0.
    9000005    1    3    3    0    0  0.18601550411E+02  0.67808258807E+02  0.67686124989E+02  0.97603223083E+02  0.10000000000E+01 0.  0.
         21    1    1    2  502  501 -0.56282082253E+01 -0.21389357704E+02  0.75143627312E+02  0.78331003290E+02  0.00000000000E+00 0. -1.
<mgrwt>
<rscale>  1 0.12694233E+03</rscale>
<asrwt>0</asrwt>
<pdfrwt beam="2">  1        4 0.32828682E-02 0.12694233E+03</pdfrwt>
<pdfrwt beam="1">  1       -4 0.43195168E-01 0.12694233E+03</pdfrwt>
<totfact> 0.39360585E+03</totfact>
</mgrwt>
</event>
<event>
 6    4  0.2220150E-003  0.1294974E+03  0.7818608E-02  0.1228203E+00
          4   -1    0    0  502    0  0.00000000000E+00  0.00000000000E+00  0.24508967249E+02  0.24541849474E+02  0.12700000000E+01 0. -1.
         -4   -1    0    0    0  501 -0.00000000000E+00 -0.00000000000E+00 -0.27324492185E+03  0.27324787322E+03  0.12700000000E+01 0. -1.
         25    2    1    2    0    0  0.45872432925E+00  0.33825020796E+02 -0.18831391010E+03  0.22854258613E+03  0.12500096991E+03 0.  0.
    9000005    1    3    3    0    0  0.28518546379E+02  0.30888251824E+02 -0.19503972991E+03  0.19952164753E+03  0.10000000000E+01 0.  0.
    9000005    1    3    3    0    0 -0.28059822049E+02  0.29367689722E+01  0.67258198100E+01  0.29020938606E+02  0.10000000000E+01 0.  0.
         21    1    1    2  502  501 -0.45872432925E+00 -0.33825020796E+02 -0.60422044503E+02  0.69247136561E+02  0.00000000000E+00 0. -1.
<mgrwt>
<rscale>  1 0.12949743E+03</rscale>
<asrwt>0</asrwt>
<pdfrwt beam="1">  1        4 0.37733670E-02 0.12949743E+03</pdfrwt>
<pdfrwt beam="2">  1       -4 0.42040435E-01 0.12949743E+03</pdfrwt>
<totfact> 0.33512055E+03</totfact>
</mgrwt>
</event>
<event>
 6    4  0.2220150E-003  0.1282900E+03  0.7818608E-02  0.1230015E+00
         -4   -1    0    0    0  501 -0.00000000000E+00  0.00000000000E+00  0.23585142145E+02  0.23619310532E+02  0.12700000000E+01 0. -1.
          4   -1    0    0  502    0  0.00000000000E+00 -0.00000000000E+00 -0.26220303141E+03  0.26220610706E+03  0.12700000000E+01 0. -1.
         25    2    1    2    0    0  0.80091630866E+01 -0.27751029231E+02 -0.19978167565E+03  0.23742585350E+03  0.12499620661E+03 0.  0.
    9000005    1    3    3    0    0  0.33171207703E+02 -0.70560045263E+02 -0.11018913695E+03  0.13498775837E+03  0.10000000000E+01 0.  0.
    9000005    1    3    3    0    0 -0.25162044616E+02  0.42809016031E+02 -0.89592538701E+02  0.10243809513E+03  0.10000000000E+01 0.  0.
         21    1    1    2  502  501 -0.80091630866E+01  0.27751029231E+02 -0.38836213620E+02  0.48399564100E+02  0.00000000000E+00 0. -1.
<mgrwt>
<rscale>  1 0.12828998E+03</rscale>
<asrwt>0</asrwt>
<pdfrwt beam="2">  1        4 0.40341791E-01 0.12828998E+03</pdfrwt>
<pdfrwt beam="1">  1       -4 0.36313485E-02 0.12828998E+03</pdfrwt>
<totfact> 0.38538898E+03</totfact>
</mgrwt>
</event>
<event>
 6    4  0.2220150E-003  0.1292832E+03  0.7818608E-02  0.1228523E+00
         -4   -1    0    0    0  501 -0.00000000000E+00  0.00000000000E+00  0.21204317169E+03  0.21204697489E+03  0.12700000000E+01 0. -1.
          4   -1    0    0  502    0  0.00000000000E+00 -0.00000000000E+00 -0.45467387662E+02  0.45485121092E+02  0.12700000000E+01 0. -1.
         25    2    1    2    0    0  0.56532395171E+01 -0.32513649495E+02  0.53806629933E+02  0.14003325073E+03  0.12500024546E+03 0.  0.
    9000005    1    3    3    0    0 -0.90783914197E+01 -0.74342125843E+02  0.64993867848E+01  0.75182517211E+02  0.10000000000E+01 0.  0.
    9000005    1    3    3    0    0  0.14731630937E+02  0.41828476348E+02  0.47307243148E+02  0.64850733519E+02  0.10000000000E+01 0.  0.
         21    1    1    2  502  501 -0.56532395171E+01  0.32513649495E+02  0.11276915409E+03  0.11749884525E+03  0.00000000000E+00 0. -1.
<mgrwt>
<rscale>  1 0.12928325E+03</rscale>
<asrwt>0</asrwt>
<pdfrwt beam="2">  1        4 0.69966393E-02 0.12928325E+03</pdfrwt>
<pdfrwt beam="1">  1       -4 0.32623683E-01 0.12928325E+03</pdfrwt>
<totfact> 0.20303632E+03</totfact>
</mgrwt>
</event>
<event>
 6    4  0.2220150E-003  0.1285071E+03  0.7818608E-02  0.1229688E+00
         -4   -1    0    0    0  501 -0.00000000000E+00  0.00000000000E+00  0.30672712136E+02  0.30698992976E+02  0.12700000000E+01 0. -1.
          4   -1    0    0  502    0  0.00000000000E+00 -0.00000000000E+00 -0.27534870259E+03  0.27535163140E+03  0.12700000000E+01 0. -1.
         25    2    1    2    0    0  0.25573522066E+02  0.15346385649E+02 -0.24451259542E+03  0.27622541220E+03  0.12499820978E+03 0.  0.
    9000005    1    3    3    0    0 -0.66751498451E+01 -0.39380543996E+02 -0.23699094746E+02  0.46454622619E+02  0.10000000000E+01 0.  0.
    9000005    1    3    3    0    0  0.32248671911E+02  0.54726929646E+02 -0.22081350067E+03  0.22977078958E+03  0.10000000000E+01 0.  0.
         21    1    1    2  502  501 -0.25573522066E+02 -0.15346385649E+02 -0.16339503566E+00  0.29825212175E+02  0.00000000000E+00 0.  1.
<mgrwt>
<rscale>  1 0.12850708E+03</rscale>
<asrwt>0</asrwt>
<pdfrwt beam="2">  1        4 0.42363584E-01 0.12850708E+03</pdfrwt>
<pdfrwt beam="1">  1       -4 0.47211259E-02 0.12850708E+03</pdfrwt>
<totfact> 0.23065672E+03</totfact>
</mgrwt>
</event>
<event>
 6    4  0.2220150E-003  0.2543468E+03  0.7818608E-02  0.1110588E+00
         -4   -1    0    0    0  501 -0.00000000000E+00  0.00000000000E+00  0.67302957883E+03  0.67303077707E+03  0.12700000000E+01 0.  1.
          4   -1    0    0  502    0  0.00000000000E+00 -0.00000000000E+00 -0.12838640393E+03  0.12839268520E+03  0.12700000000E+01 0.  1.
         25    2    1    2    0    0 -0.16246776802E+03  0.15056432690E+03  0.49676101317E+02  0.25915250038E+03  0.12500764468E+03 0.  0.
    9000005    1    3    3    0    0 -0.29527796062E+02 -0.20963628727E+02 -0.12244930741E+01  0.36247259938E+02  0.10000000000E+01 0.  0.
    9000005    1    3    3    0    0 -0.13293997196E+03  0.17152795562E+03  0.50900594391E+02  0.22290524044E+03  0.10000000000E+01 0.  0.
         21    1    1    2  502  501  0.16246776802E+03 -0.15056432690E+03  0.49496707358E+03  0.54227096189E+03  0.00000000000E+00 0.  1.
<mgrwt>
<rscale>  1 0.25434682E+03</rscale>
<asrwt>0</asrwt>
<pdfrwt beam="2">  1        4 0.19752329E-01 0.25434682E+03</pdfrwt>
<pdfrwt beam="1">  1       -4 0.10354359E+00 0.25434682E+03</pdfrwt>
<totfact> 0.33105175E+01</totfact>
</mgrwt>
</event>
<event>
 6    4  0.2220150E-003  0.1278752E+03  0.7818608E-02  0.1230643E+00
          4   -1    0    0  502    0  0.00000000000E+00  0.00000000000E+00  0.26103291516E+02  0.26134167826E+02  0.12700000000E+01 0.  1.
         -4   -1    0    0    0  501 -0.00000000000E+00 -0.00000000000E+00 -0.23014797974E+03  0.23015148377E+03  0.12700000000E+01 0.  1.
         25    2    1    2    0    0 -0.26668784377E+02  0.39870699400E+01 -0.16296524952E+03  0.20714665413E+03  0.12499977192E+03 0.  0.
    9000005    1    3    3    0    0 -0.23100546183E+02  0.40451191745E+02 -0.72231030439E+01  0.47149839503E+02  0.10000000000E+01 0.  0.
    9000005    1    3    3    0    0 -0.35682381944E+01 -0.36464121805E+02 -0.15574214647E+03  0.15999681463E+03  0.10000000000E+01 0.  0.
         21    1    1    2  502  501  0.26668784377E+02 -0.39870699400E+01 -0.41079438711E+02  0.49138997463E+02  0.00000000000E+00 0. -1.
<mgrwt>
<rscale>  1 0.12787519E+03</rscale>
<asrwt>0</asrwt>
<pdfrwt beam="1">  1        4 0.40185358E-02 0.12787519E+03</pdfrwt>
<pdfrwt beam="2">  1       -4 0.35410025E-01 0.12787519E+03</pdfrwt>
<totfact> 0.42294983E+03</totfact>
</mgrwt>
</event>
<event>
 6    4  0.2220150E-003  0.1278626E+03  0.7818608E-02  0.1230662E+00
          4   -1    0    0  502    0  0.00000000000E+00  0.00000000000E+00  0.67611733733E+01  0.68794160641E+01  0.12700000000E+01 0.  1.
         -4   -1    0    0    0  501 -0.00000000000E+00 -0.00000000000E+00 -0.95087990403E+03  0.95088075214E+03  0.12700000000E+01 0.  1.
         25    2    1    2    0    0  0.24829801934E+02 -0.10357967836E+02 -0.65297061643E+03  0.66537167496E+03  0.12500013344E+03 0.  0.
    9000005    1    3    3    0    0 -0.46478265738E+01  0.10569269541E+01 -0.61877070865E+03  0.61878987489E+03  0.10000000000E+01 0.  0.
    9000005    1    3    3    0    0  0.29477628507E+02 -0.11414894790E+02 -0.34199907777E+02  0.46581800066E+02  0.10000000000E+01 0.  0.
         21    1    1    2  502  501 -0.24829801934E+02  0.10357967836E+02 -0.29114811423E+03  0.29238849325E+03  0.00000000000E+00 0. -1.
<mgrwt>
<rscale>  1 0.12786258E+03</rscale>
<asrwt>0</asrwt>
<pdfrwt beam="1">  1        4 0.10493421E-02 0.12786258E+03</pdfrwt>
<pdfrwt beam="2">  1       -4 0.14629827E+00 0.12786258E+03</pdfrwt>
<totfact> 0.15135014E+03</totfact>
</mgrwt>
</event>
<event>
 6    4  0.2220150E-003  0.1272314E+03  0.7818608E-02  0.1231623E+00
         -4   -1    0    0    0  501 -0.00000000000E+00  0.00000000000E+00  0.51070766599E+02  0.51086554993E+02  0.12700000000E+01 0. -1.
          4   -1    0    0  502    0  0.00000000000E+00 -0.00000000000E+00 -0.15665542652E+03  0.15666057436E+03  0.12700000000E+01 0. -1.
         25    2    1    2    0    0  0.23309556778E+02  0.44256495578E+01 -0.12403883989E+03  0.17768920910E+03  0.12499959768E+03 0.  0.
    9000005    1    3    3    0    0 -0.48612469620E+02  0.20171606548E+02 -0.41130229525E+02  0.66803904782E+02  0.10000000000E+01 0.  0.
    9000005    1    3    3    0    0  0.71922026398E+02 -0.15745956991E+02 -0.82908610361E+02  0.11088530432E+03  0.10000000000E+01 0.  0.
         21    1    1    2  502  501 -0.23309556778E+02 -0.44256495578E+01  0.18454179967E+02  0.30057920244E+02  0.00000000000E+00 0. -1.
<mgrwt>
<rscale>  1 0.12723137E+03</rscale>
<asrwt>0</asrwt>
<pdfrwt beam="2">  1        4 0.24102445E-01 0.12723137E+03</pdfrwt>
<pdfrwt beam="1">  1       -4 0.78586516E-02 0.12723137E+03</pdfrwt>
<totfact> 0.29438333E+03</totfact>
</mgrwt>
</event>
<event>
 6    4  0.2220150E-003  0.1273129E+03  0.7818608E-02  0.1231498E+00
          4   -1    0    0  502    0  0.00000000000E+00  0.00000000000E+00  0.23301188340E+03  0.23301534435E+03  0.12700000000E+01 0. -1.
         -4   -1    0    0    0  501 -0.00000000000E+00 -0.00000000000E+00 -0.26144025921E+02  0.26174854180E+02  0.12700000000E+01 0. -1.
         25    2    1    2    0    0 -0.12896138309E+02 -0.20435014737E+02  0.19335257489E+03  0.23150332305E+03  0.12499868062E+03 0.  0.
    9000005    1    3    3    0    0 -0.67499968958E+02 -0.14213670066E+02  0.80788926486E+02  0.10623617495E+03  0.10000000000E+01 0.  0.
    9000005    1    3    3    0    0  0.54603830649E+02 -0.62213446708E+01  0.11256364840E+03  0.12526714810E+03  0.10000000000E+01 0.  0.
         21    1    1    2  502  501  0.12896138309E+02  0.20435014737E+02  0.13515282592E+02  0.27686875485E+02  0.00000000000E+00 0. -1.
<mgrwt>
<rscale>  1 0.12731288E+03</rscale>
<asrwt>0</asrwt>
<pdfrwt beam="1">  1        4 0.35850621E-01 0.12731288E+03</pdfrwt>
<pdfrwt beam="2">  1       -4 0.40247953E-02 0.12731288E+03</pdfrwt>
<totfact> 0.41149425E+03</totfact>
</mgrwt>
</event>
<event>
 6    4  0.2220150E-003  0.1277143E+03  0.7818608E-02  0.1230887E+00
         -4   -1    0    0    0  501 -0.00000000000E+00  0.00000000000E+00  0.53856979145E+02  0.53871950982E+02  0.12700000000E+01 0. -1.
          4   -1    0    0  502    0  0.00000000000E+00 -0.00000000000E+00 -0.24517662386E+03  0.24517991310E+03  0.12700000000E+01 0. -1.
         25    2    1    2    0    0  0.26038932298E+02  0.19910722335E+01 -0.22361665803E+03  0.25751769222E+03  0.12501584577E+03 0.  0.
    9000005    1    3    3    0    0  0.39505843339E+02 -0.38284898569E+02 -0.20295243070E+03  0.21027870611E+03  0.10000000000E+01 0.  0.
    9000005    1    3    3    0    0 -0.13466911042E+02  0.40275970803E+02 -0.20664227326E+02  0.47238986103E+02  0.10000000000E+01 0.  0.
         21    1    1    2  502  501 -0.26038932298E+02 -0.19910722335E+01  0.32297013311E+02  0.41534171867E+02  0.00000000000E+00 0. -1.
<mgrwt>
<rscale>  1 0.12771434E+03</rscale>
<asrwt>0</asrwt>
<pdfrwt beam="2">  1        4 0.37720885E-01 0.12771434E+03</pdfrwt>
<pdfrwt beam="1">  1       -4 0.82870939E-02 0.12771434E+03</pdfrwt>
<totfact> 0.11575802E+03</totfact>
</mgrwt>
</event>
<event>
 6    4  0.2220150E-003  0.1300242E+03  0.7818608E-02  0.1227420E+00
         -4   -1    0    0    0  501 -0.00000000000E+00  0.00000000000E+00  0.14261889428E+03  0.14262454875E+03  0.12700000000E+01 0. -1.
          4   -1    0    0  502    0  0.00000000000E+00 -0.00000000000E+00 -0.55062974260E+02  0.55077618271E+02  0.12700000000E+01 0. -1.
         25    2    1    2    0    0  0.33513800076E+02  0.12599727906E+02  0.35968693128E+02  0.13490750230E+03  0.12499743738E+03 0.  0.
    9000005    1    3    3    0    0 -0.44536838746E+02  0.24674435982E+02  0.11352576755E+02  0.52175078299E+02  0.10000000000E+01 0.  0.
    9000005    1    3    3    0    0  0.78050638822E+02 -0.12074708076E+02  0.24616116373E+02  0.82732424000E+02  0.10000000000E+01 0.  0.
         21    1    1    2  502  501 -0.33513800076E+02 -0.12599727906E+02  0.51587226888E+02  0.62794664716E+02  0.00000000000E+00 0. -1.
<mgrwt>
<rscale>  1 0.13002418E+03</rscale>
<asrwt>0</asrwt>
<pdfrwt beam="2">  1        4 0.84727882E-02 0.13002418E+03</pdfrwt>
<pdfrwt beam="1">  1       -4 0.21942930E-01 0.13002418E+03</pdfrwt>
<totfact> 0.31007603E+03</totfact>
</mgrwt>
</event>
<event>
 6    4  0.2220150E-003  0.1275486E+03  0.7818608E-02  0.1231139E+00
          4   -1    0    0  502    0  0.00000000000E+00  0.00000000000E+00  0.12805789489E+03  0.12806419228E+03  0.12700000000E+01 0.  1.
         -4   -1    0    0    0  501 -0.00000000000E+00 -0.00000000000E+00 -0.56698041662E+02  0.56712263474E+02  0.12700000000E+01 0.  1.
         25    2    1    2    0    0  0.20475391000E+02  0.15122081749E+02  0.87463317940E+02  0.15465602134E+03  0.12498293467E+03 0.  0.
    9000005    1    3    3    0    0 -0.19781626849E+01  0.32727524936E+02  0.11218972926E+03  0.11688686568E+03  0.10000000000E+01 0.  0.
    9000005    1    3    3    0    0  0.22453553685E+02 -0.17605443186E+02 -0.24726411322E+02  0.37769155667E+02  0.10000000000E+01 0.  0.
         21    1    1    2  502  501 -0.20475391000E+02 -0.15122081749E+02 -0.16103464713E+02  0.30120434406E+02  0.00000000000E+00 0.  1.
<mgrwt>
<rscale>  1 0.12754863E+03</rscale>
<asrwt>0</asrwt>
<pdfrwt beam="1">  1        4 0.19702793E-01 0.12754863E+03</pdfrwt>
<pdfrwt beam="2">  1       -4 0.87243541E-02 0.12754863E+03</pdfrwt>
<totfact> 0.35703440E+03</totfact>
</mgrwt>
</event>
<event>
 6    4  0.2220150E-003  0.1592012E+03  0.7818608E-02  0.1189602E+00
          4   -1    0    0  502    0  0.00000000000E+00  0.00000000000E+00  0.41378323698E+02  0.41397808783E+02  0.12700000000E+01 0.  1.
         -4   -1    0    0    0  501 -0.00000000000E+00 -0.00000000000E+00 -0.51868064118E+03  0.51868219599E+03  0.12700000000E+01 0.  1.
         25    2    1    2    0    0  0.86507118685E+02 -0.47292709618E+02 -0.15179614559E+03  0.21997068425E+03  0.12499980059E+03 0.  0.
    9000005    1    3    3    0    0  0.11265285119E+03 -0.92981210240E+01 -0.10589878741E+03  0.15489568460E+03  0.10000000000E+01 0.  0.
    9000005    1    3    3    0    0 -0.26145732501E+02 -0.37994588594E+02 -0.45897358184E+02  0.65074999644E+02  0.10000000000E+01 0.  0.
         21    1    1    2  502  501 -0.86507118685E+02  0.47292709618E+02 -0.32550617189E+03  0.34010932052E+03  0.00000000000E+00 0.  1.
<mgrwt>
<rscale>  1 0.15920123E+03</rscale>
<asrwt>0</asrwt>
<pdfrwt beam="1">  1        4 0.63675148E-02 0.15920123E+03</pdfrwt>
<pdfrwt beam="2">  1       -4 0.79798636E-01 0.15920123E+03</pdfrwt>
<totfact> 0.39438038E+02</totfact>
</mgrwt>
</event>
<event>
 6    4  0.2220150E-003  0.1799983E+03  0.7818608E-02  0.1167805E+00
          4   -1    0    0  502    0  0.00000000000E+00  0.00000000000E+00  0.70547576667E+03  0.70547690980E+03  0.12700000000E+01 0. -1.
         -4   -1    0    0    0  501 -0.00000000000E+00 -0.00000000000E+00 -0.34341617222E+02  0.34365092368E+02  0.12700000000E+01 0. -1.
         25    2    1    2    0    0 -0.58347512747E+01 -0.12938434832E+03  0.42934197836E+03  0.46554689117E+03  0.12500007835E+03 0.  0.
    9000005    1    3    3    0    0  0.13237764647E+02 -0.14959364797E+03  0.38443210660E+03  0.41272574733E+03  0.10000000000E+01 0.  0.
    9000005    1    3    3    0    0 -0.19072515922E+02  0.20209299642E+02  0.44909871754E+02  0.52821143840E+02  0.10000000000E+01 0.  0.
         21    1    1    2  502  501  0.58347512747E+01  0.12938434832E+03  0.24179217109E+03  0.27429511100E+03  0.00000000000E+00 0. -1.
<mgrwt>
<rscale>  1 0.17999826E+03</rscale>
<asrwt>0</asrwt>
<pdfrwt beam="1">  1        4 0.10853662E+00 0.17999826E+03</pdfrwt>
<pdfrwt beam="2">  1       -4 0.52852199E-02 0.17999826E+03</pdfrwt>
<totfact> 0.26957911E+02</totfact>
</mgrwt>
</event>
<event>
 6    4  0.2220150E-003  0.1690168E+03  0.7818608E-02  0.1178877E+00
         -4   -1    0    0    0  501 -0.00000000000E+00  0.00000000000E+00  0.46939110199E+02  0.46956287825E+02  0.12700000000E+01 0.  1.
          4   -1    0    0  502    0  0.00000000000E+00 -0.00000000000E+00 -0.49676891839E+03  0.49677054177E+03  0.12700000000E+01 0.  1.
         25    2    1    2    0    0  0.11012943529E+03 -0.28660007013E+02 -0.36355296244E+03  0.40092072807E+03  0.12496713641E+03 0.  0.
    9000005    1    3    3    0    0 -0.49189828791E+01 -0.15672850245E+02 -0.19920300263E+03  0.19988164219E+03  0.10000000000E+01 0.  0.
    9000005    1    3    3    0    0  0.11504841817E+03 -0.12987156768E+02 -0.16434995981E+03  0.20103908589E+03  0.10000000000E+01 0.  0.
         21    1    1    2  502  501 -0.11012943529E+03  0.28660007013E+02 -0.86276845752E+02  0.14280610153E+03  0.00000000000E+00 0.  1.
<mgrwt>
<rscale>  1 0.16901679E+03</rscale>
<asrwt>0</asrwt>
<pdfrwt beam="2">  1        4 0.76427430E-01 0.16901679E+03</pdfrwt>
<pdfrwt beam="1">  1       -4 0.72228481E-02 0.16901679E+03</pdfrwt>
<totfact> 0.35626919E+02</totfact>
</mgrwt>
</event>
<event>
 6    4  0.2220150E-003  0.1340438E+03  0.7818608E-02  0.1221576E+00
         -4   -1    0    0    0  501 -0.00000000000E+00  0.00000000000E+00  0.83914102455E+02  0.83923712327E+02  0.12700000000E+01 0.  1.
          4   -1    0    0  502    0  0.00000000000E+00 -0.00000000000E+00 -0.12370769461E+03  0.12371421343E+03  0.12700000000E+01 0.  1.
         25    2    1    2    0    0  0.41729859678E+02 -0.24527744560E+02 -0.69352039966E+02  0.15092202606E+03  0.12499904424E+03 0.  0.
    9000005    1    3    3    0    0  0.45684016944E+02 -0.10442852652E+02 -0.10357627893E+03  0.11368873353E+03  0.10000000000E+01 0.  0.
    9000005    1    3    3    0    0 -0.39541572654E+01 -0.14084891908E+02  0.34224238963E+02  0.37233292526E+02  0.10000000000E+01 0.  0.
         21    1    1    2  502  501 -0.41729859678E+02  0.24527744560E+02  0.29558447811E+02  0.56715899702E+02  0.00000000000E+00 0.  1.
<mgrwt>
<rscale>  1 0.13404385E+03</rscale>
<asrwt>0</asrwt>
<pdfrwt beam="2">  1        4 0.19033194E-01 0.13404385E+03</pdfrwt>
<pdfrwt beam="1">  1       -4 0.12911103E-01 0.13404385E+03</pdfrwt>
<totfact> 0.19799023E+03</totfact>
</mgrwt>
</event>
<event>
 6    4  0.2220150E-003  0.1268086E+03  0.7818608E-02  0.1232270E+00
         -4   -1    0    0    0  501 -0.00000000000E+00  0.00000000000E+00  0.59799321567E+01  0.61133042292E+01  0.12700000000E+01 0.  1.
          4   -1    0    0  502    0  0.00000000000E+00 -0.00000000000E+00 -0.90736850633E+03  0.90736939511E+03  0.12700000000E+01 0.  1.
         25    2    1    2    0    0 -0.20212685990E+02  0.68266505685E+01 -0.76781933140E+03  0.77822036738E+03  0.12500103477E+03 0.  0.
    9000005    1    3    3    0    0  0.51040701406E+02  0.17909582213E+02 -0.36674953806E+03  0.37071839717E+03  0.10000000000E+01 0.  0.
    9000005    1    3    3    0    0 -0.71253387396E+02 -0.11082931645E+02 -0.40106979334E+03  0.40750197021E+03  0.10000000000E+01 0.  0.
         21    1    1    2  502  501  0.20212685990E+02 -0.68266505685E+01 -0.13356924277E+03  0.13526233196E+03  0.00000000000E+00 0. -1.
<mgrwt>
<rscale>  1 0.12680857E+03</rscale>
<asrwt>0</asrwt>
<pdfrwt beam="2">  1        4 0.13960537E+00 0.12680857E+03</pdfrwt>
<pdfrwt beam="1">  1       -4 0.93031804E-03 0.12680857E+03</pdfrwt>
<totfact> 0.20362474E+03</totfact>
</mgrwt>
</event>
<event>
 6    4  0.2220150E-003  0.1290922E+03  0.7818608E-02  0.1228809E+00
         -4   -1    0    0    0  501 -0.00000000000E+00  0.00000000000E+00  0.25439891549E+03  0.25440208549E+03  0.12700000000E+01 0.  1.
          4   -1    0    0  502    0  0.00000000000E+00 -0.00000000000E+00 -0.28504779125E+02  0.28533056845E+02  0.12700000000E+01 0.  1.
         25    2    1    2    0    0  0.25193178837E+01  0.32152235759E+02  0.13637762425E+03  0.18778621082E+03  0.12499876540E+03 0.  0.
    9000005    1    3    3    0    0 -0.31429489199E+02 -0.34942894141E+02  0.83607948637E+02  0.95917191982E+02  0.10000000000E+01 0.  0.
    9000005    1    3    3    0    0  0.33948807083E+02  0.67095129900E+02  0.52769675613E+02  0.91869018842E+02  0.10000000000E+01 0.  0.
         21    1    1    2  502  501 -0.25193178837E+01 -0.32152235759E+02  0.89516512115E+02  0.95148931514E+02  0.00000000000E+00 0.  1.
<mgrwt>
<rscale>  1 0.12909223E+03</rscale>
<asrwt>0</asrwt>
<pdfrwt beam="2">  1        4 0.43877699E-02 0.12909223E+03</pdfrwt>
<pdfrwt beam="1">  1       -4 0.39140712E-01 0.12909223E+03</pdfrwt>
<totfact> 0.30336912E+03</totfact>
</mgrwt>
</event>
<event>
 6    4  0.2220150E-003  0.1273723E+03  0.7818608E-02  0.1231408E+00
         -4   -1    0    0    0  501 -0.00000000000E+00  0.00000000000E+00  0.14254539511E+02  0.14311002644E+02  0.12700000000E+01 0.  1.
          4   -1    0    0  502    0  0.00000000000E+00 -0.00000000000E+00 -0.16523168604E+04  0.16523173485E+04  0.12700000000E+01 0.  1.
         25    2    1    2    0    0  0.59365763537E+01 -0.23726360386E+02 -0.16372084552E+04  0.16421556683E+04  0.12500212016E+03 0.  0.
    9000005    1    3    3    0    0  0.41228267419E+02  0.25018875789E+02 -0.32423235485E+03  0.32780075368E+03  0.10000000000E+01 0.  0.
    9000005    1    3    3    0    0 -0.35291691065E+02 -0.48745236176E+02 -0.13129761004E+04  0.13143549147E+04  0.10000000000E+01 0.  0.
         21    1    1    2  502  501 -0.59365763537E+01  0.23726360386E+02 -0.85386565666E+00  0.24472682782E+02  0.00000000000E+00 0.  1.
<mgrwt>
<rscale>  1 0.12737234E+03</rscale>
<asrwt>0</asrwt>
<pdfrwt beam="2">  1        4 0.25420682E+00 0.12737234E+03</pdfrwt>
<pdfrwt beam="1">  1       -4 0.21973882E-02 0.12737234E+03</pdfrwt>
<totfact> 0.10171916E+02</totfact>
</mgrwt>
</event>
<event>
 6    4  0.2220150E-003  0.1281768E+03  0.7818608E-02  0.1230186E+00
         -4   -1    0    0    0  501 -0.00000000000E+00  0.00000000000E+00  0.61445499143E+01  0.62744237703E+01  0.12700000000E+01 0. -1.
          4   -1    0    0  502    0  0.00000000000E+00 -0.00000000000E+00 -0.10369790517E+04  0.10369798294E+04  0.12700000000E+01 0. -1.
         25    2    1    2    0    0  0.15078178736E+02 -0.23986797097E+02 -0.91857297647E+03  0.92747270033E+03  0.12500631525E+03 0.  0.
    9000005    1    3    3    0    0  0.44312763415E+02 -0.18058803013E+02 -0.13328781835E+03  0.14162056308E+03  0.10000000000E+01 0.  0.
    9000005    1    3    3    0    0 -0.29234584679E+02 -0.59279940838E+01 -0.78528515812E+03  0.78585213725E+03  0.10000000000E+01 0.  0.
         21    1    1    2  502  501 -0.15078178736E+02  0.23986797097E+02 -0.11226152527E+03  0.11578155279E+03  0.00000000000E+00 0.  1.
<mgrwt>
<rscale>  1 0.12817682E+03</rscale>
<asrwt>0</asrwt>
<pdfrwt beam="2">  1        4 0.15954515E+00 0.12817682E+03</pdfrwt>
<pdfrwt beam="1">  1       -4 0.95536631E-03 0.12817682E+03</pdfrwt>
<totfact> 0.13970196E+03</totfact>
</mgrwt>
</event>
<event>
 6    4  0.2220150E-003  0.1278332E+03  0.7818608E-02  0.1230707E+00
          4   -1    0    0  502    0  0.00000000000E+00  0.00000000000E+00  0.32286945389E+02  0.32311913322E+02  0.12700000000E+01 0.  1.
         -4   -1    0    0    0  501 -0.00000000000E+00 -0.00000000000E+00 -0.19818311389E+03  0.19818718306E+03  0.12700000000E+01 0.  1.
         25    2    1    2    0    0  0.72311545251E+01  0.25760244210E+02 -0.11046860846E+03  0.16895160099E+03  0.12500180096E+03 0.  0.
    9000005    1    3    3    0    0 -0.28914641753E+01 -0.48478565058E+02 -0.65552680970E+02  0.81588515231E+02  0.10000000000E+01 0.  0.
    9000005    1    3    3    0    0  0.10122618700E+02  0.74238809268E+02 -0.44915927488E+02  0.87363085757E+02  0.10000000000E+01 0.  0.
         21    1    1    2  502  501 -0.72311545251E+01 -0.25760244210E+02 -0.55427560043E+02  0.61547495398E+02  0.00000000000E+00 0.  1.
<mgrwt>
<rscale>  1 0.12783321E+03</rscale>
<asrwt>0</asrwt>
<pdfrwt beam="1">  1        4 0.49694561E-02 0.12783321E+03</pdfrwt>
<pdfrwt beam="2">  1       -4 0.30491943E-01 0.12783321E+03</pdfrwt>
<totfact> 0.40100764E+03</totfact>
</mgrwt>
</event>
<event>
 6    4  0.2220150E-003  0.1295667E+03  0.7818608E-02  0.1228100E+00
          4   -1    0    0  502    0  0.00000000000E+00  0.00000000000E+00  0.11040641052E+03  0.11041371465E+03  0.12700000000E+01 0. -1.
         -4   -1    0    0    0  501 -0.00000000000E+00 -0.00000000000E+00 -0.12207675345E+03  0.12208335936E+03  0.12700000000E+01 0. -1.
         25    2    1    2    0    0  0.30195484831E+02 -0.15829749340E+02  0.67646849180E+02  0.14616304114E+03  0.12500076048E+03 0.  0.
    9000005    1    3    3    0    0  0.10756804511E+02 -0.29415365237E+02 -0.31370386469E+02  0.44340429661E+02  0.10000000000E+01 0.  0.
    9000005    1    3    3    0    0  0.19438680320E+02  0.13585615897E+02  0.99017235649E+02  0.10182261147E+03  0.10000000000E+01 0.  0.
         21    1    1    2  502  501 -0.30195484831E+02  0.15829749340E+02 -0.79317192112E+02  0.86334032878E+02  0.00000000000E+00 0. -1.
<mgrwt>
<rscale>  1 0.12956673E+03</rscale>
<asrwt>0</asrwt>
<pdfrwt beam="1">  1        4 0.16986672E-01 0.12956673E+03</pdfrwt>
<pdfrwt beam="2">  1       -4 0.18782109E-01 0.12956673E+03</pdfrwt>
<totfact> 0.12473163E+03</totfact>
</mgrwt>
</event>
<event>
 6    4  0.2220150E-003  0.1470098E+03  0.7818608E-02  0.1204196E+00
          4   -1    0    0  502    0  0.00000000000E+00  0.00000000000E+00  0.24308283432E+03  0.24308615189E+03  0.12700000000E+01 0.  1.
         -4   -1    0    0    0  501 -0.00000000000E+00 -0.00000000000E+00 -0.54019314829E+02  0.54034241687E+02  0.12700000000E+01 0.  1.
         25    2    1    2    0    0  0.18704047436E+02  0.75077319317E+02  0.15153459487E+03  0.21112699006E+03  0.12500170887E+03 0.  0.
    9000005    1    3    3    0    0  0.61191840833E+02  0.15167454012E+02  0.31699835733E+02  0.70571755195E+02  0.10000000000E+01 0.  0.
    9000005    1    3    3    0    0 -0.42487793397E+02  0.59909865304E+02  0.11983475914E+03  0.14055523486E+03  0.10000000000E+01 0.  0.
         21    1    1    2  502  501 -0.18704047436E+02 -0.75077319317E+02  0.37528924617E+02  0.85993403521E+02  0.00000000000E+00 0.  1.
<mgrwt>
<rscale>  1 0.14700977E+03</rscale>
<asrwt>0</asrwt>
<pdfrwt beam="1">  1        4 0.37398763E-01 0.14700977E+03</pdfrwt>
<pdfrwt beam="2">  1       -4 0.83120672E-02 0.14700977E+03</pdfrwt>
<totfact> 0.12066422E+03</totfact>
</mgrwt>
</event>
<event>
 6    4  0.2220150E-003  0.1270140E+03  0.7818608E-02  0.1231955E+00
          4   -1    0    0  502    0  0.00000000000E+00  0.00000000000E+00  0.16868655759E+03  0.16869133828E+03  0.12700000000E+01 0.  1.
         -4   -1    0    0    0  501 -0.00000000000E+00 -0.00000000000E+00 -0.33888443672E+02  0.33912232520E+02  0.12700000000E+01 0.  1.
         25    2    1    2    0    0 -0.18023104797E+02 -0.13543284020E+02  0.12436635297E+03  0.17776258683E+03  0.12499717867E+03 0.  0.
    9000005    1    3    3    0    0  0.52114445540E+02 -0.10238892619E+02  0.33030090552E+02  0.62551876374E+02  0.10000000000E+01 0.  0.
    9000005    1    3    3    0    0 -0.70137550336E+02 -0.33043914009E+01  0.91336262421E+02  0.11521071045E+03  0.10000000000E+01 0.  0.
         21    1    1    2  502  501  0.18023104797E+02  0.13543284020E+02  0.10431760946E+02  0.24840983978E+02  0.00000000000E+00 0. -1.
<mgrwt>
<rscale>  1 0.12701397E+03</rscale>
<asrwt>0</asrwt>
<pdfrwt beam="1">  1        4 0.25953975E-01 0.12701397E+03</pdfrwt>
<pdfrwt beam="2">  1       -4 0.52158045E-02 0.12701397E+03</pdfrwt>
<totfact> 0.50079676E+03</totfact>
</mgrwt>
</event>
<event>
 6    4  0.2220150E-003  0.1268879E+03  0.7818608E-02  0.1232148E+00
          4   -1    0    0  502    0  0.00000000000E+00  0.00000000000E+00  0.71910447138E+01  0.73023300443E+01  0.12700000000E+01 0. -1.
         -4   -1    0    0    0  501 -0.00000000000E+00 -0.00000000000E+00 -0.10581039870E+04  0.10581047491E+04  0.12700000000E+01 0. -1.
         25    2    1    2    0    0  0.59531761958E+01  0.20984094882E+02 -0.56794276603E+03  0.58194460528E+03  0.12499906233E+03 0.  0.
    9000005    1    3    3    0    0 -0.22569274510E+02 -0.47546797569E+02 -0.23937663170E+03  0.24509639311E+03  0.10000000000E+01 0.  0.
    9000005    1    3    3    0    0  0.28522450705E+02  0.68530892451E+02 -0.32856613433E+03  0.33684821217E+03  0.10000000000E+01 0.  0.
         21    1    1    2  502  501 -0.59531761958E+01 -0.20984094882E+02 -0.48297017622E+03  0.48346247390E+03  0.00000000000E+00 0. -1.
<mgrwt>
<rscale>  1 0.12688790E+03</rscale>
<asrwt>0</asrwt>
<pdfrwt beam="1">  1        4 0.11149345E-02 0.12688790E+03</pdfrwt>
<pdfrwt beam="2">  1       -4 0.16279372E+00 0.12688790E+03</pdfrwt>
<totfact> 0.10483255E+03</totfact>
</mgrwt>
</event>
<event>
 6    4  0.2220150E-003  0.1267089E+03  0.7818608E-02  0.1232423E+00
          4   -1    0    0  502    0  0.00000000000E+00  0.00000000000E+00  0.29146474905E+03  0.29146751592E+03  0.12700000000E+01 0. -1.
         -4   -1    0    0    0  501 -0.00000000000E+00 -0.00000000000E+00 -0.22015912823E+02  0.22052512724E+02  0.12700000000E+01 0. -1.
         25    2    1    2    0    0  0.14553006078E+02 -0.14781688211E+02  0.26277571948E+03  0.29172969181E+03  0.12499938418E+03 0.  0.
    9000005    1    3    3    0    0 -0.43792644674E+02  0.32010008793E+01  0.19758494138E+03  0.20240763621E+03  0.10000000000E+01 0.  0.
    9000005    1    3    3    0    0  0.58345650752E+02 -0.17982689090E+02  0.65190778092E+02  0.89322055601E+02  0.10000000000E+01 0.  0.
         21    1    1    2  502  501 -0.14553006078E+02  0.14781688211E+02  0.66731167506E+01  0.21790336836E+02  0.00000000000E+00 0.  1.
<mgrwt>
<rscale>  1 0.12670886E+03</rscale>
<asrwt>0</asrwt>
<pdfrwt beam="1">  1        4 0.44843755E-01 0.12670886E+03</pdfrwt>
<pdfrwt beam="2">  1       -4 0.33900920E-02 0.12670886E+03</pdfrwt>
<totfact> 0.34713104E+03</totfact>
</mgrwt>
</event>
<event>
 6    4  0.2220150E-003  0.1338923E+03  0.7818608E-02  0.1221792E+00
         -4   -1    0    0    0  501 -0.00000000000E+00  0.00000000000E+00  0.20917623902E+02  0.20956142052E+02  0.12700000000E+01 0.  1.
          4   -1    0    0  502    0  0.00000000000E+00 -0.00000000000E+00 -0.51020606905E+03  0.51020764968E+03  0.12700000000E+01 0.  1.
         25    2    1    2    0    0 -0.25240506122E+02  0.40806451993E+02 -0.44891237259E+03  0.46845432747E+03  0.12499955593E+03 0.  0.
    9000005    1    3    3    0    0  0.16889533430E+02  0.14543130074E+02 -0.64637266157E+01  0.23227973085E+02  0.10000000000E+01 0.  0.
    9000005    1    3    3    0    0 -0.42130039553E+02  0.26263321919E+02 -0.44244864598E+03  0.44522635438E+03  0.10000000000E+01 0.  0.
         21    1    1    2  502  501  0.25240506122E+02 -0.40806451993E+02 -0.40376072554E+02  0.62709464266E+02  0.00000000000E+00 0.  1.
<mgrwt>
<rscale>  1 0.13389227E+03</rscale>
<asrwt>0</asrwt>
<pdfrwt beam="2">  1        4 0.78496317E-01 0.13389227E+03</pdfrwt>
<pdfrwt beam="1">  1       -4 0.32211809E-02 0.13389227E+03</pdfrwt>
<totfact> 0.11781291E+03</totfact>
</mgrwt>
</event>
<event>
 6    4  0.2220150E-003  0.1281684E+03  0.7818608E-02  0.1230199E+00
          4   -1    0    0  502    0  0.00000000000E+00  0.00000000000E+00  0.16205164929E+03  0.16205662571E+03  0.12700000000E+01 0.  1.
         -4   -1    0    0    0  501 -0.00000000000E+00 -0.00000000000E+00 -0.44499620926E+02  0.44517739863E+02  0.12700000000E+01 0.  1.
         25    2    1    2    0    0  0.18316405726E+02 -0.21598208686E+02  0.12310810379E+03  0.17771534079E+03  0.12500065519E+03 0.  0.
    9000005    1    3    3    0    0  0.22681162961E+02 -0.13510187828E+02  0.14842781360E+03  0.15076065859E+03  0.10000000000E+01 0.  0.
    9000005    1    3    3    0    0 -0.43647572348E+01 -0.80880208582E+01 -0.25319709818E+02  0.26954682198E+02  0.10000000000E+01 0.  0.
         21    1    1    2  502  501 -0.18316405726E+02  0.21598208686E+02 -0.55560754249E+01  0.28859024781E+02  0.00000000000E+00 0.  1.
<mgrwt>
<rscale>  1 0.12816839E+03</rscale>
<asrwt>0</asrwt>
<pdfrwt beam="1">  1        4 0.24932799E-01 0.12816839E+03</pdfrwt>
<pdfrwt beam="2">  1       -4 0.68478723E-02 0.12816839E+03</pdfrwt>
<totfact> 0.34750997E+03</totfact>
</mgrwt>
</event>
<event>
 6    4  0.2220150E-003  0.1284053E+03  0.7818608E-02  0.1229841E+00
          4   -1    0    0  502    0  0.00000000000E+00  0.00000000000E+00  0.44853905790E+02  0.44871881670E+02  0.12700000000E+01 0. -1.
         -4   -1    0    0    0  501 -0.00000000000E+00 -0.00000000000E+00 -0.14064335136E+03  0.14064908525E+03  0.12700000000E+01 0. -1.
         25    2    1    2    0    0 -0.28951085562E+02 -0.49583365601E+01 -0.69018428364E+02  0.14577882532E+03  0.12500068800E+03 0.  0.
    9000005    1    3    3    0    0 -0.21287979411E+02 -0.41243208222E+02  0.19076835030E+02  0.50190695618E+02  0.10000000000E+01 0.  0.
    9000005    1    3    3    0    0 -0.76631061507E+01  0.36284871662E+02 -0.88095263394E+02  0.95588129701E+02  0.10000000000E+01 0.  0.
         21    1    1    2  502  501  0.28951085562E+02  0.49583365601E+01 -0.26771017202E+02  0.39742141597E+02  0.00000000000E+00 0. -1.
<mgrwt>
<rscale>  1 0.12840531E+03</rscale>
<asrwt>0</asrwt>
<pdfrwt beam="1">  1        4 0.69024248E-02 0.12840531E+03</pdfrwt>
<pdfrwt beam="2">  1       -4 0.21639262E-01 0.12840531E+03</pdfrwt>
<totfact> 0.44461948E+03</totfact>
</mgrwt>
</event>
<event>
 6    4  0.2220150E-003  0.1271444E+03  0.7818608E-02  0.1231755E+00
          4   -1    0    0  502    0  0.00000000000E+00  0.00000000000E+00  0.33322785439E+02  0.33346977815E+02  0.12700000000E+01 0.  1.
         -4   -1    0    0    0  501 -0.00000000000E+00 -0.00000000000E+00 -0.20494175124E+03  0.20494568622E+03  0.12700000000E+01 0.  1.
         25    2    1    2    0    0  0.96369986026E+01 -0.21160629199E+02 -0.96388148929E+02  0.15955055474E+03  0.12500024117E+03 0.  0.
    9000005    1    3    3    0    0  0.35679062794E+02  0.35262588878E+02 -0.81394352582E+02  0.95616349693E+02  0.10000000000E+01 0.  0.
    9000005    1    3    3    0    0 -0.26042064192E+02 -0.56423218077E+02 -0.14993796346E+02  0.63934205043E+02  0.10000000000E+01 0.  0.
         21    1    1    2  502  501 -0.96369986026E+01  0.21160629199E+02 -0.75230816868E+02  0.78742109299E+02  0.00000000000E+00 0.  1.
<mgrwt>
<rscale>  1 0.12714442E+03</rscale>
<asrwt>0</asrwt>
<pdfrwt beam="1">  1        4 0.51287461E-02 0.12714442E+03</pdfrwt>
<pdfrwt beam="2">  1       -4 0.31531663E-01 0.12714442E+03</pdfrwt>
<totfact> 0.35723794E+03</totfact>
</mgrwt>
</event>
<event>
 6    4  0.2220150E-003  0.1266106E+03  0.7818608E-02  0.1232574E+00
          4   -1    0    0  502    0  0.00000000000E+00  0.00000000000E+00  0.10314849098E+03  0.10315630902E+03  0.12700000000E+01 0. -1.
         -4   -1    0    0    0  501 -0.00000000000E+00 -0.00000000000E+00 -0.55047067708E+02  0.55061715949E+02  0.12700000000E+01 0. -1.
         25    2    1    2    0    0  0.60104499488E+01 -0.19138352151E+02  0.53491350234E+02  0.13744656994E+03  0.12501133151E+03 0.  0.
    9000005    1    3    3    0    0  0.22628126055E+02 -0.46037259110E+02  0.80761431489E+02  0.95681085546E+02  0.10000000000E+01 0.  0.
    9000005    1    3    3    0    0 -0.16617676106E+02  0.26898906959E+02 -0.27270081255E+02  0.41765484391E+02  0.10000000000E+01 0.  0.
         21    1    1    2  502  501 -0.60104499488E+01  0.19138352151E+02 -0.53899269624E+01  0.20771455036E+02  0.00000000000E+00 0.  1.
<mgrwt>
<rscale>  1 0.12661056E+03</rscale>
<asrwt>0</asrwt>
<pdfrwt beam="1">  1        4 0.15870727E-01 0.12661056E+03</pdfrwt>
<pdfrwt beam="2">  1       -4 0.84705079E-02 0.12661056E+03</pdfrwt>
<totfact> 0.54922859E+03</totfact>
</mgrwt>
</event>
<event>
 6    4  0.2220150E-003  0.1294567E+03  0.7818608E-02  0.1228264E+00
          4   -1    0    0  502    0  0.00000000000E+00  0.00000000000E+00  0.12694735028E+02  0.12758103207E+02  0.12700000000E+01 0.  1.
         -4   -1    0    0    0  501 -0.00000000000E+00 -0.00000000000E+00 -0.59309494988E+03  0.59309630961E+03  0.12700000000E+01 0.  1.
         25    2    1    2    0    0  0.15663591341E+02  0.29818627918E+02 -0.35332137405E+03  0.37629113482E+03  0.12499810446E+03 0.  0.
    9000005    1    3    3    0    0 -0.42729156003E+02  0.25440698712E+02 -0.26941110904E+03  0.27396415020E+03  0.10000000000E+01 0.  0.
    9000005    1    3    3    0    0  0.58392747344E+02  0.43779292058E+01 -0.83910265017E+02  0.10232698462E+03  0.10000000000E+01 0.  0.
         21    1    1    2  502  501 -0.15663591341E+02 -0.29818627918E+02 -0.22707884080E+03  0.22956327799E+03  0.00000000000E+00 0.  1.
<mgrwt>
<rscale>  1 0.12945665E+03</rscale>
<asrwt>0</asrwt>
<pdfrwt beam="1">  1        4 0.19580157E-02 0.12945665E+03</pdfrwt>
<pdfrwt beam="2">  1       -4 0.91250334E-01 0.12945665E+03</pdfrwt>
<totfact> 0.18110637E+03</totfact>
</mgrwt>
</event>
<event>
 6    4  0.2220150E-003  0.1290557E+03  0.7818608E-02  0.1228864E+00
          4   -1    0    0  502    0  0.00000000000E+00  0.00000000000E+00  0.96857626876E+02  0.96865952657E+02  0.12700000000E+01 0. -1.
         -4   -1    0    0    0  501 -0.00000000000E+00 -0.00000000000E+00 -0.67034390171E+02  0.67046419484E+02  0.12700000000E+01 0. -1.
         25    2    1    2    0    0 -0.27054938356E+02  0.17303614655E+02  0.23338179856E+02  0.13114896676E+03  0.12499598423E+03 0.  0.
    9000005    1    3    3    0    0  0.24564145461E+02  0.53228525528E+02 -0.10748195850E+02  0.59608698075E+02  0.10000000000E+01 0.  0.
    9000005    1    3    3    0    0 -0.51619083817E+02 -0.35924910873E+02  0.34086375706E+02  0.71540268690E+02  0.10000000000E+01 0.  0.
         21    1    1    2  502  501  0.27054938356E+02 -0.17303614655E+02  0.64850568487E+01  0.32763405377E+02  0.00000000000E+00 0. -1.
<mgrwt>
<rscale>  1 0.12905573E+03</rscale>
<asrwt>0</asrwt>
<pdfrwt beam="1">  1        4 0.14902739E-01 0.12905573E+03</pdfrwt>
<pdfrwt beam="2">  1       -4 0.10314549E-01 0.12905573E+03</pdfrwt>
<totfact> 0.44302174E+03</totfact>
</mgrwt>
</event>
<event>
 6    4  0.2220150E-003  0.1277458E+03  0.7818608E-02  0.1230839E+00
          4   -1    0    0  502    0  0.00000000000E+00  0.00000000000E+00  0.74614678375E+02  0.74625485788E+02  0.12700000000E+01 0. -1.
         -4   -1    0    0    0  501 -0.00000000000E+00 -0.00000000000E+00 -0.14137863165E+03  0.14138433572E+03  0.12700000000E+01 0. -1.
         25    2    1    2    0    0  0.18975375415E+02 -0.18261895526E+02  0.16382844946E+02  0.12879198070E+03  0.12500165993E+03 0.  0.
    9000005    1    3    3    0    0  0.71097172045E+02 -0.22328712108E+02  0.17237719405E+02  0.76495217023E+02  0.10000000000E+01 0.  0.
    9000005    1    3    3    0    0 -0.52121796630E+02  0.40668165814E+01 -0.85487445886E+00  0.52296763680E+02  0.10000000000E+01 0.  0.
         21    1    1    2  502  501 -0.18975375415E+02  0.18261895526E+02 -0.83146798225E+02  0.87217840809E+02  0.00000000000E+00 0. -1.
<mgrwt>
<rscale>  1 0.12774575E+03</rscale>
<asrwt>0</asrwt>
<pdfrwt beam="1">  1        4 0.11480451E-01 0.12774575E+03</pdfrwt>
<pdfrwt beam="2">  1       -4 0.21751829E-01 0.12774575E+03</pdfrwt>
<totfact> 0.18823827E+03</totfact>
</mgrwt>
</event>
<event>
 6    4  0.2220150E-003  0.1284584E+03  0.7818608E-02  0.1229761E+00
         -4   -1    0    0    0  501 -0.00000000000E+00  0.00000000000E+00  0.78807268779E+02  0.78817501308E+02  0.12700000000E+01 0. -1.
          4   -1    0    0  502    0  0.00000000000E+00 -0.00000000000E+00 -0.92093646382E+02  0.92102402813E+02  0.12700000000E+01 0. -1.
         25    2    1    2    0    0  0.28691336610E+02  0.72890180197E+01 -0.36226727025E+02  0.13346883989E+03  0.12500093156E+03 0.  0.
    9000005    1    3    3    0    0 -0.47835314732E+02 -0.11729429141E+02 -0.18637707657E+02  0.52670304633E+02  0.10000000000E+01 0.  0.
    9000005    1    3    3    0    0  0.76526651342E+02  0.19018447161E+02 -0.17589019368E+02  0.80798535261E+02  0.10000000000E+01 0.  0.
         21    1    1    2  502  501 -0.28691336610E+02 -0.72890180197E+01  0.22940349422E+02  0.37451064228E+02  0.00000000000E+00 0. -1.
<mgrwt>
<rscale>  1 0.12845838E+03</rscale>
<asrwt>0</asrwt>
<pdfrwt beam="2">  1        4 0.14169714E-01 0.12845838E+03</pdfrwt>
<pdfrwt beam="1">  1       -4 0.12125656E-01 0.12845838E+03</pdfrwt>
<totfact> 0.36702186E+03</totfact>
</mgrwt>
</event>
<event>
 6    4  0.2220150E-003  0.1276932E+03  0.7818608E-02  0.1230919E+00
         -4   -1    0    0    0  501 -0.00000000000E+00  0.00000000000E+00  0.16450430263E+03  0.16450920486E+03  0.12700000000E+01 0. -1.
          4   -1    0    0  502    0  0.00000000000E+00 -0.00000000000E+00 -0.36082511620E+02  0.36104854865E+02  0.12700000000E+01 0. -1.
         25    2    1    2    0    0 -0.15861806916E+02  0.20704685932E+02  0.10138761402E+03  0.16304908051E+03  0.12500109375E+03 0.  0.
    9000005    1    3    3    0    0  0.21197337278E+02  0.41400911043E+02  0.11026051253E+03  0.11967348564E+03  0.10000000000E+01 0.  0.
    9000005    1    3    3    0    0 -0.37059144194E+02 -0.20696225111E+02 -0.88728985039E+01  0.43375594867E+02  0.10000000000E+01 0.  0.
         21    1    1    2  502  501  0.15861806916E+02 -0.20704685932E+02  0.27034176988E+02  0.37564979217E+02  0.00000000000E+00 0. -1.
<mgrwt>
<rscale>  1 0.12769320E+03</rscale>
<asrwt>0</asrwt>
<pdfrwt beam="2">  1        4 0.55532516E-02 0.12769320E+03</pdfrwt>
<pdfrwt beam="1">  1       -4 0.25310450E-01 0.12769320E+03</pdfrwt>
<totfact> 0.47480080E+03</totfact>
</mgrwt>
</event>
<event>
 6    4  0.2220150E-003  0.1300665E+03  0.7818608E-02  0.1227357E+00
         -4   -1    0    0    0  501 -0.00000000000E+00  0.00000000000E+00  0.87399570840E+01  0.88317467033E+01  0.12700000000E+01 0.  1.
          4   -1    0    0  502    0  0.00000000000E+00 -0.00000000000E+00 -0.79987288777E+03  0.79987389600E+03  0.12700000000E+01 0.  1.
         25    2    1    2    0    0  0.64834633296E+01  0.35355433251E+02 -0.56845705010E+03  0.58314724726E+03  0.12500100888E+03 0.  0.
    9000005    1    3    3    0    0 -0.56548113153E+02  0.68680731193E+01 -0.32906161835E+03  0.33395719516E+03  0.10000000000E+01 0.  0.
    9000005    1    3    3    0    0  0.63031576482E+02  0.28487360132E+02 -0.23939543175E+03  0.24919005210E+03  0.10000000000E+01 0.  0.
         21    1    1    2  502  501 -0.64834633296E+01 -0.35355433251E+02 -0.22267588059E+03  0.22555839544E+03  0.00000000000E+00 0. -1.
<mgrwt>
<rscale>  1 0.13006650E+03</rscale>
<asrwt>0</asrwt>
<pdfrwt beam="2">  1        4 0.12306445E+00 0.13006650E+03</pdfrwt>
<pdfrwt beam="1">  1       -4 0.13517477E-02 0.13006650E+03</pdfrwt>
<totfact> 0.15871402E+03</totfact>
</mgrwt>
</event>
<event>
 6    4  0.2220150E-003  0.1270580E+03  0.7818608E-02  0.1231888E+00
         -4   -1    0    0    0  501 -0.00000000000E+00  0.00000000000E+00  0.84572959320E+02  0.84582494336E+02  0.12700000000E+01 0.  1.
          4   -1    0    0  502    0  0.00000000000E+00 -0.00000000000E+00 -0.86165388708E+02  0.86174747526E+02  0.12700000000E+01 0.  1.
         25    2    1    2    0    0  0.55946758831E+01  0.22078822490E+02 -0.33644117048E+02  0.13143694834E+03  0.12499987991E+03 0.  0.
    9000005    1    3    3    0    0 -0.36195480172E+01 -0.37912516070E+02 -0.55156216522E+02  0.67034828437E+02  0.10000000000E+01 0.  0.
    9000005    1    3    3    0    0  0.92142239003E+01  0.59991338560E+02  0.21512099474E+02  0.64402119904E+02  0.10000000000E+01 0.  0.
         21    1    1    2  502  501 -0.55946758831E+01 -0.22078822490E+02  0.32051687659E+02  0.39320293521E+02  0.00000000000E+00 0. -1.
<mgrwt>
<rscale>  1 0.12705804E+03</rscale>
<asrwt>0</asrwt>
<pdfrwt beam="2">  1        4 0.13257667E-01 0.12705804E+03</pdfrwt>
<pdfrwt beam="1">  1       -4 0.13012678E-01 0.12705804E+03</pdfrwt>
<totfact> 0.36382838E+03</totfact>
</mgrwt>
</event>
<event>
 6    4  0.2220150E-003  0.1286934E+03  0.7818608E-02  0.1229408E+00
         -4   -1    0    0    0  501 -0.00000000000E+00  0.00000000000E+00  0.45651910646E+02  0.45669572427E+02  0.12700000000E+01 0.  1.
          4   -1    0    0  502    0  0.00000000000E+00 -0.00000000000E+00 -0.20538337280E+03  0.20538729932E+03  0.12700000000E+01 0.  1.
         25    2    1    2    0    0 -0.29619265051E+02 -0.76922034086E+01 -0.17470506775E+03  0.21698812184E+03  0.12500205385E+03 0.  0.
    9000005    1    3    3    0    0  0.25847918928E+02  0.20976808902E+02 -0.14324379368E+03  0.14706435955E+03  0.10000000000E+01 0.  0.
    9000005    1    3    3    0    0 -0.55467183980E+02 -0.28669012311E+02 -0.31461274077E+02  0.69923762285E+02  0.10000000000E+01 0.  0.
         21    1    1    2  502  501  0.29619265051E+02  0.76922034086E+01  0.14973605602E+02  0.34068749906E+02  0.00000000000E+00 0.  1.
<mgrwt>
<rscale>  1 0.12869337E+03</rscale>
<asrwt>0</asrwt>
<pdfrwt beam="2">  1        4 0.31599102E-01 0.12869337E+03</pdfrwt>
<pdfrwt beam="1">  1       -4 0.70250316E-02 0.12869337E+03</pdfrwt>
<totfact> 0.21410546E+03</totfact>
</mgrwt>
</event>
<event>
 6    4  0.2220150E-003  0.1268006E+03  0.7818608E-02  0.1232282E+00
         -4   -1    0    0    0  501 -0.00000000000E+00  0.00000000000E+00  0.19512484105E+02  0.19553770377E+02  0.12700000000E+01 0.  1.
          4   -1    0    0  502    0  0.00000000000E+00 -0.00000000000E+00 -0.28300731512E+03  0.28301016467E+03  0.12700000000E+01 0.  1.
         25    2    1    2    0    0 -0.21103065724E+02 -0.28836178323E+01 -0.21515906074E+03  0.24974347195E+03  0.12499890291E+03 0.  0.
    9000005    1    3    3    0    0 -0.43419046886E+02 -0.81655087861E+00 -0.22206277626E+03  0.22627142327E+03  0.10000000000E+01 0.  0.
    9000005    1    3    3    0    0  0.22315981162E+02 -0.20670669537E+01  0.69037155243E+01  0.23472048676E+02  0.10000000000E+01 0.  0.
         21    1    1    2  502  501  0.21103065724E+02  0.28836178323E+01 -0.48335770271E+02  0.52820463103E+02  0.00000000000E+00 0. -1.
<mgrwt>
<rscale>  1 0.12680055E+03</rscale>
<asrwt>0</asrwt>
<pdfrwt beam="2">  1        4 0.43542979E-01 0.12680055E+03</pdfrwt>
<pdfrwt beam="1">  1       -4 0.30053159E-02 0.12680055E+03</pdfrwt>
<totfact> 0.44478844E+03</totfact>
</mgrwt>
</event>
<event>
 6    4  0.2220150E-003  0.1271996E+03  0.7818608E-02  0.1231671E+00
         -4   -1    0    0    0  501 -0.00000000000E+00  0.00000000000E+00  0.99549000692E+03  0.99549081702E+03  0.12700000000E+01 0. -1.
          4   -1    0    0  502    0  0.00000000000E+00 -0.00000000000E+00 -0.89130567251E+01  0.90030817048E+01  0.12700000000E+01 0. -1.
         25    2    1    2    0    0  0.22581010999E+02  0.67004260775E+01  0.45639842163E+03  0.47379241021E+03  0.12499972374E+03 0.  0.
    9000005    1    3    3    0    0  0.21945944280E+02 -0.43090444370E+00  0.46328644232E+03  0.46380722050E+03  0.10000000000E+01 0.  0.
    9000005    1    3    3    0    0  0.63506671917E+00  0.71313305212E+01 -0.68880206825E+01  0.99851897159E+01  0.10000000000E+01 0.  0.
         21    1    1    2  502  501 -0.22581010999E+02 -0.67004260775E+01  0.53017852856E+03  0.53070148852E+03  0.00000000000E+00 0. -1.
<mgrwt>
<rscale>  1 0.12719956E+03</rscale>
<asrwt>0</asrwt>
<pdfrwt beam="2">  1        4 0.13782267E-02 0.12719956E+03</pdfrwt>
<pdfrwt beam="1">  1       -4 0.15315930E+00 0.12719956E+03</pdfrwt>
<totfact> 0.89111238E+02</totfact>
</mgrwt>
</event>
<event>
 6    4  0.2220150E-003  0.1376994E+03  0.7818608E-02  0.1216459E+00
          4   -1    0    0  502    0  0.00000000000E+00  0.00000000000E+00  0.34287855894E+03  0.34288091093E+03  0.12700000000E+01 0. -1.
         -4   -1    0    0    0  501 -0.00000000000E+00 -0.00000000000E+00 -0.35253445154E+02  0.35276313515E+02  0.12700000000E+01 0. -1.
         25    2    1    2    0    0  0.52183771050E+02 -0.24772810142E+02  0.28424020800E+03  0.31583795052E+03  0.12499710823E+03 0.  0.
    9000005    1    3    3    0    0  0.73633219495E+02  0.40114451586E+01  0.26505397886E+03  0.27512279880E+03  0.10000000000E+01 0.  0.
    9000005    1    3    3    0    0 -0.21449448445E+02 -0.28784255300E+02  0.19186229133E+02  0.40715151727E+02  0.10000000000E+01 0.  0.
         21    1    1    2  502  501 -0.52183771050E+02  0.24772810142E+02  0.23384905784E+02  0.62319273919E+02  0.00000000000E+00 0. -1.
<mgrwt>
<rscale>  1 0.13769937E+03</rscale>
<asrwt>0</asrwt>
<pdfrwt beam="1">  1        4 0.52752488E-01 0.13769937E+03</pdfrwt>
<pdfrwt beam="2">  1       -4 0.54255470E-02 0.13769937E+03</pdfrwt>
<totfact> 0.12029353E+03</totfact>
</mgrwt>
</event>
<event>
 6    4  0.2220150E-003  0.1369991E+03  0.7818608E-02  0.1217425E+00
          4   -1    0    0  502    0  0.00000000000E+00  0.00000000000E+00  0.10485190626E+03  0.10485959730E+03  0.12700000000E+01 0.  1.
         -4   -1    0    0    0  501 -0.00000000000E+00 -0.00000000000E+00 -0.10426539454E+03  0.10427312884E+03  0.12700000000E+01 0.  1.
         25    2    1    2    0    0 -0.56195576109E+01  0.55778031503E+02  0.37465516533E+02  0.14202960235E+03  0.12500389910E+03 0.  0.
    9000005    1    3    3    0    0 -0.59272340641E+02  0.52730531684E+02  0.38683164743E+02  0.88267245178E+02  0.10000000000E+01 0.  0.
    9000005    1    3    3    0    0  0.53652783030E+02  0.30474998194E+01 -0.12176482098E+01  0.53762357176E+02  0.10000000000E+01 0.  0.
         21    1    1    2  502  501  0.56195576109E+01 -0.55778031503E+02 -0.36879004809E+02  0.67103123786E+02  0.00000000000E+00 0.  1.
<mgrwt>
<rscale>  1 0.13699906E+03</rscale>
<asrwt>0</asrwt>
<pdfrwt beam="1">  1        4 0.16132249E-01 0.13699906E+03</pdfrwt>
<pdfrwt beam="2">  1       -4 0.16042017E-01 0.13699906E+03</pdfrwt>
<totfact> 0.18283782E+03</totfact>
</mgrwt>
</event>
<event>
 6    4  0.2220150E-003  0.1268420E+03  0.7818608E-02  0.1232218E+00
          4   -1    0    0  502    0  0.00000000000E+00  0.00000000000E+00  0.47598627286E+03  0.47598796713E+03  0.12700000000E+01 0. -1.
         -4   -1    0    0    0  501 -0.00000000000E+00 -0.00000000000E+00 -0.11539765091E+02  0.11609439192E+02  0.12700000000E+01 0. -1.
         25    2    1    2    0    0  0.65153121267E+01 -0.20156508412E+02  0.41012065418E+03  0.42928760876E+03  0.12506064899E+03 0.  0.
    9000005    1    3    3    0    0 -0.46601285554E+02  0.47161282489E+01  0.70559893088E+02  0.84697226599E+02  0.10000000000E+01 0.  0.
    9000005    1    3    3    0    0  0.53116597681E+02 -0.24872636661E+02  0.33956076110E+03  0.34459038216E+03  0.10000000000E+01 0.  0.
         21    1    1    2  502  501 -0.65153121267E+01  0.20156508412E+02  0.54325853590E+02  0.58309797562E+02  0.00000000000E+00 0. -1.
<mgrwt>
<rscale>  1 0.12684203E+03</rscale>
<asrwt>0</asrwt>
<pdfrwt beam="1">  1        4 0.73234142E-01 0.12684203E+03</pdfrwt>
<pdfrwt beam="2">  1       -4 0.17808385E-02 0.12684203E+03</pdfrwt>
<totfact> 0.33948033E+03</totfact>
</mgrwt>
</event>
<event>
 6    4  0.2220150E-003  0.1346167E+03  0.7818608E-02  0.1220762E+00
         -4   -1    0    0    0  501 -0.00000000000E+00  0.00000000000E+00  0.34299694370E+02  0.34323198188E+02  0.12700000000E+01 0. -1.
          4   -1    0    0  502    0  0.00000000000E+00 -0.00000000000E+00 -0.39562065019E+03  0.39562268862E+03  0.12700000000E+01 0. -1.
         25    2    1    2    0    0  0.46033979217E+02 -0.19450717806E+02 -0.35488453401E+03  0.37955853531E+03  0.12499676628E+03 0.  0.
    9000005    1    3    3    0    0  0.50637924993E+02 -0.16320492645E+02 -0.36452108804E+03  0.36838455662E+03  0.10000000000E+01 0.  0.
    9000005    1    3    3    0    0 -0.46039457754E+01 -0.31302251610E+01  0.96365540302E+01  0.11173978693E+02  0.10000000000E+01 0.  0.
         21    1    1    2  502  501 -0.46033979217E+02  0.19450717806E+02 -0.64364218076E+01  0.50387351503E+02  0.00000000000E+00 0. -1.
<mgrwt>
<rscale>  1 0.13461668E+03</rscale>
<asrwt>0</asrwt>
<pdfrwt beam="2">  1        4 0.60866677E-01 0.13461668E+03</pdfrwt>
<pdfrwt beam="1">  1       -4 0.52788411E-02 0.13461668E+03</pdfrwt>
<totfact> 0.92937835E+02</totfact>
</mgrwt>
</event>
<event>
 6    4  0.2220150E-003  0.1461851E+03  0.7818608E-02  0.1205241E+00
         -4   -1    0    0    0  501 -0.00000000000E+00  0.00000000000E+00  0.29475777308E+03  0.29476050904E+03  0.12700000000E+01 0. -1.
          4   -1    0    0  502    0  0.00000000000E+00 -0.00000000000E+00 -0.43347609282E+02  0.43366209547E+02  0.12700000000E+01 0. -1.
         25    2    1    2    0    0 -0.39110639247E+02 -0.64922803340E+02  0.19467457811E+03  0.24345074920E+03  0.12500185370E+03 0.  0.
    9000005    1    3    3    0    0  0.44780820690E+02 -0.33283782823E+02  0.86604861201E+02  0.10302686098E+03  0.10000000000E+01 0.  0.
    9000005    1    3    3    0    0 -0.83891459937E+02 -0.31639020517E+02  0.10806971691E+03  0.14042388822E+03  0.10000000000E+01 0.  0.
         21    1    1    2  502  501  0.39110639247E+02  0.64922803340E+02  0.56735585689E+02  0.94675969387E+02  0.00000000000E+00 0. -1.
<mgrwt>
<rscale>  1 0.14618507E+03</rscale>
<asrwt>0</asrwt>
<pdfrwt beam="2">  1        4 0.66705042E-02 0.14618507E+03</pdfrwt>
<pdfrwt beam="1">  1       -4 0.45348991E-01 0.14618507E+03</pdfrwt>
<totfact> 0.11833599E+03</totfact>
</mgrwt>
</event>
<event>
 6    4  0.2220150E-003  0.1277329E+03  0.7818608E-02  0.1230859E+00
         -4   -1    0    0    0  501 -0.00000000000E+00  0.00000000000E+00  0.12733761239E+03  0.12734394539E+03  0.12700000000E+01 0.  1.
          4   -1    0    0  502    0  0.00000000000E+00 -0.00000000000E+00 -0.49809562023E+02  0.49825750059E+02  0.12700000000E+01 0.  1.
         25    2    1    2    0    0 -0.21990074835E+02 -0.14316100057E+02  0.45113073790E+02  0.13546544125E+03  0.12500872863E+03 0.  0.
    9000005    1    3    3    0    0 -0.32796627462E+02  0.14638976500E+02 -0.34651776105E+02  0.49916570326E+02  0.10000000000E+01 0.  0.
    9000005    1    3    3    0    0  0.10806552628E+02 -0.28955076557E+02  0.79764849894E+02  0.85548870926E+02  0.10000000000E+01 0.  0.
         21    1    1    2  502  501  0.21990074835E+02  0.14316100057E+02  0.32414976576E+02  0.41704254201E+02  0.00000000000E+00 0. -1.
<mgrwt>
<rscale>  1 0.12773291E+03</rscale>
<asrwt>0</asrwt>
<pdfrwt beam="2">  1        4 0.76647420E-02 0.12773291E+03</pdfrwt>
<pdfrwt beam="1">  1       -4 0.19592134E-01 0.12773291E+03</pdfrwt>
<totfact> 0.44713524E+03</totfact>
</mgrwt>
</event>
<event>
 6    4  0.2220150E-003  0.1272602E+03  0.7818608E-02  0.1231579E+00
          4   -1    0    0  502    0  0.00000000000E+00  0.00000000000E+00  0.52097941827E+02  0.52113419026E+02  0.12700000000E+01 0. -1.
         -4   -1    0    0    0  501 -0.00000000000E+00 -0.00000000000E+00 -0.11921200463E+03  0.11921876928E+03  0.12700000000E+01 0. -1.
         25    2    1    2    0    0  0.22958621609E+02 -0.64913811722E+01 -0.36251536496E+02  0.13232280654E+03  0.12500365953E+03 0.  0.
    9000005    1    3    3    0    0  0.92059696504E+00 -0.61636158663E+02 -0.38852062792E+02  0.72872123180E+02  0.10000000000E+01 0.  0.
    9000005    1    3    3    0    0  0.22038024644E+02  0.55144777491E+02  0.26005262965E+01  0.59450683358E+02  0.10000000000E+01 0.  0.
         21    1    1    2  502  501 -0.22958621609E+02  0.64913811722E+01 -0.30862526310E+02  0.39009381768E+02  0.00000000000E+00 0. -1.
<mgrwt>
<rscale>  1 0.12726017E+03</rscale>
<asrwt>0</asrwt>
<pdfrwt beam="1">  1        4 0.80167789E-02 0.12726017E+03</pdfrwt>
<pdfrwt beam="2">  1       -4 0.18342019E-01 0.12726017E+03</pdfrwt>
<totfact> 0.46661529E+03</totfact>
</mgrwt>
</event>
<event>
 6    4  0.2220150E-003  0.1275589E+03  0.7818608E-02  0.1231123E+00
          4   -1    0    0  502    0  0.00000000000E+00  0.00000000000E+00  0.97814591836E+02  0.97822836169E+02  0.12700000000E+01 0.  1.
         -4   -1    0    0    0  501 -0.00000000000E+00 -0.00000000000E+00 -0.73264205752E+02  0.73275212346E+02  0.12700000000E+01 0.  1.
         25    2    1    2    0    0  0.37737723796E+01  0.25148963162E+02  0.48208283362E+02  0.13636466674E+03  0.12499828816E+03 0.  0.
    9000005    1    3    3    0    0  0.79042504355E+01 -0.37158071508E+02 -0.20775685226E+02  0.43310836401E+02  0.10000000000E+01 0.  0.
    9000005    1    3    3    0    0 -0.41304780560E+01  0.62307034670E+02  0.68983968588E+02  0.93053830337E+02  0.10000000000E+01 0.  0.
         21    1    1    2  502  501 -0.37737723796E+01 -0.25148963162E+02 -0.23657897277E+02  0.34733381777E+02  0.00000000000E+00 0.  1.
<mgrwt>
<rscale>  1 0.12755894E+03</rscale>
<asrwt>0</asrwt>
<pdfrwt beam="1">  1        4 0.15049879E-01 0.12755894E+03</pdfrwt>
<pdfrwt beam="2">  1       -4 0.11272897E-01 0.12755894E+03</pdfrwt>
<totfact> 0.37359304E+03</totfact>
</mgrwt>
</event>
<event>
 6    4  0.2220150E-003  0.1314623E+03  0.7818608E-02  0.1225302E+00
          4   -1    0    0  502    0  0.00000000000E+00  0.00000000000E+00  0.14892252817E+02  0.14946307034E+02  0.12700000000E+01 0. -1.
         -4   -1    0    0    0  501 -0.00000000000E+00 -0.00000000000E+00 -0.50580996497E+03  0.50581155934E+03  0.12700000000E+01 0. -1.
         25    2    1    2    0    0  0.40608380633E+02  0.29802593521E+01 -0.40226834380E+03  0.42320463459E+03  0.12499767912E+03 0.  0.
    9000005    1    3    3    0    0  0.43978242182E+02  0.54789058183E+02 -0.30450154387E+03  0.31250298703E+03  0.10000000000E+01 0.  0.
    9000005    1    3    3    0    0 -0.33698615491E+01 -0.51808798831E+02 -0.97766799932E+02  0.11070164756E+03  0.10000000000E+01 0.  0.
         21    1    1    2  502  501 -0.40608380633E+02 -0.29802593521E+01 -0.88649368350E+02  0.97553231788E+02  0.00000000000E+00 0. -1.
<mgrwt>
<rscale>  1 0.13146232E+03</rscale>
<asrwt>0</asrwt>
<pdfrwt beam="1">  1        4 0.22953969E-02 0.13146232E+03</pdfrwt>
<pdfrwt beam="2">  1       -4 0.77821185E-01 0.13146232E+03</pdfrwt>
<totfact> 0.20282964E+03</totfact>
</mgrwt>
</event>
<event>
 6    4  0.2220150E-003  0.1275918E+03  0.7818608E-02  0.1231073E+00
          4   -1    0    0  502    0  0.00000000000E+00  0.00000000000E+00  0.57355770046E+03  0.57355910650E+03  0.12700000000E+01 0.  1.
         -4   -1    0    0    0  501 -0.00000000000E+00 -0.00000000000E+00 -0.11506644438E+02  0.11576517880E+02  0.12700000000E+01 0.  1.
         25    2    1    2    0    0 -0.25156888012E+02 -0.46740106138E+01  0.52379558548E+03  0.53911175649E+03  0.12499982092E+03 0.  0.
    9000005    1    3    3    0    0 -0.76322403107E+00 -0.42852886479E+01  0.51195599245E+03  0.51197547247E+03  0.10000000000E+01 0.  0.
    9000005    1    3    3    0    0 -0.24393663981E+02 -0.38872196585E+00  0.11839593032E+02  0.27136284019E+02  0.10000000000E+01 0.  0.
         21    1    1    2  502  501  0.25156888012E+02  0.46740106138E+01  0.38255470539E+02  0.46023867893E+02  0.00000000000E+00 0.  1.
<mgrwt>
<rscale>  1 0.12759181E+03</rscale>
<asrwt>0</asrwt>
<pdfrwt beam="1">  1        4 0.88245132E-01 0.12759181E+03</pdfrwt>
<pdfrwt beam="2">  1       -4 0.17757360E-02 0.12759181E+03</pdfrwt>
<totfact> 0.22615796E+03</totfact>
</mgrwt>
</event>
<event>
 6    4  0.2220150E-003  0.1293288E+03  0.7818608E-02  0.1228455E+00
          4   -1    0    0  502    0  0.00000000000E+00  0.00000000000E+00  0.29189694524E+01  0.31832817443E+01  0.12700000000E+01 0. -1.
         -4   -1    0    0    0  501 -0.00000000000E+00 -0.00000000000E+00 -0.22344945672E+04  0.22344949282E+04  0.12700000000E+01 0. -1.
         25    2    1    2    0    0 -0.29081342396E+02 -0.15878353748E+02 -0.15917708572E+04  0.15970160893E+04  0.12501232454E+03 0.  0.
    9000005    1    3    3    0    0 -0.57468720933E+02  0.37405094074E+02 -0.90640798795E+03  0.90899847941E+03  0.10000000000E+01 0.  0.
    9000005    1    3    3    0    0  0.28387378537E+02 -0.53283447822E+02 -0.68536286920E+03  0.68801760992E+03  0.10000000000E+01 0.  0.
         21    1    1    2  502  501  0.29081342396E+02  0.15878353748E+02 -0.63980474064E+03  0.64066212057E+03  0.00000000000E+00 0. -1.
<mgrwt>
<rscale>  1 0.12932876E+03</rscale>
<asrwt>0</asrwt>
<pdfrwt beam="1">  1        4 0.46943349E-03 0.12932876E+03</pdfrwt>
<pdfrwt beam="2">  1       -4 0.34378745E+00 0.12932876E+03</pdfrwt>
<totfact> 0.31459478E+02</totfact>
</mgrwt>
</event>
<event>
 6    4  0.2220150E-003  0.1456723E+03  0.7818608E-02  0.1205894E+00
         -4   -1    0    0    0  501 -0.00000000000E+00  0.00000000000E+00  0.44273625169E+03  0.44273807320E+03  0.12700000000E+01 0.  1.
          4   -1    0    0  502    0  0.00000000000E+00 -0.00000000000E+00 -0.27472945160E+02  0.27502283829E+02  0.12700000000E+01 0.  1.
         25    2    1    2    0    0  0.74802128694E+02  0.13796832020E+00  0.28291580137E+03  0.31821654437E+03  0.12500016382E+03 0.  0.
    9000005    1    3    3    0    0 -0.41662055642E+01  0.51358040149E+02  0.10143864808E+03  0.11377963298E+03  0.10000000000E+01 0.  0.
    9000005    1    3    3    0    0  0.78968334258E+02 -0.51220071829E+02  0.18147715329E+03  0.20443691140E+03  0.10000000000E+01 0.  0.
         21    1    1    2  502  501 -0.74802128694E+02 -0.13796832020E+00  0.13234750516E+03  0.15202381266E+03  0.00000000000E+00 0.  1.
<mgrwt>
<rscale>  1 0.14567230E+03</rscale>
<asrwt>0</asrwt>
<pdfrwt beam="2">  1        4 0.42290039E-02 0.14567230E+03</pdfrwt>
<pdfrwt beam="1">  1       -4 0.68115666E-01 0.14567230E+03</pdfrwt>
<totfact> 0.10609427E+03</totfact>
</mgrwt>
</event>
<event>
 6    4  0.2220150E-003  0.1279775E+03  0.7818608E-02  0.1230488E+00
         -4   -1    0    0    0  501 -0.00000000000E+00  0.00000000000E+00  0.35220768308E+02  0.35243657872E+02  0.12700000000E+01 0. -1.
          4   -1    0    0  502    0  0.00000000000E+00 -0.00000000000E+00 -0.17172829793E+03  0.17173299394E+03  0.12700000000E+01 0. -1.
         25    2    1    2    0    0 -0.40304624307E+01  0.27148171379E+02 -0.11585387645E+03  0.17262783486E+03  0.12499992338E+03 0.  0.
    9000005    1    3    3    0    0 -0.62957016196E+02 -0.25754831259E+00 -0.58396922235E+02  0.85876962836E+02  0.10000000000E+01 0.  0.
    9000005    1    3    3    0    0  0.58926553765E+02  0.27405719691E+02 -0.57456954213E+02  0.86750872029E+02  0.10000000000E+01 0.  0.
         21    1    1    2  502  501  0.40304624307E+01 -0.27148171379E+02 -0.20653653170E+02  0.34348816950E+02  0.00000000000E+00 0. -1.
<mgrwt>
<rscale>  1 0.12797753E+03</rscale>
<asrwt>0</asrwt>
<pdfrwt beam="2">  1        4 0.26421860E-01 0.12797753E+03</pdfrwt>
<pdfrwt beam="1">  1       -4 0.54207018E-02 0.12797753E+03</pdfrwt>
<totfact> 0.45617927E+03</totfact>
</mgrwt>
</event>
<event>
 6    4  0.2220150E-003  0.1439306E+03  0.7818608E-02  0.1208136E+00
          4   -1    0    0  502    0  0.00000000000E+00  0.00000000000E+00  0.21036695730E+02  0.21074996257E+02  0.12700000000E+01 0. -1.
         -4   -1    0    0    0  501 -0.00000000000E+00 -0.00000000000E+00 -0.55770109784E+03  0.55770254386E+03  0.12700000000E+01 0. -1.
         25    2    1    2    0    0 -0.17801792171E+02 -0.69094680400E+02 -0.32604426044E+03  0.35639988220E+03  0.12500015042E+03 0.  0.
    9000005    1    3    3    0    0 -0.42013567724E+01 -0.10515381251E+03 -0.23161297859E+03  0.25440233398E+03  0.10000000000E+01 0.  0.
    9000005    1    3    3    0    0 -0.13600435398E+02  0.36059132108E+02 -0.94431281853E+02  0.10199754822E+03  0.10000000000E+01 0.  0.
         21    1    1    2  502  501  0.17801792171E+02  0.69094680400E+02 -0.21062014167E+03  0.22237765792E+03  0.00000000000E+00 0. -1.
<mgrwt>
<rscale>  1 0.14393060E+03</rscale>
<asrwt>0</asrwt>
<pdfrwt beam="1">  1        4 0.32394726E-02 0.14393060E+03</pdfrwt>
<pdfrwt beam="2">  1       -4 0.85803215E-01 0.14393060E+03</pdfrwt>
<totfact> 0.97250062E+02</totfact>
</mgrwt>
</event>
<event>
 6    4  0.2220150E-003  0.1271149E+03  0.7818608E-02  0.1231801E+00
          4   -1    0    0  502    0  0.00000000000E+00  0.00000000000E+00  0.12418223833E+03  0.12418873225E+03  0.12700000000E+01 0. -1.
         -4   -1    0    0    0  501 -0.00000000000E+00 -0.00000000000E+00 -0.46941154827E+02  0.46958331704E+02  0.12700000000E+01 0. -1.
         25    2    1    2    0    0  0.20111539416E+02 -0.11300492829E+02  0.75874610703E+02  0.14803770646E+03  0.12500412324E+03 0.  0.
    9000005    1    3    3    0    0  0.31251278228E+01  0.43360621848E+02 -0.10198771892E+02  0.44664582155E+02  0.10000000000E+01 0.  0.
    9000005    1    3    3    0    0  0.16986411593E+02 -0.54661114677E+02  0.86073382595E+02  0.10337312430E+03  0.10000000000E+01 0.  0.
         21    1    1    2  502  501 -0.20111539416E+02  0.11300492829E+02  0.13664728016E+01  0.23109357494E+02  0.00000000000E+00 0.  1.
<mgrwt>
<rscale>  1 0.12711493E+03</rscale>
<asrwt>0</asrwt>
<pdfrwt beam="1">  1        4 0.19106780E-01 0.12711493E+03</pdfrwt>
<pdfrwt beam="2">  1       -4 0.72235371E-02 0.12711493E+03</pdfrwt>
<totfact> 0.51498593E+03</totfact>
</mgrwt>
</event>
<event>
 6    4  0.2220150E-003  0.1274283E+03  0.7818608E-02  0.1231322E+00
         -4   -1    0    0    0  501 -0.00000000000E+00  0.00000000000E+00  0.12934773340E+03  0.12935396799E+03  0.12700000000E+01 0. -1.
          4   -1    0    0  502    0  0.00000000000E+00 -0.00000000000E+00 -0.44768140957E+02  0.44786151261E+02  0.12700000000E+01 0. -1.
         25    2    1    2    0    0 -0.23120257030E+01 -0.24650938421E+02  0.69468009784E+02  0.14513366896E+03  0.12499985302E+03 0.  0.
    9000005    1    3    3    0    0 -0.38034997727E+02 -0.36204276831E+02 -0.13355646770E+02  0.54192102871E+02  0.10000000000E+01 0.  0.
    9000005    1    3    3    0    0  0.35722972024E+02  0.11553338410E+02  0.82823656554E+02  0.90941566094E+02  0.10000000000E+01 0.  0.
         21    1    1    2  502  501  0.23120257030E+01  0.24650938421E+02  0.15111582655E+02  0.29006450287E+02  0.00000000000E+00 0.  1.
<mgrwt>
<rscale>  1 0.12742832E+03</rscale>
<asrwt>0</asrwt>
<pdfrwt beam="2">  1        4 0.68892713E-02 0.12742832E+03</pdfrwt>
<pdfrwt beam="1">  1       -4 0.19901516E-01 0.12742832E+03</pdfrwt>
<totfact> 0.51773342E+03</totfact>
</mgrwt>
</event>
<event>
 6    4  0.2220150E-003  0.1366989E+03  0.7818608E-02  0.1217841E+00
          4   -1    0    0  502    0  0.00000000000E+00  0.00000000000E+00  0.49246158905E+03  0.49246322664E+03  0.12700000000E+01 0.  1.
         -4   -1    0    0    0  501 -0.00000000000E+00 -0.00000000000E+00 -0.93497784108E+02  0.93506409048E+02  0.12700000000E+01 0.  1.
         25    2    1    2    0    0  0.55101635532E+02  0.52465941538E+01  0.47366530507E+03  0.49299635399E+03  0.12499146705E+03 0.  0.
    9000005    1    3    3    0    0  0.44732254296E+02 -0.39813326328E+02  0.10062600955E+03  0.11710110728E+03  0.10000000000E+01 0.  0.
    9000005    1    3    3    0    0  0.10369381236E+02  0.45059920482E+02  0.37303929552E+03  0.37589524671E+03  0.10000000000E+01 0.  0.
         21    1    1    2  502  501 -0.55101635532E+02 -0.52465941538E+01 -0.74701500124E+02  0.92973281696E+02  0.00000000000E+00 0.  1.
<mgrwt>
<rscale>  1 0.13669888E+03</rscale>
<asrwt>0</asrwt>
<pdfrwt beam="1">  1        4 0.75764112E-01 0.13669888E+03</pdfrwt>
<pdfrwt beam="2">  1       -4 0.14385064E-01 0.13669888E+03</pdfrwt>
<totfact> 0.10920998E+02</totfact>
</mgrwt>
</event>
<event>
 6    4  0.2220150E-003  0.1307833E+03  0.7818608E-02  0.1226298E+00
         -4   -1    0    0    0  501 -0.00000000000E+00  0.00000000000E+00  0.66615614309E+01  0.67815411743E+01  0.12700000000E+01 0.  1.
          4   -1    0    0  502    0  0.00000000000E+00 -0.00000000000E+00 -0.13037599570E+04  0.13037605756E+04  0.12700000000E+01 0.  1.
         25    2    1    2    0    0  0.35463967795E+02 -0.14851974997E+02 -0.11815236081E+04  0.11887397946E+04  0.12500395452E+03 0.  0.
    9000005    1    3    3    0    0  0.20845716276E+02  0.50113202310E+02 -0.76521020975E+03  0.76713332742E+03  0.10000000000E+01 0.  0.
    9000005    1    3    3    0    0  0.14618251519E+02 -0.64965177307E+02 -0.41631339835E+03  0.42160646720E+03  0.10000000000E+01 0.  0.
         21    1    1    2  502  501 -0.35463967795E+02  0.14851974997E+02 -0.11557478748E+03  0.12180232212E+03  0.00000000000E+00 0. -1.
<mgrwt>
<rscale>  1 0.13078327E+03</rscale>
<asrwt>0</asrwt>
<pdfrwt beam="2">  1        4 0.20058753E+00 0.13078327E+03</pdfrwt>
<pdfrwt beam="1">  1       -4 0.10341334E-02 0.13078327E+03</pdfrwt>
<totfact> 0.66851289E+02</totfact>
</mgrwt>
</event>
<event>
 6    4  0.2220150E-003  0.1275776E+03  0.7818608E-02  0.1231095E+00
          4   -1    0    0  502    0  0.00000000000E+00  0.00000000000E+00  0.98233946589E+01  0.99051492985E+01  0.12700000000E+01 0.  1.
         -4   -1    0    0    0  501 -0.00000000000E+00 -0.00000000000E+00 -0.69111722493E+03  0.69111839181E+03  0.12700000000E+01 0.  1.
         25    2    1    2    0    0 -0.42550033910E+01  0.25160615759E+02 -0.43248111223E+03  0.45090570828E+03  0.12499953473E+03 0.  0.
    9000005    1    3    3    0    0  0.64824742265E+01 -0.50382345615E+02 -0.19194123670E+03  0.19855186116E+03  0.10000000000E+01 0.  0.
    9000005    1    3    3    0    0 -0.10737477618E+02  0.75542961374E+02 -0.24053987553E+03  0.25235384712E+03  0.10000000000E+01 0.  0.
         21    1    1    2  502  501  0.42550033910E+01 -0.25160615759E+02 -0.24881271804E+03  0.25011783283E+03  0.00000000000E+00 0.  1.
<mgrwt>
<rscale>  1 0.12757761E+03</rscale>
<asrwt>0</asrwt>
<pdfrwt beam="1">  1        4 0.15176706E-02 0.12757761E+03</pdfrwt>
<pdfrwt beam="2">  1       -4 0.10633207E+00 0.12757761E+03</pdfrwt>
<totfact> 0.18745279E+03</totfact>
</mgrwt>
</event>
<event>
 6    4  0.2220150E-003  0.1278267E+03  0.7818608E-02  0.1230717E+00
         -4   -1    0    0    0  501 -0.00000000000E+00  0.00000000000E+00  0.24863576242E+01  0.27919301989E+01  0.12700000000E+01 0. -1.
          4   -1    0    0  502    0  0.00000000000E+00 -0.00000000000E+00 -0.22619933779E+04  0.22619937344E+04  0.12700000000E+01 0. -1.
         25    2    1    2    0    0  0.83114269604E-01 -0.26711614940E+02 -0.18682488353E+04  0.18726167156E+04  0.12500454228E+03 0.  0.
    9000005    1    3    3    0    0  0.17052339120E+02 -0.74826934551E+02 -0.11463580356E+04  0.11489245398E+04  0.10000000000E+01 0.  0.
    9000005    1    3    3    0    0 -0.16969224851E+02  0.48115319611E+02 -0.72189079976E+03  0.72369217583E+03  0.10000000000E+01 0.  0.
         21    1    1    2  502  501 -0.83114269604E-01  0.26711614940E+02 -0.39125818495E+03  0.39216894901E+03  0.00000000000E+00 0. -1.
<mgrwt>
<rscale>  1 0.12782665E+03</rscale>
<asrwt>0</asrwt>
<pdfrwt beam="2">  1        4 0.34802096E+00 0.12782665E+03</pdfrwt>
<pdfrwt beam="1">  1       -4 0.40605137E-03 0.12782665E+03</pdfrwt>
<totfact> 0.36666415E+02</totfact>
</mgrwt>
</event>
<event>
 6    4  0.2220150E-003  0.1267349E+03  0.7818608E-02  0.1232383E+00
         -4   -1    0    0    0  501 -0.00000000000E+00  0.00000000000E+00  0.14876664320E+02  0.14930774973E+02  0.12700000000E+01 0. -1.
          4   -1    0    0  502    0  0.00000000000E+00 -0.00000000000E+00 -0.37142563633E+03  0.37142780755E+03  0.12700000000E+01 0. -1.
         25    2    1    2    0    0  0.20052380482E+02  0.55618027633E+01 -0.32177703617E+03  0.34583551336E+03  0.12501483783E+03 0.  0.
    9000005    1    3    3    0    0  0.25181834751E+02 -0.11738655082E+02 -0.46424573967E+01  0.28186401601E+02  0.10000000000E+01 0.  0.
    9000005    1    3    3    0    0 -0.51294542685E+01  0.17300457845E+02 -0.31713457878E+03  0.31764911175E+03  0.10000000000E+01 0.  0.
         21    1    1    2  502  501 -0.20052380482E+02 -0.55618027633E+01 -0.34771935833E+02  0.40523069165E+02  0.00000000000E+00 0. -1.
<mgrwt>
<rscale>  1 0.12673493E+03</rscale>
<asrwt>0</asrwt>
<pdfrwt beam="2">  1        4 0.57146728E-01 0.12673493E+03</pdfrwt>
<pdfrwt beam="1">  1       -4 0.22930472E-02 0.12673493E+03</pdfrwt>
<totfact> 0.38963401E+03</totfact>
</mgrwt>
</event>
<event>
 6    4  0.2220150E-003  0.1313713E+03  0.7818608E-02  0.1225435E+00
         -4   -1    0    0    0  501 -0.00000000000E+00  0.00000000000E+00  0.21081548993E+03  0.21081931528E+03  0.12700000000E+01 0.  1.
          4   -1    0    0  502    0  0.00000000000E+00 -0.00000000000E+00 -0.35279111914E+02  0.35301963649E+02  0.12700000000E+01 0.  1.
         25    2    1    2    0    0  0.39315888112E+02  0.93179663344E+01  0.12415840042E+03  0.18075875039E+03  0.12500341553E+03 0.  0.
    9000005    1    3    3    0    0  0.32681684307E+02 -0.56048973335E+02  0.51910016099E+02  0.83097711596E+02  0.10000000000E+01 0.  0.
    9000005    1    3    3    0    0  0.66342038047E+01  0.65366939670E+02  0.72248384321E+02  0.97661038797E+02  0.10000000000E+01 0.  0.
         21    1    1    2  502  501 -0.39315888112E+02 -0.93179663344E+01  0.51377977599E+02  0.65362528537E+02  0.00000000000E+00 0.  1.
<mgrwt>
<rscale>  1 0.13137130E+03</rscale>
<asrwt>0</asrwt>
<pdfrwt beam="2">  1        4 0.54296077E-02 0.13137130E+03</pdfrwt>
<pdfrwt beam="1">  1       -4 0.32435205E-01 0.13137130E+03</pdfrwt>
<totfact> 0.31128801E+03</totfact>
</mgrwt>
</event>
<event>
 6    4  0.2220150E-003  0.1316940E+03  0.7818608E-02  0.1224964E+00
          4   -1    0    0  502    0  0.00000000000E+00  0.00000000000E+00  0.63183336148E+02  0.63196098509E+02  0.12700000000E+01 0. -1.
         -4   -1    0    0    0  501 -0.00000000000E+00 -0.00000000000E+00 -0.13779590229E+03  0.13780175466E+03  0.12700000000E+01 0. -1.
         25    2    1    2    0    0 -0.41338521048E+02 -0.30427868672E+01 -0.21201657713E+02  0.13338973965E+03  0.12500072192E+03 0.  0.
    9000005    1    3    3    0    0 -0.21648358652E+02  0.93055223878E+01  0.51721927851E+02  0.56845421978E+02  0.10000000000E+01 0.  0.
    9000005    1    3    3    0    0 -0.19690162396E+02 -0.12348309255E+02 -0.72923585564E+02  0.76544317674E+02  0.10000000000E+01 0.  0.
         21    1    1    2  502  501  0.41338521048E+02  0.30427868672E+01 -0.53410908430E+02  0.67608113520E+02  0.00000000000E+00 0. -1.
<mgrwt>
<rscale>  1 0.13169401E+03</rscale>
<asrwt>0</asrwt>
<pdfrwt beam="1">  1        4 0.97219452E-02 0.13169401E+03</pdfrwt>
<pdfrwt beam="2">  1       -4 0.21200801E-01 0.13169401E+03</pdfrwt>
<totfact> 0.26307613E+03</totfact>
</mgrwt>
</event>
<event>
 6    4  0.2220150E-003  0.1281529E+03  0.7818608E-02  0.1230223E+00
          4   -1    0    0  502    0  0.00000000000E+00  0.00000000000E+00  0.13384126159E+03  0.13384728688E+03  0.12700000000E+01 0. -1.
         -4   -1    0    0    0  501 -0.00000000000E+00 -0.00000000000E+00 -0.51887524327E+02  0.51903064271E+02  0.12700000000E+01 0. -1.
         25    2    1    2    0    0 -0.17603053595E+02 -0.22102422980E+02  0.89730486081E+02  0.15644399656E+03  0.12499911731E+03 0.  0.
    9000005    1    3    3    0    0  0.33063452519E+02  0.29876964432E+02  0.66815159460E+02  0.80318680454E+02  0.10000000000E+01 0.  0.
    9000005    1    3    3    0    0 -0.50666506114E+02 -0.51979387412E+02  0.22915326620E+02  0.76125316102E+02  0.10000000000E+01 0.  0.
         21    1    1    2  502  501  0.17603053595E+02  0.22102422980E+02 -0.77767488145E+01  0.29306354594E+02  0.00000000000E+00 0. -1.
<mgrwt>
<rscale>  1 0.12815289E+03</rscale>
<asrwt>0</asrwt>
<pdfrwt beam="1">  1        4 0.20592622E-01 0.12815289E+03</pdfrwt>
<pdfrwt beam="2">  1       -4 0.79843550E-02 0.12815289E+03</pdfrwt>
<totfact> 0.38247221E+03</totfact>
</mgrwt>
</event>
<event>
 6    4  0.2220150E-003  0.1680255E+03  0.7818608E-02  0.1179923E+00
         -4   -1    0    0    0  501 -0.00000000000E+00  0.00000000000E+00  0.79442375341E+02  0.79452526075E+02  0.12700000000E+01 0. -1.
          4   -1    0    0  502    0  0.00000000000E+00 -0.00000000000E+00 -0.24730538546E+03  0.24730864639E+03  0.12700000000E+01 0. -1.
         25    2    1    2    0    0 -0.97118335795E+02  0.56343750331E+02 -0.10342942793E+03  0.19730741291E+03  0.12500391705E+03 0.  0.
    9000005    1    3    3    0    0 -0.89497080032E+02  0.43147666826E-01 -0.12907376657E+02  0.90428588224E+02  0.10000000000E+01 0.  0.
    9000005    1    3    3    0    0 -0.76212557627E+01  0.56300602664E+02 -0.90522051269E+02  0.10687882468E+03  0.10000000000E+01 0.  0.
         21    1    1    2  502  501  0.97118335795E+02 -0.56343750331E+02 -0.64433582196E+02  0.12945375956E+03  0.00000000000E+00 0. -1.
<mgrwt>
<rscale>  1 0.16802550E+03</rscale>
<asrwt>0</asrwt>
<pdfrwt beam="2">  1        4 0.38048014E-01 0.16802550E+03</pdfrwt>
<pdfrwt beam="1">  1       -4 0.12222936E-01 0.16802550E+03</pdfrwt>
<totfact> 0.62375325E+02</totfact>
</mgrwt>
</event>
<event>
 6    4  0.2220150E-003  0.1313259E+03  0.7818608E-02  0.1225501E+00
          4   -1    0    0  502    0  0.00000000000E+00  0.00000000000E+00  0.18177011559E+03  0.18177455218E+03  0.12700000000E+01 0.  1.
         -4   -1    0    0    0  501 -0.00000000000E+00 -0.00000000000E+00 -0.56162344354E+02  0.56176701784E+02  0.12700000000E+01 0.  1.
         25    2    1    2    0    0 -0.40159817530E+02  0.29687210021E+01  0.14294106319E+03  0.19410986646E+03  0.12499947385E+03 0.  0.
    9000005    1    3    3    0    0 -0.77360230331E+02 -0.12982345314E+02  0.50785354216E+02  0.93452119984E+02  0.10000000000E+01 0.  0.
    9000005    1    3    3    0    0  0.37200412801E+02  0.15951066316E+02  0.92155708971E+02  0.10065774647E+03  0.10000000000E+01 0.  0.
         21    1    1    2  502  501  0.40159817530E+02 -0.29687210021E+01 -0.17333291955E+02  0.43841387506E+02  0.00000000000E+00 0. -1.
<mgrwt>
<rscale>  1 0.13132590E+03</rscale>
<asrwt>0</asrwt>
<pdfrwt beam="1">  1        4 0.27966080E-01 0.13132590E+03</pdfrwt>
<pdfrwt beam="2">  1       -4 0.86418062E-02 0.13132590E+03</pdfrwt>
<totfact> 0.19234818E+03</totfact>
</mgrwt>
</event>
<event>
 6    4  0.2220150E-003  0.1270282E+03  0.7818608E-02  0.1231933E+00
         -4   -1    0    0    0  501 -0.00000000000E+00  0.00000000000E+00  0.99835002843E+01  0.10063954388E+02  0.12700000000E+01 0.  1.
          4   -1    0    0  502    0  0.00000000000E+00 -0.00000000000E+00 -0.64413245081E+03  0.64413370281E+03  0.12700000000E+01 0.  1.
         25    2    1    2    0    0 -0.25382042688E+01 -0.22450477413E+02 -0.59966263240E+03  0.61296935920E+03  0.12500278481E+03 0.  0.
    9000005    1    3    3    0    0 -0.60931400748E+02  0.71219379658E+01 -0.27247456844E+03  0.27929688155E+03  0.10000000000E+01 0.  0.
    9000005    1    3    3    0    0  0.58393196479E+02 -0.29572415379E+02 -0.32718806396E+03  0.33367247765E+03  0.10000000000E+01 0.  0.
         21    1    1    2  502  501  0.25382042688E+01  0.22450477413E+02 -0.34486318133E+02  0.41228297992E+02  0.00000000000E+00 0.  1.
<mgrwt>
<rscale>  1 0.12702820E+03</rscale>
<asrwt>0</asrwt>
<pdfrwt beam="2">  1        4 0.99103553E-01 0.12702820E+03</pdfrwt>
<pdfrwt beam="1">  1       -4 0.15422087E-02 0.12702820E+03</pdfrwt>
<totfact> 0.21524155E+03</totfact>
</mgrwt>
</event>
<event>
 6    4  0.2220150E-003  0.1271743E+03  0.7818608E-02  0.1231710E+00
         -4   -1    0    0    0  501 -0.00000000000E+00  0.00000000000E+00  0.24700578642E+02  0.24733206126E+02  0.12700000000E+01 0. -1.
          4   -1    0    0  502    0  0.00000000000E+00 -0.00000000000E+00 -0.24141326830E+03  0.24141660881E+03  0.12700000000E+01 0. -1.
         25    2    1    2    0    0 -0.98379545320E+01 -0.21215523938E+02 -0.20141780547E+03  0.23820670689E+03  0.12500567603E+03 0.  0.
    9000005    1    3    3    0    0  0.31020196955E+01  0.51775830249E+02 -0.99044332117E+02  0.11180849185E+03  0.10000000000E+01 0.  0.
    9000005    1    3    3    0    0 -0.12939974227E+02 -0.72991354186E+02 -0.10237347336E+03  0.12639821504E+03  0.10000000000E+01 0.  0.
         21    1    1    2  502  501  0.98379545320E+01  0.21215523938E+02 -0.15294884183E+02  0.27943108050E+02  0.00000000000E+00 0.  1.
<mgrwt>
<rscale>  1 0.12717430E+03</rscale>
<asrwt>0</asrwt>
<pdfrwt beam="2">  1        4 0.37143268E-01 0.12717430E+03</pdfrwt>
<pdfrwt beam="1">  1       -4 0.38028560E-02 0.12717430E+03</pdfrwt>
<totfact> 0.42019191E+03</totfact>
</mgrwt>
</event>
<event>
 6    4  0.2220150E-003  0.1271706E+03  0.7818608E-02  0.1231716E+00
         -4   -1    0    0    0  501 -0.00000000000E+00  0.00000000000E+00  0.11950267430E+03  0.11950942249E+03  0.12700000000E+01 0. -1.
          4   -1    0    0  502    0  0.00000000000E+00 -0.00000000000E+00 -0.47871125546E+02  0.47887968855E+02  0.12700000000E+01 0. -1.
         25    2    1    2    0    0  0.16317537379E+02  0.16759068608E+02  0.54264547324E+02  0.13826422905E+03  0.12500091013E+03 0.  0.
    9000005    1    3    3    0    0  0.20345324597E+01 -0.20338799807E+02 -0.34999572043E+02  0.40543509259E+02  0.10000000000E+01 0.  0.
    9000005    1    3    3    0    0  0.14283004920E+02  0.37097868415E+02  0.89264119367E+02  0.97720719793E+02  0.10000000000E+01 0.  0.
         21    1    1    2  502  501 -0.16317537379E+02 -0.16759068608E+02  0.17367001428E+02  0.29133162296E+02  0.00000000000E+00 0. -1.
<mgrwt>
<rscale>  1 0.12717058E+03</rscale>
<asrwt>0</asrwt>
<pdfrwt beam="2">  1        4 0.73666033E-02 0.12717058E+03</pdfrwt>
<pdfrwt beam="1">  1       -4 0.18386842E-01 0.12717058E+03</pdfrwt>
<totfact> 0.53406525E+03</totfact>
</mgrwt>
</event>
<event>
 6    4  0.2220150E-003  0.1276580E+03  0.7818608E-02  0.1230973E+00
         -4   -1    0    0    0  501 -0.00000000000E+00  0.00000000000E+00  0.10386562592E+03  0.10387338999E+03  0.12700000000E+01 0.  1.
          4   -1    0    0  502    0  0.00000000000E+00 -0.00000000000E+00 -0.60835102063E+02  0.60848356946E+02  0.12700000000E+01 0.  1.
         25    2    1    2    0    0  0.25136374399E+02  0.62786282036E+01  0.18406367399E+02  0.12897811014E+03  0.12500120017E+03 0.  0.
    9000005    1    3    3    0    0  0.91267942713E+01 -0.43709285086E+02  0.50523477261E+02  0.67434573706E+02  0.10000000000E+01 0.  0.
    9000005    1    3    3    0    0  0.16009580128E+02  0.49987913290E+02 -0.32117109863E+02  0.61543536434E+02  0.10000000000E+01 0.  0.
         21    1    1    2  502  501 -0.25136374399E+02 -0.62786282036E+01  0.24624156459E+02  0.35743636796E+02  0.00000000000E+00 0. -1.
<mgrwt>
<rscale>  1 0.12765797E+03</rscale>
<asrwt>0</asrwt>
<pdfrwt beam="2">  1        4 0.93608633E-02 0.12765797E+03</pdfrwt>
<pdfrwt beam="1">  1       -4 0.15980944E-01 0.12765797E+03</pdfrwt>
<totfact> 0.46026251E+03</totfact>
</mgrwt>
</event>
<event>
 6    4  0.2220150E-003  0.1283095E+03  0.7818608E-02  0.1229986E+00
          4   -1    0    0  502    0  0.00000000000E+00  0.00000000000E+00  0.75985895317E+03  0.75986001448E+03  0.12700000000E+01 0.  1.
         -4   -1    0    0    0  501 -0.00000000000E+00 -0.00000000000E+00 -0.10847276362E+02  0.10921369167E+02  0.12700000000E+01 0.  1.
         25    2    1    2    0    0  0.25270294828E+02  0.14117100163E+02  0.71360379876E+03  0.72504739032E+03  0.12500182516E+03 0.  0.
    9000005    1    3    3    0    0  0.66712928871E+01 -0.49836212677E+02  0.16723133826E+03  0.17462953570E+03  0.10000000000E+01 0.  0.
    9000005    1    3    3    0    0  0.18599001941E+02  0.63953312840E+02  0.54637246050E+03  0.55041785462E+03  0.10000000000E+01 0.  0.
         21    1    1    2  502  501 -0.25270294828E+02 -0.14117100163E+02  0.35407878048E+02  0.45733993327E+02  0.00000000000E+00 0.  1.
<mgrwt>
<rscale>  1 0.12830953E+03</rscale>
<asrwt>0</asrwt>
<pdfrwt beam="1">  1        4 0.11690715E+00 0.12830953E+03</pdfrwt>
<pdfrwt beam="2">  1       -4 0.16745929E-02 0.12830953E+03</pdfrwt>
<totfact> 0.12916753E+03</totfact>
</mgrwt>
</event>
<event>
 6    4  0.2220150E-003  0.1526548E+03  0.7818608E-02  0.1197248E+00
         -4   -1    0    0    0  501 -0.00000000000E+00  0.00000000000E+00  0.67412947394E+02  0.67424909169E+02  0.12700000000E+01 0. -1.
          4   -1    0    0  502    0  0.00000000000E+00 -0.00000000000E+00 -0.24040363091E+03  0.24040698545E+03  0.12700000000E+01 0. -1.
         25    2    1    2    0    0 -0.32246002841E+02 -0.81474215650E+02 -0.15659016436E+03  0.21868690293E+03  0.12500251767E+03 0.  0.
    9000005    1    3    3    0    0 -0.77837963996E+02 -0.39695922535E+02 -0.68385515789E+02  0.11095987416E+03  0.10000000000E+01 0.  0.
    9000005    1    3    3    0    0  0.45591961155E+02 -0.41778293116E+02 -0.88204648568E+02  0.10772702877E+03  0.10000000000E+01 0.  0.
         21    1    1    2  502  501  0.32246002841E+02  0.81474215650E+02 -0.16400519159E+02  0.89144991692E+02  0.00000000000E+00 0. -1.
<mgrwt>
<rscale>  1 0.15265478E+03</rscale>
<asrwt>0</asrwt>
<pdfrwt beam="2">  1        4 0.36986352E-01 0.15265478E+03</pdfrwt>
<pdfrwt beam="1">  1       -4 0.10372401E-01 0.15265478E+03</pdfrwt>
<totfact> 0.85674743E+02</totfact>
</mgrwt>
</event>
<event>
 6    4  0.2220150E-003  0.1713283E+03  0.7818608E-02  0.1176470E+00
         -4   -1    0    0    0  501 -0.00000000000E+00  0.00000000000E+00  0.26043185979E+03  0.26043495636E+03  0.12700000000E+01 0.  1.
          4   -1    0    0  502    0  0.00000000000E+00 -0.00000000000E+00 -0.81741735017E+02  0.81751600251E+02  0.12700000000E+01 0.  1.
         25    2    1    2    0    0 -0.11297523555E+03  0.31059833910E+02  0.13105979062E+03  0.21570823491E+03  0.12500102703E+03 0.  0.
    9000005    1    3    3    0    0 -0.87127781608E+00  0.49829879478E+02  0.72111571540E+02  0.87663303404E+02  0.10000000000E+01 0.  0.
    9000005    1    3    3    0    0 -0.11210395773E+03 -0.18770045568E+02  0.58948219083E+02  0.12804493150E+03  0.10000000000E+01 0.  0.
         21    1    1    2  502  501  0.11297523555E+03 -0.31059833910E+02  0.47630334151E+02  0.12647832171E+03  0.00000000000E+00 0.  1.
<mgrwt>
<rscale>  1 0.17132826E+03</rscale>
<asrwt>0</asrwt>
<pdfrwt beam="2">  1        4 0.12576649E-01 0.17132826E+03</pdfrwt>
<pdfrwt beam="1">  1       -4 0.40067437E-01 0.17132826E+03</pdfrwt>
<totfact> 0.53819532E+02</totfact>
</mgrwt>
</event>
<event>
 6    4  0.2220150E-003  0.1470816E+03  0.7818608E-02  0.1204106E+00
         -4   -1    0    0    0  501 -0.00000000000E+00  0.00000000000E+00  0.71094886976E+02  0.71106229362E+02  0.12700000000E+01 0.  1.
          4   -1    0    0  502    0  0.00000000000E+00 -0.00000000000E+00 -0.21656018038E+03  0.21656390425E+03  0.12700000000E+01 0.  1.
         25    2    1    2    0    0  0.23677587232E+02  0.73797214007E+02 -0.14994353613E+03  0.21003823560E+03  0.12500535770E+03 0.  0.
    9000005    1    3    3    0    0  0.47909579335E+02  0.99883406265E+02 -0.12177507203E+03  0.16462743030E+03  0.10000000000E+01 0.  0.
    9000005    1    3    3    0    0 -0.24231992103E+02 -0.26086192259E+02 -0.28168464096E+02  0.45410805293E+02  0.10000000000E+01 0.  0.
         21    1    1    2  502  501 -0.23677587232E+02 -0.73797214007E+02  0.44782427278E+01  0.77631898020E+02  0.00000000000E+00 0.  1.
<mgrwt>
<rscale>  1 0.14708160E+03</rscale>
<asrwt>0</asrwt>
<pdfrwt beam="2">  1        4 0.33318109E-01 0.14708160E+03</pdfrwt>
<pdfrwt beam="1">  1       -4 0.10938834E-01 0.14708160E+03</pdfrwt>
<totfact> 0.95101870E+02</totfact>
</mgrwt>
</event>
<event>
 6    4  0.2220150E-003  0.1272536E+03  0.7818608E-02  0.1231589E+00
         -4   -1    0    0    0  501 -0.00000000000E+00  0.00000000000E+00  0.55399381231E+02  0.55413936341E+02  0.12700000000E+01 0.  1.
          4   -1    0    0  502    0  0.00000000000E+00 -0.00000000000E+00 -0.10313629366E+03  0.10314411263E+03  0.12700000000E+01 0.  1.
         25    2    1    2    0    0  0.12971656946E+02  0.20008409257E+02 -0.38053432153E+02  0.13282149684E+03  0.12499954400E+03 0.  0.
    9000005    1    3    3    0    0  0.80719077659E+01 -0.39762666053E+02  0.23482485726E+02  0.46889790386E+02  0.10000000000E+01 0.  0.
    9000005    1    3    3    0    0  0.48997491802E+01  0.59771075309E+02 -0.61535917879E+02  0.85931706458E+02  0.10000000000E+01 0.  0.
         21    1    1    2  502  501 -0.12971656946E+02 -0.20008409257E+02 -0.96834802739E+01  0.25736552122E+02  0.00000000000E+00 0.  1.
<mgrwt>
<rscale>  1 0.12725363E+03</rscale>
<asrwt>0</asrwt>
<pdfrwt beam="2">  1        4 0.15868843E-01 0.12725363E+03</pdfrwt>
<pdfrwt beam="1">  1       -4 0.85247028E-02 0.12725363E+03</pdfrwt>
<totfact> 0.54425362E+03</totfact>
</mgrwt>
</event>
<event>
 6    4  0.2220150E-003  0.1288884E+03  0.7818608E-02  0.1229114E+00
          4   -1    0    0  502    0  0.00000000000E+00  0.00000000000E+00  0.50886182985E+01  0.52447055388E+01  0.12700000000E+01 0.  1.
         -4   -1    0    0    0  501 -0.00000000000E+00 -0.00000000000E+00 -0.14465577075E+04  0.14465582650E+04  0.12700000000E+01 0.  1.
         25    2    1    2    0    0  0.14104372273E+02  0.28082899125E+02 -0.87270115069E+03  0.88216751657E+03  0.12499858530E+03 0.  0.
    9000005    1    3    3    0    0 -0.40208867983E+02  0.54418740138E+02 -0.51137129461E+03  0.51582919003E+03  0.10000000000E+01 0.  0.
    9000005    1    3    3    0    0  0.54313240256E+02 -0.26335841012E+02 -0.36132985608E+03  0.36633832653E+03  0.10000000000E+01 0.  0.
         21    1    1    2  502  501 -0.14104372273E+02 -0.28082899125E+02 -0.56876793852E+03  0.56963545398E+03  0.00000000000E+00 0.  1.
<mgrwt>
<rscale>  1 0.12888844E+03</rscale>
<asrwt>0</asrwt>
<pdfrwt beam="1">  1        4 0.79491510E-03 0.12888844E+03</pdfrwt>
<pdfrwt beam="2">  1       -4 0.22255907E+00 0.12888844E+03</pdfrwt>
<totfact> 0.72855426E+02</totfact>
</mgrwt>
</event>
<event>
 6    4  0.2220150E-003  0.1286186E+03  0.7818608E-02  0.1229520E+00
          4   -1    0    0  502    0  0.00000000000E+00  0.00000000000E+00  0.12127511199E+02  0.12193827450E+02  0.12700000000E+01 0. -1.
         -4   -1    0    0    0  501 -0.00000000000E+00 -0.00000000000E+00 -0.55745230576E+03  0.55745375243E+03  0.12700000000E+01 0. -1.
         25    2    1    2    0    0 -0.21358169227E+02 -0.21500948431E+02 -0.36987594268E+03  0.39160050239E+03  0.12499711326E+03 0.  0.
    9000005    1    3    3    0    0  0.12060033921E+02  0.24503253380E+02 -0.13074196505E+02  0.30295023662E+02  0.10000000000E+01 0.  0.
    9000005    1    3    3    0    0 -0.33418203148E+02 -0.46004201811E+02 -0.35680174617E+03  0.36130547873E+03  0.10000000000E+01 0.  0.
         21    1    1    2  502  501  0.21358169227E+02  0.21500948431E+02 -0.17544885188E+03  0.17804707749E+03  0.00000000000E+00 0. -1.
<mgrwt>
<rscale>  1 0.12861859E+03</rscale>
<asrwt>0</asrwt>
<pdfrwt beam="1">  1        4 0.18709839E-02 0.12861859E+03</pdfrwt>
<pdfrwt beam="2">  1       -4 0.85767086E-01 0.12861859E+03</pdfrwt>
<totfact> 0.22292700E+03</totfact>
</mgrwt>
</event>
<event>
 6    4  0.2220150E-003  0.1273052E+03  0.7818608E-02  0.1231510E+00
         -4   -1    0    0    0  501 -0.00000000000E+00  0.00000000000E+00  0.90242748438E+03  0.90242837803E+03  0.12700000000E+01 0.  1.
          4   -1    0    0  502    0  0.00000000000E+00 -0.00000000000E+00 -0.64336017041E+01  0.65577534939E+01  0.12700000000E+01 0.  1.
         25    2    1    2    0    0  0.25546756825E+01  0.23987098662E+02  0.79651216172E+03  0.80662148882E+03  0.12499878076E+03 0.  0.
    9000005    1    3    3    0    0 -0.57969460520E+02  0.30282229701E+02  0.46370020066E+03  0.46829087956E+03  0.10000000000E+01 0.  0.
    9000005    1    3    3    0    0  0.60524136203E+02 -0.62951310394E+01  0.33281196106E+03  0.33833060926E+03  0.10000000000E+01 0.  0.
         21    1    1    2  502  501 -0.25546756825E+01 -0.23987098662E+02  0.99481720962E+02  0.10236464270E+03  0.00000000000E+00 0.  1.
<mgrwt>
<rscale>  1 0.12730515E+03</rscale>
<asrwt>0</asrwt>
<pdfrwt beam="2">  1        4 0.99940359E-03 0.12730515E+03</pdfrwt>
<pdfrwt beam="1">  1       -4 0.13884464E+00 0.12730515E+03</pdfrwt>
<totfact> 0.18552339E+03</totfact>
</mgrwt>
</event>
<event>
 6    4  0.2220150E-003  0.1302712E+03  0.7818608E-02  0.1227054E+00
          4   -1    0    0  502    0  0.00000000000E+00  0.00000000000E+00  0.31637017216E+03  0.31637272122E+03  0.12700000000E+01 0. -1.
         -4   -1    0    0    0  501 -0.00000000000E+00 -0.00000000000E+00 -0.26335864567E+02  0.26366468525E+02  0.12700000000E+01 0. -1.
         25    2    1    2    0    0 -0.15233066543E+02 -0.33276403240E+02  0.27275460529E+03  0.30226755226E+03  0.12502492997E+03 0.  0.
    9000005    1    3    3    0    0 -0.23968237886E+02 -0.68075636468E+02  0.24894032872E+03  0.25919308628E+03  0.10000000000E+01 0.  0.
    9000005    1    3    3    0    0  0.87351713434E+01  0.34799233228E+02  0.23814276570E+02  0.43074465989E+02  0.10000000000E+01 0.  0.
         21    1    1    2  502  501  0.15233066543E+02  0.33276403240E+02  0.17279702301E+02  0.40471637483E+02  0.00000000000E+00 0. -1.
<mgrwt>
<rscale>  1 0.13027125E+03</rscale>
<asrwt>0</asrwt>
<pdfrwt beam="1">  1        4 0.48674886E-01 0.13027125E+03</pdfrwt>
<pdfrwt beam="2">  1       -4 0.40542215E-02 0.13027125E+03</pdfrwt>
<totfact> 0.22331624E+03</totfact>
</mgrwt>
</event>
<event>
 6    4  0.2220150E-003  0.1297045E+03  0.7818608E-02  0.1227895E+00
         -4   -1    0    0    0  501 -0.00000000000E+00  0.00000000000E+00  0.83253105662E+03  0.83253202529E+03  0.12700000000E+01 0.  1.
          4   -1    0    0  502    0  0.00000000000E+00 -0.00000000000E+00 -0.10752750356E+02  0.10827490023E+02  0.12700000000E+01 0.  1.
         25    2    1    2    0    0  0.34479222257E+02 -0.24417160602E+01  0.40755563140E+03  0.42769714858E+03  0.12501391713E+03 0.  0.
    9000005    1    3    3    0    0 -0.42521209528E+02 -0.19002853077E+01  0.23374226300E+03  0.23758810967E+03  0.10000000000E+01 0.  0.
    9000005    1    3    3    0    0  0.77000431785E+02 -0.54143075247E+00  0.17381336840E+03  0.19010903891E+03  0.10000000000E+01 0.  0.
         21    1    1    2  502  501 -0.34479222257E+02  0.24417160602E+01  0.41422267487E+03  0.41566236674E+03  0.00000000000E+00 0.  1.
<mgrwt>
<rscale>  1 0.12970450E+03</rscale>
<asrwt>0</asrwt>
<pdfrwt beam="2">  1        4 0.16600924E-02 0.12970450E+03</pdfrwt>
<pdfrwt beam="1">  1       -4 0.12808757E+00 0.12970450E+03</pdfrwt>
<totfact> 0.10525026E+03</totfact>
</mgrwt>
</event>
<event>
 6    4  0.2220150E-003  0.1267028E+03  0.7818608E-02  0.1232432E+00
          4   -1    0    0  502    0  0.00000000000E+00  0.00000000000E+00  0.28718154749E+03  0.28718435563E+03  0.12700000000E+01 0. -1.
         -4   -1    0    0    0  501 -0.00000000000E+00 -0.00000000000E+00 -0.19406055577E+02  0.19447567792E+02  0.12700000000E+01 0. -1.
         25    2    1    2    0    0 -0.18653099897E+02 -0.89720909205E+01  0.24521669376E+03  0.27601598108E+03  0.12500063345E+03 0.  0.
    9000005    1    3    3    0    0 -0.44813438568E+02 -0.33637106470E+02  0.43033190052E+02  0.70658011959E+02  0.10000000000E+01 0.  0.
    9000005    1    3    3    0    0  0.26160338671E+02  0.24665015550E+02  0.20218350370E+03  0.20535796912E+03  0.10000000000E+01 0.  0.
         21    1    1    2  502  501  0.18653099897E+02  0.89720909205E+01  0.22558798160E+02  0.30615942345E+02  0.00000000000E+00 0.  1.
<mgrwt>
<rscale>  1 0.12670278E+03</rscale>
<asrwt>0</asrwt>
<pdfrwt beam="1">  1        4 0.44185186E-01 0.12670278E+03</pdfrwt>
<pdfrwt beam="2">  1       -4 0.29889563E-02 0.12670278E+03</pdfrwt>
<totfact> 0.43562076E+03</totfact>
</mgrwt>
</event>
<event>
 6    4  0.2220150E-003  0.1281034E+03  0.7818608E-02  0.1230297E+00
         -4   -1    0    0    0  501 -0.00000000000E+00  0.00000000000E+00  0.11626861643E+02  0.11696016915E+02  0.12700000000E+01 0. -1.
          4   -1    0    0  502    0  0.00000000000E+00 -0.00000000000E+00 -0.53108490007E+03  0.53108641857E+03  0.12700000000E+01 0. -1.
         25    2    1    2    0    0 -0.19779925544E+02  0.19853977070E+02 -0.45013976523E+03  0.46801313122E+03  0.12500022758E+03 0.  0.
    9000005    1    3    3    0    0  0.15684124837E+02  0.13414717123E+02 -0.47959446973E+01  0.21211965796E+02  0.10000000000E+01 0.  0.
    9000005    1    3    3    0    0 -0.35464050381E+02  0.64392599469E+01 -0.44534382054E+03  0.44680116543E+03  0.10000000000E+01 0.  0.
         21    1    1    2  502  501  0.19779925544E+02 -0.19853977070E+02 -0.69318273197E+02  0.74769304257E+02  0.00000000000E+00 0.  1.
<mgrwt>
<rscale>  1 0.12810341E+03</rscale>
<asrwt>0</asrwt>
<pdfrwt beam="2">  1        4 0.81710787E-01 0.12810341E+03</pdfrwt>
<pdfrwt beam="1">  1       -4 0.17941848E-02 0.12810341E+03</pdfrwt>
<totfact> 0.26454972E+03</totfact>
</mgrwt>
</event>
<event>
 6    4  0.2220150E-003  0.1278332E+03  0.7818608E-02  0.1230707E+00
         -4   -1    0    0    0  501 -0.00000000000E+00  0.00000000000E+00  0.43464469026E+03  0.43464654568E+03  0.12700000000E+01 0. -1.
          4   -1    0    0  502    0  0.00000000000E+00 -0.00000000000E+00 -0.40799515524E+02  0.40819276905E+02  0.12700000000E+01 0. -1.
         25    2    1    2    0    0 -0.24318970900E+02 -0.11176251907E+02  0.61168404473E+02  0.14171418675E+03  0.12500006427E+03 0.  0.
    9000005    1    3    3    0    0 -0.65015547638E+02  0.26223661779E+02  0.47750985538E+02  0.84828406160E+02  0.10000000000E+01 0.  0.
    9000005    1    3    3    0    0  0.40696576739E+02 -0.37399913686E+02  0.13417418935E+02  0.56885780585E+02  0.10000000000E+01 0.  0.
         21    1    1    2  502  501  0.24318970900E+02  0.11176251907E+02  0.33267677026E+03  0.33375163584E+03  0.00000000000E+00 0. -1.
<mgrwt>
<rscale>  1 0.12783324E+03</rscale>
<asrwt>0</asrwt>
<pdfrwt beam="2">  1        4 0.62785113E-02 0.12783324E+03</pdfrwt>
<pdfrwt beam="1">  1       -4 0.66870077E-01 0.12783324E+03</pdfrwt>
<totfact> 0.56871486E+02</totfact>
</mgrwt>
</event>
<event>
 6    4  0.2220150E-003  0.1298520E+03  0.7818608E-02  0.1227675E+00
          4   -1    0    0  502    0  0.00000000000E+00  0.00000000000E+00  0.99597294577E+03  0.99597375548E+03  0.12700000000E+01 0. -1.
         -4   -1    0    0    0  501 -0.00000000000E+00 -0.00000000000E+00 -0.86397623931E+01  0.87326052361E+01  0.12700000000E+01 0. -1.
         25    2    1    2    0    0  0.34015511269E+02 -0.89188978115E+01  0.91619499430E+03  0.92535118640E+03  0.12499979541E+03 0.  0.
    9000005    1    3    3    0    0 -0.51245543248E+01  0.54383892581E+02  0.33844985617E+03  0.34283111582E+03  0.10000000000E+01 0.  0.
    9000005    1    3    3    0    0  0.39140065594E+02 -0.63302790393E+02  0.57774513813E+03  0.58252007058E+03  0.10000000000E+01 0.  0.
         21    1    1    2  502  501 -0.34015511269E+02  0.89188978115E+01  0.71138189076E+02  0.79355174312E+02  0.00000000000E+00 0. -1.
<mgrwt>
<rscale>  1 0.12985203E+03</rscale>
<asrwt>0</asrwt>
<pdfrwt beam="1">  1        4 0.15323381E+00 0.12985203E+03</pdfrwt>
<pdfrwt beam="2">  1       -4 0.13363983E-02 0.12985203E+03</pdfrwt>
<totfact> 0.93659025E+02</totfact>
</mgrwt>
</event>
<event>
 6    4  0.2220150E-003  0.1271569E+03  0.7818608E-02  0.1231736E+00
          4   -1    0    0  502    0  0.00000000000E+00  0.00000000000E+00  0.14899889545E+03  0.14900430781E+03  0.12700000000E+01 0. -1.
         -4   -1    0    0    0  501 -0.00000000000E+00 -0.00000000000E+00 -0.38179104723E+02  0.38200221694E+02  0.12700000000E+01 0. -1.
         25    2    1    2    0    0  0.22870608426E+02  0.45589808944E+01  0.98393948663E+02  0.16078009786E+03  0.12500008679E+03 0.  0.
    9000005    1    3    3    0    0  0.10865971068E+02  0.63856334277E+02  0.37110959721E+02  0.74658717415E+02  0.10000000000E+01 0.  0.
    9000005    1    3    3    0    0  0.12004637358E+02 -0.59297353383E+02  0.61282988942E+02  0.86121380446E+02  0.10000000000E+01 0.  0.
         21    1    1    2  502  501 -0.22870608426E+02 -0.45589808944E+01  0.12425842063E+02  0.26424431641E+02  0.00000000000E+00 0.  1.
<mgrwt>
<rscale>  1 0.12715687E+03</rscale>
<asrwt>0</asrwt>
<pdfrwt beam="1">  1        4 0.22924948E-01 0.12715687E+03</pdfrwt>
<pdfrwt beam="2">  1       -4 0.58757490E-02 0.12715687E+03</pdfrwt>
<totfact> 0.51914921E+03</totfact>
</mgrwt>
</event>
<event>
 6    4  0.2220150E-003  0.1344451E+03  0.7818608E-02  0.1221005E+00
         -4   -1    0    0    0  501 -0.00000000000E+00  0.00000000000E+00  0.19200380511E+03  0.19200800524E+03  0.12700000000E+01 0. -1.
          4   -1    0    0  502    0  0.00000000000E+00 -0.00000000000E+00 -0.54410556323E+02  0.54425375877E+02  0.12700000000E+01 0. -1.
         25    2    1    2    0    0 -0.14136484322E+02 -0.47445281424E+02  0.45605058420E+02  0.14196940606E+03  0.12499838393E+03 0.  0.
    9000005    1    3    3    0    0 -0.77513565329E+01  0.39330517176E+02  0.36943318908E+02  0.54523223688E+02  0.10000000000E+01 0.  0.
    9000005    1    3    3    0    0 -0.63851277889E+01 -0.86775798600E+02  0.86617395112E+01  0.87446182369E+02  0.10000000000E+01 0.  0.
         21    1    1    2  502  501  0.14136484322E+02  0.47445281424E+02  0.91988190366E+02  0.10446397506E+03  0.00000000000E+00 0. -1.
<mgrwt>
<rscale>  1 0.13444512E+03</rscale>
<asrwt>0</asrwt>
<pdfrwt beam="2">  1        4 0.83723178E-02 0.13444512E+03</pdfrwt>
<pdfrwt beam="1">  1       -4 0.29540510E-01 0.13444512E+03</pdfrwt>
<totfact> 0.18389477E+03</totfact>
</mgrwt>
</event>
<event>
 6    4  0.2220150E-003  0.1267961E+03  0.7818608E-02  0.1232289E+00
         -4   -1    0    0    0  501 -0.00000000000E+00  0.00000000000E+00  0.37178848416E+02  0.37200533189E+02  0.12700000000E+01 0.  1.
          4   -1    0    0  502    0  0.00000000000E+00 -0.00000000000E+00 -0.17467770291E+03  0.17468231964E+03  0.12700000000E+01 0.  1.
         25    2    1    2    0    0 -0.20241283302E+02  0.65263777267E+01 -0.14176039708E+03  0.19019267300E+03  0.12499975810E+03 0.  0.
    9000005    1    3    3    0    0 -0.56949400993E+02  0.13853000684E+02 -0.18650676632E+02  0.61514125534E+02  0.10000000000E+01 0.  0.
    9000005    1    3    3    0    0  0.36708117690E+02 -0.73266229576E+01 -0.12310972045E+03  0.12867854747E+03  0.10000000000E+01 0.  0.
         21    1    1    2  502  501  0.20241283302E+02 -0.65263777267E+01  0.42615425845E+01  0.21690179832E+02  0.00000000000E+00 0. -1.
<mgrwt>
<rscale>  1 0.12679607E+03</rscale>
<asrwt>0</asrwt>
<pdfrwt beam="2">  1        4 0.26875515E-01 0.12679607E+03</pdfrwt>
<pdfrwt beam="1">  1       -4 0.57218461E-02 0.12679607E+03</pdfrwt>
<totfact> 0.40407202E+03</totfact>
</mgrwt>
</event>
<event>
 6    4  0.2220150E-003  0.1291282E+03  0.7818608E-02  0.1228755E+00
         -4   -1    0    0    0  501 -0.00000000000E+00  0.00000000000E+00  0.20849897610E+03  0.20850284394E+03  0.12700000000E+01 0. -1.
          4   -1    0    0  502    0  0.00000000000E+00 -0.00000000000E+00 -0.85535128565E+02  0.85544556336E+02  0.12700000000E+01 0. -1.
         25    2    1    2    0    0  0.27713221882E+02  0.16778391651E+02 -0.34199075086E+02  0.13358020320E+03  0.12499822741E+03 0.  0.
    9000005    1    3    3    0    0 -0.20952363439E+02  0.63535818566E+01 -0.69291113281E+02  0.72674809362E+02  0.10000000000E+01 0.  0.
    9000005    1    3    3    0    0  0.48665585321E+02  0.10424809795E+02  0.35092038195E+02  0.60905393838E+02  0.10000000000E+01 0.  0.
         21    1    1    2  502  501 -0.27713221882E+02 -0.16778391651E+02  0.15716292262E+03  0.16046719708E+03  0.00000000000E+00 0.  1.
<mgrwt>
<rscale>  1 0.12912821E+03</rscale>
<asrwt>0</asrwt>
<pdfrwt beam="2">  1        4 0.13160273E-01 0.12912821E+03</pdfrwt>
<pdfrwt beam="1">  1       -4 0.32077788E-01 0.12912821E+03</pdfrwt>
<totfact> 0.72578622E+02</totfact>
</mgrwt>
</event>
<event>
 6    4  0.2220150E-003  0.1269761E+03  0.7818608E-02  0.1232013E+00
         -4   -1    0    0    0  501 -0.00000000000E+00  0.00000000000E+00  0.22087491587E+02  0.22123973074E+02  0.12700000000E+01 0. -1.
          4   -1    0    0  502    0  0.00000000000E+00 -0.00000000000E+00 -0.30590821988E+03  0.30591085612E+03  0.12700000000E+01 0. -1.
         25    2    1    2    0    0  0.15333346578E+02  0.16331364058E+02 -0.27684030767E+03  0.30457100083E+03  0.12498445354E+03 0.  0.
    9000005    1    3    3    0    0 -0.17921360029E+02  0.45606865597E+01 -0.26739870874E+03  0.26803925914E+03  0.10000000000E+01 0.  0.
    9000005    1    3    3    0    0  0.33254706607E+02  0.11770677498E+02 -0.94415989303E+01  0.36531741686E+02  0.10000000000E+01 0.  0.
         21    1    1    2  502  501 -0.15333346578E+02 -0.16331364058E+02 -0.69804206242E+01  0.23463828361E+02  0.00000000000E+00 0. -1.
<mgrwt>
<rscale>  1 0.12697613E+03</rscale>
<asrwt>0</asrwt>
<pdfrwt beam="2">  1        4 0.47065809E-01 0.12697613E+03</pdfrwt>
<pdfrwt beam="1">  1       -4 0.34010849E-02 0.12697613E+03</pdfrwt>
<totfact> 0.31358220E+03</totfact>
</mgrwt>
</event>
<event>
 6    4  0.2220150E-003  0.1306593E+03  0.7818608E-02  0.1226481E+00
          4   -1    0    0  502    0  0.00000000000E+00  0.00000000000E+00  0.12563650662E+03  0.12564292537E+03  0.12700000000E+01 0. -1.
         -4   -1    0    0    0  501 -0.00000000000E+00 -0.00000000000E+00 -0.93148523117E+02  0.93157180393E+02  0.12700000000E+01 0. -1.
         25    2    1    2    0    0 -0.36239229789E+02  0.11548504655E+02  0.83580368730E+02  0.15510488173E+03  0.12500078626E+03 0.  0.
    9000005    1    3    3    0    0  0.23468886655E+02 -0.33250447598E+02  0.67365804992E+02  0.78711705537E+02  0.10000000000E+01 0.  0.
    9000005    1    3    3    0    0 -0.59708116445E+02  0.44798952253E+02  0.16214563739E+02  0.76393176197E+02  0.10000000000E+01 0.  0.
         21    1    1    2  502  501  0.36239229789E+02 -0.11548504655E+02 -0.51092385229E+02  0.63695224027E+02  0.00000000000E+00 0. -1.
<mgrwt>
<rscale>  1 0.13065928E+03</rscale>
<asrwt>0</asrwt>
<pdfrwt beam="1">  1        4 0.19329853E-01 0.13065928E+03</pdfrwt>
<pdfrwt beam="2">  1       -4 0.14331702E-01 0.13065928E+03</pdfrwt>
<totfact> 0.15985846E+03</totfact>
</mgrwt>
</event>
<event>
 6    4  0.2220150E-003  0.1852137E+03  0.7818608E-02  0.1162851E+00
          4   -1    0    0  502    0  0.00000000000E+00  0.00000000000E+00  0.16090816882E+03  0.16091318060E+03  0.12700000000E+01 0. -1.
         -4   -1    0    0    0  501 -0.00000000000E+00 -0.00000000000E+00 -0.16146317458E+03  0.16146816914E+03  0.12700000000E+01 0. -1.
         25    2    1    2    0    0 -0.13616709337E+03 -0.11699629537E+02  0.85384381638E+01  0.18541036970E+03  0.12500296644E+03 0.  0.
    9000005    1    3    3    0    0 -0.11814249292E+03 -0.59546068966E+02 -0.53731642130E+01  0.13241319366E+03  0.10000000000E+01 0.  0.
    9000005    1    3    3    0    0 -0.18024600456E+02  0.47846439429E+02  0.13911602377E+02  0.52997176041E+02  0.10000000000E+01 0.  0.
         21    1    1    2  502  501  0.13616709337E+03  0.11699629537E+02 -0.90934439260E+01  0.13697098004E+03  0.00000000000E+00 0. -1.
<mgrwt>
<rscale>  1 0.18521366E+03</rscale>
<asrwt>0</asrwt>
<pdfrwt beam="1">  1        4 0.24755873E-01 0.18521366E+03</pdfrwt>
<pdfrwt beam="2">  1       -4 0.24841258E-01 0.18521366E+03</pdfrwt>
<totfact> 0.40625578E+02</totfact>
</mgrwt>
</event>
<event>
 6    4  0.2220150E-003  0.1274759E+03  0.7818608E-02  0.1231250E+00
          4   -1    0    0  502    0  0.00000000000E+00  0.00000000000E+00  0.15343370370E+03  0.15343895963E+03  0.12700000000E+01 0. -1.
         -4   -1    0    0    0  501 -0.00000000000E+00 -0.00000000000E+00 -0.92743652210E+02  0.92752347276E+02  0.12700000000E+01 0. -1.
         25    2    1    2    0    0 -0.24867914577E+02 -0.24001864928E+01  0.12417987210E+03  0.17796278360E+03  0.12500375052E+03 0.  0.
    9000005    1    3    3    0    0  0.34764841584E+02  0.37095507147E+02  0.27846774305E+02  0.57975112765E+02  0.10000000000E+01 0.  0.
    9000005    1    3    3    0    0 -0.59632756162E+02 -0.39495693640E+02  0.96333097791E+02  0.11998767084E+03  0.10000000000E+01 0.  0.
         21    1    1    2  502  501  0.24867914577E+02  0.24001864928E+01 -0.63489820607E+02  0.68228523297E+02  0.00000000000E+00 0. -1.
<mgrwt>
<rscale>  1 0.12747593E+03</rscale>
<asrwt>0</asrwt>
<pdfrwt beam="1">  1        4 0.23606258E-01 0.12747593E+03</pdfrwt>
<pdfrwt beam="2">  1       -4 0.14269328E-01 0.12747593E+03</pdfrwt>
<totfact> 0.11155046E+03</totfact>
</mgrwt>
</event>
<event>
 6    4  0.2220150E-003  0.1267635E+03  0.7818608E-02  0.1232339E+00
          4   -1    0    0  502    0  0.00000000000E+00  0.00000000000E+00  0.34182398149E+02  0.34205982565E+02  0.12700000000E+01 0. -1.
         -4   -1    0    0    0  501 -0.00000000000E+00 -0.00000000000E+00 -0.20135178808E+03  0.20135579322E+03  0.12700000000E+01 0. -1.
         25    2    1    2    0    0 -0.15104509458E+02  0.14178929434E+02 -0.89494664069E+02  0.15517178086E+03  0.12505917972E+03 0.  0.
    9000005    1    3    3    0    0  0.54885376779E+02  0.14249149950E+02 -0.37834561239E+02  0.68175485936E+02  0.10000000000E+01 0.  0.
    9000005    1    3    3    0    0 -0.69989886237E+02 -0.70220515479E-01 -0.51660102830E+02  0.86996294925E+02  0.10000000000E+01 0.  0.
         21    1    1    2  502  501  0.15104509458E+02 -0.14178929434E+02 -0.77674725861E+02  0.80389994921E+02  0.00000000000E+00 0. -1.
<mgrwt>
<rscale>  1 0.12676351E+03</rscale>
<asrwt>0</asrwt>
<pdfrwt beam="1">  1        4 0.52609529E-02 0.12676351E+03</pdfrwt>
<pdfrwt beam="2">  1       -4 0.30979320E-01 0.12676351E+03</pdfrwt>
<totfact> 0.35433835E+03</totfact>
</mgrwt>
</event>
<event>
 6    4  0.2220150E-003  0.1274343E+03  0.7818608E-02  0.1231313E+00
          4   -1    0    0  502    0  0.00000000000E+00  0.00000000000E+00  0.12965378712E+03  0.12966000700E+03  0.12700000000E+01 0. -1.
         -4   -1    0    0    0  501 -0.00000000000E+00 -0.00000000000E+00 -0.47764637790E+02  0.47781518637E+02  0.12700000000E+01 0. -1.
         25    2    1    2    0    0  0.23261929824E+02 -0.86137494114E+01  0.83869873252E+02  0.15255704603E+03  0.12499673034E+03 0.  0.
    9000005    1    3    3    0    0  0.34135741003E+02  0.25072788955E+02 -0.17001529303E+02  0.45650252556E+02  0.10000000000E+01 0.  0.
    9000005    1    3    3    0    0 -0.10873811179E+02 -0.33686538367E+02  0.10087140255E+03  0.10690679347E+03  0.10000000000E+01 0.  0.
         21    1    1    2  502  501 -0.23261929824E+02  0.86137494114E+01 -0.19807239225E+01  0.24884479608E+02  0.00000000000E+00 0. -1.
<mgrwt>
<rscale>  1 0.12743428E+03</rscale>
<asrwt>0</asrwt>
<pdfrwt beam="1">  1        4 0.19948513E-01 0.12743428E+03</pdfrwt>
<pdfrwt beam="2">  1       -4 0.73501828E-02 0.12743428E+03</pdfrwt>
<totfact> 0.46356809E+03</totfact>
</mgrwt>
</event>
<event>
 6    4  0.2220150E-003  0.1363508E+03  0.7818608E-02  0.1218325E+00
         -4   -1    0    0    0  501 -0.00000000000E+00  0.00000000000E+00  0.13646056246E+02  0.13705026489E+02  0.12700000000E+01 0. -1.
          4   -1    0    0  502    0  0.00000000000E+00 -0.00000000000E+00 -0.66752262068E+03  0.66752382880E+03  0.12700000000E+01 0. -1.
         25    2    1    2    0    0 -0.54463288462E+02 -0.69272715603E+00 -0.48344354818E+03  0.50230389144E+03  0.12499922166E+03 0.  0.
    9000005    1    3    3    0    0 -0.54769374595E+02 -0.44932146842E+02 -0.14946765248E+03  0.16540907276E+03  0.10000000000E+01 0.  0.
    9000005    1    3    3    0    0  0.30608613301E+00  0.44239419685E+02 -0.33397589571E+03  0.33689481868E+03  0.10000000000E+01 0.  0.
         21    1    1    2  502  501  0.54463288462E+02  0.69272715603E+00 -0.17043301625E+03  0.17892496385E+03  0.00000000000E+00 0. -1.
<mgrwt>
<rscale>  1 0.13635078E+03</rscale>
<asrwt>0</asrwt>
<pdfrwt beam="2">  1        4 0.10270039E+00 0.13635078E+03</pdfrwt>
<pdfrwt beam="1">  1       -4 0.21040229E-02 0.13635078E+03</pdfrwt>
<totfact> 0.12500519E+03</totfact>
</mgrwt>
</event>
<event>
 6    4  0.2220150E-003  0.1303859E+03  0.7818608E-02  0.1226884E+00
          4   -1    0    0  502    0  0.00000000000E+00  0.00000000000E+00  0.68478906256E+02  0.68490681863E+02  0.12700000000E+01 0.  1.
         -4   -1    0    0    0  501 -0.00000000000E+00 -0.00000000000E+00 -0.36948986242E+03  0.36949204502E+03  0.12700000000E+01 0.  1.
         25    2    1    2    0    0  0.96793470269E+01 -0.35814434304E+02  0.42699617469E+01  0.13045581374E+03  0.12499649316E+03 0.  0.
    9000005    1    3    3    0    0  0.37870771447E+01 -0.11662713802E+02 -0.60151507023E+02  0.61396780401E+02  0.10000000000E+01 0.  0.
    9000005    1    3    3    0    0  0.58922698822E+01 -0.24151720502E+02  0.64421468770E+02  0.69059033341E+02  0.10000000000E+01 0.  0.
         21    1    1    2  502  501 -0.96793470269E+01  0.35814434304E+02 -0.30528091791E+03  0.30752691314E+03  0.00000000000E+00 0.  1.
<mgrwt>
<rscale>  1 0.13038591E+03</rscale>
<asrwt>0</asrwt>
<pdfrwt beam="1">  1        4 0.10536290E-01 0.13038591E+03</pdfrwt>
<pdfrwt beam="2">  1       -4 0.56845667E-01 0.13038591E+03</pdfrwt>
<totfact> 0.34085458E+02</totfact>
</mgrwt>
</event>
<event>
 6    4  0.2220150E-003  0.1311202E+03  0.7818608E-02  0.1225803E+00
          4   -1    0    0  502    0  0.00000000000E+00  0.00000000000E+00  0.43618584274E+03  0.43618769161E+03  0.12700000000E+01 0. -1.
         -4   -1    0    0    0  501 -0.00000000000E+00 -0.00000000000E+00 -0.20541776866E+02  0.20580998440E+02  0.12700000000E+01 0. -1.
         25    2    1    2    0    0  0.36152538835E+02  0.16075358252E+02  0.38502504082E+03  0.40673921971E+03  0.12500835005E+03 0.  0.
    9000005    1    3    3    0    0  0.63987955264E+02  0.29394408170E+02  0.11425796524E+03  0.13421763025E+03  0.10000000000E+01 0.  0.
    9000005    1    3    3    0    0 -0.27835416429E+02 -0.13319049918E+02  0.27076707558E+03  0.27252158946E+03  0.10000000000E+01 0.  0.
         21    1    1    2  502  501 -0.36152538835E+02 -0.16075358252E+02  0.30619025057E+02  0.50029470341E+02  0.00000000000E+00 0. -1.
<mgrwt>
<rscale>  1 0.13112022E+03</rscale>
<asrwt>0</asrwt>
<pdfrwt beam="1">  1        4 0.67108677E-01 0.13112022E+03</pdfrwt>
<pdfrwt beam="2">  1       -4 0.31634325E-02 0.13112022E+03</pdfrwt>
<totfact> 0.16955488E+03</totfact>
</mgrwt>
</event>
<event>
 6    4  0.2220150E-003  0.1267163E+03  0.7818608E-02  0.1232411E+00
          4   -1    0    0  502    0  0.00000000000E+00  0.00000000000E+00  0.13865716250E+03  0.13866297853E+03  0.12700000000E+01 0. -1.
         -4   -1    0    0    0  501 -0.00000000000E+00 -0.00000000000E+00 -0.84110877216E+02  0.84120464609E+02  0.12700000000E+01 0. -1.
         25    2    1    2    0    0 -0.10441497732E+02  0.17987791613E+02  0.10732195291E+03  0.16605728854E+03  0.12499774389E+03 0.  0.
    9000005    1    3    3    0    0  0.48218805553E+01  0.61138514312E+02  0.15208230825E+02  0.63193818916E+02  0.10000000000E+01 0.  0.
    9000005    1    3    3    0    0 -0.15263378287E+02 -0.43150722699E+02  0.92113722087E+02  0.10286346962E+03  0.10000000000E+01 0.  0.
         21    1    1    2  502  501  0.10441497732E+02 -0.17987791613E+02 -0.52775667624E+02  0.56726154595E+02  0.00000000000E+00 0. -1.
<mgrwt>
<rscale>  1 0.12671630E+03</rscale>
<asrwt>0</asrwt>
<pdfrwt beam="1">  1        4 0.21333056E-01 0.12671630E+03</pdfrwt>
<pdfrwt beam="2">  1       -4 0.12941320E-01 0.12671630E+03</pdfrwt>
<totfact> 0.15856959E+03</totfact>
</mgrwt>
</event>
<event>
 6    4  0.2220150E-003  0.1314104E+03  0.7818608E-02  0.1225378E+00
          4   -1    0    0  502    0  0.00000000000E+00  0.00000000000E+00  0.96025194678E+02  0.96033592628E+02  0.12700000000E+01 0.  1.
         -4   -1    0    0    0  501 -0.00000000000E+00 -0.00000000000E+00 -0.10799265681E+03  0.10800012419E+03  0.12700000000E+01 0.  1.
         25    2    1    2    0    0  0.58580383631E+01  0.40114304457E+02  0.40701711280E+02  0.13756932136E+03  0.12500085937E+03 0.  0.
    9000005    1    3    3    0    0  0.38232093850E+02  0.25771936303E+02  0.75140646570E+02  0.88164632749E+02  0.10000000000E+01 0.  0.
    9000005    1    3    3    0    0 -0.32374055487E+02  0.14342368154E+02 -0.34438935289E+02  0.49404688611E+02  0.10000000000E+01 0.  0.
         21    1    1    2  502  501 -0.58580383631E+01 -0.40114304457E+02 -0.52669173416E+02  0.66464395460E+02  0.00000000000E+00 0.  1.
<mgrwt>
<rscale>  1 0.13141038E+03</rscale>
<asrwt>0</asrwt>
<pdfrwt beam="1">  1        4 0.14774327E-01 0.13141038E+03</pdfrwt>
<pdfrwt beam="2">  1       -4 0.16615475E-01 0.13141038E+03</pdfrwt>
<totfact> 0.19863474E+03</totfact>
</mgrwt>
</event>
<event>
 6    4  0.2220150E-003  0.1291342E+03  0.7818608E-02  0.1228746E+00
         -4   -1    0    0    0  501 -0.00000000000E+00  0.00000000000E+00  0.18283284861E+03  0.18283725942E+03  0.12700000000E+01 0.  1.
          4   -1    0    0  502    0  0.00000000000E+00 -0.00000000000E+00 -0.35872274193E+02  0.35894748304E+02  0.12700000000E+01 0.  1.
         25    2    1    2    0    0 -0.11095042842E+02 -0.30461400620E+02  0.11066147028E+03  0.17006351828E+03  0.12499856936E+03 0.  0.
    9000005    1    3    3    0    0  0.94023374254E+01  0.16846695454E+01 -0.26243471956E+02  0.27945695212E+02  0.10000000000E+01 0.  0.
    9000005    1    3    3    0    0 -0.20497380267E+02 -0.32146070165E+02  0.13690494223E+03  0.14211782307E+03  0.10000000000E+01 0.  0.
         21    1    1    2  502  501  0.11095042842E+02  0.30461400620E+02  0.36299104143E+02  0.48668489446E+02  0.00000000000E+00 0.  1.
<mgrwt>
<rscale>  1 0.12913419E+03</rscale>
<asrwt>0</asrwt>
<pdfrwt beam="2">  1        4 0.55208794E-02 0.12913419E+03</pdfrwt>
<pdfrwt beam="1">  1       -4 0.28130199E-01 0.12913419E+03</pdfrwt>
<totfact> 0.39495118E+03</totfact>
</mgrwt>
</event>
<event>
 6    4  0.2220150E-003  0.1285647E+03  0.7818608E-02  0.1229601E+00
         -4   -1    0    0    0  501 -0.00000000000E+00  0.00000000000E+00  0.31639153601E+02  0.31664632330E+02  0.12700000000E+01 0. -1.
          4   -1    0    0  502    0  0.00000000000E+00 -0.00000000000E+00 -0.21160876731E+03  0.21161257832E+03  0.12700000000E+01 0. -1.
         25    2    1    2    0    0 -0.16876029374E+01 -0.30012209134E+02 -0.16644276350E+03  0.21031425603E+03  0.12500124826E+03 0.  0.
    9000005    1    3    3    0    0 -0.22890574182E+02 -0.74045632968E+02 -0.12020579589E+03  0.14302855488E+03  0.10000000000E+01 0.  0.
    9000005    1    3    3    0    0  0.21202971244E+02  0.44033423833E+02 -0.46236967619E+02  0.67285701146E+02  0.10000000000E+01 0.  0.
         21    1    1    2  502  501  0.16876029374E+01  0.30012209134E+02 -0.13526850208E+02  0.32962954621E+02  0.00000000000E+00 0.  1.
<mgrwt>
<rscale>  1 0.12856474E+03</rscale>
<asrwt>0</asrwt>
<pdfrwt beam="2">  1        4 0.32557447E-01 0.12856474E+03</pdfrwt>
<pdfrwt beam="1">  1       -4 0.48698153E-02 0.12856474E+03</pdfrwt>
<totfact> 0.36626057E+03</totfact>
</mgrwt>
</event>
<event>
 6    4  0.2220150E-003  0.1266961E+03  0.7818608E-02  0.1232442E+00
          4   -1    0    0  502    0  0.00000000000E+00  0.00000000000E+00  0.77643044989E+02  0.77653430930E+02  0.12700000000E+01 0.  1.
         -4   -1    0    0    0  501 -0.00000000000E+00 -0.00000000000E+00 -0.77650738994E+02  0.77661123906E+02  0.12700000000E+01 0.  1.
         25    2    1    2    0    0 -0.20312643830E+02  0.39257068519E+01  0.17897250075E+02  0.12795396829E+03  0.12499556699E+03 0.  0.
    9000005    1    3    3    0    0  0.40428280677E+02 -0.69905365177E+01  0.44682952968E+02  0.60670254370E+02  0.10000000000E+01 0.  0.
    9000005    1    3    3    0    0 -0.60740924507E+02  0.10916243370E+02 -0.26785702893E+02  0.67283713919E+02  0.10000000000E+01 0.  0.
         21    1    1    2  502  501  0.20312643830E+02 -0.39257068519E+01 -0.17904944080E+02  0.27360586546E+02  0.00000000000E+00 0.  1.
<mgrwt>
<rscale>  1 0.12669612E+03</rscale>
<asrwt>0</asrwt>
<pdfrwt beam="1">  1        4 0.11946682E-01 0.12669612E+03</pdfrwt>
<pdfrwt beam="2">  1       -4 0.11947865E-01 0.12669612E+03</pdfrwt>
<totfact> 0.50314007E+03</totfact>
</mgrwt>
</event>
<event>
 6    4  0.2220150E-003  0.1397410E+03  0.7818608E-02  0.1213678E+00
          4   -1    0    0  502    0  0.00000000000E+00  0.00000000000E+00  0.14188445811E+04  0.14188451495E+04  0.12700000000E+01 0.  1.
         -4   -1    0    0    0  501 -0.00000000000E+00 -0.00000000000E+00 -0.72068589861E+01  0.73179038287E+01  0.12700000000E+01 0.  1.
         25    2    1    2    0    0 -0.21394079462E+02  0.58689027617E+02  0.10325556051E+04  0.10419686233E+04  0.12500170303E+03 0.  0.
    9000005    1    3    3    0    0 -0.47090896179E+02  0.88551387197E+02  0.75132477000E+03  0.75798998060E+03  0.10000000000E+01 0.  0.
    9000005    1    3    3    0    0  0.25696816717E+02 -0.29862359580E+02  0.28123083507E+03  0.28397864269E+03  0.10000000000E+01 0.  0.
         21    1    1    2  502  501  0.21394079462E+02 -0.58689027617E+02  0.37908211708E+03  0.38419443006E+03  0.00000000000E+00 0.  1.
<mgrwt>
<rscale>  1 0.13974095E+03</rscale>
<asrwt>0</asrwt>
<pdfrwt beam="1">  1        4 0.21829237E+00 0.13974095E+03</pdfrwt>
<pdfrwt beam="2">  1       -4 0.11173332E-02 0.13974095E+03</pdfrwt>
<totfact> 0.46960372E+02</totfact>
</mgrwt>
</event>
<event>
 6    4  0.2220150E-003  0.1300879E+03  0.7818608E-02  0.1227325E+00
         -4   -1    0    0    0  501 -0.00000000000E+00  0.00000000000E+00  0.71032996475E+01  0.72159383231E+01  0.12700000000E+01 0.  1.
          4   -1    0    0  502    0  0.00000000000E+00 -0.00000000000E+00 -0.96604920505E+03  0.96605003985E+03  0.12700000000E+01 0.  1.
         25    2    1    2    0    0 -0.42330966631E+01 -0.35776869174E+02 -0.77119036266E+03  0.78208531150E+03  0.12499982213E+03 0.  0.
    9000005    1    3    3    0    0 -0.63055638491E+02 -0.14904875658E+02 -0.31091028278E+03  0.31759151878E+03  0.10000000000E+01 0.  0.
    9000005    1    3    3    0    0  0.58822541828E+02 -0.20871993516E+02 -0.46028007988E+03  0.46449379272E+03  0.10000000000E+01 0.  0.
         21    1    1    2  502  501  0.42330966631E+01  0.35776869174E+02 -0.18775554275E+03  0.19118066667E+03  0.00000000000E+00 0. -1.
<mgrwt>
<rscale>  1 0.13008789E+03</rscale>
<asrwt>0</asrwt>
<pdfrwt beam="2">  1        4 0.14863158E+00 0.13008789E+03</pdfrwt>
<pdfrwt beam="1">  1       -4 0.11015448E-02 0.13008789E+03</pdfrwt>
<totfact> 0.13565208E+03</totfact>
</mgrwt>
</event>
<event>
 6    4  0.2220150E-003  0.1272889E+03  0.7818608E-02  0.1231535E+00
          4   -1    0    0  502    0  0.00000000000E+00  0.00000000000E+00  0.24372443596E+02  0.24405509764E+02  0.12700000000E+01 0. -1.
         -4   -1    0    0    0  501 -0.00000000000E+00 -0.00000000000E+00 -0.52906427872E+03  0.52906580301E+03  0.12700000000E+01 0. -1.
         25    2    1    2    0    0  0.11000851136E+01 -0.23980985238E+02 -0.14485761573E+03  0.19283720002E+03  0.12500463605E+03 0.  0.
    9000005    1    3    3    0    0  0.52146182368E+02  0.15438585943E+02 -0.32731778524E+02  0.63481836747E+02  0.10000000000E+01 0.  0.
    9000005    1    3    3    0    0 -0.51046097254E+02 -0.39419571180E+02 -0.11212583721E+03  0.12935536327E+03  0.10000000000E+01 0.  0.
         21    1    1    2  502  501 -0.11000851136E+01  0.23980985238E+02 -0.35983421940E+03  0.36063411276E+03  0.00000000000E+00 0. -1.
<mgrwt>
<rscale>  1 0.12728887E+03</rscale>
<asrwt>0</asrwt>
<pdfrwt beam="1">  1        4 0.37522679E-02 0.12728887E+03</pdfrwt>
<pdfrwt beam="2">  1       -4 0.81397157E-01 0.12728887E+03</pdfrwt>
<totfact> 0.84570976E+02</totfact>
</mgrwt>
</event>
<event>
 6    4  0.2220150E-003  0.1267266E+03  0.7818608E-02  0.1232395E+00
         -4   -1    0    0    0  501 -0.00000000000E+00  0.00000000000E+00  0.21611535636E+03  0.21611908790E+03  0.12700000000E+01 0. -1.
          4   -1    0    0  502    0  0.00000000000E+00 -0.00000000000E+00 -0.32037926463E+02  0.32063088311E+02  0.12700000000E+01 0. -1.
         25    2    1    2    0    0  0.12879081107E+01  0.20819234736E+02  0.99642098736E+02  0.16120847679E+03  0.12499810361E+03 0.  0.
    9000005    1    3    3    0    0 -0.41500698668E+02 -0.36306109704E+02  0.47903836610E+02  0.73049429524E+02  0.10000000000E+01 0.  0.
    9000005    1    3    3    0    0  0.42788606779E+02  0.57125344440E+02  0.51738262126E+02  0.88159047268E+02  0.10000000000E+01 0.  0.
         21    1    1    2  502  501 -0.12879081107E+01 -0.20819234736E+02  0.84435331162E+02  0.86973699419E+02  0.00000000000E+00 0.  1.
<mgrwt>
<rscale>  1 0.12672658E+03</rscale>
<asrwt>0</asrwt>
<pdfrwt beam="2">  1        4 0.49311343E-02 0.12672658E+03</pdfrwt>
<pdfrwt beam="1">  1       -4 0.33250739E-01 0.12672658E+03</pdfrwt>
<totfact> 0.34360177E+03</totfact>
</mgrwt>
</event>
<event>
 6    4  0.2220150E-003  0.1493265E+03  0.7818608E-02  0.1201303E+00
         -4   -1    0    0    0  501 -0.00000000000E+00  0.00000000000E+00  0.36679970030E+02  0.36701949559E+02  0.12700000000E+01 0. -1.
          4   -1    0    0  502    0  0.00000000000E+00 -0.00000000000E+00 -0.36544479927E+03  0.36544700603E+03  0.12700000000E+01 0. -1.
         25    2    1    2    0    0 -0.72277979904E+02  0.38071073000E+02 -0.19867105507E+03  0.24853286575E+03  0.12499953703E+03 0.  0.
    9000005    1    3    3    0    0  0.15098335525E+02 -0.11339495742E+02  0.66025579579E+01  0.20028421578E+02  0.10000000000E+01 0.  0.
    9000005    1    3    3    0    0 -0.87376315429E+02  0.49410568742E+02 -0.20527361303E+03  0.22850444417E+03  0.10000000000E+01 0.  0.
         21    1    1    2  502  501  0.72277979904E+02 -0.38071073000E+02 -0.13009377417E+03  0.15361608984E+03  0.00000000000E+00 0. -1.
<mgrwt>
<rscale>  1 0.14932648E+03</rscale>
<asrwt>0</asrwt>
<pdfrwt beam="2">  1        4 0.56224135E-01 0.14932648E+03</pdfrwt>
<pdfrwt beam="1">  1       -4 0.56449331E-02 0.14932648E+03</pdfrwt>
<totfact> 0.10054962E+03</totfact>
</mgrwt>
</event>
<event>
 6    4  0.2220150E-003  0.1280998E+03  0.7818608E-02  0.1230303E+00
          4   -1    0    0  502    0  0.00000000000E+00  0.00000000000E+00  0.75915217841E+03  0.75915324071E+03  0.12700000000E+01 0.  1.
         -4   -1    0    0    0  501 -0.00000000000E+00 -0.00000000000E+00 -0.88430113226E+01  0.89337421752E+01  0.12700000000E+01 0.  1.
         25    2    1    2    0    0  0.27965134062E+02  0.17087893867E+01  0.68721032951E+03  0.69904763187E+03  0.12499834385E+03 0.  0.
    9000005    1    3    3    0    0 -0.62895607436E+01  0.91431036661E+01  0.20134957728E+00  0.11144301712E+02  0.10000000000E+01 0.  0.
    9000005    1    3    3    0    0  0.34254694805E+02 -0.74343142794E+01  0.68700897993E+03  0.68790333016E+03  0.10000000000E+01 0.  0.
         21    1    1    2  502  501 -0.27965134062E+02 -0.17087893867E+01  0.63098837577E+02  0.69039351010E+02  0.00000000000E+00 0.  1.
<mgrwt>
<rscale>  1 0.12809978E+03</rscale>
<asrwt>0</asrwt>
<pdfrwt beam="1">  1        4 0.11679974E+00 0.12809978E+03</pdfrwt>
<pdfrwt beam="2">  1       -4 0.13675239E-02 0.12809978E+03</pdfrwt>
<totfact> 0.17618732E+03</totfact>
</mgrwt>
</event>
<event>
 6    4  0.2220150E-003  0.1266108E+03  0.7818608E-02  0.1232573E+00
         -4   -1    0    0    0  501 -0.00000000000E+00  0.00000000000E+00  0.90371594390E+01  0.91259602632E+01  0.12700000000E+01 0. -1.
          4   -1    0    0  502    0  0.00000000000E+00 -0.00000000000E+00 -0.77457479025E+03  0.77457583140E+03  0.12700000000E+01 0. -1.
         25    2    1    2    0    0 -0.11888285440E+02  0.16251713596E+02 -0.74200840743E+03  0.75273287372E+03  0.12499941185E+03 0.  0.
    9000005    1    3    3    0    0  0.37536017324E+01 -0.53340507036E+02 -0.25693340547E+03  0.26244061054E+03  0.10000000000E+01 0.  0.
    9000005    1    3    3    0    0 -0.15641887172E+02  0.69592220632E+02 -0.48507500196E+03  0.49029226318E+03  0.10000000000E+01 0.  0.
         21    1    1    2  502  501  0.11888285440E+02 -0.16251713596E+02 -0.23529223384E+02  0.30968917943E+02  0.00000000000E+00 0. -1.
<mgrwt>
<rscale>  1 0.12661083E+03</rscale>
<asrwt>0</asrwt>
<pdfrwt beam="2">  1        4 0.11917221E+00 0.12661083E+03</pdfrwt>
<pdfrwt beam="1">  1       -4 0.13972438E-02 0.12661083E+03</pdfrwt>
<totfact> 0.16211644E+03</totfact>
</mgrwt>
</event>
<event>
 6    4  0.2220150E-003  0.1278567E+03  0.7818608E-02  0.1230671E+00
         -4   -1    0    0    0  501 -0.00000000000E+00  0.00000000000E+00  0.32918116247E+03  0.32918361233E+03  0.12700000000E+01 0.  1.
          4   -1    0    0  502    0  0.00000000000E+00 -0.00000000000E+00 -0.18674212515E+02  0.18717347917E+02  0.12700000000E+01 0.  1.
         25    2    1    2    0    0  0.13622160329E+02 -0.23174861373E+02  0.23171022512E+03  0.26464496168E+03  0.12499875946E+03 0.  0.
    9000005    1    3    3    0    0  0.61322770943E+02 -0.11372130161E+02  0.19067125458E+03  0.20061489203E+03  0.10000000000E+01 0.  0.
    9000005    1    3    3    0    0 -0.47700610614E+02 -0.11802731212E+02  0.41038970540E+02  0.64030069655E+02  0.10000000000E+01 0.  0.
         21    1    1    2  502  501 -0.13622160329E+02  0.23174861373E+02  0.78796724835E+02  0.83255998561E+02  0.00000000000E+00 0. -1.
<mgrwt>
<rscale>  1 0.12785667E+03</rscale>
<asrwt>0</asrwt>
<pdfrwt beam="2">  1        4 0.28764625E-02 0.12785667E+03</pdfrwt>
<pdfrwt beam="1">  1       -4 0.50646759E-01 0.12785667E+03</pdfrwt>
<totfact> 0.35204062E+03</totfact>
</mgrwt>
</event>
<event>
 6    4  0.2220150E-003  0.1387674E+03  0.7818608E-02  0.1214997E+00
         -4   -1    0    0    0  501 -0.00000000000E+00  0.00000000000E+00  0.24844137396E+03  0.24844461998E+03  0.12700000000E+01 0.  1.
          4   -1    0    0  502    0  0.00000000000E+00 -0.00000000000E+00 -0.96619048761E+02  0.96627395098E+02  0.12700000000E+01 0.  1.
         25    2    1    2    0    0  0.56008633497E+02 -0.22255971669E+02 -0.39664336709E+02  0.14432481836E+03  0.12499639309E+03 0.  0.
    9000005    1    3    3    0    0  0.11701967999E+02 -0.10442355834E+01 -0.79933376459E+02  0.80798336339E+02  0.10000000000E+01 0.  0.
    9000005    1    3    3    0    0  0.44306665498E+02 -0.21211736085E+02  0.40269039750E+02  0.63526482018E+02  0.10000000000E+01 0.  0.
         21    1    1    2  502  501 -0.56008633497E+02  0.22255971669E+02  0.19148666191E+03  0.20074719672E+03  0.00000000000E+00 0.  1.
<mgrwt>
<rscale>  1 0.13876741E+03</rscale>
<asrwt>0</asrwt>
<pdfrwt beam="2">  1        4 0.14865361E-01 0.13876741E+03</pdfrwt>
<pdfrwt beam="1">  1       -4 0.38222641E-01 0.13876741E+03</pdfrwt>
<totfact> 0.42495277E+02</totfact>
</mgrwt>
</event>
<event>
 6    4  0.2220150E-003  0.1273445E+03  0.7818608E-02  0.1231450E+00
          4   -1    0    0  502    0  0.00000000000E+00  0.00000000000E+00  0.59266082408E+02  0.59279688123E+02  0.12700000000E+01 0. -1.
         -4   -1    0    0    0  501 -0.00000000000E+00 -0.00000000000E+00 -0.12988096792E+03  0.12988717692E+03  0.12700000000E+01 0. -1.
         25    2    1    2    0    0 -0.14822348068E+02  0.19341183282E+02 -0.14721378857E+02  0.12819254701E+03  0.12499130666E+03 0.  0.
    9000005    1    3    3    0    0  0.12251855955E+02 -0.21144750380E+02  0.44942778625E+02  0.51166999067E+02  0.10000000000E+01 0.  0.
    9000005    1    3    3    0    0 -0.27074204023E+02  0.40485933662E+02 -0.59664157483E+02  0.77025547944E+02  0.10000000000E+01 0.  0.
         21    1    1    2  502  501  0.14822348068E+02 -0.19341183282E+02 -0.55893506654E+02  0.60974318029E+02  0.00000000000E+00 0. -1.
<mgrwt>
<rscale>  1 0.12734445E+03</rscale>
<asrwt>0</asrwt>
<pdfrwt beam="1">  1        4 0.91193831E-02 0.12734445E+03</pdfrwt>
<pdfrwt beam="2">  1       -4 0.19983211E-01 0.12734445E+03</pdfrwt>
<totfact> 0.32318256E+03</totfact>
</mgrwt>
</event>
<event>
 6    4  0.2220150E-003  0.1336161E+03  0.7818608E-02  0.1222187E+00
         -4   -1    0    0    0  501 -0.00000000000E+00  0.00000000000E+00  0.22272531769E+03  0.22272893849E+03  0.12700000000E+01 0.  1.
          4   -1    0    0  502    0  0.00000000000E+00 -0.00000000000E+00 -0.74032330849E+02  0.74043223261E+02  0.12700000000E+01 0.  1.
         25    2    1    2    0    0 -0.30103319416E+02  0.36365347471E+02 -0.72771380051E+01  0.13381410524E+03  0.12499843874E+03 0.  0.
    9000005    1    3    3    0    0 -0.58446485591E+02  0.28634120992E+02 -0.49913791365E+02  0.82026161262E+02  0.10000000000E+01 0.  0.
    9000005    1    3    3    0    0  0.28343166176E+02  0.77312264788E+01  0.42636653360E+02  0.51787943978E+02  0.10000000000E+01 0.  0.
         21    1    1    2  502  501  0.30103319416E+02 -0.36365347471E+02  0.15597012485E+03  0.16295805651E+03  0.00000000000E+00 0.  1.
<mgrwt>
<rscale>  1 0.13361608E+03</rscale>
<asrwt>0</asrwt>
<pdfrwt beam="2">  1        4 0.11390706E-01 0.13361608E+03</pdfrwt>
<pdfrwt beam="1">  1       -4 0.34266549E-01 0.13361608E+03</pdfrwt>
<totfact> 0.82494808E+02</totfact>
</mgrwt>
</event>
<event>
 6    4  0.2220150E-003  0.1285441E+03  0.7818608E-02  0.1229632E+00
          4   -1    0    0  502    0  0.00000000000E+00  0.00000000000E+00  0.27549765769E+04  0.27549768696E+04  0.12700000000E+01 0.  1.
         -4   -1    0    0    0  501 -0.00000000000E+00 -0.00000000000E+00 -0.22258611590E+01  0.25626856809E+01  0.12700000000E+01 0.  1.
         25    2    1    2    0    0  0.19187021009E+02 -0.23034946751E+02  0.24306770970E+04  0.24340736894E+04  0.12499929910E+03 0.  0.
    9000005    1    3    3    0    0  0.22361459318E+02  0.88140619891E+01  0.89473896968E+02  0.92651501824E+02  0.10000000000E+01 0.  0.
    9000005    1    3    3    0    0 -0.31744383087E+01 -0.31849008741E+02  0.23412032001E+04  0.23414221876E+04  0.10000000000E+01 0.  0.
         21    1    1    2  502  501 -0.19187021009E+02  0.23034946751E+02  0.32207361868E+03  0.32346586589E+03  0.00000000000E+00 0.  1.
<mgrwt>
<rscale>  1 0.12854406E+03</rscale>
<asrwt>0</asrwt>
<pdfrwt beam="1">  1        4 0.42387187E+00 0.12854406E+03</pdfrwt>
<pdfrwt beam="2">  1       -4 0.36836933E-03 0.12854406E+03</pdfrwt>
<totfact> 0.13792778E+02</totfact>
</mgrwt>
</event>
<event>
 6    4  0.2220150E-003  0.1323066E+03  0.7818608E-02  0.1224073E+00
         -4   -1    0    0    0  501 -0.00000000000E+00  0.00000000000E+00  0.57159678708E+02  0.57173785689E+02  0.12700000000E+01 0. -1.
          4   -1    0    0  502    0  0.00000000000E+00 -0.00000000000E+00 -0.30936323303E+03  0.30936583982E+03  0.12700000000E+01 0. -1.
         25    2    1    2    0    0  0.17500998077E+02 -0.39614912430E+02 -0.28366952134E+03  0.31300708120E+03  0.12501763604E+03 0.  0.
    9000005    1    3    3    0    0  0.50398576221E+02  0.63622394564E+01 -0.22823838174E+03  0.23382526270E+03  0.10000000000E+01 0.  0.
    9000005    1    3    3    0    0 -0.32897578144E+02 -0.45977151887E+02 -0.55431139601E+02  0.79181818499E+02  0.10000000000E+01 0.  0.
         21    1    1    2  502  501 -0.17500998077E+02  0.39614912430E+02  0.31465967020E+02  0.53532544317E+02  0.00000000000E+00 0. -1.
<mgrwt>
<rscale>  1 0.13230660E+03</rscale>
<asrwt>0</asrwt>
<pdfrwt beam="2">  1        4 0.47595628E-01 0.13230660E+03</pdfrwt>
<pdfrwt beam="1">  1       -4 0.87950826E-02 0.13230660E+03</pdfrwt>
<totfact> 0.66616688E+02</totfact>
</mgrwt>
</event>
<event>
 6    4  0.2220150E-003  0.1273382E+03  0.7818608E-02  0.1231460E+00
          4   -1    0    0  502    0  0.00000000000E+00  0.00000000000E+00  0.44884155563E+01  0.46646301253E+01  0.12700000000E+01 0.  1.
         -4   -1    0    0    0  501 -0.00000000000E+00 -0.00000000000E+00 -0.12712254318E+04  0.12712260662E+04  0.12700000000E+01 0.  1.
         25    2    1    2    0    0 -0.12186625145E+01 -0.24380589668E+02 -0.10099445955E+04  0.10179406127E+04  0.12497642453E+03 0.  0.
    9000005    1    3    3    0    0 -0.55507047040E+02 -0.40783759289E+02 -0.46931772548E+03  0.47434636579E+03  0.10000000000E+01 0.  0.
    9000005    1    3    3    0    0  0.54288384525E+02  0.16403169621E+02 -0.54062687007E+03  0.54359424694E+03  0.10000000000E+01 0.  0.
         21    1    1    2  502  501  0.12186625145E+01  0.24380589668E+02 -0.25679242073E+03  0.25795008362E+03  0.00000000000E+00 0.  1.
<mgrwt>
<rscale>  1 0.12733815E+03</rscale>
<asrwt>0</asrwt>
<pdfrwt beam="1">  1        4 0.70413025E-03 0.12733815E+03</pdfrwt>
<pdfrwt beam="2">  1       -4 0.19558647E+00 0.12733815E+03</pdfrwt>
<totfact> 0.12705093E+03</totfact>
</mgrwt>
</event>
<event>
 6    4  0.2220150E-003  0.1287652E+03  0.7818608E-02  0.1229300E+00
         -4   -1    0    0    0  501 -0.00000000000E+00  0.00000000000E+00  0.49656939176E+03  0.49657101580E+03  0.12700000000E+01 0.  1.
          4   -1    0    0  502    0  0.00000000000E+00 -0.00000000000E+00 -0.13293984608E+02  0.13354509603E+02  0.12700000000E+01 0.  1.
         25    2    1    2    0    0  0.45684786279E+01  0.30475640394E+02  0.34471034099E+03  0.36797513543E+03  0.12502337962E+03 0.  0.
    9000005    1    3    3    0    0  0.12969313733E+02  0.71695239617E+02  0.12862012352E+03  0.14782606893E+03  0.10000000000E+01 0.  0.
    9000005    1    3    3    0    0 -0.84008351055E+01 -0.41219599222E+02  0.21609021747E+03  0.22014906649E+03  0.10000000000E+01 0.  0.
         21    1    1    2  502  501 -0.45684786279E+01 -0.30475640394E+02  0.13856506616E+03  0.14195038997E+03  0.00000000000E+00 0.  1.
<mgrwt>
<rscale>  1 0.12876522E+03</rscale>
<asrwt>0</asrwt>
<pdfrwt beam="2">  1        4 0.20500088E-02 0.12876522E+03</pdfrwt>
<pdfrwt beam="1">  1       -4 0.76400084E-01 0.12876522E+03</pdfrwt>
<totfact> 0.25026850E+03</totfact>
</mgrwt>
</event>
<event>
 6    4  0.2220150E-003  0.1278682E+03  0.7818608E-02  0.1230654E+00
          4   -1    0    0  502    0  0.00000000000E+00  0.00000000000E+00  0.22314758433E+03  0.22315119828E+03  0.12700000000E+01 0.  1.
         -4   -1    0    0    0  501 -0.00000000000E+00 -0.00000000000E+00 -0.35113336759E+02  0.35136296310E+02  0.12700000000E+01 0.  1.
         25    2    1    2    0    0  0.18673528014E+02 -0.19352813817E+02  0.19242741917E+03  0.23103805408E+03  0.12500815467E+03 0.  0.
    9000005    1    3    3    0    0 -0.48476509880E+02 -0.32890287622E+02  0.76173230246E+02  0.96099448678E+02  0.10000000000E+01 0.  0.
    9000005    1    3    3    0    0  0.67150037895E+02  0.13537473805E+02  0.11625418893E+03  0.13493860541E+03  0.10000000000E+01 0.  0.
         21    1    1    2  502  501 -0.18673528014E+02  0.19352813817E+02 -0.43931715987E+01  0.27249440505E+02  0.00000000000E+00 0.  1.
<mgrwt>
<rscale>  1 0.12786818E+03</rscale>
<asrwt>0</asrwt>
<pdfrwt beam="1">  1        4 0.34332440E-01 0.12786818E+03</pdfrwt>
<pdfrwt beam="2">  1       -4 0.54040962E-02 0.12786818E+03</pdfrwt>
<totfact> 0.27948208E+03</totfact>
</mgrwt>
</event>
<event>
 6    4  0.2220150E-003  0.1266921E+03  0.7818608E-02  0.1232448E+00
         -4   -1    0    0    0  501 -0.00000000000E+00  0.00000000000E+00  0.17282205340E+02  0.17328806116E+02  0.12700000000E+01 0.  1.
          4   -1    0    0  502    0  0.00000000000E+00 -0.00000000000E+00 -0.31442092641E+03  0.31442349128E+03  0.12700000000E+01 0.  1.
         25    2    1    2    0    0  0.11957759797E+02  0.16810279339E+02 -0.24893577894E+03  0.27932046411E+03  0.12500130449E+03 0.  0.
    9000005    1    3    3    0    0  0.21142720221E+02 -0.36165430168E+02 -0.24518184701E+02  0.48549915948E+02  0.10000000000E+01 0.  0.
    9000005    1    3    3    0    0 -0.91849604242E+01  0.52975709507E+02 -0.22441759424E+03  0.23077054817E+03  0.10000000000E+01 0.  0.
         21    1    1    2  502  501 -0.11957759797E+02 -0.16810279339E+02 -0.48202942130E+02  0.52431833277E+02  0.00000000000E+00 0. -1.
<mgrwt>
<rscale>  1 0.12669215E+03</rscale>
<asrwt>0</asrwt>
<pdfrwt beam="2">  1        4 0.48376228E-01 0.12669215E+03</pdfrwt>
<pdfrwt beam="1">  1       -4 0.26625830E-02 0.12669215E+03</pdfrwt>
<totfact> 0.43488014E+03</totfact>
</mgrwt>
</event>
<event>
 6    4  0.2220150E-003  0.1461752E+03  0.7818608E-02  0.1205253E+00
          4   -1    0    0  502    0  0.00000000000E+00  0.00000000000E+00  0.29189253602E+03  0.29189529884E+03  0.12700000000E+01 0.  1.
         -4   -1    0    0    0  501 -0.00000000000E+00 -0.00000000000E+00 -0.42411498389E+02  0.42430509019E+02  0.12700000000E+01 0.  1.
         25    2    1    2    0    0  0.58009562670E+02 -0.48749012533E+02  0.17583933184E+03  0.22866277546E+03  0.12500247467E+03 0.  0.
    9000005    1    3    3    0    0  0.15429158370E+02  0.97861789450E+01 -0.15567191767E+02  0.24024272848E+02  0.10000000000E+01 0.  0.
    9000005    1    3    3    0    0  0.42580404300E+02 -0.58535191478E+02  0.19140652360E+03  0.20463850261E+03  0.10000000000E+01 0.  0.
         21    1    1    2  502  501 -0.58009562670E+02  0.48749012533E+02  0.73641705796E+02  0.10566303240E+03  0.00000000000E+00 0.  1.
<mgrwt>
<rscale>  1 0.14617522E+03</rscale>
<asrwt>0</asrwt>
<pdfrwt beam="1">  1        4 0.44908219E-01 0.14617522E+03</pdfrwt>
<pdfrwt beam="2">  1       -4 0.65265208E-02 0.14617522E+03</pdfrwt>
<totfact> 0.12506819E+03</totfact>
</mgrwt>
</event>
<event>
 6    4  0.2220150E-003  0.1302682E+03  0.7818608E-02  0.1227058E+00
          4   -1    0    0  502    0  0.00000000000E+00  0.00000000000E+00  0.65821695156E+02  0.65833946055E+02  0.12700000000E+01 0.  1.
         -4   -1    0    0    0  501 -0.00000000000E+00 -0.00000000000E+00 -0.11065409010E+03  0.11066137788E+03  0.12700000000E+01 0.  1.
         25    2    1    2    0    0  0.23933019631E+02 -0.27752162460E+02 -0.49903190984E+02  0.13949958199E+03  0.12500733160E+03 0.  0.
    9000005    1    3    3    0    0 -0.46562198937E+02 -0.10264458791E+02  0.56891743284E+01  0.48028785001E+02  0.10000000000E+01 0.  0.
    9000005    1    3    3    0    0  0.70495218569E+02 -0.17487703669E+02 -0.55592365312E+02  0.91470796988E+02  0.10000000000E+01 0.  0.
         21    1    1    2  502  501 -0.23933019631E+02  0.27752162460E+02  0.50707960433E+01  0.36995741950E+02  0.00000000000E+00 0.  1.
<mgrwt>
<rscale>  1 0.13026820E+03</rscale>
<asrwt>0</asrwt>
<pdfrwt beam="1">  1        4 0.10127918E-01 0.13026820E+03</pdfrwt>
<pdfrwt beam="2">  1       -4 0.17025209E-01 0.13026820E+03</pdfrwt>
<totfact> 0.36252310E+03</totfact>
</mgrwt>
</event>
<event>
 6    4  0.2220150E-003  0.1281389E+03  0.7818608E-02  0.1230244E+00
         -4   -1    0    0    0  501 -0.00000000000E+00  0.00000000000E+00  0.15067837951E+03  0.15068373154E+03  0.12700000000E+01 0.  1.
          4   -1    0    0  502    0  0.00000000000E+00 -0.00000000000E+00 -0.44897169422E+02  0.44915127987E+02  0.12700000000E+01 0.  1.
         25    2    1    2    0    0  0.10521860868E+02 -0.26131541403E+02  0.59179833452E+02  0.14114470159E+03  0.12500402829E+03 0.  0.
    9000005    1    3    3    0    0 -0.14954622418E+02 -0.54845870374E+02 -0.13952491601E+02  0.58543848956E+02  0.10000000000E+01 0.  0.
    9000005    1    3    3    0    0  0.25476483286E+02  0.28714328971E+02  0.73132325053E+02  0.82600852638E+02  0.10000000000E+01 0.  0.
         21    1    1    2  502  501 -0.10521860868E+02  0.26131541403E+02  0.46601376635E+02  0.54454157935E+02  0.00000000000E+00 0.  1.
<mgrwt>
<rscale>  1 0.12813889E+03</rscale>
<asrwt>0</asrwt>
<pdfrwt beam="2">  1        4 0.69090499E-02 0.12813889E+03</pdfrwt>
<pdfrwt beam="1">  1       -4 0.23183083E-01 0.12813889E+03</pdfrwt>
<totfact> 0.39139050E+03</totfact>
</mgrwt>
</event>
<event>
 6    4  0.2220150E-003  0.1367971E+03  0.7818608E-02  0.1217705E+00
         -4   -1    0    0    0  501 -0.00000000000E+00  0.00000000000E+00  0.39535309102E+03  0.39535513083E+03  0.12700000000E+01 0. -1.
          4   -1    0    0  502    0  0.00000000000E+00 -0.00000000000E+00 -0.37694376949E+02  0.37715765319E+02  0.12700000000E+01 0. -1.
         25    2    1    2    0    0  0.50062809291E+02  0.24149529979E+02  0.99910729668E+02  0.16939778767E+03  0.12499588751E+03 0.  0.
    9000005    1    3    3    0    0  0.37105028720E+02 -0.58723450058E+01 -0.21746630862E+02  0.43418700418E+02  0.10000000000E+01 0.  0.
    9000005    1    3    3    0    0  0.12957780571E+02  0.30021874985E+02  0.12165736053E+03  0.12597908726E+03  0.10000000000E+01 0.  0.
         21    1    1    2  502  501 -0.50062809291E+02 -0.24149529979E+02  0.25774798440E+03  0.26367310848E+03  0.00000000000E+00 0. -1.
<mgrwt>
<rscale>  1 0.13679714E+03</rscale>
<asrwt>0</asrwt>
<pdfrwt beam="2">  1        4 0.58009369E-02 0.13679714E+03</pdfrwt>
<pdfrwt beam="1">  1       -4 0.60825357E-01 0.13679714E+03</pdfrwt>
<totfact> 0.80165786E+02</totfact>
</mgrwt>
</event>
<event>
 6    4  0.2220150E-003  0.1360228E+03  0.7818608E-02  0.1218783E+00
         -4   -1    0    0    0  501 -0.00000000000E+00  0.00000000000E+00  0.14331828884E+03  0.14332391571E+03  0.12700000000E+01 0.  1.
          4   -1    0    0  502    0  0.00000000000E+00 -0.00000000000E+00 -0.63256016712E+02  0.63268764413E+02  0.12700000000E+01 0.  1.
         25    2    1    2    0    0 -0.11535032139E+02  0.52376895037E+02  0.48784690380E+02  0.14450658490E+03  0.12500324382E+03 0.  0.
    9000005    1    3    3    0    0 -0.88803738111E+01 -0.16571357832E+02 -0.32697088789E+02  0.37730233960E+02  0.10000000000E+01 0.  0.
    9000005    1    3    3    0    0 -0.26546583274E+01  0.68948252869E+02  0.81481779169E+02  0.10677635094E+03  0.10000000000E+01 0.  0.
         21    1    1    2  502  501  0.11535032139E+02 -0.52376895037E+02  0.31277581746E+02  0.62086095223E+02  0.00000000000E+00 0.  1.
<mgrwt>
<rscale>  1 0.13602282E+03</rscale>
<asrwt>0</asrwt>
<pdfrwt beam="2">  1        4 0.97331083E-02 0.13602282E+03</pdfrwt>
<pdfrwt beam="1">  1       -4 0.22050381E-01 0.13602282E+03</pdfrwt>
<totfact> 0.24631160E+03</totfact>
</mgrwt>
</event>
<event>
 6    4  0.2220150E-003  0.1927376E+03  0.7818608E-02  0.1156015E+00
          4   -1    0    0  502    0  0.00000000000E+00  0.00000000000E+00  0.21252149397E+03  0.21252528861E+03  0.12700000000E+01 0. -1.
         -4   -1    0    0    0  501 -0.00000000000E+00 -0.00000000000E+00 -0.14483241066E+03  0.14483797871E+03  0.12700000000E+01 0. -1.
         25    2    1    2    0    0 -0.30022220979E+02 -0.14360085765E+03  0.83022947312E+02  0.20985846247E+03  0.12500089768E+03 0.  0.
    9000005    1    3    3    0    0 -0.19377717972E+02 -0.12935463847E+03  0.11440454150E+03  0.17377432941E+03  0.10000000000E+01 0.  0.
    9000005    1    3    3    0    0 -0.10644503007E+02 -0.14246219175E+02 -0.31381594185E+02  0.36084133059E+02  0.10000000000E+01 0.  0.
         21    1    1    2  502  501  0.30022220979E+02  0.14360085765E+03 -0.15333864004E+02  0.14750480485E+03  0.00000000000E+00 0. -1.
<mgrwt>
<rscale>  1 0.19273755E+03</rscale>
<asrwt>0</asrwt>
<pdfrwt beam="1">  1        4 0.32696334E-01 0.19273755E+03</pdfrwt>
<pdfrwt beam="2">  1       -4 0.22282630E-01 0.19273755E+03</pdfrwt>
<totfact> 0.29543642E+02</totfact>
</mgrwt>
</event>
<event>
 6    4  0.2220150E-003  0.1296158E+03  0.7818608E-02  0.1228027E+00
         -4   -1    0    0    0  501 -0.00000000000E+00  0.00000000000E+00  0.61801689606E+02  0.61814737225E+02  0.12700000000E+01 0. -1.
          4   -1    0    0  502    0  0.00000000000E+00 -0.00000000000E+00 -0.16046470817E+03  0.16046973381E+03  0.12700000000E+01 0. -1.
         25    2    1    2    0    0  0.34238864098E+02 -0.15645438539E+01 -0.12422067067E+03  0.17953004210E+03  0.12500205351E+03 0.  0.
    9000005    1    3    3    0    0 -0.27031164805E+01 -0.52325595017E+01  0.25027661712E+02  0.25730728097E+02  0.10000000000E+01 0.  0.
    9000005    1    3    3    0    0  0.36941980579E+02  0.36680156478E+01 -0.14924833239E+03  0.15379931400E+03  0.10000000000E+01 0.  0.
         21    1    1    2  502  501 -0.34238864098E+02  0.15645438539E+01  0.25557652108E+02  0.42754428934E+02  0.00000000000E+00 0. -1.
<mgrwt>
<rscale>  1 0.12961582E+03</rscale>
<asrwt>0</asrwt>
<pdfrwt beam="2">  1        4 0.24688268E-01 0.12961582E+03</pdfrwt>
<pdfrwt beam="1">  1       -4 0.95093426E-02 0.12961582E+03</pdfrwt>
<totfact> 0.20599127E+03</totfact>
</mgrwt>
</event>
<event>
 6    4  0.2220150E-003  0.1402120E+03  0.7818608E-02  0.1213044E+00
          4   -1    0    0  502    0  0.00000000000E+00  0.00000000000E+00  0.45775881792E+01  0.47504961360E+01  0.12700000000E+01 0. -1.
         -4   -1    0    0    0  501 -0.00000000000E+00 -0.00000000000E+00 -0.22270143851E+04  0.22270147472E+04  0.12700000000E+01 0. -1.
         25    2    1    2    0    0  0.11638689984E+02 -0.62437671148E+02 -0.15638102694E+04  0.15700834281E+04  0.12500196256E+03 0.  0.
    9000005    1    3    3    0    0  0.10733906448E+02 -0.95170584801E+02 -0.82394959104E+03  0.82949779116E+03  0.10000000000E+01 0.  0.
    9000005    1    3    3    0    0  0.90478353597E+00  0.32732913653E+02 -0.73986067836E+03  0.74058563695E+03  0.10000000000E+01 0.  0.
         21    1    1    2  502  501 -0.11638689984E+02  0.62437671148E+02 -0.65862652753E+03  0.66168181526E+03  0.00000000000E+00 0. -1.
<mgrwt>
<rscale>  1 0.14021203E+03</rscale>
<asrwt>0</asrwt>
<pdfrwt beam="1">  1        4 0.71757458E-03 0.14021203E+03</pdfrwt>
<pdfrwt beam="2">  1       -4 0.34263008E+00 0.14021203E+03</pdfrwt>
<totfact> 0.17196119E+02</totfact>
</mgrwt>
</event>
<event>
 6    4  0.2220150E-003  0.1313387E+03  0.7818608E-02  0.1225483E+00
          4   -1    0    0  502    0  0.00000000000E+00  0.00000000000E+00  0.18277285751E+03  0.18277726977E+03  0.12700000000E+01 0. -1.
         -4   -1    0    0    0  501 -0.00000000000E+00 -0.00000000000E+00 -0.56402488178E+02  0.56416784494E+02  0.12700000000E+01 0. -1.
         25    2    1    2    0    0  0.12495442458E+02  0.38323363681E+02  0.14426154120E+03  0.19509291690E+03  0.12500015068E+03 0.  0.
    9000005    1    3    3    0    0  0.56386103969E+02  0.19303139764E+01  0.22704052408E+02  0.60824278282E+02  0.10000000000E+01 0.  0.
    9000005    1    3    3    0    0 -0.43890661510E+02  0.36393049705E+02  0.12155748879E+03  0.13426863862E+03  0.10000000000E+01 0.  0.
         21    1    1    2  502  501 -0.12495442458E+02 -0.38323363681E+02 -0.17891171863E+02  0.44101137363E+02  0.00000000000E+00 0. -1.
<mgrwt>
<rscale>  1 0.13133870E+03</rscale>
<asrwt>0</asrwt>
<pdfrwt beam="1">  1        4 0.28120340E-01 0.13133870E+03</pdfrwt>
<pdfrwt beam="2">  1       -4 0.86787451E-02 0.13133870E+03</pdfrwt>
<totfact> 0.18903462E+03</totfact>
</mgrwt>
</event>
<event>
 6    4  0.2220150E-003  0.1281993E+03  0.7818608E-02  0.1230152E+00
          4   -1    0    0  502    0  0.00000000000E+00  0.00000000000E+00  0.21254215340E+04  0.21254219134E+04  0.12700000000E+01 0.  1.
         -4   -1    0    0    0  501 -0.00000000000E+00 -0.00000000000E+00 -0.57347197184E+01  0.58736624220E+01  0.12700000000E+01 0.  1.
         25    2    1    2    0    0  0.84435545710E+01  0.27183856166E+02  0.20705071976E+04  0.20744722502E+04  0.12499922226E+03 0.  0.
    9000005    1    3    3    0    0  0.64844068020E+02  0.61078455225E+00  0.92667539174E+03  0.92894209070E+03  0.10000000000E+01 0.  0.
    9000005    1    3    3    0    0 -0.56400513449E+02  0.26573071614E+02  0.11438318059E+04  0.11455301595E+04  0.10000000000E+01 0.  0.
         21    1    1    2  502  501 -0.84435545710E+01 -0.27183856166E+02  0.49179616667E+02  0.56823325715E+02  0.00000000000E+00 0.  1.
<mgrwt>
<rscale>  1 0.12819930E+03</rscale>
<asrwt>0</asrwt>
<pdfrwt beam="1">  1        4 0.32699875E+00 0.12819930E+03</pdfrwt>
<pdfrwt beam="2">  1       -4 0.89298138E-03 0.12819930E+03</pdfrwt>
<totfact> 0.15212758E+02</totfact>
</mgrwt>
</event>
<event>
 6    4  0.2220150E-003  0.1308093E+03  0.7818608E-02  0.1226260E+00
          4   -1    0    0  502    0  0.00000000000E+00  0.00000000000E+00  0.79392687193E+02  0.79402844279E+02  0.12700000000E+01 0.  1.
         -4   -1    0    0    0  501 -0.00000000000E+00 -0.00000000000E+00 -0.11409377592E+03  0.11410084401E+03  0.12700000000E+01 0.  1.
         25    2    1    2    0    0  0.18596022287E+02 -0.33772089958E+02  0.13812415688E+02  0.13153655010E+03  0.12499886031E+03 0.  0.
    9000005    1    3    3    0    0  0.15978849465E+02  0.47126998012E+02  0.28991949611E+01  0.49856623464E+02  0.10000000000E+01 0.  0.
    9000005    1    3    3    0    0  0.26171728215E+01 -0.80899087970E+02  0.10913220727E+02  0.81679926632E+02  0.10000000000E+01 0.  0.
         21    1    1    2  502  501 -0.18596022287E+02  0.33772089958E+02 -0.48513504414E+02  0.61967138191E+02  0.00000000000E+00 0.  1.
<mgrwt>
<rscale>  1 0.13080933E+03</rscale>
<asrwt>0</asrwt>
<pdfrwt beam="1">  1        4 0.12215585E-01 0.13080933E+03</pdfrwt>
<pdfrwt beam="2">  1       -4 0.17554214E-01 0.13080933E+03</pdfrwt>
<totfact> 0.25005336E+03</totfact>
</mgrwt>
</event>
<event>
 6    4  0.2220150E-003  0.1279690E+03  0.7818608E-02  0.1230501E+00
          4   -1    0    0  502    0  0.00000000000E+00  0.00000000000E+00  0.74888726276E+02  0.74899494146E+02  0.12700000000E+01 0. -1.
         -4   -1    0    0    0  501 -0.00000000000E+00 -0.00000000000E+00 -0.81552557853E+02  0.81562445968E+02  0.12700000000E+01 0. -1.
         25    2    1    2    0    0 -0.14217138339E+02  0.23415070457E+02 -0.12081472645E+02  0.12853805461E+03  0.12500270779E+03 0.  0.
    9000005    1    3    3    0    0  0.64891448442E+01 -0.29180767787E+01  0.53982996829E+02  0.54459049932E+02  0.10000000000E+01 0.  0.
    9000005    1    3    3    0    0 -0.20706283183E+02  0.26333147236E+02 -0.66064469474E+02  0.74079004674E+02  0.10000000000E+01 0.  0.
         21    1    1    2  502  501  0.14217138339E+02 -0.23415070457E+02  0.54176410687E+01  0.27923885507E+02  0.00000000000E+00 0.  1.
<mgrwt>
<rscale>  1 0.12796902E+03</rscale>
<asrwt>0</asrwt>
<pdfrwt beam="1">  1        4 0.11522931E-01 0.12796902E+03</pdfrwt>
<pdfrwt beam="2">  1       -4 0.12548136E-01 0.12796902E+03</pdfrwt>
<totfact> 0.49328274E+03</totfact>
</mgrwt>
</event>
<event>
 6    4  0.2220150E-003  0.1325541E+03  0.7818608E-02  0.1223714E+00
         -4   -1    0    0    0  501 -0.00000000000E+00  0.00000000000E+00  0.49955530820E+02  0.49971671570E+02  0.12700000000E+01 0. -1.
          4   -1    0    0  502    0  0.00000000000E+00 -0.00000000000E+00 -0.15749915236E+03  0.15750427262E+03  0.12700000000E+01 0. -1.
         25    2    1    2    0    0  0.24277620041E+02  0.36951315475E+02 -0.72689264035E+02  0.15117648782E+03  0.12496318984E+03 0.  0.
    9000005    1    3    3    0    0 -0.36329735980E+02  0.18245843461E+02  0.14655141257E+02  0.43226539131E+02  0.10000000000E+01 0.  0.
    9000005    1    3    3    0    0  0.60607356021E+02  0.18705472014E+02 -0.87344405292E+02  0.10794994869E+03  0.10000000000E+01 0.  0.
         21    1    1    2  502  501 -0.24277620041E+02 -0.36951315475E+02 -0.34854357504E+02  0.56299456366E+02  0.00000000000E+00 0. -1.
<mgrwt>
<rscale>  1 0.13255415E+03</rscale>
<asrwt>0</asrwt>
<pdfrwt beam="2">  1        4 0.24232274E-01 0.13255415E+03</pdfrwt>
<pdfrwt beam="1">  1       -4 0.76871018E-02 0.13255415E+03</pdfrwt>
<totfact> 0.30531227E+03</totfact>
</mgrwt>
</event>
<event>
 6    4  0.2220150E-003  0.1446680E+03  0.7818608E-02  0.1207182E+00
         -4   -1    0    0    0  501 -0.00000000000E+00  0.00000000000E+00  0.21572891007E+02  0.21610241238E+02  0.12700000000E+01 0. -1.
          4   -1    0    0  502    0  0.00000000000E+00 -0.00000000000E+00 -0.74044800639E+03  0.74044909553E+03  0.12700000000E+01 0. -1.
         25    2    1    2    0    0 -0.60247149897E+02  0.40911952330E+02 -0.63366277196E+03  0.64996718545E+03  0.12500130673E+03 0.  0.
    9000005    1    3    3    0    0 -0.86433897997E+02  0.37182322969E+01 -0.27136899875E+03  0.28482762762E+03  0.10000000000E+01 0.  0.
    9000005    1    3    3    0    0  0.26186748100E+02  0.37193720033E+02 -0.36229377321E+03  0.36513955784E+03  0.10000000000E+01 0.  0.
         21    1    1    2  502  501  0.60247149897E+02 -0.40911952330E+02 -0.85212343422E+02  0.11209215131E+03  0.00000000000E+00 0. -1.
<mgrwt>
<rscale>  1 0.14466801E+03</rscale>
<asrwt>0</asrwt>
<pdfrwt beam="2">  1        4 0.11391802E+00 0.14466801E+03</pdfrwt>
<pdfrwt beam="1">  1       -4 0.33218637E-02 0.14466801E+03</pdfrwt>
<totfact> 0.48625390E+02</totfact>
</mgrwt>
</event>
<event>
 6    4  0.2220150E-003  0.1267665E+03  0.7818608E-02  0.1232334E+00
          4   -1    0    0  502    0  0.00000000000E+00  0.00000000000E+00  0.19814323700E+03  0.19814730699E+03  0.12700000000E+01 0. -1.
         -4   -1    0    0    0  501 -0.00000000000E+00 -0.00000000000E+00 -0.32391735821E+02  0.32416623043E+02  0.12700000000E+01 0. -1.
         25    2    1    2    0    0  0.15964429844E+02 -0.13879964589E+02  0.16665663102E+03  0.20938999093E+03  0.12498887631E+03 0.  0.
    9000005    1    3    3    0    0 -0.64105885473E+01  0.52016631166E+02  0.10058156963E+03  0.11342168097E+03  0.10000000000E+01 0.  0.
    9000005    1    3    3    0    0  0.22375018391E+02 -0.65896595755E+02  0.66075061383E+02  0.95968309961E+02  0.10000000000E+01 0.  0.
         21    1    1    2  502  501 -0.15964429844E+02  0.13879964589E+02 -0.90512984011E+00  0.21173939106E+02  0.00000000000E+00 0.  1.
<mgrwt>
<rscale>  1 0.12676646E+03</rscale>
<asrwt>0</asrwt>
<pdfrwt beam="1">  1        4 0.30485802E-01 0.12676646E+03</pdfrwt>
<pdfrwt beam="2">  1       -4 0.49855715E-02 0.12676646E+03</pdfrwt>
<totfact> 0.39825431E+03</totfact>
</mgrwt>
</event>
<event>
 6    4  0.2220150E-003  0.1485168E+03  0.7818608E-02  0.1202307E+00
          4   -1    0    0  502    0  0.00000000000E+00  0.00000000000E+00  0.43817582500E+03  0.43817766546E+03  0.12700000000E+01 0. -1.
         -4   -1    0    0    0  501 -0.00000000000E+00 -0.00000000000E+00 -0.40159933428E+02  0.40180009369E+02  0.12700000000E+01 0. -1.
         25    2    1    2    0    0  0.64950607411E+02  0.46984947357E+02  0.36041163779E+03  0.38981250792E+03  0.12502430162E+03 0.  0.
    9000005    1    3    3    0    0  0.60728559338E+02  0.80362849590E+02  0.32786869668E+03  0.34299420954E+03  0.10000000000E+01 0.  0.
    9000005    1    3    3    0    0  0.42220480727E+01 -0.33377902233E+02  0.32542941111E+02  0.46818298384E+02  0.10000000000E+01 0.  0.
         21    1    1    2  502  501 -0.64950607411E+02 -0.46984947357E+02  0.37604253776E+02  0.88545166911E+02  0.00000000000E+00 0. -1.
<mgrwt>
<rscale>  1 0.14851681E+03</rscale>
<asrwt>0</asrwt>
<pdfrwt beam="1">  1        4 0.67413348E-01 0.14851681E+03</pdfrwt>
<pdfrwt beam="2">  1       -4 0.61801375E-02 0.14851681E+03</pdfrwt>
<totfact> 0.59063088E+02</totfact>
</mgrwt>
</event>
<event>
 6    4  0.2220150E-003  0.1491102E+03  0.7818608E-02  0.1201571E+00
         -4   -1    0    0    0  501 -0.00000000000E+00  0.00000000000E+00  0.60908109734E+02  0.60921348732E+02  0.12700000000E+01 0. -1.
          4   -1    0    0  502    0  0.00000000000E+00 -0.00000000000E+00 -0.27624106117E+03  0.27624398052E+03  0.12700000000E+01 0. -1.
         25    2    1    2    0    0 -0.68668056571E+02 -0.43516976141E+02 -0.20746317625E+03  0.25548936849E+03  0.12499927482E+03 0.  0.
    9000005    1    3    3    0    0 -0.88495249758E+01  0.24328520348E+02  0.33176071548E+01  0.26118911000E+02  0.10000000000E+01 0.  0.
    9000005    1    3    3    0    0 -0.59818531595E+02 -0.67845496488E+02 -0.21078078340E+03  0.22937045749E+03  0.10000000000E+01 0.  0.
         21    1    1    2  502  501  0.68668056571E+02  0.43516976141E+02 -0.78697751858E+01  0.81675960767E+02  0.00000000000E+00 0. -1.
<mgrwt>
<rscale>  1 0.14911019E+03</rscale>
<asrwt>0</asrwt>
<pdfrwt beam="2">  1        4 0.42499867E-01 0.14911019E+03</pdfrwt>
<pdfrwt beam="1">  1       -4 0.93717215E-02 0.14911019E+03</pdfrwt>
<totfact> 0.76964803E+02</totfact>
</mgrwt>
</event>
<event>
 6    4  0.2220150E-003  0.1269380E+03  0.7818608E-02  0.1232071E+00
         -4   -1    0    0    0  501 -0.00000000000E+00  0.00000000000E+00  0.14781098185E+03  0.14781643770E+03  0.12700000000E+01 0. -1.
          4   -1    0    0  502    0  0.00000000000E+00 -0.00000000000E+00 -0.38755054931E+02  0.38775858246E+02  0.12700000000E+01 0. -1.
         25    2    1    2    0    0  0.10890365290E+02  0.19223265621E+02  0.79824532226E+02  0.14995067436E+03  0.12500045919E+03 0.  0.
    9000005    1    3    3    0    0 -0.27470139912E+01 -0.23059804465E+02 -0.26178918305E+02  0.35009090698E+02  0.10000000000E+01 0.  0.
    9000005    1    3    3    0    0  0.13637379281E+02  0.42283070085E+02  0.10600345053E+03  0.11494158366E+03  0.10000000000E+01 0.  0.
         21    1    1    2  502  501 -0.10890365290E+02 -0.19223265621E+02  0.29231394689E+02  0.36641621590E+02  0.00000000000E+00 0. -1.
<mgrwt>
<rscale>  1 0.12693797E+03</rscale>
<asrwt>0</asrwt>
<pdfrwt beam="2">  1        4 0.59643363E-02 0.12693797E+03</pdfrwt>
<pdfrwt beam="1">  1       -4 0.22742170E-01 0.12693797E+03</pdfrwt>
<totfact> 0.51393170E+03</totfact>
</mgrwt>
</event>
<event>
 6    4  0.2220150E-003  0.1454491E+03  0.7818608E-02  0.1206179E+00
         -4   -1    0    0    0  501 -0.00000000000E+00  0.00000000000E+00  0.75141121442E+02  0.75151853148E+02  0.12700000000E+01 0. -1.
          4   -1    0    0  502    0  0.00000000000E+00 -0.00000000000E+00 -0.17861677795E+03  0.17862129287E+03  0.12700000000E+01 0. -1.
         25    2    1    2    0    0 -0.71078811056E+02 -0.21885183613E+02 -0.10499447176E+03  0.17938587934E+03  0.12499718383E+03 0.  0.
    9000005    1    3    3    0    0 -0.39531307731E+02 -0.72895691892E+02 -0.77090254437E+02  0.11322726490E+03  0.10000000000E+01 0.  0.
    9000005    1    3    3    0    0 -0.31547503325E+02  0.51010508279E+02 -0.27904217324E+02  0.66158614445E+02  0.10000000000E+01 0.  0.
         21    1    1    2  502  501  0.71078811056E+02  0.21885183613E+02  0.15188152530E+01  0.74387266670E+02  0.00000000000E+00 0. -1.
<mgrwt>
<rscale>  1 0.14544915E+03</rscale>
<asrwt>0</asrwt>
<pdfrwt beam="2">  1        4 0.27480677E-01 0.14544915E+03</pdfrwt>
<pdfrwt beam="1">  1       -4 0.11561345E-01 0.14544915E+03</pdfrwt>
<totfact> 0.12438888E+03</totfact>
</mgrwt>
</event>
<event>
 6    4  0.2220150E-003  0.1276307E+03  0.7818608E-02  0.1231014E+00
          4   -1    0    0  502    0  0.00000000000E+00  0.00000000000E+00  0.32140100464E+03  0.32140351380E+03  0.12700000000E+01 0. -1.
         -4   -1    0    0    0  501 -0.00000000000E+00 -0.00000000000E+00 -0.20793263777E+02  0.20832011868E+02  0.12700000000E+01 0. -1.
         25    2    1    2    0    0 -0.17541754256E+02  0.18902004208E+02  0.28453557104E+03  0.31184945076E+03  0.12499835938E+03 0.  0.
    9000005    1    3    3    0    0 -0.88219591674E+01 -0.53483902250E+02  0.10788147345E+03  0.12073842419E+03  0.10000000000E+01 0.  0.
    9000005    1    3    3    0    0 -0.87197950887E+01  0.72385906458E+02  0.17665409759E+03  0.19111102657E+03  0.10000000000E+01 0.  0.
         21    1    1    2  502  501  0.17541754256E+02 -0.18902004208E+02  0.16072169823E+02  0.30386074907E+02  0.00000000000E+00 0. -1.
<mgrwt>
<rscale>  1 0.12763067E+03</rscale>
<asrwt>0</asrwt>
<pdfrwt beam="1">  1        4 0.49449481E-01 0.12763067E+03</pdfrwt>
<pdfrwt beam="2">  1       -4 0.32021374E-02 0.12763067E+03</pdfrwt>
<totfact> 0.31233995E+03</totfact>
</mgrwt>
</event>
<event>
 6    4  0.2220150E-003  0.1296177E+03  0.7818608E-02  0.1228024E+00
         -4   -1    0    0    0  501 -0.00000000000E+00  0.00000000000E+00  0.54993769588E+02  0.55008432022E+02  0.12700000000E+01 0. -1.
          4   -1    0    0  502    0  0.00000000000E+00 -0.00000000000E+00 -0.12656202068E+03  0.12656839250E+03  0.12700000000E+01 0. -1.
         25    2    1    2    0    0 -0.24370602140E+02  0.24123276029E+02 -0.41867501069E+02  0.13621171406E+03  0.12499953882E+03 0.  0.
    9000005    1    3    3    0    0 -0.49762632372E+02 -0.16378794370E+02  0.21662164987E+02  0.56699505090E+02  0.10000000000E+01 0.  0.
    9000005    1    3    3    0    0  0.25392030231E+02  0.40502070400E+02 -0.63529666055E+02  0.79512208968E+02  0.10000000000E+01 0.  0.
         21    1    1    2  502  501  0.24370602140E+02 -0.24123276029E+02 -0.29700750027E+02  0.45365110462E+02  0.00000000000E+00 0. -1.
<mgrwt>
<rscale>  1 0.12961768E+03</rscale>
<asrwt>0</asrwt>
<pdfrwt beam="2">  1        4 0.19472698E-01 0.12961768E+03</pdfrwt>
<pdfrwt beam="1">  1       -4 0.84621980E-02 0.12961768E+03</pdfrwt>
<totfact> 0.38513327E+03</totfact>
</mgrwt>
</event>
<event>
 6    4  0.2220150E-003  0.1284185E+03  0.7818608E-02  0.1229822E+00
         -4   -1    0    0    0  501 -0.00000000000E+00  0.00000000000E+00  0.40731756045E+02  0.40751550284E+02  0.12700000000E+01 0. -1.
          4   -1    0    0  502    0  0.00000000000E+00 -0.00000000000E+00 -0.23571801743E+03  0.23572143865E+03  0.12700000000E+01 0. -1.
         25    2    1    2    0    0  0.27770931796E+02  0.97355167545E+01 -0.20787793728E+03  0.24434511558E+03  0.12500117504E+03 0.  0.
    9000005    1    3    3    0    0  0.87948360867E+01  0.66892447134E+02 -0.12257718677E+03  0.13992181868E+03  0.10000000000E+01 0.  0.
    9000005    1    3    3    0    0  0.18976095709E+02 -0.57156930380E+02 -0.85300750505E+02  0.10442329690E+03  0.10000000000E+01 0.  0.
         21    1    1    2  502  501 -0.27770931796E+02 -0.97355167545E+01  0.12891675892E+02  0.32127873359E+02  0.00000000000E+00 0. -1.
<mgrwt>
<rscale>  1 0.12841845E+03</rscale>
<asrwt>0</asrwt>
<pdfrwt beam="2">  1        4 0.36266095E-01 0.12841845E+03</pdfrwt>
<pdfrwt beam="1">  1       -4 0.62682100E-02 0.12841845E+03</pdfrwt>
<totfact> 0.19792386E+03</totfact>
</mgrwt>
</event>
<event>
 6    4  0.2220150E-003  0.1303495E+03  0.7818608E-02  0.1226938E+00
         -4   -1    0    0    0  501 -0.00000000000E+00  0.00000000000E+00  0.24951711895E+04  0.24951715127E+04  0.12700000000E+01 0. -1.
          4   -1    0    0  502    0  0.00000000000E+00 -0.00000000000E+00 -0.76054922268E+01  0.77107984030E+01  0.12700000000E+01 0. -1.
         25    2    1    2    0    0  0.30766160650E+02 -0.20450452106E+02  0.56030155468E+03  0.57526412979E+03  0.12500483675E+03 0.  0.
    9000005    1    3    3    0    0  0.11108438960E+02  0.10488525401E+02  0.52205263568E+03  0.52227709217E+03  0.10000000000E+01 0.  0.
    9000005    1    3    3    0    0  0.19657721690E+02 -0.30938977506E+02  0.38248919002E+02  0.52987037623E+02  0.10000000000E+01 0.  0.
         21    1    1    2  502  501 -0.30766160650E+02  0.20450452106E+02  0.19272641426E+04  0.19276181813E+04  0.00000000000E+00 0. -1.
<mgrwt>
<rscale>  1 0.13034948E+03</rscale>
<asrwt>0</asrwt>
<pdfrwt beam="2">  1        4 0.11782001E-02 0.13034948E+03</pdfrwt>
<pdfrwt beam="1">  1       -4 0.38388093E+00 0.13034948E+03</pdfrwt>
<totfact> 0.44978231E+01</totfact>
</mgrwt>
</event>
<event>
 6    4  0.2220150E-003  0.1285665E+03  0.7818608E-02  0.1229598E+00
          4   -1    0    0  502    0  0.00000000000E+00  0.00000000000E+00  0.38106682671E+02  0.38127839753E+02  0.12700000000E+01 0. -1.
         -4   -1    0    0    0  501 -0.00000000000E+00 -0.00000000000E+00 -0.27376077412E+03  0.27376371993E+03  0.12700000000E+01 0. -1.
         25    2    1    2    0    0  0.13897870622E+02 -0.26666822840E+02 -0.75830375022E+02  0.14926348528E+03  0.12500028806E+03 0.  0.
    9000005    1    3    3    0    0 -0.28352619311E+02 -0.40674749290E+02 -0.89814202048E+02  0.10259579495E+03  0.10000000000E+01 0.  0.
    9000005    1    3    3    0    0  0.42250489932E+02  0.14007926451E+02  0.13983827026E+02  0.46667690336E+02  0.10000000000E+01 0.  0.
         21    1    1    2  502  501 -0.13897870622E+02  0.26666822840E+02 -0.15982371643E+03  0.16262807440E+03  0.00000000000E+00 0. -1.
<mgrwt>
<rscale>  1 0.12856649E+03</rscale>
<asrwt>0</asrwt>
<pdfrwt beam="1">  1        4 0.58644208E-02 0.12856649E+03</pdfrwt>
<pdfrwt beam="2">  1       -4 0.42118895E-01 0.12856649E+03</pdfrwt>
<totfact> 0.16455435E+03</totfact>
</mgrwt>
</event>
<event>
 6    4  0.2220150E-003  0.1477415E+03  0.7818608E-02  0.1203276E+00
          4   -1    0    0  502    0  0.00000000000E+00  0.00000000000E+00  0.54897097820E+02  0.54911786066E+02  0.12700000000E+01 0. -1.
         -4   -1    0    0    0  501 -0.00000000000E+00 -0.00000000000E+00 -0.25506578612E+03  0.25506894783E+03  0.12700000000E+01 0. -1.
         25    2    1    2    0    0 -0.44263148482E+02  0.65137115707E+02 -0.84961973884E+02  0.17042910473E+03  0.12500189030E+03 0.  0.
    9000005    1    3    3    0    0 -0.42145348926E+02  0.76729996154E+02 -0.11127109900E+03  0.14158382754E+03  0.10000000000E+01 0.  0.
    9000005    1    3    3    0    0 -0.21177995559E+01 -0.11592880447E+02  0.26309125121E+02  0.28845277198E+02  0.10000000000E+01 0.  0.
         21    1    1    2  502  501  0.44263148482E+02 -0.65137115707E+02 -0.11520671442E+03  0.13955162917E+03  0.00000000000E+00 0. -1.
<mgrwt>
<rscale>  1 0.14774147E+03</rscale>
<asrwt>0</asrwt>
<pdfrwt beam="1">  1        4 0.84470806E-02 0.14774147E+03</pdfrwt>
<pdfrwt beam="2">  1       -4 0.39242263E-01 0.14774147E+03</pdfrwt>
<totfact> 0.10701531E+03</totfact>
</mgrwt>
</event>
<event>
 6    4  0.2220150E-003  0.1273325E+03  0.7818608E-02  0.1231468E+00
          4   -1    0    0  502    0  0.00000000000E+00  0.00000000000E+00  0.14462017167E+03  0.14462574789E+03  0.12700000000E+01 0. -1.
         -4   -1    0    0    0  501 -0.00000000000E+00 -0.00000000000E+00 -0.43823045075E+02  0.43841443631E+02  0.12700000000E+01 0. -1.
         25    2    1    2    0    0 -0.20479915103E+02  0.13051886233E+02  0.10342029044E+03  0.16404057396E+03  0.12499509900E+03 0.  0.
    9000005    1    3    3    0    0 -0.29469466812E+02  0.60175680127E+02  0.93512903962E+02  0.11504444863E+03  0.10000000000E+01 0.  0.
    9000005    1    3    3    0    0  0.89895517098E+01 -0.47123793894E+02  0.99073864807E+01  0.48996125334E+02  0.10000000000E+01 0.  0.
         21    1    1    2  502  501  0.20479915103E+02 -0.13051886233E+02 -0.26231638482E+01  0.24426617560E+02  0.00000000000E+00 0. -1.
<mgrwt>
<rscale>  1 0.12733245E+03</rscale>
<asrwt>0</asrwt>
<pdfrwt beam="1">  1        4 0.22251101E-01 0.12733245E+03</pdfrwt>
<pdfrwt beam="2">  1       -4 0.67438512E-02 0.12733245E+03</pdfrwt>
<totfact> 0.43814192E+03</totfact>
</mgrwt>
</event>
<event>
 6    4  0.2220150E-003  0.1286680E+03  0.7818608E-02  0.1229446E+00
          4   -1    0    0  502    0  0.00000000000E+00  0.00000000000E+00  0.14486014040E+03  0.14486570738E+03  0.12700000000E+01 0. -1.
         -4   -1    0    0    0  501 -0.00000000000E+00 -0.00000000000E+00 -0.44791029560E+02  0.44809030664E+02  0.12700000000E+01 0. -1.
         25    2    1    2    0    0 -0.29403014924E+02 -0.82242362704E+01  0.68536781572E+02  0.14578324528E+03  0.12499315512E+03 0.  0.
    9000005    1    3    3    0    0 -0.18861771880E+02  0.29867853821E+02  0.92864742151E+02  0.99361539164E+02  0.10000000000E+01 0.  0.
    9000005    1    3    3    0    0 -0.10541243043E+02 -0.38092090091E+02 -0.24327960579E+02  0.46421706112E+02  0.10000000000E+01 0.  0.
         21    1    1    2  502  501  0.29403014924E+02  0.82242362704E+01  0.31532329265E+02  0.43891492772E+02  0.00000000000E+00 0.  1.
<mgrwt>
<rscale>  1 0.12866804E+03</rscale>
<asrwt>0</asrwt>
<pdfrwt beam="1">  1        4 0.22287988E-01 0.12866804E+03</pdfrwt>
<pdfrwt beam="2">  1       -4 0.68927406E-02 0.12866804E+03</pdfrwt>
<totfact> 0.42258300E+03</totfact>
</mgrwt>
</event>
<event>
 6    4  0.2220150E-003  0.1282224E+03  0.7818608E-02  0.1230117E+00
          4   -1    0    0  502    0  0.00000000000E+00  0.00000000000E+00  0.56577559882E+03  0.56577702421E+03  0.12700000000E+01 0.  1.
         -4   -1    0    0    0  501 -0.00000000000E+00 -0.00000000000E+00 -0.14985421856E+02  0.15039141205E+02  0.12700000000E+01 0.  1.
         25    2    1    2    0    0  0.90675568465E+01  0.27114046616E+02  0.53045432820E+03  0.54573142719E+03  0.12499441671E+03 0.  0.
    9000005    1    3    3    0    0 -0.51087689591E+02  0.40934059056E+02  0.30724358017E+03  0.31414195322E+03  0.10000000000E+01 0.  0.
    9000005    1    3    3    0    0  0.60155246438E+02 -0.13820012440E+02  0.22321074803E+03  0.23158947397E+03  0.10000000000E+01 0.  0.
         21    1    1    2  502  501 -0.90675568465E+01 -0.27114046616E+02  0.20335848768E+02  0.35084738223E+02  0.00000000000E+00 0.  1.
<mgrwt>
<rscale>  1 0.12822245E+03</rscale>
<asrwt>0</asrwt>
<pdfrwt beam="1">  1        4 0.87046650E-01 0.12822245E+03</pdfrwt>
<pdfrwt beam="2">  1       -4 0.23096912E-02 0.12822245E+03</pdfrwt>
<totfact> 0.15576748E+03</totfact>
</mgrwt>
</event>
<event>
 6    4  0.2220150E-003  0.1341871E+03  0.7818608E-02  0.1221372E+00
          4   -1    0    0  502    0  0.00000000000E+00  0.00000000000E+00  0.30963054773E+02  0.30989089385E+02  0.12700000000E+01 0. -1.
         -4   -1    0    0    0  501 -0.00000000000E+00 -0.00000000000E+00 -0.27223281225E+03  0.27223577459E+03  0.12700000000E+01 0. -1.
         25    2    1    2    0    0 -0.45690744673E+02 -0.17165110685E+02 -0.18798773914E+03  0.23096658658E+03  0.12499555543E+03 0.  0.
    9000005    1    3    3    0    0  0.31680029550E+02  0.29938496114E+02 -0.60803865184E+02  0.74820103202E+02  0.10000000000E+01 0.  0.
    9000005    1    3    3    0    0 -0.77370774223E+02 -0.47103606800E+02 -0.12718387396E+03  0.15614648338E+03  0.10000000000E+01 0.  0.
         21    1    1    2  502  501  0.45690744673E+02  0.17165110685E+02 -0.53282018341E+02  0.72258277395E+02  0.00000000000E+00 0. -1.
<mgrwt>
<rscale>  1 0.13418709E+03</rscale>
<asrwt>0</asrwt>
<pdfrwt beam="1">  1        4 0.47657776E-02 0.13418709E+03</pdfrwt>
<pdfrwt beam="2">  1       -4 0.41884200E-01 0.13418709E+03</pdfrwt>
<totfact> 0.23473045E+03</totfact>
</mgrwt>
</event>
<event>
 6    4  0.2220150E-003  0.1272179E+03  0.7818608E-02  0.1231643E+00
          4   -1    0    0  502    0  0.00000000000E+00  0.00000000000E+00  0.93726249977E+03  0.93726336020E+03  0.12700000000E+01 0.  1.
         -4   -1    0    0    0  501 -0.00000000000E+00 -0.00000000000E+00 -0.75829473494E+01  0.76885623171E+01  0.12700000000E+01 0.  1.
         25    2    1    2    0    0  0.20910736090E+02 -0.11050408957E+02  0.88768985123E+03  0.89675954316E+03  0.12500014341E+03 0.  0.
    9000005    1    3    3    0    0 -0.75373195566E+01  0.23586613563E+01 -0.53383400878E+00  0.79786871252E+01  0.10000000000E+01 0.  0.
    9000005    1    3    3    0    0  0.28448055646E+02 -0.13409070313E+02  0.88822368524E+03  0.88878085604E+03  0.10000000000E+01 0.  0.
         21    1    1    2  502  501 -0.20910736090E+02  0.11050408957E+02  0.41989701185E+02  0.48192379351E+02  0.00000000000E+00 0.  1.
<mgrwt>
<rscale>  1 0.12721795E+03</rscale>
<asrwt>0</asrwt>
<pdfrwt beam="1">  1        4 0.14420245E+00 0.12721795E+03</pdfrwt>
<pdfrwt beam="2">  1       -4 0.11747975E-02 0.12721795E+03</pdfrwt>
<totfact> 0.13222651E+03</totfact>
</mgrwt>
</event>
<event>
 6    4  0.2220150E-003  0.1269136E+03  0.7818608E-02  0.1232109E+00
         -4   -1    0    0    0  501 -0.00000000000E+00  0.00000000000E+00  0.80228136493E+02  0.80238187823E+02  0.12700000000E+01 0. -1.
          4   -1    0    0  502    0  0.00000000000E+00 -0.00000000000E+00 -0.11884494711E+03  0.11885173265E+03  0.12700000000E+01 0. -1.
         25    2    1    2    0    0 -0.86136520004E+01  0.20125858119E+02 -0.81579161111E+02  0.15087157619E+03  0.12501131072E+03 0.  0.
    9000005    1    3    3    0    0  0.35365058585E+01 -0.44607377536E+00 -0.11206494326E+03  0.11212607798E+03  0.10000000000E+01 0.  0.
    9000005    1    3    3    0    0 -0.12150157859E+02  0.20571931894E+02  0.30485782151E+02  0.38745498206E+02  0.10000000000E+01 0.  0.
         21    1    1    2  502  501  0.86136520004E+01 -0.20125858119E+02  0.42962350492E+02  0.48218344285E+02  0.00000000000E+00 0. -1.
<mgrwt>
<rscale>  1 0.12691364E+03</rscale>
<asrwt>0</asrwt>
<pdfrwt beam="2">  1        4 0.18285133E-01 0.12691364E+03</pdfrwt>
<pdfrwt beam="1">  1       -4 0.12344085E-01 0.12691364E+03</pdfrwt>
<totfact> 0.22682920E+03</totfact>
</mgrwt>
</event>
<event>
 6    4  0.2220150E-003  0.1267046E+03  0.7818608E-02  0.1232429E+00
         -4   -1    0    0    0  501 -0.00000000000E+00  0.00000000000E+00  0.20953612676E+02  0.20992064790E+02  0.12700000000E+01 0.  1.
          4   -1    0    0  502    0  0.00000000000E+00 -0.00000000000E+00 -0.27471311333E+03  0.27471604893E+03  0.12700000000E+01 0.  1.
         25    2    1    2    0    0  0.44988737502E+01  0.20097160717E+02 -0.23853158082E+03  0.27009512333E+03  0.12501969791E+03 0.  0.
    9000005    1    3    3    0    0 -0.62442545406E+01 -0.46210057382E+02 -0.16044892793E+03  0.16709045033E+03  0.10000000000E+01 0.  0.
    9000005    1    3    3    0    0  0.10743128291E+02  0.66307218099E+02 -0.78082652891E+02  0.10300467300E+03  0.10000000000E+01 0.  0.
         21    1    1    2  502  501 -0.44988737502E+01 -0.20097160717E+02 -0.15227919840E+02  0.25612990387E+02  0.00000000000E+00 0.  1.
<mgrwt>
<rscale>  1 0.12670462E+03</rscale>
<asrwt>0</asrwt>
<pdfrwt beam="2">  1        4 0.42266737E-01 0.12670462E+03</pdfrwt>
<pdfrwt beam="1">  1       -4 0.32268166E-02 0.12670462E+03</pdfrwt>
<totfact> 0.42201803E+03</totfact>
</mgrwt>
</event>
<event>
 6    4  0.2220150E-003  0.1277568E+03  0.7818608E-02  0.1230823E+00
         -4   -1    0    0    0  501 -0.00000000000E+00  0.00000000000E+00  0.30079157169E+01  0.32650355220E+01  0.12700000000E+01 0. -1.
          4   -1    0    0  502    0  0.00000000000E+00 -0.00000000000E+00 -0.21820403415E+04  0.21820407111E+04  0.12700000000E+01 0. -1.
         25    2    1    2    0    0  0.19261608560E+01  0.26333143116E+02 -0.20250525931E+04  0.20290785614E+04  0.12499863608E+03 0.  0.
    9000005    1    3    3    0    0  0.39751589395E+02 -0.22818338774E+02 -0.36507268047E+03  0.36794011397E+03  0.10000000000E+01 0.  0.
    9000005    1    3    3    0    0 -0.37825428539E+02  0.49151481890E+02 -0.16599799127E+04  0.16611384475E+04  0.10000000000E+01 0.  0.
         21    1    1    2  502  501 -0.19261608560E+01 -0.26333143116E+02 -0.15397983263E+03  0.15622718514E+03  0.00000000000E+00 0.  1.
<mgrwt>
<rscale>  1 0.12775681E+03</rscale>
<asrwt>0</asrwt>
<pdfrwt beam="2">  1        4 0.33571711E+00 0.12775681E+03</pdfrwt>
<pdfrwt beam="1">  1       -4 0.48256488E-03 0.12775681E+03</pdfrwt>
<totfact> 0.33709777E+02</totfact>
</mgrwt>
</event>
<event>
 6    4  0.2220150E-003  0.1310435E+03  0.7818608E-02  0.1225916E+00
         -4   -1    0    0    0  501 -0.00000000000E+00  0.00000000000E+00  0.54045852890E+02  0.54060772419E+02  0.12700000000E+01 0. -1.
          4   -1    0    0  502    0  0.00000000000E+00 -0.00000000000E+00 -0.18428405936E+03  0.18428843543E+03  0.12700000000E+01 0. -1.
         25    2    1    2    0    0  0.52446041193E+01  0.38957229857E+02 -0.14583276636E+03  0.19606017938E+03  0.12500890594E+03 0.  0.
    9000005    1    3    3    0    0 -0.44460054328E+02 -0.19484186198E+02 -0.86012396883E+02  0.98769744154E+02  0.10000000000E+01 0.  0.
    9000005    1    3    3    0    0  0.49704658447E+02  0.58441416055E+02 -0.59820369478E+02  0.97290435226E+02  0.10000000000E+01 0.  0.
         21    1    1    2  502  501 -0.52446041193E+01 -0.38957229857E+02  0.15594559895E+02  0.42289028468E+02  0.00000000000E+00 0. -1.
<mgrwt>
<rscale>  1 0.13104350E+03</rscale>
<asrwt>0</asrwt>
<pdfrwt beam="2">  1        4 0.28352878E-01 0.13104350E+03</pdfrwt>
<pdfrwt beam="1">  1       -4 0.83162310E-02 0.13104350E+03</pdfrwt>
<totfact> 0.19972029E+03</totfact>
</mgrwt>
</event>
<event>
 6    4  0.2220150E-003  0.1269325E+03  0.7818608E-02  0.1232080E+00
          4   -1    0    0  502    0  0.00000000000E+00  0.00000000000E+00  0.17778820961E+02  0.17824123394E+02  0.12700000000E+01 0. -1.
         -4   -1    0    0    0  501 -0.00000000000E+00 -0.00000000000E+00 -0.35413154206E+03  0.35413381931E+03  0.12700000000E+01 0. -1.
         25    2    1    2    0    0  0.17988734159E+02  0.12782825709E+02 -0.22405232257E+03  0.25750981166E+03  0.12499945865E+03 0.  0.
    9000005    1    3    3    0    0  0.40096234086E+02 -0.31687753376E+01 -0.96444971968E+01  0.41373487298E+02  0.10000000000E+01 0.  0.
    9000005    1    3    3    0    0 -0.22107499926E+02  0.15951601046E+02 -0.21440782537E+03  0.21613632436E+03  0.10000000000E+01 0.  0.
         21    1    1    2  502  501 -0.17988734159E+02 -0.12782825709E+02 -0.11230039853E+03  0.11444813104E+03  0.00000000000E+00 0.  1.
<mgrwt>
<rscale>  1 0.12693250E+03</rscale>
<asrwt>0</asrwt>
<pdfrwt beam="1">  1        4 0.27388635E-02 0.12693250E+03</pdfrwt>
<pdfrwt beam="2">  1       -4 0.54485430E-01 0.12693250E+03</pdfrwt>
<totfact> 0.32655836E+03</totfact>
</mgrwt>
</event>
<event>
 6    4  0.2220150E-003  0.1269663E+03  0.7818608E-02  0.1232028E+00
         -4   -1    0    0    0  501 -0.00000000000E+00  0.00000000000E+00  0.19623652363E+03  0.19624063317E+03  0.12700000000E+01 0. -1.
          4   -1    0    0  502    0  0.00000000000E+00 -0.00000000000E+00 -0.29012709734E+02  0.29040492870E+02  0.12700000000E+01 0. -1.
         25    2    1    2    0    0  0.67987643746E+01  0.21191879541E+02  0.12867969904E+03  0.18077306221E+03  0.12500046448E+03 0.  0.
    9000005    1    3    3    0    0 -0.57851747853E+00  0.70235249405E+02  0.10365109166E+03  0.12521131636E+03  0.10000000000E+01 0.  0.
    9000005    1    3    3    0    0  0.73772818531E+01 -0.49043369864E+02  0.25028607379E+02  0.55561745856E+02  0.10000000000E+01 0.  0.
         21    1    1    2  502  501 -0.67987643746E+01 -0.21191879541E+02  0.38544114857E+02  0.44508063827E+02  0.00000000000E+00 0. -1.
<mgrwt>
<rscale>  1 0.12696628E+03</rscale>
<asrwt>0</asrwt>
<pdfrwt beam="2">  1        4 0.44659472E-02 0.12696628E+03</pdfrwt>
<pdfrwt beam="1">  1       -4 0.30192687E-01 0.12696628E+03</pdfrwt>
<totfact> 0.48390132E+03</totfact>
</mgrwt>
</event>
<event>
 6    4  0.2220150E-003  0.1271670E+03  0.7818608E-02  0.1231721E+00
         -4   -1    0    0    0  501 -0.00000000000E+00  0.00000000000E+00  0.10466077480E+04  0.10466085185E+04  0.12700000000E+01 0.  1.
          4   -1    0    0  502    0  0.00000000000E+00 -0.00000000000E+00 -0.55957558673E+01  0.57380644582E+01  0.12700000000E+01 0.  1.
         25    2    1    2    0    0 -0.13685051586E+02  0.18958993393E+02  0.78099426424E+03  0.79127965118E+03  0.12499888613E+03 0.  0.
    9000005    1    3    3    0    0  0.14470067845E+02 -0.43651042206E+02  0.49616369186E+03  0.49829128577E+03  0.10000000000E+01 0.  0.
    9000005    1    3    3    0    0 -0.28155119431E+02  0.62610035599E+02  0.28483057238E+03  0.29298836542E+03  0.10000000000E+01 0.  0.
         21    1    1    2  502  501  0.13685051586E+02 -0.18958993393E+02  0.26001772790E+03  0.26106693182E+03  0.00000000000E+00 0.  1.
<mgrwt>
<rscale>  1 0.12716700E+03</rscale>
<asrwt>0</asrwt>
<pdfrwt beam="2">  1        4 0.87189178E-03 0.12716700E+03</pdfrwt>
<pdfrwt beam="1">  1       -4 0.16102755E+00 0.12716700E+03</pdfrwt>
<totfact> 0.15616003E+03</totfact>
</mgrwt>
</event>
<event>
 6    4  0.2220150E-003  0.1288449E+03  0.7818608E-02  0.1229180E+00
          4   -1    0    0  502    0  0.00000000000E+00  0.00000000000E+00  0.19823836064E+02  0.19864475233E+02  0.12700000000E+01 0. -1.
         -4   -1    0    0    0  501 -0.00000000000E+00 -0.00000000000E+00 -0.32946143308E+03  0.32946388085E+03  0.12700000000E+01 0. -1.
         25    2    1    2    0    0  0.27068253907E+02 -0.15633717890E+02 -0.22763039003E+03  0.26156569032E+03  0.12499564946E+03 0.  0.
    9000005    1    3    3    0    0 -0.48185733100E+02  0.17512661745E+01 -0.11782829173E+03  0.12731629173E+03  0.10000000000E+01 0.  0.
    9000005    1    3    3    0    0  0.75253987007E+02 -0.17384984064E+02 -0.10980209830E+03  0.13424939859E+03  0.10000000000E+01 0.  0.
         21    1    1    2  502  501 -0.27068253907E+02  0.15633717890E+02 -0.82007206984E+02  0.87762665763E+02  0.00000000000E+00 0. -1.
<mgrwt>
<rscale>  1 0.12884493E+03</rscale>
<asrwt>0</asrwt>
<pdfrwt beam="1">  1        4 0.30531356E-02 0.12884493E+03</pdfrwt>
<pdfrwt beam="2">  1       -4 0.50689685E-01 0.12884493E+03</pdfrwt>
<totfact> 0.32075372E+03</totfact>
</mgrwt>
</event>
<event>
 6    4  0.2220150E-003  0.1328140E+03  0.7818608E-02  0.1223339E+00
         -4   -1    0    0    0  501 -0.00000000000E+00  0.00000000000E+00  0.53618977376E+03  0.53619127780E+03  0.12700000000E+01 0. -1.
          4   -1    0    0  502    0  0.00000000000E+00 -0.00000000000E+00 -0.16050803981E+02  0.16100969177E+02  0.12700000000E+01 0. -1.
         25    2    1    2    0    0  0.36559966876E+02  0.26077786742E+02  0.30739171438E+03  0.33485702255E+03  0.12499150908E+03 0.  0.
    9000005    1    3    3    0    0 -0.11085161614E+02 -0.32671222045E+02  0.20313962784E+03  0.20605095961E+03  0.10000000000E+01 0.  0.
    9000005    1    3    3    0    0  0.47645128490E+02  0.58749008787E+02  0.10425208654E+03  0.12880606294E+03  0.10000000000E+01 0.  0.
         21    1    1    2  502  501 -0.36559966876E+02 -0.26077786742E+02  0.21274725540E+03  0.21743522442E+03  0.00000000000E+00 0. -1.
<mgrwt>
<rscale>  1 0.13281400E+03</rscale>
<asrwt>0</asrwt>
<pdfrwt beam="2">  1        4 0.24733291E-02 0.13281400E+03</pdfrwt>
<pdfrwt beam="1">  1       -4 0.82494705E-01 0.13281400E+03</pdfrwt>
<totfact> 0.15918010E+03</totfact>
</mgrwt>
</event>
<event>
 6    4  0.2220150E-003  0.1292541E+03  0.7818608E-02  0.1228567E+00
          4   -1    0    0  502    0  0.00000000000E+00  0.00000000000E+00  0.18695138526E+03  0.18695569889E+03  0.12700000000E+01 0.  1.
         -4   -1    0    0    0  501 -0.00000000000E+00 -0.00000000000E+00 -0.48672157099E+02  0.48688723301E+02  0.12700000000E+01 0.  1.
         25    2    1    2    0    0  0.19387087845E+02 -0.26562357983E+02  0.15242164959E+03  0.19984740946E+03  0.12500083907E+03 0.  0.
    9000005    1    3    3    0    0 -0.46149149299E+02  0.17011321905E+02  0.73032421924E+02  0.88056025950E+02  0.10000000000E+01 0.  0.
    9000005    1    3    3    0    0  0.65536237144E+02 -0.43573679888E+02  0.79389227665E+02  0.11179138351E+03  0.10000000000E+01 0.  0.
         21    1    1    2  502  501 -0.19387087845E+02  0.26562357983E+02 -0.14142421432E+02  0.35797012734E+02  0.00000000000E+00 0.  1.
<mgrwt>
<rscale>  1 0.12925412E+03</rscale>
<asrwt>0</asrwt>
<pdfrwt beam="1">  1        4 0.28763358E-01 0.12925412E+03</pdfrwt>
<pdfrwt beam="2">  1       -4 0.74896301E-02 0.12925412E+03</pdfrwt>
<totfact> 0.23040882E+03</totfact>
</mgrwt>
</event>
<event>
 6    4  0.2220150E-003  0.1275100E+03  0.7818608E-02  0.1231198E+00
          4   -1    0    0  502    0  0.00000000000E+00  0.00000000000E+00  0.33227608073E+03  0.33227850776E+03  0.12700000000E+01 0. -1.
         -4   -1    0    0    0  501 -0.00000000000E+00 -0.00000000000E+00 -0.28210172945E+02  0.28238745680E+02  0.12700000000E+01 0. -1.
         25    2    1    2    0    0 -0.17568622902E+02  0.18077289740E+02  0.30949371949E+03  0.33473148111E+03  0.12499342833E+03 0.  0.
    9000005    1    3    3    0    0 -0.31514322266E+02  0.40974110412E+02  0.30266347131E+03  0.30704756488E+03  0.10000000000E+01 0.  0.
    9000005    1    3    3    0    0  0.13945699364E+02 -0.22896820671E+02  0.68302481798E+01  0.27683916229E+02  0.10000000000E+01 0.  0.
         21    1    1    2  502  501  0.17568622902E+02 -0.18077289740E+02 -0.54278117109E+01  0.25785772336E+02  0.00000000000E+00 0. -1.
<mgrwt>
<rscale>  1 0.12751001E+03</rscale>
<asrwt>0</asrwt>
<pdfrwt beam="1">  1        4 0.51121783E-01 0.12751001E+03</pdfrwt>
<pdfrwt beam="2">  1       -4 0.43424111E-02 0.12751001E+03</pdfrwt>
<totfact> 0.18030088E+03</totfact>
</mgrwt>
</event>
<event>
 6    4  0.2220150E-003  0.1281412E+03  0.7818608E-02  0.1230240E+00
         -4   -1    0    0    0  501 -0.00000000000E+00  0.00000000000E+00  0.29489683510E+02  0.29517017694E+02  0.12700000000E+01 0.  1.
          4   -1    0    0  502    0  0.00000000000E+00 -0.00000000000E+00 -0.20708195318E+03  0.20708584749E+03  0.12700000000E+01 0.  1.
         25    2    1    2    0    0 -0.11382774552E+02 -0.25794932758E+02 -0.14499110841E+03  0.19350087187E+03  0.12500087913E+03 0.  0.
    9000005    1    3    3    0    0  0.25186238796E+02 -0.25783287531E+02  0.73757284998E+01  0.36803884462E+02  0.10000000000E+01 0.  0.
    9000005    1    3    3    0    0 -0.36569013348E+02 -0.11645227214E-01 -0.15236683691E+03  0.15669698741E+03  0.10000000000E+01 0.  0.
         21    1    1    2  502  501  0.11382774552E+02  0.25794932758E+02 -0.32601161256E+02  0.43101993315E+02  0.00000000000E+00 0.  1.
<mgrwt>
<rscale>  1 0.12814120E+03</rscale>
<asrwt>0</asrwt>
<pdfrwt beam="2">  1        4 0.31861163E-01 0.12814120E+03</pdfrwt>
<pdfrwt beam="1">  1       -4 0.45392767E-02 0.12814120E+03</pdfrwt>
<totfact> 0.42675661E+03</totfact>
</mgrwt>
</event>
<event>
 6    4  0.2220150E-003  0.1269784E+03  0.7818608E-02  0.1232009E+00
         -4   -1    0    0    0  501 -0.00000000000E+00  0.00000000000E+00  0.32127367266E+03  0.32127618282E+03  0.12700000000E+01 0.  1.
          4   -1    0    0  502    0  0.00000000000E+00 -0.00000000000E+00 -0.17368462984E+02  0.17414832943E+02  0.12700000000E+01 0.  1.
         25    2    1    2    0    0  0.99416485291E+01  0.20013798780E+02  0.25215443142E+03  0.28232141786E+03  0.12499654868E+03 0.  0.
    9000005    1    3    3    0    0  0.21144018753E+01  0.34471752085E+02  0.53438320722E+01  0.34961821009E+02  0.10000000000E+01 0.  0.
    9000005    1    3    3    0    0  0.78272466538E+01 -0.14457953305E+02  0.24681059935E+03  0.24735959685E+03  0.10000000000E+01 0.  0.
         21    1    1    2  502  501 -0.99416485291E+01 -0.20013798780E+02  0.51750778257E+02  0.56369597899E+02  0.00000000000E+00 0.  1.
<mgrwt>
<rscale>  1 0.12697845E+03</rscale>
<asrwt>0</asrwt>
<pdfrwt beam="2">  1        4 0.26758313E-02 0.12697845E+03</pdfrwt>
<pdfrwt beam="1">  1       -4 0.49430477E-01 0.12697845E+03</pdfrwt>
<totfact> 0.41331587E+03</totfact>
</mgrwt>
</event>
<event>
 6    4  0.2220150E-003  0.1267153E+03  0.7818608E-02  0.1232413E+00
          4   -1    0    0  502    0  0.00000000000E+00  0.00000000000E+00  0.55369061926E+01  0.56806892351E+01  0.12700000000E+01 0. -1.
         -4   -1    0    0    0  501 -0.00000000000E+00 -0.00000000000E+00 -0.97186495670E+03  0.97186578649E+03  0.12700000000E+01 0. -1.
         25    2    1    2    0    0 -0.28874211572E+01 -0.20593723286E+02 -0.81338086491E+03  0.82319207760E+03  0.12499730631E+03 0.  0.
    9000005    1    3    3    0    0  0.37191856253E+02  0.23287671719E+02 -0.60244292143E+03  0.60403975317E+03  0.10000000000E+01 0.  0.
    9000005    1    3    3    0    0 -0.40079277410E+02 -0.43881395005E+02 -0.21093794348E+03  0.21915232443E+03  0.10000000000E+01 0.  0.
         21    1    1    2  502  501  0.28874211572E+01  0.20593723286E+02 -0.15294718560E+03  0.15435439813E+03  0.00000000000E+00 0. -1.
<mgrwt>
<rscale>  1 0.12671529E+03</rscale>
<asrwt>0</asrwt>
<pdfrwt beam="1">  1        4 0.86295656E-03 0.12671529E+03</pdfrwt>
<pdfrwt beam="2">  1       -4 0.14952868E+00 0.12671529E+03</pdfrwt>
<totfact> 0.19170904E+03</totfact>
</mgrwt>
</event>
<event>
 6    4  0.2220150E-003  0.1308064E+03  0.7818608E-02  0.1226264E+00
         -4   -1    0    0    0  501 -0.00000000000E+00  0.00000000000E+00  0.65021358556E+02  0.65033760221E+02  0.12700000000E+01 0. -1.
          4   -1    0    0  502    0  0.00000000000E+00 -0.00000000000E+00 -0.11624205415E+03  0.11624899162E+03  0.12700000000E+01 0. -1.
         25    2    1    2    0    0 -0.36691894436E+02  0.11791047182E+02 -0.56303175334E+02  0.14240916812E+03  0.12499999881E+03 0.  0.
    9000005    1    3    3    0    0 -0.66470741285E+02  0.20316669609E+01  0.11695975343E+02  0.67529867146E+02  0.10000000000E+01 0.  0.
    9000005    1    3    3    0    0  0.29778846849E+02  0.97593802209E+01 -0.67999150677E+02  0.74879300977E+02  0.10000000000E+01 0.  0.
         21    1    1    2  502  501  0.36691894436E+02 -0.11791047182E+02  0.50824797396E+01  0.38873583720E+02  0.00000000000E+00 0.  1.
<mgrwt>
<rscale>  1 0.13080644E+03</rscale>
<asrwt>0</asrwt>
<pdfrwt beam="2">  1        4 0.17884881E-01 0.13080644E+03</pdfrwt>
<pdfrwt beam="1">  1       -4 0.10004774E-01 0.13080644E+03</pdfrwt>
<totfact> 0.33949480E+03</totfact>
</mgrwt>
</event>
<event>
 6    4  0.2220150E-003  0.1286528E+03  0.7818608E-02  0.1229469E+00
          4   -1    0    0  502    0  0.00000000000E+00  0.00000000000E+00  0.27607477316E+03  0.27607769427E+03  0.12700000000E+01 0. -1.
         -4   -1    0    0    0  501 -0.00000000000E+00 -0.00000000000E+00 -0.33161958292E+02  0.33186267910E+02  0.12700000000E+01 0. -1.
         25    2    1    2    0    0  0.97710725376E+01 -0.28828195678E+02  0.24705364903E+03  0.27854450202E+03  0.12499998154E+03 0.  0.
    9000005    1    3    3    0    0  0.42288627024E+02  0.21055966547E+02  0.36433845537E+02  0.59666630569E+02  0.10000000000E+01 0.  0.
    9000005    1    3    3    0    0 -0.32517554487E+02 -0.49884162225E+02  0.21061980349E+03  0.21887787146E+03  0.10000000000E+01 0.  0.
         21    1    1    2  502  501 -0.97710725376E+01  0.28828195678E+02 -0.41408341642E+01  0.30719460154E+02  0.00000000000E+00 0. -1.
<mgrwt>
<rscale>  1 0.12865277E+03</rscale>
<asrwt>0</asrwt>
<pdfrwt beam="1">  1        4 0.42475137E-01 0.12865277E+03</pdfrwt>
<pdfrwt beam="2">  1       -4 0.51039344E-02 0.12865277E+03</pdfrwt>
<totfact> 0.20253412E+03</totfact>
</mgrwt>
</event>
<event>
 6    4  0.2220150E-003  0.1276834E+03  0.7818608E-02  0.1230934E+00
         -4   -1    0    0    0  501 -0.00000000000E+00  0.00000000000E+00  0.54937677953E+03  0.54937824747E+03  0.12700000000E+01 0.  1.
          4   -1    0    0  502    0  0.00000000000E+00 -0.00000000000E+00 -0.10754240075E+02  0.10828969462E+02  0.12700000000E+01 0.  1.
         25    2    1    2    0    0 -0.23119686459E+02  0.12005187808E+02  0.43422292315E+03  0.45260645336E+03  0.12499764075E+03 0.  0.
    9000005    1    3    3    0    0 -0.98446278473E+01  0.18775263060E+02  0.43691532262E+03  0.43743048173E+03  0.10000000000E+01 0.  0.
    9000005    1    3    3    0    0 -0.13275058612E+02 -0.67700752521E+01 -0.26923994708E+01  0.15175971632E+02  0.10000000000E+01 0.  0.
         21    1    1    2  502  501  0.23119686459E+02 -0.12005187808E+02  0.10439961631E+03  0.10760076357E+03  0.00000000000E+00 0.  1.
<mgrwt>
<rscale>  1 0.12768342E+03</rscale>
<asrwt>0</asrwt>
<pdfrwt beam="2">  1        4 0.16603596E-02 0.12768342E+03</pdfrwt>
<pdfrwt beam="1">  1       -4 0.84525375E-01 0.12768342E+03</pdfrwt>
<totfact> 0.27605206E+03</totfact>
</mgrwt>
</event>
<event>
 6    4  0.2220150E-003  0.1543995E+03  0.7818608E-02  0.1195169E+00
          4   -1    0    0  502    0  0.00000000000E+00  0.00000000000E+00  0.85542983321E+02  0.85552410225E+02  0.12700000000E+01 0.  1.
         -4   -1    0    0    0  501 -0.00000000000E+00 -0.00000000000E+00 -0.17787358535E+03  0.17787811913E+03  0.12700000000E+01 0.  1.
         25    2    1    2    0    0 -0.89471043881E+02 -0.14442010525E+02 -0.43143076347E+02  0.16031383796E+03  0.12500224896E+03 0.  0.
    9000005    1    3    3    0    0 -0.59813673678E+02  0.17866363046E+02 -0.81069786523E+02  0.10232395992E+03  0.10000000000E+01 0.  0.
    9000005    1    3    3    0    0 -0.29657370203E+02 -0.32308373571E+02  0.37926710176E+02  0.57989878039E+02  0.10000000000E+01 0.  0.
         21    1    1    2  502  501  0.89471043881E+02  0.14442010525E+02 -0.49187525681E+02  0.10311669139E+03  0.00000000000E+00 0.  1.
<mgrwt>
<rscale>  1 0.15439949E+03</rscale>
<asrwt>0</asrwt>
<pdfrwt beam="1">  1        4 0.13161533E-01 0.15439949E+03</pdfrwt>
<pdfrwt beam="2">  1       -4 0.27366241E-01 0.15439949E+03</pdfrwt>
<totfact> 0.10157081E+03</totfact>
</mgrwt>
</event>
<event>
 6    4  0.2220150E-003  0.1272589E+03  0.7818608E-02  0.1231581E+00
         -4   -1    0    0    0  501 -0.00000000000E+00  0.00000000000E+00  0.37868572129E+02  0.37889862168E+02  0.12700000000E+01 0.  1.
          4   -1    0    0  502    0  0.00000000000E+00 -0.00000000000E+00 -0.15119754311E+03  0.15120287676E+03  0.12700000000E+01 0.  1.
         25    2    1    2    0    0 -0.50175657498E+01  0.23358898504E+02 -0.91594240408E+02  0.15679393681E+03  0.12499607850E+03 0.  0.
    9000005    1    3    3    0    0 -0.12326119550E+02 -0.45246580671E+02 -0.66801203474E+01  0.47379429012E+02  0.10000000000E+01 0.  0.
    9000005    1    3    3    0    0  0.73085538004E+01  0.68605479175E+02 -0.84914120061E+02  0.10941450780E+03  0.10000000000E+01 0.  0.
         21    1    1    2  502  501  0.50175657498E+01 -0.23358898504E+02 -0.21734730569E+02  0.32298802118E+02  0.00000000000E+00 0.  1.
<mgrwt>
<rscale>  1 0.12725892E+03</rscale>
<asrwt>0</asrwt>
<pdfrwt beam="2">  1        4 0.23263208E-01 0.12725892E+03</pdfrwt>
<pdfrwt beam="1">  1       -4 0.58279822E-02 0.12725892E+03</pdfrwt>
<totfact> 0.51228018E+03</totfact>
</mgrwt>
</event>
<event>
 6    4  0.2220150E-003  0.1525467E+03  0.7818608E-02  0.1197378E+00
         -4   -1    0    0    0  501 -0.00000000000E+00  0.00000000000E+00  0.11732776051E+02  0.11801310684E+02  0.12700000000E+01 0. -1.
          4   -1    0    0  502    0  0.00000000000E+00 -0.00000000000E+00 -0.23824663927E+04  0.23824667312E+04  0.12700000000E+01 0. -1.
         25    2    1    2    0    0 -0.87415321374E+02 -0.21936819050E+01 -0.21695059815E+04  0.21748624545E+04  0.12499696512E+03 0.  0.
    9000005    1    3    3    0    0 -0.11439721431E+03 -0.91623014166E+01 -0.13458497804E+04  0.13507343565E+04  0.10000000000E+01 0.  0.
    9000005    1    3    3    0    0  0.26981892933E+02  0.69686195116E+01 -0.82365620116E+03  0.82412809800E+03  0.10000000000E+01 0.  0.
         21    1    1    2  502  501  0.87415321374E+02  0.21936819050E+01 -0.20122763508E+03  0.21940558737E+03  0.00000000000E+00 0. -1.
<mgrwt>
<rscale>  1 0.15254669E+03</rscale>
<asrwt>0</asrwt>
<pdfrwt beam="2">  1        4 0.36653821E+00 0.15254669E+03</pdfrwt>
<pdfrwt beam="1">  1       -4 0.18103423E-02 0.15254669E+03</pdfrwt>
<totfact> 0.30418804E+01</totfact>
</mgrwt>
</event>
<event>
 6    4  0.2220150E-003  0.1326800E+03  0.7818608E-02  0.1223532E+00
          4   -1    0    0  502    0  0.00000000000E+00  0.00000000000E+00  0.62778957932E+03  0.62779086390E+03  0.12700000000E+01 0.  1.
         -4   -1    0    0    0  501 -0.00000000000E+00 -0.00000000000E+00 -0.16124466809E+02  0.16174403540E+02  0.12700000000E+01 0.  1.
         25    2    1    2    0    0 -0.36350218772E+02  0.25654392443E+02  0.56127673091E+03  0.57674566274E+03  0.12499801826E+03 0.  0.
    9000005    1    3    3    0    0  0.27249298710E+02 -0.31761196552E+02  0.11655658247E+03  0.12384560874E+03  0.10000000000E+01 0.  0.
    9000005    1    3    3    0    0 -0.63599517482E+02  0.57415588994E+02  0.44472014845E+03  0.45290005400E+03  0.10000000000E+01 0.  0.
         21    1    1    2  502  501  0.36350218772E+02 -0.25654392443E+02  0.50388381593E+02  0.67219604699E+02  0.00000000000E+00 0. -1.
<mgrwt>
<rscale>  1 0.13268003E+03</rscale>
<asrwt>0</asrwt>
<pdfrwt beam="1">  1        4 0.96586929E-01 0.13268003E+03</pdfrwt>
<pdfrwt beam="2">  1       -4 0.24846279E-02 0.13268003E+03</pdfrwt>
<totfact> 0.11072472E+03</totfact>
</mgrwt>
</event>
<event>
 6    4  0.2220150E-003  0.1631420E+03  0.7818608E-02  0.1185194E+00
          4   -1    0    0  502    0  0.00000000000E+00  0.00000000000E+00  0.16752089156E+04  0.16752093970E+04  0.12700000000E+01 0.  1.
         -4   -1    0    0    0  501 -0.00000000000E+00 -0.00000000000E+00 -0.10922970717E+02  0.10996553518E+02  0.12700000000E+01 0.  1.
         25    2    1    2    0    0  0.50453788928E+01 -0.10471443793E+03  0.11318641932E+04  0.11435610473E+04  0.12499899050E+03 0.  0.
    9000005    1    3    3    0    0  0.49761014625E+02 -0.49814951241E+02  0.27852684668E+03  0.28729060595E+03  0.10000000000E+01 0.  0.
    9000005    1    3    3    0    0 -0.44715635733E+02 -0.54899486689E+02  0.85333734654E+03  0.85627044134E+03  0.10000000000E+01 0.  0.
         21    1    1    2  502  501 -0.50453788928E+01  0.10471443793E+03  0.53242175168E+03  0.54264490325E+03  0.00000000000E+00 0.  1.
<mgrwt>
<rscale>  1 0.16314201E+03</rscale>
<asrwt>0</asrwt>
<pdfrwt beam="1">  1        4 0.25773013E+00 0.16314201E+03</pdfrwt>
<pdfrwt beam="2">  1       -4 0.16861544E-02 0.16314201E+03</pdfrwt>
<totfact> 0.15059801E+02</totfact>
</mgrwt>
</event>
<event>
 6    4  0.2220150E-003  0.1277002E+03  0.7818608E-02  0.1230909E+00
          4   -1    0    0  502    0  0.00000000000E+00  0.00000000000E+00  0.13365178101E+03  0.13365781484E+03  0.12700000000E+01 0. -1.
         -4   -1    0    0    0  501 -0.00000000000E+00 -0.00000000000E+00 -0.52337927534E+02  0.52353333786E+02  0.12700000000E+01 0. -1.
         25    2    1    2    0    0  0.25225963047E+02  0.68350206141E+01  0.34308688348E+02  0.13222869547E+03  0.12499710033E+03 0.  0.
    9000005    1    3    3    0    0 -0.40179900541E+02 -0.21140433384E+02 -0.12456440655E+02  0.47090394402E+02  0.10000000000E+01 0.  0.
    9000005    1    3    3    0    0  0.65405863588E+02  0.27975453998E+02  0.46765129002E+02  0.85138301068E+02  0.10000000000E+01 0.  0.
         21    1    1    2  502  501 -0.25225963047E+02 -0.68350206141E+01  0.47005165128E+02  0.53782453153E+02  0.00000000000E+00 0. -1.
<mgrwt>
<rscale>  1 0.12770020E+03</rscale>
<asrwt>0</asrwt>
<pdfrwt beam="1">  1        4 0.20563462E-01 0.12770020E+03</pdfrwt>
<pdfrwt beam="2">  1       -4 0.80536381E-02 0.12770020E+03</pdfrwt>
<totfact> 0.37767770E+03</totfact>
</mgrwt>
</event>
<event>
 6    4  0.2220150E-003  0.1298711E+03  0.7818608E-02  0.1227647E+00
          4   -1    0    0  502    0  0.00000000000E+00  0.00000000000E+00  0.42238927823E+03  0.42239118749E+03  0.12700000000E+01 0.  1.
         -4   -1    0    0    0  501 -0.00000000000E+00 -0.00000000000E+00 -0.16119192978E+02  0.16169145997E+02  0.12700000000E+01 0.  1.
         25    2    1    2    0    0 -0.18242937016E+02  0.30143956995E+02  0.32434640184E+03  0.34938100405E+03  0.12500013883E+03 0.  0.
    9000005    1    3    3    0    0  0.51221867753E+02  0.11933443413E+02  0.89665556062E+02  0.10395671576E+03  0.10000000000E+01 0.  0.
    9000005    1    3    3    0    0 -0.69464804768E+02  0.18210513582E+02  0.23468084578E+03  0.24542428829E+03  0.10000000000E+01 0.  0.
         21    1    1    2  502  501  0.18242937016E+02 -0.30143956995E+02  0.81923683415E+02  0.89179329436E+02  0.00000000000E+00 0.  1.
<mgrwt>
<rscale>  1 0.12987108E+03</rscale>
<asrwt>0</asrwt>
<pdfrwt beam="1">  1        4 0.64986961E-01 0.12987108E+03</pdfrwt>
<pdfrwt beam="2">  1       -4 0.24838650E-02 0.12987108E+03</pdfrwt>
<totfact> 0.26424909E+03</totfact>
</mgrwt>
</event>
<event>
 6    4  0.2220150E-003  0.1298375E+03  0.7818608E-02  0.1227697E+00
          4   -1    0    0  502    0  0.00000000000E+00  0.00000000000E+00  0.25564257037E+02  0.25595783595E+02  0.12700000000E+01 0. -1.
         -4   -1    0    0    0  501 -0.00000000000E+00 -0.00000000000E+00 -0.32168509304E+03  0.32168759999E+03  0.12700000000E+01 0. -1.
         25    2    1    2    0    0  0.51215806924E+01 -0.34754699888E+02 -0.15668135217E+03  0.20348668888E+03  0.12499466662E+03 0.  0.
    9000005    1    3    3    0    0  0.60639399040E+02 -0.41721672676E+02 -0.82561232269E+02  0.11061280107E+03  0.10000000000E+01 0.  0.
    9000005    1    3    3    0    0 -0.55517818348E+02  0.69669727874E+01 -0.74120119897E+02  0.92873887813E+02  0.10000000000E+01 0.  0.
         21    1    1    2  502  501 -0.51215806924E+01  0.34754699888E+02 -0.13943948384E+03  0.14379669470E+03  0.00000000000E+00 0. -1.
<mgrwt>
<rscale>  1 0.12983754E+03</rscale>
<asrwt>0</asrwt>
<pdfrwt beam="1">  1        4 0.39355808E-02 0.12983754E+03</pdfrwt>
<pdfrwt beam="2">  1       -4 0.49492629E-01 0.12983754E+03</pdfrwt>
<totfact> 0.22613348E+03</totfact>
</mgrwt>
</event>
<event>
 6    4  0.2220150E-003  0.1282229E+03  0.7818608E-02  0.1230117E+00
         -4   -1    0    0    0  501 -0.00000000000E+00  0.00000000000E+00  0.37852409251E+02  0.37873708375E+02  0.12700000000E+01 0.  1.
          4   -1    0    0  502    0  0.00000000000E+00 -0.00000000000E+00 -0.16784262268E+03  0.16784742741E+03  0.12700000000E+01 0.  1.
         25    2    1    2    0    0 -0.72100141167E+01  0.27645058598E+02 -0.11953330910E+03  0.17529778264E+03  0.12499946819E+03 0.  0.
    9000005    1    3    3    0    0 -0.20089387522E+02 -0.36895616486E+02 -0.38476824341E+01  0.42198041032E+02  0.10000000000E+01 0.  0.
    9000005    1    3    3    0    0  0.12879373405E+02  0.64540675083E+02 -0.11568562667E+03  0.13309974161E+03  0.10000000000E+01 0.  0.
         21    1    1    2  502  501  0.72100141167E+01 -0.27645058598E+02 -0.10456904332E+02  0.30423353146E+02  0.00000000000E+00 0.  1.
<mgrwt>
<rscale>  1 0.12822286E+03</rscale>
<asrwt>0</asrwt>
<pdfrwt beam="2">  1        4 0.25823950E-01 0.12822286E+03</pdfrwt>
<pdfrwt beam="1">  1       -4 0.58254557E-02 0.12822286E+03</pdfrwt>
<totfact> 0.42384954E+03</totfact>
</mgrwt>
</event>
<event>
 6    4  0.2220150E-003  0.1424730E+03  0.7818608E-02  0.1210040E+00
          4   -1    0    0  502    0  0.00000000000E+00  0.00000000000E+00  0.35716888057E+03  0.35717113845E+03  0.12700000000E+01 0.  1.
         -4   -1    0    0    0  501 -0.00000000000E+00 -0.00000000000E+00 -0.44040920921E+02  0.44059228495E+02  0.12700000000E+01 0.  1.
         25    2    1    2    0    0 -0.46240320839E+02  0.50364224960E+02  0.29929152666E+03  0.33147243331E+03  0.12499533468E+03 0.  0.
    9000005    1    3    3    0    0 -0.68466517805E+02  0.86576416538E+01  0.73660332936E+02  0.10094287230E+03  0.10000000000E+01 0.  0.
    9000005    1    3    3    0    0  0.22226196966E+02  0.41706583307E+02  0.22563119372E+03  0.23052956102E+03  0.10000000000E+01 0.  0.
         21    1    1    2  502  501  0.46240320839E+02 -0.50364224960E+02  0.13836432988E+02  0.69757933635E+02  0.00000000000E+00 0.  1.
<mgrwt>
<rscale>  1 0.14247300E+03</rscale>
<asrwt>0</asrwt>
<pdfrwt beam="1">  1        4 0.54950638E-01 0.14247300E+03</pdfrwt>
<pdfrwt beam="2">  1       -4 0.67771085E-02 0.14247300E+03</pdfrwt>
<totfact> 0.77529133E+02</totfact>
</mgrwt>
</event>
<event>
 6    4  0.2220150E-003  0.1489237E+03  0.7818608E-02  0.1201802E+00
          4   -1    0    0  502    0  0.00000000000E+00  0.00000000000E+00  0.41871727674E+03  0.41871920274E+03  0.12700000000E+01 0. -1.
         -4   -1    0    0    0  501 -0.00000000000E+00 -0.00000000000E+00 -0.97393894777E+02  0.97402174718E+02  0.12700000000E+01 0. -1.
         25    2    1    2    0    0  0.43494062861E+02  0.68272834080E+02  0.38521187280E+03  0.41299692527E+03  0.12500143984E+03 0.  0.
    9000005    1    3    3    0    0  0.39317325186E+01  0.94925754847E+02  0.19533170192E+03  0.21721379152E+03  0.10000000000E+01 0.  0.
    9000005    1    3    3    0    0  0.39562330343E+02 -0.26652920767E+02  0.18988017088E+03  0.19578313375E+03  0.10000000000E+01 0.  0.
         21    1    1    2  502  501 -0.43494062861E+02 -0.68272834080E+02 -0.63888490833E+02  0.10312445218E+03  0.00000000000E+00 0. -1.
<mgrwt>
<rscale>  1 0.14892372E+03</rscale>
<asrwt>0</asrwt>
<pdfrwt beam="1">  1        4 0.64418828E-01 0.14892372E+03</pdfrwt>
<pdfrwt beam="2">  1       -4 0.14984461E-01 0.14892372E+03</pdfrwt>
<totfact> 0.14636738E+02</totfact>
</mgrwt>
</event>
<event>
 6    4  0.2220150E-003  0.1267550E+03  0.7818608E-02  0.1232352E+00
         -4   -1    0    0    0  501 -0.00000000000E+00  0.00000000000E+00  0.12366845838E+02  0.12431885456E+02  0.12700000000E+01 0.  1.
          4   -1    0    0  502    0  0.00000000000E+00 -0.00000000000E+00 -0.59548566492E+03  0.59548701919E+03  0.12700000000E+01 0.  1.
         25    2    1    2    0    0  0.94310029074E+01  0.18777870232E+02 -0.56815360649E+03  0.58212142775E+03  0.12500113540E+03 0.  0.
    9000005    1    3    3    0    0 -0.43004623655E+02 -0.29394106409E+02 -0.17579436990E+03  0.18335231560E+03  0.10000000000E+01 0.  0.
    9000005    1    3    3    0    0  0.52435626563E+02  0.48171976641E+02 -0.39235923659E+03  0.39876911215E+03  0.10000000000E+01 0.  0.
         21    1    1    2  502  501 -0.94310029074E+01 -0.18777870232E+02 -0.14965212587E+02  0.25797476893E+02  0.00000000000E+00 0.  1.
<mgrwt>
<rscale>  1 0.12675502E+03</rscale>
<asrwt>0</asrwt>
<pdfrwt beam="2">  1        4 0.91618264E-01 0.12675502E+03</pdfrwt>
<pdfrwt beam="1">  1       -4 0.19076994E-02 0.12675502E+03</pdfrwt>
<totfact> 0.18589014E+03</totfact>
</mgrwt>
</event>
<event>
 6    4  0.2220150E-003  0.1273832E+03  0.7818608E-02  0.1231391E+00
          4   -1    0    0  502    0  0.00000000000E+00  0.00000000000E+00  0.14881497969E+03  0.14882039874E+03  0.12700000000E+01 0.  1.
         -4   -1    0    0    0  501 -0.00000000000E+00 -0.00000000000E+00 -0.10267167488E+03  0.10267952923E+03  0.12700000000E+01 0.  1.
         25    2    1    2    0    0  0.17245659448E+02 -0.17421749831E+02  0.11918989344E+03  0.17444972194E+03  0.12500217858E+03 0.  0.
    9000005    1    3    3    0    0  0.51755248915E+02 -0.34855906023E+02  0.12055426579E+03  0.13574929456E+03  0.10000000000E+01 0.  0.
    9000005    1    3    3    0    0 -0.34509589468E+02  0.17434156192E+02 -0.13643723435E+01  0.38700427378E+02  0.10000000000E+01 0.  0.
         21    1    1    2  502  501 -0.17245659448E+02  0.17421749831E+02 -0.73046588632E+02  0.77050206020E+02  0.00000000000E+00 0. -1.
<mgrwt>
<rscale>  1 0.12738318E+03</rscale>
<asrwt>0</asrwt>
<pdfrwt beam="1">  1        4 0.22895633E-01 0.12738318E+03</pdfrwt>
<pdfrwt beam="2">  1       -4 0.15796663E-01 0.12738318E+03</pdfrwt>
<totfact> 0.98775757E+02</totfact>
</mgrwt>
</event>
<event>
 6    4  0.2220150E-003  0.1310733E+03  0.7818608E-02  0.1225872E+00
          4   -1    0    0  502    0  0.00000000000E+00  0.00000000000E+00  0.13853926078E+02  0.13912015230E+02  0.12700000000E+01 0. -1.
         -4   -1    0    0    0  501 -0.00000000000E+00 -0.00000000000E+00 -0.52857332258E+03  0.52857484829E+03  0.12700000000E+01 0. -1.
         25    2    1    2    0    0  0.36859111321E+02 -0.14032358675E+02 -0.41677082899E+03  0.43689603506E+03  0.12499888149E+03 0.  0.
    9000005    1    3    3    0    0 -0.45960627205E+02 -0.13014716057E+02 -0.13517479578E+03  0.14337010672E+03  0.10000000000E+01 0.  0.
    9000005    1    3    3    0    0  0.82819738526E+02 -0.10176426176E+01 -0.28159603321E+03  0.29352592834E+03  0.10000000000E+01 0.  0.
         21    1    1    2  502  501 -0.36859111321E+02  0.14032358675E+02 -0.97948567507E+02  0.10559082846E+03  0.00000000000E+00 0. -1.
<mgrwt>
<rscale>  1 0.13107334E+03</rscale>
<asrwt>0</asrwt>
<pdfrwt beam="1">  1        4 0.21359594E-02 0.13107334E+03</pdfrwt>
<pdfrwt beam="2">  1       -4 0.81323543E-01 0.13107334E+03</pdfrwt>
<totfact> 0.20557025E+03</totfact>
</mgrwt>
</event>
<event>
 6    4  0.2220150E-003  0.1424758E+03  0.7818608E-02  0.1210036E+00
         -4   -1    0    0    0  501 -0.00000000000E+00  0.00000000000E+00  0.13814171701E+04  0.13814177539E+04  0.12700000000E+01 0.  1.
          4   -1    0    0  502    0  0.00000000000E+00 -0.00000000000E+00 -0.81657064880E+01  0.82638769623E+01  0.12700000000E+01 0.  1.
         25    2    1    2    0    0 -0.50278828288E+02  0.46468115482E+02  0.10145133146E+04  0.10244689450E+04  0.12494841930E+03 0.  0.
    9000005    1    3    3    0    0 -0.13960376765E+02  0.48678802148E+02  0.94173106965E+03  0.94309221471E+03  0.10000000000E+01 0.  0.
    9000005    1    3    3    0    0 -0.36318451523E+02 -0.22106866664E+01  0.72782244936E+02  0.81376730301E+02  0.10000000000E+01 0.  0.
         21    1    1    2  502  501  0.50278828288E+02 -0.46468115482E+02  0.35873814903E+03  0.36521268584E+03  0.00000000000E+00 0.  1.
<mgrwt>
<rscale>  1 0.14247580E+03</rscale>
<asrwt>0</asrwt>
<pdfrwt beam="2">  1        4 0.12638592E-02 0.14247580E+03</pdfrwt>
<pdfrwt beam="1">  1       -4 0.21253328E+00 0.14247580E+03</pdfrwt>
<totfact> 0.42339483E+02</totfact>
</mgrwt>
</event>
<event>
 6    4  0.2220150E-003  0.1276481E+03  0.7818608E-02  0.1230988E+00
         -4   -1    0    0    0  501 -0.00000000000E+00  0.00000000000E+00  0.28693727767E+03  0.28694008820E+03  0.12700000000E+01 0.  1.
          4   -1    0    0  502    0  0.00000000000E+00 -0.00000000000E+00 -0.24908513784E+02  0.24940869249E+02  0.12700000000E+01 0.  1.
         25    2    1    2    0    0 -0.24095088971E+02 -0.92860452908E+01  0.15022265780E+03  0.19713162495E+03  0.12500890645E+03 0.  0.
    9000005    1    3    3    0    0 -0.10714121468E+02 -0.48407708023E+02  0.95440965743E+01  0.50499389841E+02  0.10000000000E+01 0.  0.
    9000005    1    3    3    0    0 -0.13380967503E+02  0.39121662732E+02  0.14067856122E+03  0.14663223511E+03  0.10000000000E+01 0.  0.
         21    1    1    2  502  501  0.24095088971E+02  0.92860452908E+01  0.11180610608E+03  0.11474933249E+03  0.00000000000E+00 0. -1.
<mgrwt>
<rscale>  1 0.12764807E+03</rscale>
<asrwt>0</asrwt>
<pdfrwt beam="2">  1        4 0.38347842E-02 0.12764807E+03</pdfrwt>
<pdfrwt beam="1">  1       -4 0.44146901E-01 0.12764807E+03</pdfrwt>
<totfact> 0.29538617E+03</totfact>
</mgrwt>
</event>
<event>
 6    4  0.2220150E-003  0.1402995E+03  0.7818608E-02  0.1212927E+00
         -4   -1    0    0    0  501 -0.00000000000E+00  0.00000000000E+00  0.31597714837E+03  0.31597970060E+03  0.12700000000E+01 0.  1.
          4   -1    0    0  502    0  0.00000000000E+00 -0.00000000000E+00 -0.43617283069E+02  0.43635768382E+02  0.12700000000E+01 0.  1.
         25    2    1    2    0    0 -0.29385260147E+02 -0.56533890259E+02  0.90595655297E+02  0.16700757117E+03  0.12499752721E+03 0.  0.
    9000005    1    3    3    0    0  0.21417567670E+02  0.10720259643E+02 -0.17682728124E+02  0.29787833852E+02  0.10000000000E+01 0.  0.
    9000005    1    3    3    0    0 -0.50802827817E+02 -0.67254149902E+02  0.10827838342E+03  0.13721973732E+03  0.10000000000E+01 0.  0.
         21    1    1    2  502  501  0.29385260147E+02  0.56533890259E+02  0.18176421001E+03  0.19260789781E+03  0.00000000000E+00 0.  1.
<mgrwt>
<rscale>  1 0.14029952E+03</rscale>
<asrwt>0</asrwt>
<pdfrwt beam="2">  1        4 0.67119695E-02 0.14029952E+03</pdfrwt>
<pdfrwt beam="1">  1       -4 0.48613488E-01 0.14029952E+03</pdfrwt>
<totfact> 0.10094328E+03</totfact>
</mgrwt>
</event>
<event>
 6    4  0.2220150E-003  0.1323808E+03  0.7818608E-02  0.1223965E+00
         -4   -1    0    0    0  501 -0.00000000000E+00  0.00000000000E+00  0.39548987931E+03  0.39549191842E+03  0.12700000000E+01 0. -1.
          4   -1    0    0  502    0  0.00000000000E+00 -0.00000000000E+00 -0.19676742034E+02  0.19717684374E+02  0.12700000000E+01 0. -1.
         25    2    1    2    0    0 -0.30734893453E+02  0.30905588765E+02  0.26778182937E+03  0.29871688809E+03  0.12499952798E+03 0.  0.
    9000005    1    3    3    0    0 -0.15255805728E+02 -0.11778992864E+02  0.24871260359E+03  0.24946030439E+03  0.10000000000E+01 0.  0.
    9000005    1    3    3    0    0 -0.15479087724E+02  0.42684581629E+02  0.19069225779E+02  0.49256583697E+02  0.10000000000E+01 0.  0.
         21    1    1    2  502  501  0.30734893453E+02 -0.30905588765E+02  0.10803130790E+03  0.11649271471E+03  0.00000000000E+00 0.  1.
<mgrwt>
<rscale>  1 0.13238078E+03</rscale>
<asrwt>0</asrwt>
<pdfrwt beam="2">  1        4 0.30304974E-02 0.13238078E+03</pdfrwt>
<pdfrwt beam="1">  1       -4 0.60847903E-01 0.13238078E+03</pdfrwt>
<totfact> 0.22373848E+03</totfact>
</mgrwt>
</event>
<event>
 6    4  0.2220150E-003  0.1279432E+03  0.7818608E-02  0.1230540E+00
          4   -1    0    0  502    0  0.00000000000E+00  0.00000000000E+00  0.10771401177E+03  0.10772149847E+03  0.12700000000E+01 0. -1.
         -4   -1    0    0    0  501 -0.00000000000E+00 -0.00000000000E+00 -0.59258139288E+02  0.59271746826E+02  0.12700000000E+01 0. -1.
         25    2    1    2    0    0 -0.10882415564E+02 -0.24985475311E+02  0.54518492300E+02  0.13907450062E+03  0.12500699891E+03 0.  0.
    9000005    1    3    3    0    0  0.56214574381E+02 -0.23174387101E+02  0.25523138638E+02  0.65951203145E+02  0.10000000000E+01 0.  0.
    9000005    1    3    3    0    0 -0.67096989945E+02 -0.18110882096E+01  0.28995353663E+02  0.73123297479E+02  0.10000000000E+01 0.  0.
         21    1    1    2  502  501  0.10882415564E+02  0.24985475311E+02 -0.60626198141E+01  0.27918744671E+02  0.00000000000E+00 0. -1.
<mgrwt>
<rscale>  1 0.12794315E+03</rscale>
<asrwt>0</asrwt>
<pdfrwt beam="1">  1        4 0.16573009E-01 0.12794315E+03</pdfrwt>
<pdfrwt beam="2">  1       -4 0.91182594E-02 0.12794315E+03</pdfrwt>
<totfact> 0.45138866E+03</totfact>
</mgrwt>
</event>
<event>
 6    4  0.2220150E-003  0.1285919E+03  0.7818608E-02  0.1229560E+00
         -4   -1    0    0    0  501 -0.00000000000E+00  0.00000000000E+00  0.16915598690E+03  0.16916075433E+03  0.12700000000E+01 0. -1.
          4   -1    0    0  502    0  0.00000000000E+00 -0.00000000000E+00 -0.42152405965E+02  0.42171533392E+02  0.12700000000E+01 0. -1.
         25    2    1    2    0    0 -0.11907877121E+02 -0.27729018714E+02  0.68967582180E+02  0.14591919142E+03  0.12500074806E+03 0.  0.
    9000005    1    3    3    0    0 -0.59757084577E+01 -0.49565871883E+02 -0.20240125322E+02  0.53880863209E+02  0.10000000000E+01 0.  0.
    9000005    1    3    3    0    0 -0.59321686634E+01  0.21836853169E+02  0.89207707502E+02  0.92038328207E+02  0.10000000000E+01 0.  0.
         21    1    1    2  502  501  0.11907877121E+02  0.27729018714E+02  0.58035998759E+02  0.65413096306E+02  0.00000000000E+00 0. -1.
<mgrwt>
<rscale>  1 0.12859192E+03</rscale>
<asrwt>0</asrwt>
<pdfrwt beam="2">  1        4 0.64868236E-02 0.12859192E+03</pdfrwt>
<pdfrwt beam="1">  1       -4 0.26025836E-01 0.12859192E+03</pdfrwt>
<totfact> 0.35101484E+03</totfact>
</mgrwt>
</event>
<event>
 6    4  0.2220150E-003  0.1268630E+03  0.7818608E-02  0.1232186E+00
         -4   -1    0    0    0  501 -0.00000000000E+00  0.00000000000E+00  0.58809819379E+02  0.58823530627E+02  0.12700000000E+01 0.  1.
          4   -1    0    0  502    0  0.00000000000E+00 -0.00000000000E+00 -0.10035055328E+03  0.10035858929E+03  0.12700000000E+01 0.  1.
         25    2    1    2    0    0  0.16444277989E+02 -0.14056848430E+02 -0.49433210871E+02  0.13615386642E+03  0.12500489485E+03 0.  0.
    9000005    1    3    3    0    0 -0.37732531478E+02 -0.33427647457E+02 -0.59227366915E+02  0.77781955092E+02  0.10000000000E+01 0.  0.
    9000005    1    3    3    0    0  0.54176809467E+02  0.19370799028E+02  0.97941560440E+01  0.58371911324E+02  0.10000000000E+01 0.  0.
         21    1    1    2  502  501 -0.16444277989E+02  0.14056848430E+02  0.78924769712E+01  0.23028253496E+02  0.00000000000E+00 0. -1.
<mgrwt>
<rscale>  1 0.12686305E+03</rscale>
<asrwt>0</asrwt>
<pdfrwt beam="2">  1        4 0.15440220E-01 0.12686305E+03</pdfrwt>
<pdfrwt beam="1">  1       -4 0.90493374E-02 0.12686305E+03</pdfrwt>
<totfact> 0.51651190E+03</totfact>
</mgrwt>
</event>
<event>
 6    4  0.2220150E-003  0.1272407E+03  0.7818608E-02  0.1231608E+00
          4   -1    0    0  502    0  0.00000000000E+00  0.00000000000E+00  0.20655568709E+02  0.20694574620E+02  0.12700000000E+01 0.  1.
         -4   -1    0    0    0  501 -0.00000000000E+00 -0.00000000000E+00 -0.27696700727E+03  0.27696991897E+03  0.12700000000E+01 0.  1.
         25    2    1    2    0    0 -0.22859972291E+01  0.23639118603E+02 -0.22311720390E+03  0.25684916649E+03  0.12500469567E+03 0.  0.
    9000005    1    3    3    0    0 -0.20076628392E+02  0.45202258301E+01 -0.22911108987E+03  0.23003563844E+03  0.10000000000E+01 0.  0.
    9000005    1    3    3    0    0  0.17790631163E+02  0.19118892773E+02  0.59938859655E+01  0.26813528059E+02  0.10000000000E+01 0.  0.
         21    1    1    2  502  501  0.22859972291E+01 -0.23639118603E+02 -0.33194234657E+02  0.40815327098E+02  0.00000000000E+00 0.  1.
<mgrwt>
<rscale>  1 0.12724075E+03</rscale>
<asrwt>0</asrwt>
<pdfrwt beam="1">  1        4 0.31810044E-02 0.12724075E+03</pdfrwt>
<pdfrwt beam="2">  1       -4 0.42613531E-01 0.12724075E+03</pdfrwt>
<totfact> 0.42510401E+03</totfact>
</mgrwt>
</event>
<event>
 6    4  0.2220150E-003  0.1280995E+03  0.7818608E-02  0.1230303E+00
         -4   -1    0    0    0  501 -0.00000000000E+00  0.00000000000E+00  0.49532751918E+03  0.49532914729E+03  0.12700000000E+01 0. -1.
          4   -1    0    0  502    0  0.00000000000E+00 -0.00000000000E+00 -0.15754418379E+02  0.15805524302E+02  0.12700000000E+01 0. -1.
         25    2    1    2    0    0 -0.86936615279E+01 -0.26626879153E+02  0.26065172038E+03  0.29042866522E+03  0.12499967920E+03 0.  0.
    9000005    1    3    3    0    0 -0.28518488392E+02  0.83277865651E+01  0.24577544380E+03  0.24756660716E+03  0.10000000000E+01 0.  0.
    9000005    1    3    3    0    0  0.19824826864E+02 -0.34954665718E+02  0.14876276581E+02  0.42862058054E+02  0.10000000000E+01 0.  0.
         21    1    1    2  502  501  0.86936615279E+01  0.26626879153E+02  0.21892138042E+03  0.22070600637E+03  0.00000000000E+00 0. -1.
<mgrwt>
<rscale>  1 0.12809953E+03</rscale>
<asrwt>0</asrwt>
<pdfrwt beam="2">  1        4 0.24278128E-02 0.12809953E+03</pdfrwt>
<pdfrwt beam="1">  1       -4 0.76208301E-01 0.12809953E+03</pdfrwt>
<totfact> 0.19353218E+03</totfact>
</mgrwt>
</event>
<event>
 6    4  0.2220150E-003  0.1325290E+03  0.7818608E-02  0.1223751E+00
          4   -1    0    0  502    0  0.00000000000E+00  0.00000000000E+00  0.53699646247E+03  0.53699796425E+03  0.12700000000E+01 0.  1.
         -4   -1    0    0    0  501 -0.00000000000E+00 -0.00000000000E+00 -0.16987549587E+02  0.17034956442E+02  0.12700000000E+01 0.  1.
         25    2    1    2    0    0  0.28526252017E+02 -0.33547731688E+02  0.46528408202E+03  0.48379045157E+03  0.12499890675E+03 0.  0.
    9000005    1    3    3    0    0 -0.41959393022E+01 -0.71475122998E+02  0.36177505800E+03  0.36879329129E+03  0.10000000000E+01 0.  0.
    9000005    1    3    3    0    0  0.32722191319E+02  0.37927391309E+02  0.10350902403E+03  0.11499716027E+03  0.10000000000E+01 0.  0.
         21    1    1    2  502  501 -0.28526252017E+02  0.33547731688E+02  0.54724830860E+02  0.70242469121E+02  0.00000000000E+00 0.  1.
<mgrwt>
<rscale>  1 0.13252896E+03</rscale>
<asrwt>0</asrwt>
<pdfrwt beam="1">  1        4 0.82618597E-01 0.13252896E+03</pdfrwt>
<pdfrwt beam="2">  1       -4 0.26172316E-02 0.13252896E+03</pdfrwt>
<totfact> 0.14523124E+03</totfact>
</mgrwt>
</event>
<event>
 6    4  0.2220150E-003  0.1270888E+03  0.7818608E-02  0.1231841E+00
          4   -1    0    0  502    0  0.00000000000E+00  0.00000000000E+00  0.73446654314E+03  0.73446764115E+03  0.12700000000E+01 0.  1.
         -4   -1    0    0    0  501 -0.00000000000E+00 -0.00000000000E+00 -0.80953833949E+01  0.81943963970E+01  0.12700000000E+01 0.  1.
         25    2    1    2    0    0 -0.17174219464E+02 -0.15208511437E+02  0.66726954919E+03  0.67926445869E+03  0.12500120371E+03 0.  0.
    9000005    1    3    3    0    0 -0.63726728810E+01  0.72770710820E+01  0.64709043363E+03  0.64716350022E+03  0.10000000000E+01 0.  0.
    9000005    1    3    3    0    0 -0.10801546583E+02 -0.22485582519E+02  0.20179115561E+02  0.32100958469E+02  0.10000000000E+01 0.  0.
         21    1    1    2  502  501  0.17174219464E+02  0.15208511437E+02  0.59101610553E+02  0.63397578852E+02  0.00000000000E+00 0. -1.
<mgrwt>
<rscale>  1 0.12708876E+03</rscale>
<asrwt>0</asrwt>
<pdfrwt beam="1">  1        4 0.11300249E+00 0.12708876E+03</pdfrwt>
<pdfrwt beam="2">  1       -4 0.12531451E-02 0.12708876E+03</pdfrwt>
<totfact> 0.21711642E+03</totfact>
</mgrwt>
</event>
<event>
 6    4  0.2220150E-003  0.1272462E+03  0.7818608E-02  0.1231600E+00
         -4   -1    0    0    0  501 -0.00000000000E+00  0.00000000000E+00  0.28377639446E+02  0.28406043733E+02  0.12700000000E+01 0. -1.
          4   -1    0    0  502    0  0.00000000000E+00 -0.00000000000E+00 -0.28439705395E+03  0.28439988958E+03  0.12700000000E+01 0. -1.
         25    2    1    2    0    0 -0.53532732449E+01 -0.23167825247E+02 -0.25926443416E+03  0.28880727057E+03  0.12500474811E+03 0.  0.
    9000005    1    3    3    0    0  0.47746191494E+02 -0.47972031446E+02 -0.12133465105E+03  0.13893923905E+03  0.10000000000E+01 0.  0.
    9000005    1    3    3    0    0 -0.53099464739E+02  0.24804206200E+02 -0.13792978311E+03  0.14986803151E+03  0.10000000000E+01 0.  0.
         21    1    1    2  502  501  0.53532732449E+01  0.23167825247E+02  0.32450196589E+01  0.23998662748E+02  0.00000000000E+00 0. -1.
<mgrwt>
<rscale>  1 0.12724619E+03</rscale>
<asrwt>0</asrwt>
<pdfrwt beam="2">  1        4 0.43755794E-01 0.12724619E+03</pdfrwt>
<pdfrwt beam="1">  1       -4 0.43681940E-02 0.12724619E+03</pdfrwt>
<totfact> 0.24431121E+03</totfact>
</mgrwt>
</event>
<event>
 6    4  0.2220150E-003  0.1356166E+03  0.7818608E-02  0.1219352E+00
         -4   -1    0    0    0  501 -0.00000000000E+00  0.00000000000E+00  0.45025609722E+02  0.45043517079E+02  0.12700000000E+01 0. -1.
          4   -1    0    0  502    0  0.00000000000E+00 -0.00000000000E+00 -0.27758541420E+03  0.27758831942E+03  0.12700000000E+01 0. -1.
         25    2    1    2    0    0 -0.17179675571E+02 -0.49725151995E+02 -0.23348650016E+03  0.27001443673E+03  0.12499647312E+03 0.  0.
    9000005    1    3    3    0    0 -0.53103146863E+02  0.17988442910E+02 -0.12676201283E+03  0.13861145762E+03  0.10000000000E+01 0.  0.
    9000005    1    3    3    0    0  0.35923471292E+02 -0.67713594905E+02 -0.10672448732E+03  0.13140297911E+03  0.10000000000E+01 0.  0.
         21    1    1    2  502  501  0.17179675571E+02  0.49725151995E+02  0.92669567747E+00  0.52617399770E+02  0.00000000000E+00 0. -1.
<mgrwt>
<rscale>  1 0.13561656E+03</rscale>
<asrwt>0</asrwt>
<pdfrwt beam="2">  1        4 0.42707048E-01 0.13561656E+03</pdfrwt>
<pdfrwt beam="1">  1       -4 0.69286180E-02 0.13561656E+03</pdfrwt>
<totfact> 0.12341458E+03</totfact>
</mgrwt>
</event>
<event>
 6    4  0.2220150E-003  0.1274943E+03  0.7818608E-02  0.1231222E+00
         -4   -1    0    0    0  501 -0.00000000000E+00  0.00000000000E+00  0.33942382373E+03  0.33942619966E+03  0.12700000000E+01 0. -1.
          4   -1    0    0  502    0  0.00000000000E+00 -0.00000000000E+00 -0.19614297113E+02  0.19655369527E+02  0.12700000000E+01 0. -1.
         25    2    1    2    0    0 -0.10030745634E+02  0.22970258386E+02  0.20379046513E+03  0.24038586052E+03  0.12500623837E+03 0.  0.
    9000005    1    3    3    0    0  0.18373240529E+02  0.53142750698E+02  0.34238721256E+02  0.65840853219E+02  0.10000000000E+01 0.  0.
    9000005    1    3    3    0    0 -0.28403986163E+02 -0.30172492312E+02  0.16955174388E+03  0.17454500730E+03  0.10000000000E+01 0.  0.
         21    1    1    2  502  501  0.10030745634E+02 -0.22970258386E+02  0.11601906148E+03  0.11869570866E+03  0.00000000000E+00 0. -1.
<mgrwt>
<rscale>  1 0.12749435E+03</rscale>
<asrwt>0</asrwt>
<pdfrwt beam="2">  1        4 0.30209264E-02 0.12749435E+03</pdfrwt>
<pdfrwt beam="1">  1       -4 0.52222391E-01 0.12749435E+03</pdfrwt>
<totfact> 0.30607867E+03</totfact>
</mgrwt>
</event>
<event>
 6    4  0.2220150E-003  0.1305452E+03  0.7818608E-02  0.1226649E+00
         -4   -1    0    0    0  501 -0.00000000000E+00  0.00000000000E+00  0.50164301124E+03  0.50164461886E+03  0.12700000000E+01 0.  1.
          4   -1    0    0  502    0  0.00000000000E+00 -0.00000000000E+00 -0.15953726242E+02  0.16004195732E+02  0.12700000000E+01 0.  1.
         25    2    1    2    0    0  0.18910646800E+02  0.32417647944E+02  0.43754587194E+03  0.45660534908E+03  0.12503414851E+03 0.  0.
    9000005    1    3    3    0    0  0.51990007747E+02  0.40020848244E+02  0.40247617143E+03  0.40779001676E+03  0.10000000000E+01 0.  0.
    9000005    1    3    3    0    0 -0.33079360947E+02 -0.76032002994E+01  0.35069700514E+02  0.48815332321E+02  0.10000000000E+01 0.  0.
         21    1    1    2  502  501 -0.18910646800E+02 -0.32417647944E+02  0.48143413055E+02  0.61043465508E+02  0.00000000000E+00 0.  1.
<mgrwt>
<rscale>  1 0.13054522E+03</rscale>
<asrwt>0</asrwt>
<pdfrwt beam="2">  1        4 0.24584256E-02 0.13054522E+03</pdfrwt>
<pdfrwt beam="1">  1       -4 0.77179847E-01 0.13054522E+03</pdfrwt>
<totfact> 0.18541481E+03</totfact>
</mgrwt>
</event>
<event>
 6    4  0.2220150E-003  0.1271834E+03  0.7818608E-02  0.1231696E+00
          4   -1    0    0  502    0  0.00000000000E+00  0.00000000000E+00  0.53180692719E+03  0.53180844362E+03  0.12700000000E+01 0.  1.
         -4   -1    0    0    0  501 -0.00000000000E+00 -0.00000000000E+00 -0.10648725245E+02  0.10724189916E+02  0.12700000000E+01 0.  1.
         25    2    1    2    0    0 -0.13165066354E+02 -0.19570761066E+02  0.43692606852E+03  0.45506043245E+03  0.12497709459E+03 0.  0.
    9000005    1    3    3    0    0 -0.59973253007E+02 -0.30662669996E+02  0.15424373741E+03  0.16831256916E+03  0.10000000000E+01 0.  0.
    9000005    1    3    3    0    0  0.46808186653E+02  0.11091908930E+02  0.28268233111E+03  0.28674786329E+03  0.10000000000E+01 0.  0.
         21    1    1    2  502  501  0.13165066354E+02  0.19570761066E+02  0.84232133423E+02  0.87472201081E+02  0.00000000000E+00 0.  1.
<mgrwt>
<rscale>  1 0.12718336E+03</rscale>
<asrwt>0</asrwt>
<pdfrwt beam="1">  1        4 0.81822352E-01 0.12718336E+03</pdfrwt>
<pdfrwt beam="2">  1       -4 0.16441874E-02 0.12718336E+03</pdfrwt>
<totfact> 0.30092401E+03</totfact>
</mgrwt>
</event>
<event>
 6    4  0.2220150E-003  0.1276423E+03  0.7818608E-02  0.1230997E+00
          4   -1    0    0  502    0  0.00000000000E+00  0.00000000000E+00  0.34076132661E+02  0.34099790573E+02  0.12700000000E+01 0. -1.
         -4   -1    0    0    0  501 -0.00000000000E+00 -0.00000000000E+00 -0.24749878162E+03  0.24750204000E+03  0.12700000000E+01 0. -1.
         25    2    1    2    0    0  0.23645229757E+02  0.10409945796E+02 -0.91698157057E+02  0.15716583983E+03  0.12500034137E+03 0.  0.
    9000005    1    3    3    0    0 -0.38193690060E+02 -0.45287364333E+01  0.76140167793E+01  0.39220411339E+02  0.10000000000E+01 0.  0.
    9000005    1    3    3    0    0  0.61838919817E+02  0.14938682230E+02 -0.99312173836E+02  0.11794542850E+03  0.10000000000E+01 0.  0.
         21    1    1    2  502  501 -0.23645229757E+02 -0.10409945796E+02 -0.12172449191E+03  0.12443599074E+03  0.00000000000E+00 0. -1.
<mgrwt>
<rscale>  1 0.12764227E+03</rscale>
<asrwt>0</asrwt>
<pdfrwt beam="1">  1        4 0.52445526E-02 0.12764227E+03</pdfrwt>
<pdfrwt beam="2">  1       -4 0.38078805E-01 0.12764227E+03</pdfrwt>
<totfact> 0.23990678E+03</totfact>
</mgrwt>
</event>
<event>
 6    4  0.2220150E-003  0.1280018E+03  0.7818608E-02  0.1230451E+00
         -4   -1    0    0    0  501 -0.00000000000E+00  0.00000000000E+00  0.22452160899E+02  0.22488050806E+02  0.12700000000E+01 0.  1.
          4   -1    0    0  502    0  0.00000000000E+00 -0.00000000000E+00 -0.28982899253E+03  0.28983177502E+03  0.12700000000E+01 0.  1.
         25    2    1    2    0    0 -0.23640853863E+02  0.14208928048E+02 -0.24641017153E+03  0.27767326116E+03  0.12499473477E+03 0.  0.
    9000005    1    3    3    0    0 -0.60439388669E+02  0.11957019581E+02 -0.22852086134E+03  0.23668264425E+03  0.10000000000E+01 0.  0.
    9000005    1    3    3    0    0  0.36798534806E+02  0.22519084666E+01 -0.17889310190E+02  0.40990616910E+02  0.10000000000E+01 0.  0.
         21    1    1    2  502  501  0.23640853863E+02 -0.14208928048E+02 -0.20966660105E+02  0.34646564672E+02  0.00000000000E+00 0. -1.
<mgrwt>
<rscale>  1 0.12800183E+03</rscale>
<asrwt>0</asrwt>
<pdfrwt beam="2">  1        4 0.44592048E-01 0.12800183E+03</pdfrwt>
<pdfrwt beam="1">  1       -4 0.34571536E-02 0.12800183E+03</pdfrwt>
<totfact> 0.34124397E+03</totfact>
</mgrwt>
</event>
<event>
 6    4  0.2220150E-003  0.1281833E+03  0.7818608E-02  0.1230177E+00
          4   -1    0    0  502    0  0.00000000000E+00  0.00000000000E+00  0.20701070901E+03  0.20701460467E+03  0.12700000000E+01 0.  1.
         -4   -1    0    0    0  501 -0.00000000000E+00 -0.00000000000E+00 -0.30090938233E+02  0.30117726736E+02  0.12700000000E+01 0.  1.
         25    2    1    2    0    0 -0.28385756492E+02  0.49303344310E+00  0.15576793532E+03  0.20172902087E+03  0.12499981573E+03 0.  0.
    9000005    1    3    3    0    0  0.32940212218E+01  0.21821833801E+02  0.16158216697E+03  0.16308537546E+03  0.10000000000E+01 0.  0.
    9000005    1    3    3    0    0 -0.31679777713E+02 -0.21328800358E+02 -0.58142316506E+01  0.38643645407E+02  0.10000000000E+01 0.  0.
         21    1    1    2  502  501  0.28385756492E+02 -0.49303344310E+00  0.21151835457E+02  0.35403310534E+02  0.00000000000E+00 0.  1.
<mgrwt>
<rscale>  1 0.12818326E+03</rscale>
<asrwt>0</asrwt>
<pdfrwt beam="1">  1        4 0.31850162E-01 0.12818326E+03</pdfrwt>
<pdfrwt beam="2">  1       -4 0.46317354E-02 0.12818326E+03</pdfrwt>
<totfact> 0.41352938E+03</totfact>
</mgrwt>
</event>
<event>
 6    4  0.2220150E-003  0.1291350E+03  0.7818608E-02  0.1228745E+00
         -4   -1    0    0    0  501 -0.00000000000E+00  0.00000000000E+00  0.53008164102E+03  0.53008316238E+03  0.12700000000E+01 0. -1.
          4   -1    0    0  502    0  0.00000000000E+00 -0.00000000000E+00 -0.12436888723E+02  0.12501563946E+02  0.12700000000E+01 0. -1.
         25    2    1    2    0    0 -0.32255478945E+02  0.32436402862E+01  0.38693618242E+03  0.40791599439E+03  0.12499964835E+03 0.  0.
    9000005    1    3    3    0    0 -0.40724507669E+02 -0.56015844149E+02  0.20887779621E+03  0.22006179602E+03  0.10000000000E+01 0.  0.
    9000005    1    3    3    0    0  0.84690287240E+01  0.59259484435E+02  0.17805838622E+03  0.18785419837E+03  0.10000000000E+01 0.  0.
         21    1    1    2  502  501  0.32255478945E+02 -0.32436402862E+01  0.13070856987E+03  0.13466873194E+03  0.00000000000E+00 0.  1.
<mgrwt>
<rscale>  1 0.12913500E+03</rscale>
<asrwt>0</asrwt>
<pdfrwt beam="2">  1        4 0.19184600E-02 0.12913500E+03</pdfrwt>
<pdfrwt beam="1">  1       -4 0.81556096E-01 0.12913500E+03</pdfrwt>
<totfact> 0.24017320E+03</totfact>
</mgrwt>
</event>
<event>
 6    4  0.2220150E-003  0.1295600E+03  0.7818608E-02  0.1228110E+00
          4   -1    0    0  502    0  0.00000000000E+00  0.00000000000E+00  0.75356192061E+02  0.75366893143E+02  0.12700000000E+01 0.  1.
         -4   -1    0    0    0  501 -0.00000000000E+00 -0.00000000000E+00 -0.92600548622E+02  0.92609257124E+02  0.12700000000E+01 0.  1.
         25    2    1    2    0    0  0.37096296895E+01  0.33847376769E+02  0.54062740592E+00  0.12956115422E+03  0.12500557643E+03 0.  0.
    9000005    1    3    3    0    0 -0.48981709916E+02  0.42276174888E+02  0.26847768904E+02  0.70059157607E+02  0.10000000000E+01 0.  0.
    9000005    1    3    3    0    0  0.52691339605E+02 -0.84287981188E+01 -0.26307141498E+02  0.59501996613E+02  0.10000000000E+01 0.  0.
         21    1    1    2  502  501 -0.37096296895E+01 -0.33847376769E+02 -0.17784983967E+02  0.38414996047E+02  0.00000000000E+00 0.  1.
<mgrwt>
<rscale>  1 0.12956003E+03</rscale>
<asrwt>0</asrwt>
<pdfrwt beam="1">  1        4 0.11594753E-01 0.12956003E+03</pdfrwt>
<pdfrwt beam="2">  1       -4 0.14247731E-01 0.12956003E+03</pdfrwt>
<totfact> 0.39323600E+03</totfact>
</mgrwt>
</event>
<event>
 6    4  0.2220150E-003  0.1334301E+03  0.7818608E-02  0.1222453E+00
          4   -1    0    0  502    0  0.00000000000E+00  0.00000000000E+00  0.44126041187E+03  0.44126223948E+03  0.12700000000E+01 0. -1.
         -4   -1    0    0    0  501 -0.00000000000E+00 -0.00000000000E+00 -0.49871913378E+02  0.49888081181E+02  0.12700000000E+01 0. -1.
         25    2    1    2    0    0 -0.13558002257E+02 -0.44641865340E+02  0.41707001620E+03  0.43789381009E+03  0.12500749950E+03 0.  0.
    9000005    1    3    3    0    0 -0.15024554566E+01 -0.76382847723E+02  0.14675371871E+03  0.16545165685E+03  0.10000000000E+01 0.  0.
    9000005    1    3    3    0    0 -0.12055546800E+02  0.31740982384E+02  0.27031629749E+03  0.27244215324E+03  0.10000000000E+01 0.  0.
         21    1    1    2  502  501  0.13558002257E+02  0.44641865340E+02 -0.25681517707E+02  0.53256510569E+02  0.00000000000E+00 0. -1.
<mgrwt>
<rscale>  1 0.13343010E+03</rscale>
<asrwt>0</asrwt>
<pdfrwt beam="1">  1        4 0.67887603E-01 0.13343010E+03</pdfrwt>
<pdfrwt beam="2">  1       -4 0.76739862E-02 0.13343010E+03</pdfrwt>
<totfact> 0.39963780E+02</totfact>
</mgrwt>
</event>
<event>
 6    4  0.2220150E-003  0.1266413E+03  0.7818608E-02  0.1232526E+00
         -4   -1    0    0    0  501 -0.00000000000E+00  0.00000000000E+00  0.63042276428E+02  0.63055067340E+02  0.12700000000E+01 0. -1.
          4   -1    0    0  502    0  0.00000000000E+00 -0.00000000000E+00 -0.90387591823E+02  0.90396513514E+02  0.12700000000E+01 0. -1.
         25    2    1    2    0    0 -0.19975104596E+02  0.42565651025E+01 -0.35401787836E+02  0.13149640155E+03  0.12498357447E+03 0.  0.
    9000005    1    3    3    0    0 -0.36934658867E+02 -0.49202522542E+02  0.59355839008E+01  0.61816570645E+02  0.10000000000E+01 0.  0.
    9000005    1    3    3    0    0  0.16959554271E+02  0.53459087644E+02 -0.41337371737E+02  0.69679830905E+02  0.10000000000E+01 0.  0.
         21    1    1    2  502  501  0.19975104596E+02 -0.42565651025E+01  0.80564724413E+01  0.21955179304E+02  0.00000000000E+00 0. -1.
<mgrwt>
<rscale>  1 0.12664129E+03</rscale>
<asrwt>0</asrwt>
<pdfrwt beam="2">  1        4 0.13907454E-01 0.12664129E+03</pdfrwt>
<pdfrwt beam="1">  1       -4 0.97004819E-02 0.12664129E+03</pdfrwt>
<totfact> 0.55126746E+03</totfact>
</mgrwt>
</event>
<event>
 6    4  0.2220150E-003  0.1328379E+03  0.7818608E-02  0.1223305E+00
          4   -1    0    0  502    0  0.00000000000E+00  0.00000000000E+00  0.24463168477E+03  0.24463498133E+03  0.12700000000E+01 0.  1.
         -4   -1    0    0    0  501 -0.00000000000E+00 -0.00000000000E+00 -0.44592695128E+02  0.44610776263E+02  0.12700000000E+01 0.  1.
         25    2    1    2    0    0  0.47696635794E+01  0.44705150663E+02  0.20472266394E+03  0.24404357854E+03  0.12499839562E+03 0.  0.
    9000005    1    3    3    0    0 -0.21028754021E+02  0.35848935980E+02  0.21180391677E+03  0.21584543976E+03  0.10000000000E+01 0.  0.
    9000005    1    3    3    0    0  0.25798417600E+02  0.88562146837E+01 -0.70812528225E+01  0.28198138781E+02  0.10000000000E+01 0.  0.
         21    1    1    2  502  501 -0.47696635794E+01 -0.44705150663E+02 -0.46836743063E+01  0.45202179057E+02  0.00000000000E+00 0.  1.
<mgrwt>
<rscale>  1 0.13283787E+03</rscale>
<asrwt>0</asrwt>
<pdfrwt beam="1">  1        4 0.37637288E-01 0.13283787E+03</pdfrwt>
<pdfrwt beam="2">  1       -4 0.68620591E-02 0.13283787E+03</pdfrwt>
<totfact> 0.16007823E+03</totfact>
</mgrwt>
</event>
<event>
 6    4  0.2220150E-003  0.1288533E+03  0.7818608E-02  0.1229167E+00
         -4   -1    0    0    0  501 -0.00000000000E+00  0.00000000000E+00  0.48526158227E+02  0.48542774254E+02  0.12700000000E+01 0.  1.
          4   -1    0    0  502    0  0.00000000000E+00 -0.00000000000E+00 -0.13470880415E+03  0.13471479063E+03  0.12700000000E+01 0.  1.
         25    2    1    2    0    0 -0.30373086945E+02 -0.74447162290E+01 -0.79094157155E+02  0.15119208683E+03  0.12500085285E+03 0.  0.
    9000005    1    3    3    0    0 -0.31225788482E+01  0.57798115995E+02 -0.40303122728E+02  0.70538744056E+02  0.10000000000E+01 0.  0.
    9000005    1    3    3    0    0 -0.27250508097E+02 -0.65242832224E+02 -0.38791034426E+02  0.80653342770E+02  0.10000000000E+01 0.  0.
         21    1    1    2  502  501  0.30373086945E+02  0.74447162290E+01 -0.70884887673E+01  0.32065478061E+02  0.00000000000E+00 0. -1.
<mgrwt>
<rscale>  1 0.12885326E+03</rscale>
<asrwt>0</asrwt>
<pdfrwt beam="2">  1        4 0.20726170E-01 0.12885326E+03</pdfrwt>
<pdfrwt beam="1">  1       -4 0.74673015E-02 0.12885326E+03</pdfrwt>
<totfact> 0.42278141E+03</totfact>
</mgrwt>
</event>
<event>
 6    4  0.2220150E-003  0.1273863E+03  0.7818608E-02  0.1231386E+00
          4   -1    0    0  502    0  0.00000000000E+00  0.00000000000E+00  0.87041146160E+02  0.87050410825E+02  0.12700000000E+01 0.  1.
         -4   -1    0    0    0  501 -0.00000000000E+00 -0.00000000000E+00 -0.66539997775E+02  0.66552116450E+02  0.12700000000E+01 0.  1.
         25    2    1    2    0    0 -0.98185200847E+01 -0.22519902135E+02  0.13760549167E+02  0.12812734314E+03  0.12499485597E+03 0.  0.
    9000005    1    3    3    0    0 -0.64135182465E+02 -0.32873310427E+02  0.84252197415E+01  0.72566938036E+02  0.10000000000E+01 0.  0.
    9000005    1    3    3    0    0  0.54316662380E+02  0.10353408292E+02  0.53353294259E+01  0.55560405105E+02  0.10000000000E+01 0.  0.
         21    1    1    2  502  501  0.98185200847E+01  0.22519902135E+02  0.67405992169E+01  0.25475184133E+02  0.00000000000E+00 0.  1.
<mgrwt>
<rscale>  1 0.12738628E+03</rscale>
<asrwt>0</asrwt>
<pdfrwt beam="1">  1        4 0.13392590E-01 0.12738628E+03</pdfrwt>
<pdfrwt beam="2">  1       -4 0.10238568E-01 0.12738628E+03</pdfrwt>
<totfact> 0.53812600E+03</totfact>
</mgrwt>
</event>
<event>
 6    4  0.2220150E-003  0.1274800E+03  0.7818608E-02  0.1231244E+00
          4   -1    0    0  502    0  0.00000000000E+00  0.00000000000E+00  0.99845237561E+02  0.99853314234E+02  0.12700000000E+01 0. -1.
         -4   -1    0    0    0  501 -0.00000000000E+00 -0.00000000000E+00 -0.79476816746E+02  0.79486963083E+02  0.12700000000E+01 0. -1.
         25    2    1    2    0    0 -0.22923288354E+02  0.10418319604E+02  0.53055137490E+02  0.13807964257E+03  0.12496848221E+03 0.  0.
    9000005    1    3    3    0    0 -0.52014567050E+02  0.37990855010E+02 -0.81277833565E+01  0.64929816818E+02  0.10000000000E+01 0.  0.
    9000005    1    3    3    0    0  0.29091278696E+02 -0.27572535405E+02  0.61182920846E+02  0.73149825756E+02  0.10000000000E+01 0.  0.
         21    1    1    2  502  501  0.22923288354E+02 -0.10418319604E+02 -0.32686716676E+02  0.41260634743E+02  0.00000000000E+00 0. -1.
<mgrwt>
<rscale>  1 0.12747996E+03</rscale>
<asrwt>0</asrwt>
<pdfrwt beam="1">  1        4 0.15362207E-01 0.12747996E+03</pdfrwt>
<pdfrwt beam="2">  1       -4 0.12228604E-01 0.12747996E+03</pdfrwt>
<totfact> 0.31369038E+03</totfact>
</mgrwt>
</event>
<event>
 6    4  0.2220150E-003  0.1308429E+03  0.7818608E-02  0.1226210E+00
         -4   -1    0    0    0  501 -0.00000000000E+00  0.00000000000E+00  0.13893326908E+04  0.13893332712E+04  0.12700000000E+01 0.  1.
          4   -1    0    0  502    0  0.00000000000E+00 -0.00000000000E+00 -0.50948350677E+01  0.52507375070E+01  0.12700000000E+01 0.  1.
         25    2    1    2    0    0 -0.20367752243E+02 -0.32871425250E+02  0.10546806060E+04  0.10627657502E+04  0.12499793196E+03 0.  0.
    9000005    1    3    3    0    0 -0.72577099609E+02 -0.85614874695E+01  0.56397018668E+03  0.56868629834E+03  0.10000000000E+01 0.  0.
    9000005    1    3    3    0    0  0.52209347366E+02 -0.24309937781E+02  0.49071041937E+03  0.49407945182E+03  0.10000000000E+01 0.  0.
         21    1    1    2  502  501  0.20367752243E+02  0.32871425250E+02  0.32955724967E+03  0.33181825859E+03  0.00000000000E+00 0.  1.
<mgrwt>
<rscale>  1 0.13084288E+03</rscale>
<asrwt>0</asrwt>
<pdfrwt beam="2">  1        4 0.79585735E-03 0.13084288E+03</pdfrwt>
<pdfrwt beam="1">  1       -4 0.21375568E+00 0.13084288E+03</pdfrwt>
<totfact> 0.82313715E+02</totfact>
</mgrwt>
</event>
<event>
 6    4  0.2220150E-003  0.1320403E+03  0.7818608E-02  0.1224459E+00
          4   -1    0    0  502    0  0.00000000000E+00  0.00000000000E+00  0.27136240656E+03  0.27136537840E+03  0.12700000000E+01 0.  1.
         -4   -1    0    0    0  501 -0.00000000000E+00 -0.00000000000E+00 -0.19585292175E+03  0.19585703934E+03  0.12700000000E+01 0.  1.
         25    2    1    2    0    0  0.34952448196E+02 -0.24260180874E+02  0.25263432891E+03  0.28505919311E+03  0.12499763765E+03 0.  0.
    9000005    1    3    3    0    0  0.33154138129E+02  0.81781273717E+01  0.40991101658E+01  0.34407576877E+02  0.10000000000E+01 0.  0.
    9000005    1    3    3    0    0  0.17983100673E+01 -0.32438308245E+02  0.24853521875E+03  0.25065161623E+03  0.10000000000E+01 0.  0.
         21    1    1    2  502  501 -0.34952448196E+02  0.24260180874E+02 -0.17712484410E+03  0.18216322463E+03  0.00000000000E+00 0.  1.
<mgrwt>
<rscale>  1 0.13204029E+03</rscale>
<asrwt>0</asrwt>
<pdfrwt beam="1">  1        4 0.41748608E-01 0.13204029E+03</pdfrwt>
<pdfrwt beam="2">  1       -4 0.30131764E-01 0.13204029E+03</pdfrwt>
<totfact> 0.98403593E+01</totfact>
</mgrwt>
</event>
<event>
 6    4  0.2220150E-003  0.1319616E+03  0.7818608E-02  0.1224574E+00
          4   -1    0    0  502    0  0.00000000000E+00  0.00000000000E+00  0.21280146891E+03  0.21280525856E+03  0.12700000000E+01 0. -1.
         -4   -1    0    0    0  501 -0.00000000000E+00 -0.00000000000E+00 -0.39751274806E+02  0.39771557031E+02  0.12700000000E+01 0. -1.
         25    2    1    2    0    0 -0.92626286736E+01 -0.41268809420E+02  0.16184059280E+03  0.20882106074E+03  0.12499978804E+03 0.  0.
    9000005    1    3    3    0    0 -0.14696990871E+01  0.38405942627E+02  0.14417891409E+02  0.41061563988E+02  0.10000000000E+01 0.  0.
    9000005    1    3    3    0    0 -0.77929295865E+01 -0.79674752047E+02  0.14742270139E+03  0.16775949675E+03  0.10000000000E+01 0.  0.
         21    1    1    2  502  501  0.92626286736E+01  0.41268809420E+02  0.11209601303E+02  0.43755754847E+02  0.00000000000E+00 0. -1.
<mgrwt>
<rscale>  1 0.13196158E+03</rscale>
<asrwt>0</asrwt>
<pdfrwt beam="1">  1        4 0.32740539E-01 0.13196158E+03</pdfrwt>
<pdfrwt beam="2">  1       -4 0.61174324E-02 0.13196158E+03</pdfrwt>
<totfact> 0.25231078E+03</totfact>
</mgrwt>
</event>
<event>
 6    4  0.2220150E-003  0.1348364E+03  0.7818608E-02  0.1220451E+00
         -4   -1    0    0    0  501 -0.00000000000E+00  0.00000000000E+00  0.25088298020E+03  0.25088619463E+03  0.12700000000E+01 0.  1.
          4   -1    0    0  502    0  0.00000000000E+00 -0.00000000000E+00 -0.35479351793E+02  0.35502074638E+02  0.12700000000E+01 0.  1.
         25    2    1    2    0    0  0.37310011150E+02 -0.34116303640E+02  0.17893837604E+03  0.22405309672E+03  0.12499955450E+03 0.  0.
    9000005    1    3    3    0    0  0.69568730154E+01  0.37104563921E+02  0.11332728222E+02  0.39428130502E+02  0.10000000000E+01 0.  0.
    9000005    1    3    3    0    0  0.30353138134E+02 -0.71220867561E+02  0.16760564782E+03  0.18462496622E+03  0.10000000000E+01 0.  0.
         21    1    1    2  502  501 -0.37310011150E+02  0.34116303640E+02  0.36465252372E+02  0.62335172548E+02  0.00000000000E+00 0. -1.
<mgrwt>
<rscale>  1 0.13483637E+03</rscale>
<asrwt>0</asrwt>
<pdfrwt beam="2">  1        4 0.54603569E-02 0.13483637E+03</pdfrwt>
<pdfrwt beam="1">  1       -4 0.38599377E-01 0.13483637E+03</pdfrwt>
<totfact> 0.22171225E+03</totfact>
</mgrwt>
</event>
<event>
 6    4  0.2220150E-003  0.1288944E+03  0.7818608E-02  0.1229105E+00
         -4   -1    0    0    0  501 -0.00000000000E+00  0.00000000000E+00  0.35549937463E+02  0.35572615220E+02  0.12700000000E+01 0.  1.
          4   -1    0    0  502    0  0.00000000000E+00 -0.00000000000E+00 -0.25471289720E+03  0.25471606329E+03  0.12700000000E+01 0.  1.
         25    2    1    2    0    0 -0.12754944386E+02  0.28731650929E+02 -0.22404506402E+03  0.25847623891E+03  0.12500231597E+03 0.  0.
    9000005    1    3    3    0    0  0.25764387473E+02 -0.16953689026E+01  0.31554069775E+01  0.26031414306E+02  0.10000000000E+01 0.  0.
    9000005    1    3    3    0    0 -0.38519331859E+02  0.30427019831E+02 -0.22720047100E+03  0.23244482460E+03  0.10000000000E+01 0.  0.
         21    1    1    2  502  501  0.12754944386E+02 -0.28731650929E+02  0.48821042839E+01  0.31812439605E+02  0.00000000000E+00 0. -1.
<mgrwt>
<rscale>  1 0.12889443E+03</rscale>
<asrwt>0</asrwt>
<pdfrwt beam="2">  1        4 0.39188586E-01 0.12889443E+03</pdfrwt>
<pdfrwt beam="1">  1       -4 0.54712093E-02 0.12889443E+03</pdfrwt>
<totfact> 0.21233571E+03</totfact>
</mgrwt>
</event>
<event>
 6    4  0.2220150E-003  0.1274403E+03  0.7818608E-02  0.1231304E+00
          4   -1    0    0  502    0  0.00000000000E+00  0.00000000000E+00  0.75662377010E+02  0.75673034793E+02  0.12700000000E+01 0. -1.
         -4   -1    0    0    0  501 -0.00000000000E+00 -0.00000000000E+00 -0.83145538570E+02  0.83155237262E+02  0.12700000000E+01 0. -1.
         25    2    1    2    0    0 -0.24887342699E+02  0.41172775542E+00 -0.22996955374E+02  0.12949864293E+03  0.12498595608E+03 0.  0.
    9000005    1    3    3    0    0 -0.65951026135E+02  0.33275196679E+02 -0.55858856552E+01  0.74087641890E+02  0.10000000000E+01 0.  0.
    9000005    1    3    3    0    0  0.41063683436E+02 -0.32863468924E+02 -0.17411069719E+02  0.55411001035E+02  0.10000000000E+01 0.  0.
         21    1    1    2  502  501  0.24887342699E+02 -0.41172775542E+00  0.15513793814E+02  0.29329629130E+02  0.00000000000E+00 0. -1.
<mgrwt>
<rscale>  1 0.12744033E+03</rscale>
<asrwt>0</asrwt>
<pdfrwt beam="1">  1        4 0.11641932E-01 0.12744033E+03</pdfrwt>
<pdfrwt beam="2">  1       -4 0.12793187E-01 0.12744033E+03</pdfrwt>
<totfact> 0.46841265E+03</totfact>
</mgrwt>
</event>
<event>
 6    4  0.2220150E-003  0.1279893E+03  0.7818608E-02  0.1230470E+00
         -4   -1    0    0    0  501 -0.00000000000E+00  0.00000000000E+00  0.14141067977E+02  0.14197982375E+02  0.12700000000E+01 0. -1.
          4   -1    0    0  502    0  0.00000000000E+00 -0.00000000000E+00 -0.42669865513E+03  0.42670054510E+03  0.12700000000E+01 0. -1.
         25    2    1    2    0    0  0.26301711416E+02 -0.73116328919E+01 -0.34887278192E+03  0.37160931896E+03  0.12504410412E+03 0.  0.
    9000005    1    3    3    0    0  0.33449741842E+02  0.45244200398E+02 -0.27477907439E+03  0.28048255315E+03  0.10000000000E+01 0.  0.
    9000005    1    3    3    0    0 -0.71480304258E+01 -0.52555833290E+02 -0.74093707534E+02  0.91126765815E+02  0.10000000000E+01 0.  0.
         21    1    1    2  502  501 -0.26301711416E+02  0.73116328919E+01 -0.63684805227E+02  0.69289208509E+02  0.00000000000E+00 0. -1.
<mgrwt>
<rscale>  1 0.12798933E+03</rscale>
<asrwt>0</asrwt>
<pdfrwt beam="2">  1        4 0.65650460E-01 0.12798933E+03</pdfrwt>
<pdfrwt beam="1">  1       -4 0.21800727E-02 0.12798933E+03</pdfrwt>
<totfact> 0.31536221E+03</totfact>
</mgrwt>
</event>
<event>
 6    4  0.2220150E-003  0.1284677E+03  0.7818608E-02  0.1229747E+00
         -4   -1    0    0    0  501 -0.00000000000E+00  0.00000000000E+00  0.10582676933E+03  0.10583438953E+03  0.12700000000E+01 0.  1.
          4   -1    0    0  502    0  0.00000000000E+00 -0.00000000000E+00 -0.16675695858E+03  0.16676179459E+03  0.12700000000E+01 0.  1.
         25    2    1    2    0    0 -0.28327315831E+02 -0.84524365273E+01 -0.13890546547E+03  0.18920539202E+03  0.12502028446E+03 0.  0.
    9000005    1    3    3    0    0 -0.68696545264E+02 -0.32726411903E+02 -0.11056396652E+03  0.13422229345E+03  0.10000000000E+01 0.  0.
    9000005    1    3    3    0    0  0.40369229433E+02  0.24273975376E+02 -0.28341498954E+02  0.54983098572E+02  0.10000000000E+01 0.  0.
         21    1    1    2  502  501  0.28327315831E+02  0.84524365273E+01  0.77975276219E+02  0.83390792099E+02  0.00000000000E+00 0.  1.
<mgrwt>
<rscale>  1 0.12846771E+03</rscale>
<asrwt>0</asrwt>
<pdfrwt beam="2">  1        4 0.25655875E-01 0.12846771E+03</pdfrwt>
<pdfrwt beam="1">  1       -4 0.16282000E-01 0.12846771E+03</pdfrwt>
<totfact> 0.76131272E+02</totfact>
</mgrwt>
</event>
<event>
 6    4  0.2220150E-003  0.1308154E+03  0.7818608E-02  0.1226251E+00
          4   -1    0    0  502    0  0.00000000000E+00  0.00000000000E+00  0.74750482895E+02  0.74761270675E+02  0.12700000000E+01 0.  1.
         -4   -1    0    0    0  501 -0.00000000000E+00 -0.00000000000E+00 -0.10127811939E+03  0.10128608180E+03  0.12700000000E+01 0.  1.
         25    2    1    2    0    0  0.26575452048E+02  0.27950373854E+02 -0.29602678511E+01  0.13084891318E+03  0.12500078738E+03 0.  0.
    9000005    1    3    3    0    0  0.51255040726E+02  0.50723644008E+02  0.34995539972E+02  0.80160183877E+02  0.10000000000E+01 0.  0.
    9000005    1    3    3    0    0 -0.24679588679E+02 -0.22773270154E+02 -0.37955807823E+02  0.50688729303E+02  0.10000000000E+01 0.  0.
         21    1    1    2  502  501 -0.26575452048E+02 -0.27950373854E+02 -0.23567368642E+02  0.45198439297E+02  0.00000000000E+00 0.  1.
<mgrwt>
<rscale>  1 0.13081542E+03</rscale>
<asrwt>0</asrwt>
<pdfrwt beam="1">  1        4 0.11501517E-01 0.13081542E+03</pdfrwt>
<pdfrwt beam="2">  1       -4 0.15582692E-01 0.13081542E+03</pdfrwt>
<totfact> 0.34185199E+03</totfact>
</mgrwt>
</event>
<event>
 6    4  0.2220150E-003  0.1286889E+03  0.7818608E-02  0.1229414E+00
         -4   -1    0    0    0  501 -0.00000000000E+00  0.00000000000E+00  0.23128953740E+03  0.23129302413E+03  0.12700000000E+01 0.  1.
          4   -1    0    0  502    0  0.00000000000E+00 -0.00000000000E+00 -0.47464806316E+02  0.47481793759E+02  0.12700000000E+01 0.  1.
         25    2    1    2    0    0 -0.22826003195E+02  0.20350459479E+02  0.44549541362E+02  0.13618187944E+03  0.12500270009E+03 0.  0.
    9000005    1    3    3    0    0 -0.35447008903E+02  0.58527504251E+02 -0.92015503225E+01  0.69048010271E+02  0.10000000000E+01 0.  0.
    9000005    1    3    3    0    0  0.12621005708E+02 -0.38177044771E+02  0.53751091684E+02  0.67133869170E+02  0.10000000000E+01 0.  0.
         21    1    1    2  502  501  0.22826003195E+02 -0.20350459479E+02  0.13927518972E+03  0.14259293845E+03  0.00000000000E+00 0.  1.
<mgrwt>
<rscale>  1 0.12868894E+03</rscale>
<asrwt>0</asrwt>
<pdfrwt beam="2">  1        4 0.73038530E-02 0.12868894E+03</pdfrwt>
<pdfrwt beam="1">  1       -4 0.35584580E-01 0.12868894E+03</pdfrwt>
<totfact> 0.15995572E+03</totfact>
</mgrwt>
</event>
<event>
 6    4  0.2220150E-003  0.1268693E+03  0.7818608E-02  0.1232176E+00
          4   -1    0    0  502    0  0.00000000000E+00  0.00000000000E+00  0.15966446020E+02  0.16016875429E+02  0.12700000000E+01 0.  1.
         -4   -1    0    0    0  501 -0.00000000000E+00 -0.00000000000E+00 -0.60723320242E+03  0.60723453049E+03  0.12700000000E+01 0.  1.
         25    2    1    2    0    0  0.83726086902E+01 -0.20118350411E+02 -0.24141366621E+03  0.27272033267E+03  0.12498389104E+03 0.  0.
    9000005    1    3    3    0    0 -0.21863044198E+02  0.30908555733E+02 -0.18691976645E+02  0.42234127314E+02  0.10000000000E+01 0.  0.
    9000005    1    3    3    0    0  0.30235652888E+02 -0.51026906144E+02 -0.22272168957E+03  0.23048620536E+03  0.10000000000E+01 0.  0.
         21    1    1    2  502  501 -0.83726086902E+01  0.20118350411E+02 -0.34985309018E+03  0.35053107324E+03  0.00000000000E+00 0.  1.
<mgrwt>
<rscale>  1 0.12686931E+03</rscale>
<asrwt>0</asrwt>
<pdfrwt beam="1">  1        4 0.24603581E-02 0.12686931E+03</pdfrwt>
<pdfrwt beam="2">  1       -4 0.93424456E-01 0.12686931E+03</pdfrwt>
<totfact> 0.12011934E+03</totfact>
</mgrwt>
</event>
<event>
 6    4  0.2220150E-003  0.1306515E+03  0.7818608E-02  0.1226492E+00
         -4   -1    0    0    0  501 -0.00000000000E+00  0.00000000000E+00  0.24705800959E+03  0.24706127378E+03  0.12700000000E+01 0.  1.
          4   -1    0    0  502    0  0.00000000000E+00 -0.00000000000E+00 -0.28955361353E+02  0.28983199462E+02  0.12700000000E+01 0.  1.
         25    2    1    2    0    0 -0.22454194847E+02 -0.30637702572E+02  0.17806443957E+03  0.22085463869E+03  0.12500786817E+03 0.  0.
    9000005    1    3    3    0    0  0.49336018879E+02 -0.14481656293E+02  0.10618606247E+03  0.11798407092E+03  0.10000000000E+01 0.  0.
    9000005    1    3    3    0    0 -0.71790213727E+02 -0.16156046278E+02  0.71878377106E+02  0.10287056777E+03  0.10000000000E+01 0.  0.
         21    1    1    2  502  501  0.22454194847E+02  0.30637702572E+02  0.40038208661E+02  0.55189834552E+02  0.00000000000E+00 0.  1.
<mgrwt>
<rscale>  1 0.13065155E+03</rscale>
<asrwt>0</asrwt>
<pdfrwt beam="2">  1        4 0.44570633E-02 0.13065155E+03</pdfrwt>
<pdfrwt beam="1">  1       -4 0.38011318E-01 0.13065155E+03</pdfrwt>
<totfact> 0.31422070E+03</totfact>
</mgrwt>
</event>
<event>
 6    4  0.2220150E-003  0.1377448E+03  0.7818608E-02  0.1216396E+00
          4   -1    0    0  502    0  0.00000000000E+00  0.00000000000E+00  0.75838753927E+02  0.75849386927E+02  0.12700000000E+01 0.  1.
         -4   -1    0    0    0  501 -0.00000000000E+00 -0.00000000000E+00 -0.12895292595E+03  0.12895917963E+03  0.12700000000E+01 0.  1.
         25    2    1    2    0    0  0.10182739264E+02  0.56974608763E+02 -0.23293466968E+02  0.13970043594E+03  0.12499532782E+03 0.  0.
    9000005    1    3    3    0    0 -0.29222122094E+02 -0.25011354047E+02  0.14600161716E+02  0.41154161066E+02  0.10000000000E+01 0.  0.
    9000005    1    3    3    0    0  0.39404861358E+02  0.81985962811E+02 -0.37893628684E+02  0.98546274874E+02  0.10000000000E+01 0.  0.
         21    1    1    2  502  501 -0.10182739264E+02 -0.56974608763E+02 -0.29820705058E+02  0.65108130620E+02  0.00000000000E+00 0.  1.
<mgrwt>
<rscale>  1 0.13774479E+03</rscale>
<asrwt>0</asrwt>
<pdfrwt beam="1">  1        4 0.11668800E-01 0.13774479E+03</pdfrwt>
<pdfrwt beam="2">  1       -4 0.19840211E-01 0.13774479E+03</pdfrwt>
<totfact> 0.21989458E+03</totfact>
</mgrwt>
</event>
<event>
 6    4  0.2220150E-003  0.1268961E+03  0.7818608E-02  0.1232135E+00
         -4   -1    0    0    0  501 -0.00000000000E+00  0.00000000000E+00  0.92422836372E+02  0.92431561617E+02  0.12700000000E+01 0. -1.
          4   -1    0    0  502    0  0.00000000000E+00 -0.00000000000E+00 -0.68164316884E+02  0.68176146828E+02  0.12700000000E+01 0. -1.
         25    2    1    2    0    0  0.12085822864E+02  0.18075865156E+02 -0.14917634455E+01  0.12690487345E+03  0.12501926864E+03 0.  0.
    9000005    1    3    3    0    0 -0.38824744035E+02 -0.25207375395E+02 -0.29001408142E+02  0.54633819178E+02  0.10000000000E+01 0.  0.
    9000005    1    3    3    0    0  0.50910566899E+02  0.43283240551E+02  0.27509644696E+02  0.72271054274E+02  0.10000000000E+01 0.  0.
         21    1    1    2  502  501 -0.12085822864E+02 -0.18075865156E+02  0.25750282933E+02  0.33702834993E+02  0.00000000000E+00 0. -1.
<mgrwt>
<rscale>  1 0.12689611E+03</rscale>
<asrwt>0</asrwt>
<pdfrwt beam="2">  1        4 0.10488399E-01 0.12689611E+03</pdfrwt>
<pdfrwt beam="1">  1       -4 0.14220479E-01 0.12689611E+03</pdfrwt>
<totfact> 0.46529482E+03</totfact>
</mgrwt>
</event>
<event>
 6    4  0.2220150E-003  0.1327118E+03  0.7818608E-02  0.1223487E+00
          4   -1    0    0  502    0  0.00000000000E+00  0.00000000000E+00  0.26362845551E+03  0.26363151453E+03  0.12700000000E+01 0. -1.
         -4   -1    0    0    0  501 -0.00000000000E+00 -0.00000000000E+00 -0.14049152425E+03  0.14049726433E+03  0.12700000000E+01 0. -1.
         25    2    1    2    0    0  0.31267433439E+02 -0.31774715281E+02  0.24265078574E+03  0.27657155117E+03  0.12500053669E+03 0.  0.
    9000005    1    3    3    0    0 -0.21104910384E+02 -0.84335683788E+01  0.20868350893E+03  0.20991986379E+03  0.10000000000E+01 0.  0.
    9000005    1    3    3    0    0  0.52372343823E+02 -0.23341146902E+02  0.33967276813E+02  0.66651687378E+02  0.10000000000E+01 0.  0.
         21    1    1    2  502  501 -0.31267433439E+02  0.31774715281E+02 -0.11951385448E+03  0.12755722769E+03  0.00000000000E+00 0. -1.
<mgrwt>
<rscale>  1 0.13271179E+03</rscale>
<asrwt>0</asrwt>
<pdfrwt beam="1">  1        4 0.40558900E-01 0.13271179E+03</pdfrwt>
<pdfrwt beam="2">  1       -4 0.21614758E-01 0.13271179E+03</pdfrwt>
<totfact> 0.19283360E+02</totfact>
</mgrwt>
</event>
<event>
 6    4  0.2220150E-003  0.1289685E+03  0.7818608E-02  0.1228994E+00
          4   -1    0    0  502    0  0.00000000000E+00  0.00000000000E+00  0.76411623535E+01  0.77459836117E+01  0.12700000000E+01 0. -1.
         -4   -1    0    0    0  501 -0.00000000000E+00 -0.00000000000E+00 -0.84524791125E+03  0.84524886535E+03  0.12700000000E+01 0. -1.
         25    2    1    2    0    0 -0.20699754678E+02  0.24082554857E+02 -0.64180704354E+03  0.65463665299E+03  0.12499766799E+03 0.  0.
    9000005    1    3    3    0    0 -0.30702871084E+01  0.54214992907E+02 -0.58790931953E+03  0.59041261852E+03  0.10000000000E+01 0.  0.
    9000005    1    3    3    0    0 -0.17629467570E+02 -0.30132438051E+02 -0.53897724017E+02  0.64224034472E+02  0.10000000000E+01 0.  0.
         21    1    1    2  502  501  0.20699754678E+02 -0.24082554857E+02 -0.19579970535E+03  0.19835819597E+03  0.00000000000E+00 0. -1.
<mgrwt>
<rscale>  1 0.12896847E+03</rscale>
<asrwt>0</asrwt>
<pdfrwt beam="1">  1        4 0.11837007E-02 0.12896847E+03</pdfrwt>
<pdfrwt beam="2">  1       -4 0.13004620E+00 0.12896847E+03</pdfrwt>
<totfact> 0.16938205E+03</totfact>
</mgrwt>
</event>
<event>
 6    4  0.2220150E-003  0.1279911E+03  0.7818608E-02  0.1230467E+00
         -4   -1    0    0    0  501 -0.00000000000E+00  0.00000000000E+00  0.34886731600E+03  0.34886962762E+03  0.12700000000E+01 0.  1.
          4   -1    0    0  502    0  0.00000000000E+00 -0.00000000000E+00 -0.14395085722E+03  0.14395645937E+03  0.12700000000E+01 0.  1.
         25    2    1    2    0    0 -0.23409125866E+02  0.14479798017E+02 -0.11479667332E+03  0.17193024942E+03  0.12499633089E+03 0.  0.
    9000005    1    3    3    0    0  0.23328641071E+02  0.58959737875E+02 -0.54548382233E+02  0.83648085386E+02  0.10000000000E+01 0.  0.
    9000005    1    3    3    0    0 -0.46737766937E+02 -0.44479939858E+02 -0.60248291086E+02  0.88282164036E+02  0.10000000000E+01 0.  0.
         21    1    1    2  502  501  0.23409125866E+02 -0.14479798017E+02  0.31971313210E+03  0.32089583756E+03  0.00000000000E+00 0.  1.
<mgrwt>
<rscale>  1 0.12799115E+03</rscale>
<asrwt>0</asrwt>
<pdfrwt beam="2">  1        4 0.22146895E-01 0.12799115E+03</pdfrwt>
<pdfrwt beam="1">  1       -4 0.53672503E-01 0.12799115E+03</pdfrwt>
<totfact> 0.10429705E+02</totfact>
</mgrwt>
</event>
<event>
 6    4  0.2220150E-003  0.1289476E+03  0.7818608E-02  0.1229026E+00
         -4   -1    0    0    0  501 -0.00000000000E+00  0.00000000000E+00  0.10929548930E+03  0.10930286767E+03  0.12700000000E+01 0.  1.
          4   -1    0    0  502    0  0.00000000000E+00 -0.00000000000E+00 -0.59535900461E+02  0.59549444529E+02  0.12700000000E+01 0.  1.
         25    2    1    2    0    0 -0.31628457263E+02  0.41676371851E+00  0.33220670364E+02  0.13315821150E+03  0.12500785315E+03 0.  0.
    9000005    1    3    3    0    0 -0.35195177890E+02  0.40748915509E+02  0.63004687040E+02  0.82884047023E+02  0.10000000000E+01 0.  0.
    9000005    1    3    3    0    0  0.35667206269E+01 -0.40332151791E+02 -0.29784016676E+02  0.50274164473E+02  0.10000000000E+01 0.  0.
         21    1    1    2  502  501  0.31628457263E+02 -0.41676371851E+00  0.16538918475E+02  0.35694100705E+02  0.00000000000E+00 0.  1.
<mgrwt>
<rscale>  1 0.12894765E+03</rscale>
<asrwt>0</asrwt>
<pdfrwt beam="2">  1        4 0.91609789E-02 0.12894765E+03</pdfrwt>
<pdfrwt beam="1">  1       -4 0.16816300E-01 0.12894765E+03</pdfrwt>
<totfact> 0.43737175E+03</totfact>
</mgrwt>
</event>
<event>
 6    4  0.2220150E-003  0.1310516E+03  0.7818608E-02  0.1225904E+00
         -4   -1    0    0    0  501 -0.00000000000E+00  0.00000000000E+00  0.60313417538E+01  0.61636014919E+01  0.12700000000E+01 0.  1.
          4   -1    0    0  502    0  0.00000000000E+00 -0.00000000000E+00 -0.11908419231E+04  0.11908426003E+04  0.12700000000E+01 0.  1.
         25    2    1    2    0    0 -0.24763821874E+02  0.30600008196E+02 -0.91824595580E+03  0.92755062667E+03  0.12499968929E+03 0.  0.
    9000005    1    3    3    0    0 -0.35434841518E+02 -0.42732731389E+02 -0.32735854739E+03  0.33203363214E+03  0.10000000000E+01 0.  0.
    9000005    1    3    3    0    0  0.10671019644E+02  0.73332739585E+02 -0.59088740841E+03  0.59551699453E+03  0.10000000000E+01 0.  0.
         21    1    1    2  502  501  0.24763821874E+02 -0.30600008196E+02 -0.26656462556E+03  0.26945557514E+03  0.00000000000E+00 0. -1.
<mgrwt>
<rscale>  1 0.13105163E+03</rscale>
<asrwt>0</asrwt>
<pdfrwt beam="2">  1        4 0.18321649E+00 0.13105163E+03</pdfrwt>
<pdfrwt beam="1">  1       -4 0.93812560E-03 0.13105163E+03</pdfrwt>
<totfact> 0.99763138E+02</totfact>
</mgrwt>
</event>
<event>
 6    4  0.2220150E-003  0.1276126E+03  0.7818608E-02  0.1231042E+00
          4   -1    0    0  502    0  0.00000000000E+00  0.00000000000E+00  0.31681853278E+02  0.31707297695E+02  0.12700000000E+01 0.  1.
         -4   -1    0    0    0  501 -0.00000000000E+00 -0.00000000000E+00 -0.20158132010E+03  0.20158532068E+03  0.12700000000E+01 0.  1.
         25    2    1    2    0    0 -0.81101300172E+00 -0.25672772385E+02 -0.11137371652E+03  0.16937851639E+03  0.12500091239E+03 0.  0.
    9000005    1    3    3    0    0 -0.27437491711E+02  0.13814706386E+02 -0.11740532482E+03  0.12136174175E+03  0.10000000000E+01 0.  0.
    9000005    1    3    3    0    0  0.26626478710E+02 -0.39487478771E+02  0.60316083023E+01  0.48016774641E+02  0.10000000000E+01 0.  0.
         21    1    1    2  502  501  0.81101300172E+00  0.25672772385E+02 -0.58525750302E+02  0.63914101984E+02  0.00000000000E+00 0.  1.
<mgrwt>
<rscale>  1 0.12761261E+03</rscale>
<asrwt>0</asrwt>
<pdfrwt beam="1">  1        4 0.48763964E-02 0.12761261E+03</pdfrwt>
<pdfrwt beam="2">  1       -4 0.31014775E-01 0.12761261E+03</pdfrwt>
<totfact> 0.40008799E+03</totfact>
</mgrwt>
</event>
<event>
 6    4  0.2220150E-003  0.1278230E+03  0.7818608E-02  0.1230722E+00
          4   -1    0    0  502    0  0.00000000000E+00  0.00000000000E+00  0.13748102814E+03  0.13748689391E+03  0.12700000000E+01 0. -1.
         -4   -1    0    0    0  501 -0.00000000000E+00 -0.00000000000E+00 -0.44288187775E+02  0.44306393178E+02  0.12700000000E+01 0. -1.
         25    2    1    2    0    0  0.20709867685E+02 -0.16881725957E+02  0.86206988916E+02  0.15417638264E+03  0.12499928294E+03 0.  0.
    9000005    1    3    3    0    0 -0.52194281082E+02 -0.59134958520E+00  0.44593723506E+02  0.68659979961E+02  0.10000000000E+01 0.  0.
    9000005    1    3    3    0    0  0.72904148768E+02 -0.16290376372E+02  0.41613265410E+02  0.85516402683E+02  0.10000000000E+01 0.  0.
         21    1    1    2  502  501 -0.20709867685E+02  0.16881725957E+02  0.69858514477E+01  0.27616904448E+02  0.00000000000E+00 0. -1.
<mgrwt>
<rscale>  1 0.12782297E+03</rscale>
<asrwt>0</asrwt>
<pdfrwt beam="1">  1        4 0.21152779E-01 0.12782297E+03</pdfrwt>
<pdfrwt beam="2">  1       -4 0.68154191E-02 0.12782297E+03</pdfrwt>
<totfact> 0.47249068E+03</totfact>
</mgrwt>
</event>
<event>
 6    4  0.2220150E-003  0.1270485E+03  0.7818608E-02  0.1231902E+00
          4   -1    0    0  502    0  0.00000000000E+00  0.00000000000E+00  0.40501288934E+03  0.40501488050E+03  0.12700000000E+01 0. -1.
         -4   -1    0    0    0  501 -0.00000000000E+00 -0.00000000000E+00 -0.14297288362E+02  0.14353583333E+02  0.12700000000E+01 0. -1.
         25    2    1    2    0    0 -0.16782539931E+02  0.15367571750E+02  0.35469277555E+03  0.37676025032E+03  0.12499402098E+03 0.  0.
    9000005    1    3    3    0    0  0.52694229198E+02  0.35748303276E+01  0.19839879710E+03  0.20531084700E+03  0.10000000000E+01 0.  0.
    9000005    1    3    3    0    0 -0.69476769129E+02  0.11792741423E+02  0.15629397845E+03  0.17144940332E+03  0.10000000000E+01 0.  0.
         21    1    1    2  502  501  0.16782539931E+02 -0.15367571750E+02  0.36022825424E+02  0.42608213522E+02  0.00000000000E+00 0.  1.
<mgrwt>
<rscale>  1 0.12704850E+03</rscale>
<asrwt>0</asrwt>
<pdfrwt beam="1">  1        4 0.62314152E-01 0.12704850E+03</pdfrwt>
<pdfrwt beam="2">  1       -4 0.22040666E-02 0.12704850E+03</pdfrwt>
<totfact> 0.34571864E+03</totfact>
</mgrwt>
</event>
<event>
 6    4  0.2220150E-003  0.1328305E+03  0.7818608E-02  0.1223315E+00
          4   -1    0    0  502    0  0.00000000000E+00  0.00000000000E+00  0.15877887923E+02  0.15928597707E+02  0.12700000000E+01 0.  1.
         -4   -1    0    0    0  501 -0.00000000000E+00 -0.00000000000E+00 -0.54061679179E+03  0.54061828351E+03  0.12700000000E+01 0.  1.
         25    2    1    2    0    0  0.37279913928E+02 -0.25160521940E+02 -0.31188097606E+03  0.33898920777E+03  0.12498438265E+03 0.  0.
    9000005    1    3    3    0    0 -0.33605402752E+01 -0.70457788438E+02 -0.14252324353E+03  0.15902662711E+03  0.10000000000E+01 0.  0.
    9000005    1    3    3    0    0  0.40640454203E+02  0.45297266499E+02 -0.16935773253E+03  0.17996258066E+03  0.10000000000E+01 0.  0.
         21    1    1    2  502  501 -0.37279913928E+02  0.25160521940E+02 -0.21285792780E+03  0.21755767344E+03  0.00000000000E+00 0.  1.
<mgrwt>
<rscale>  1 0.13283049E+03</rscale>
<asrwt>0</asrwt>
<pdfrwt beam="1">  1        4 0.24467679E-02 0.13283049E+03</pdfrwt>
<pdfrwt beam="2">  1       -4 0.83175816E-01 0.13283049E+03</pdfrwt>
<totfact> 0.15894176E+03</totfact>
</mgrwt>
</event>
<event>
 6    4  0.2220150E-003  0.1444821E+03  0.7818608E-02  0.1207422E+00
         -4   -1    0    0    0  501 -0.00000000000E+00  0.00000000000E+00  0.91143501936E+03  0.91143590417E+03  0.12700000000E+01 0. -1.
          4   -1    0    0  502    0  0.00000000000E+00 -0.00000000000E+00 -0.13764304821E+02  0.13822770605E+02  0.12700000000E+01 0. -1.
         25    2    1    2    0    0 -0.59044386738E+02  0.41996987160E+02  0.47728123838E+03  0.49867070237E+03  0.12500040943E+03 0.  0.
    9000005    1    3    3    0    0 -0.63857001419E+02  0.82048126923E+02  0.33319839906E+03  0.34904410165E+03  0.10000000000E+01 0.  0.
    9000005    1    3    3    0    0  0.48126146811E+01 -0.40051139764E+02  0.14408283931E+03  0.14962660071E+03  0.10000000000E+01 0.  0.
         21    1    1    2  502  501  0.59044386738E+02 -0.41996987160E+02  0.42038947616E+03  0.42658797241E+03  0.00000000000E+00 0. -1.
<mgrwt>
<rscale>  1 0.14448214E+03</rscale>
<asrwt>0</asrwt>
<pdfrwt beam="2">  1        4 0.21221503E-02 0.14448214E+03</pdfrwt>
<pdfrwt beam="1">  1       -4 0.14022537E+00 0.14448214E+03</pdfrwt>
<totfact> 0.58951173E+02</totfact>
</mgrwt>
</event>
<event>
 6    4  0.2220150E-003  0.1268194E+03  0.7818608E-02  0.1232253E+00
         -4   -1    0    0    0  501 -0.00000000000E+00  0.00000000000E+00  0.11624364349E+04  0.11624371287E+04  0.12700000000E+01 0.  1.
          4   -1    0    0  502    0  0.00000000000E+00 -0.00000000000E+00 -0.66123239379E+01  0.67331811100E+01  0.12700000000E+01 0.  1.
         25    2    1    2    0    0 -0.10562535516E+01  0.21386843782E+02  0.61586607517E+03  0.62878785893E+03  0.12499854492E+03 0.  0.
    9000005    1    3    3    0    0  0.54499471064E+01 -0.37011893150E+02  0.66664350574E+02  0.76450754054E+02  0.10000000000E+01 0.  0.
    9000005    1    3    3    0    0 -0.65062006580E+01  0.58398736932E+02  0.54920172460E+03  0.55233710488E+03  0.10000000000E+01 0.  0.
         21    1    1    2  502  501  0.10562535516E+01 -0.21386843782E+02  0.53995803583E+03  0.54038245087E+03  0.00000000000E+00 0.  1.
<mgrwt>
<rscale>  1 0.12681936E+03</rscale>
<asrwt>0</asrwt>
<pdfrwt beam="2">  1        4 0.10266310E-02 0.12681936E+03</pdfrwt>
<pdfrwt beam="1">  1       -4 0.17884567E+00 0.12681936E+03</pdfrwt>
<totfact> 0.92436139E+02</totfact>
</mgrwt>
</event>
<event>
 6    4  0.2220150E-003  0.1290945E+03  0.7818608E-02  0.1228805E+00
          4   -1    0    0  502    0  0.00000000000E+00  0.00000000000E+00  0.40610830834E+03  0.40611029414E+03  0.12700000000E+01 0.  1.
         -4   -1    0    0    0  501 -0.00000000000E+00 -0.00000000000E+00 -0.26280710561E+02  0.26311378672E+02  0.12700000000E+01 0.  1.
         25    2    1    2    0    0 -0.26489841074E+02 -0.18385413981E+02  0.37876376489E+03  0.40015920440E+03  0.12500265654E+03 0.  0.
    9000005    1    3    3    0    0 -0.59649649154E+02 -0.21118766492E+02  0.35144320002E+03  0.35709579356E+03  0.10000000000E+01 0.  0.
    9000005    1    3    3    0    0  0.33159808080E+02  0.27333525111E+01  0.27320564878E+02  0.43063410839E+02  0.10000000000E+01 0.  0.
         21    1    1    2  502  501  0.26489841074E+02  0.18385413981E+02  0.10638328870E+01  0.32262468408E+02  0.00000000000E+00 0.  1.
<mgrwt>
<rscale>  1 0.12909454E+03</rscale>
<asrwt>0</asrwt>
<pdfrwt beam="1">  1        4 0.62480708E-01 0.12909454E+03</pdfrwt>
<pdfrwt beam="2">  1       -4 0.40456984E-02 0.12909454E+03</pdfrwt>
<totfact> 0.13340123E+03</totfact>
</mgrwt>
</event>
<event>
 6    4  0.2220150E-003  0.1269415E+03  0.7818608E-02  0.1232066E+00
          4   -1    0    0  502    0  0.00000000000E+00  0.00000000000E+00  0.18395718434E+02  0.18439505326E+02  0.12700000000E+01 0. -1.
         -4   -1    0    0    0  501 -0.00000000000E+00 -0.00000000000E+00 -0.32747106275E+03  0.32747352540E+03  0.12700000000E+01 0. -1.
         25    2    1    2    0    0  0.83882958055E+01  0.20450507684E+02 -0.21867478647E+03  0.25284935559E+03  0.12500219044E+03 0.  0.
    9000005    1    3    3    0    0  0.19753784971E+02  0.54818806785E+02 -0.20662231965E+03  0.21468371288E+03  0.10000000000E+01 0.  0.
    9000005    1    3    3    0    0 -0.11365489165E+02 -0.34368299101E+02 -0.12052466819E+02  0.38165642710E+02  0.10000000000E+01 0.  0.
         21    1    1    2  502  501 -0.83882958055E+01 -0.20450507684E+02 -0.90400557841E+02  0.93063675132E+02  0.00000000000E+00 0.  1.
<mgrwt>
<rscale>  1 0.12694146E+03</rscale>
<asrwt>0</asrwt>
<pdfrwt beam="1">  1        4 0.28336684E-02 0.12694146E+03</pdfrwt>
<pdfrwt beam="2">  1       -4 0.50383717E-01 0.12694146E+03</pdfrwt>
<totfact> 0.36357777E+03</totfact>
</mgrwt>
</event>
<event>
 6    4  0.2220150E-003  0.1269114E+03  0.7818608E-02  0.1232112E+00
         -4   -1    0    0    0  501 -0.00000000000E+00  0.00000000000E+00  0.37459385169E+03  0.37459600455E+03  0.12700000000E+01 0.  1.
          4   -1    0    0  502    0  0.00000000000E+00 -0.00000000000E+00 -0.14772571983E+02  0.14827062521E+02  0.12700000000E+01 0.  1.
         25    2    1    2    0    0 -0.58980625816E+01 -0.21107864336E+02  0.31168160736E+03  0.33652923820E+03  0.12500469878E+03 0.  0.
    9000005    1    3    3    0    0 -0.21564148743E+01 -0.26813463373E+02  0.22409308164E+01  0.27011732897E+02  0.10000000000E+01 0.  0.
    9000005    1    3    3    0    0 -0.37416477072E+01  0.57055990365E+01  0.30944067654E+03  0.30951750530E+03  0.10000000000E+01 0.  0.
         21    1    1    2  502  501  0.58980625816E+01  0.21107864336E+02  0.48139672351E+02  0.52893828876E+02  0.00000000000E+00 0. -1.
<mgrwt>
<rscale>  1 0.12691140E+03</rscale>
<asrwt>0</asrwt>
<pdfrwt beam="2">  1        4 0.22770608E-02 0.12691140E+03</pdfrwt>
<pdfrwt beam="1">  1       -4 0.57634175E-01 0.12691140E+03</pdfrwt>
<totfact> 0.38710437E+03</totfact>
</mgrwt>
</event>
<event>
 6    4  0.2220150E-003  0.1269896E+03  0.7818608E-02  0.1231992E+00
          4   -1    0    0  502    0  0.00000000000E+00  0.00000000000E+00  0.97342170483E+01  0.98167143966E+01  0.12700000000E+01 0. -1.
         -4   -1    0    0    0  501 -0.00000000000E+00 -0.00000000000E+00 -0.57055741228E+03  0.57055882572E+03  0.12700000000E+01 0. -1.
         25    2    1    2    0    0 -0.16374262130E+02  0.15246605651E+02 -0.47947418486E+03  0.49600589550E+03  0.12500311588E+03 0.  0.
    9000005    1    3    3    0    0  0.10326533042E+02  0.44395869305E+02 -0.43120142109E+03  0.43360500002E+03  0.10000000000E+01 0.  0.
    9000005    1    3    3    0    0 -0.26700795172E+02 -0.29149263653E+02 -0.48272763772E+02  0.62400895479E+02  0.10000000000E+01 0.  0.
         21    1    1    2  502  501  0.16374262130E+02 -0.15246605651E+02 -0.81349010369E+02  0.84369644613E+02  0.00000000000E+00 0.  1.
<mgrwt>
<rscale>  1 0.12698958E+03</rscale>
<asrwt>0</asrwt>
<pdfrwt beam="1">  1        4 0.15040270E-02 0.12698958E+03</pdfrwt>
<pdfrwt beam="2">  1       -4 0.87784492E-01 0.12698958E+03</pdfrwt>
<totfact> 0.29456623E+03</totfact>
</mgrwt>
</event>
<event>
 6    4  0.2220150E-003  0.1288054E+03  0.7818608E-02  0.1229239E+00
         -4   -1    0    0    0  501 -0.00000000000E+00  0.00000000000E+00  0.33426228514E+02  0.33450346077E+02  0.12700000000E+01 0. -1.
          4   -1    0    0  502    0  0.00000000000E+00 -0.00000000000E+00 -0.34855878208E+03  0.34856109574E+03  0.12700000000E+01 0. -1.
         25    2    1    2    0    0 -0.15849268941E+02 -0.26740881521E+02 -0.32484073988E+03  0.34944577044E+03  0.12499826447E+03 0.  0.
    9000005    1    3    3    0    0 -0.44821369866E+02  0.68876760489E+01 -0.28857516847E+03  0.29211816639E+03  0.10000000000E+01 0.  0.
    9000005    1    3    3    0    0  0.28972100925E+02 -0.33628557570E+02 -0.36265571415E+02  0.57327604052E+02  0.10000000000E+01 0.  0.
         21    1    1    2  502  501  0.15849268941E+02  0.26740881521E+02  0.97081863203E+01  0.32565671375E+02  0.00000000000E+00 0. -1.
<mgrwt>
<rscale>  1 0.12880544E+03</rscale>
<asrwt>0</asrwt>
<pdfrwt beam="2">  1        4 0.53626459E-01 0.12880544E+03</pdfrwt>
<pdfrwt beam="1">  1       -4 0.51445301E-02 0.12880544E+03</pdfrwt>
<totfact> 0.12490138E+03</totfact>
</mgrwt>
</event>
<event>
 6    4  0.2220150E-003  0.1313037E+03  0.7818608E-02  0.1225534E+00
          4   -1    0    0  502    0  0.00000000000E+00  0.00000000000E+00  0.23259185782E+03  0.23259532502E+03  0.12700000000E+01 0.  1.
         -4   -1    0    0    0  501 -0.00000000000E+00 -0.00000000000E+00 -0.31636345227E+02  0.31661826216E+02  0.12700000000E+01 0.  1.
         25    2    1    2    0    0  0.21923334555E+01  0.40134127591E+02  0.14980625266E+03  0.19920485447E+03  0.12500042474E+03 0.  0.
    9000005    1    3    3    0    0 -0.37820423862E+02  0.57721746387E+02  0.13740056184E+03  0.15375987403E+03  0.10000000000E+01 0.  0.
    9000005    1    3    3    0    0  0.40012757318E+02 -0.17587618797E+02  0.12405690825E+02  0.45444980448E+02  0.10000000000E+01 0.  0.
         21    1    1    2  502  501 -0.21923334555E+01 -0.40134127591E+02  0.51149259927E+02  0.65052296766E+02  0.00000000000E+00 0.  1.
<mgrwt>
<rscale>  1 0.13130370E+03</rscale>
<asrwt>0</asrwt>
<pdfrwt beam="1">  1        4 0.35785589E-01 0.13130370E+03</pdfrwt>
<pdfrwt beam="2">  1       -4 0.48693570E-02 0.13130370E+03</pdfrwt>
<totfact> 0.30703369E+03</totfact>
</mgrwt>
</event>
<event>
 6    4  0.2220150E-003  0.1393469E+03  0.7818608E-02  0.1214211E+00
         -4   -1    0    0    0  501 -0.00000000000E+00  0.00000000000E+00  0.46141976773E+01  0.47857831340E+01  0.12700000000E+01 0. -1.
          4   -1    0    0  502    0  0.00000000000E+00 -0.00000000000E+00 -0.26232129034E+04  0.26232132108E+04  0.12700000000E+01 0. -1.
         25    2    1    2    0    0  0.28363563208E+02 -0.54672889949E+02 -0.22481905718E+04  0.22525049164E+04  0.12499573847E+03 0.  0.
    9000005    1    3    3    0    0 -0.23251490404E+02 -0.58041691243E+02 -0.18381754104E+04  0.18392387853E+04  0.10000000000E+01 0.  0.
    9000005    1    3    3    0    0  0.51615053613E+02  0.33688012944E+01 -0.41001516134E+03  0.41326613110E+03  0.10000000000E+01 0.  0.
         21    1    1    2  502  501 -0.28363563208E+02  0.54672889949E+02 -0.37040813397E+03  0.37549407761E+03  0.00000000000E+00 0. -1.
<mgrwt>
<rscale>  1 0.13934687E+03</rscale>
<asrwt>0</asrwt>
<pdfrwt beam="2">  1        4 0.40358327E+00 0.13934687E+03</pdfrwt>
<pdfrwt beam="1">  1       -4 0.72310119E-03 0.13934687E+03</pdfrwt>
<totfact> 0.70091241E+01</totfact>
</mgrwt>
</event>
<event>
 6    4  0.2220150E-003  0.1320729E+03  0.7818608E-02  0.1224412E+00
          4   -1    0    0  502    0  0.00000000000E+00  0.00000000000E+00  0.13976316087E+03  0.13976893087E+03  0.12700000000E+01 0. -1.
         -4   -1    0    0    0  501 -0.00000000000E+00 -0.00000000000E+00 -0.55391278153E+02  0.55405835392E+02  0.12700000000E+01 0. -1.
         25    2    1    2    0    0  0.36258176811E+02 -0.22443150985E+02  0.73588328869E+02  0.15119027529E+03  0.12499962714E+03 0.  0.
    9000005    1    3    3    0    0 -0.22850215822E+01 -0.39899996072E+02  0.95500392172E+02  0.10353045888E+03  0.10000000000E+01 0.  0.
    9000005    1    3    3    0    0  0.38543198393E+02  0.17456845087E+02 -0.21912063303E+02  0.47659816418E+02  0.10000000000E+01 0.  0.
         21    1    1    2  502  501 -0.36258176811E+02  0.22443150985E+02  0.10783553844E+02  0.43984490963E+02  0.00000000000E+00 0.  1.
<mgrwt>
<rscale>  1 0.13207292E+03</rscale>
<asrwt>0</asrwt>
<pdfrwt beam="1">  1        4 0.21503588E-01 0.13207292E+03</pdfrwt>
<pdfrwt beam="2">  1       -4 0.85232988E-02 0.13207292E+03</pdfrwt>
<totfact> 0.31970789E+03</totfact>
</mgrwt>
</event>
<event>
 6    4  0.2220150E-003  0.1267749E+03  0.7818608E-02  0.1232321E+00
         -4   -1    0    0    0  501 -0.00000000000E+00  0.00000000000E+00  0.38986689714E+01  0.41003072749E+01  0.12700000000E+01 0. -1.
          4   -1    0    0  502    0  0.00000000000E+00 -0.00000000000E+00 -0.20503911665E+04  0.20503915598E+04  0.12700000000E+01 0. -1.
         25    2    1    2    0    0 -0.38819714740E+01  0.20791143480E+02 -0.19921314916E+04  0.19961612549E+04  0.12499813802E+03 0.  0.
    9000005    1    3    3    0    0 -0.52787880261E+01  0.70210084720E+02 -0.83126315479E+03  0.83424022566E+03  0.10000000000E+01 0.  0.
    9000005    1    3    3    0    0  0.13968165521E+01 -0.49418941240E+02 -0.11608683368E+04  0.11619210292E+04  0.10000000000E+01 0.  0.
         21    1    1    2  502  501  0.38819714740E+01 -0.20791143480E+02 -0.54361005973E+02  0.58330612204E+02  0.00000000000E+00 0. -1.
<mgrwt>
<rscale>  1 0.12677490E+03</rscale>
<asrwt>0</asrwt>
<pdfrwt beam="2">  1        4 0.31545950E+00 0.12677490E+03</pdfrwt>
<pdfrwt beam="1">  1       -4 0.61533776E-03 0.12677490E+03</pdfrwt>
<totfact> 0.30940221E+02</totfact>
</mgrwt>
</event>
<event>
 6    4  0.2220150E-003  0.2088704E+03  0.7818608E-02  0.1142464E+00
         -4   -1    0    0    0  501 -0.00000000000E+00  0.00000000000E+00  0.44545877314E+02  0.44563977444E+02  0.12700000000E+01 0.  1.
          4   -1    0    0  502    0  0.00000000000E+00 -0.00000000000E+00 -0.12808471043E+04  0.12808477339E+04  0.12700000000E+01 0.  1.
         25    2    1    2    0    0 -0.10708271481E+03 -0.12859516682E+03 -0.10674186715E+04  0.10876623848E+04  0.12499367291E+03 0.  0.
    9000005    1    3    3    0    0 -0.12644493941E+03 -0.13319574478E+03 -0.10169746670E+04  0.10334253250E+04  0.10000000000E+01 0.  0.
    9000005    1    3    3    0    0  0.19362224601E+02  0.46005779589E+01 -0.50444004526E+02  0.54237059762E+02  0.10000000000E+01 0.  0.
         21    1    1    2  502  501  0.10708271481E+03  0.12859516682E+03 -0.16888255548E+03  0.23774932658E+03  0.00000000000E+00 0.  1.
<mgrwt>
<rscale>  1 0.20887040E+03</rscale>
<asrwt>0</asrwt>
<pdfrwt beam="2">  1        4 0.19705481E+00 0.20887040E+03</pdfrwt>
<pdfrwt beam="1">  1       -4 0.68546536E-02 0.20887040E+03</pdfrwt>
<totfact> 0.38578806E+01</totfact>
</mgrwt>
</event>
<event>
 6    4  0.2220150E-003  0.1343516E+03  0.7818608E-02  0.1221138E+00
         -4   -1    0    0    0  501 -0.00000000000E+00  0.00000000000E+00  0.62196934965E+03  0.62197064626E+03  0.12700000000E+01 0.  1.
          4   -1    0    0  502    0  0.00000000000E+00 -0.00000000000E+00 -0.14178882403E+02  0.14235645620E+02  0.12700000000E+01 0.  1.
         25    2    1    2    0    0  0.39576963024E+02  0.29329007395E+02  0.49923723097E+03  0.51699919568E+03  0.12499531540E+03 0.  0.
    9000005    1    3    3    0    0  0.36283196725E+00  0.68457780296E+02  0.37160676447E+03  0.37786133267E+03  0.10000000000E+01 0.  0.
    9000005    1    3    3    0    0  0.39214131057E+02 -0.39128772901E+02  0.12763046650E+03  0.13913786301E+03  0.10000000000E+01 0.  0.
         21    1    1    2  502  501 -0.39576963024E+02 -0.29329007395E+02  0.10855323627E+03  0.11920709619E+03  0.00000000000E+00 0.  1.
<mgrwt>
<rscale>  1 0.13435161E+03</rscale>
<asrwt>0</asrwt>
<pdfrwt beam="2">  1        4 0.21858327E-02 0.13435161E+03</pdfrwt>
<pdfrwt beam="1">  1       -4 0.95692055E-01 0.13435161E+03</pdfrwt>
<totfact> 0.13830580E+03</totfact>
</mgrwt>
</event>
<event>
 6    4  0.2220150E-003  0.1266921E+03  0.7818608E-02  0.1232448E+00
         -4   -1    0    0    0  501 -0.00000000000E+00  0.00000000000E+00  0.22797429180E+02  0.22832776380E+02  0.12700000000E+01 0.  1.
          4   -1    0    0  502    0  0.00000000000E+00 -0.00000000000E+00 -0.41554059896E+03  0.41554253968E+03  0.12700000000E+01 0.  1.
         25    2    1    2    0    0 -0.19615210369E+02 -0.64102851405E+01 -0.39749704957E+03  0.41719873451E+03  0.12500012568E+03 0.  0.
    9000005    1    3    3    0    0 -0.26140357258E+02  0.33789887569E+02 -0.35771385904E+03  0.36025724105E+03  0.10000000000E+01 0.  0.
    9000005    1    3    3    0    0  0.65251468896E+01 -0.40200172710E+02 -0.39783190530E+02  0.56941493452E+02  0.10000000000E+01 0.  0.
         21    1    1    2  502  501  0.19615210369E+02  0.64102851405E+01  0.47538797909E+01  0.21176581557E+02  0.00000000000E+00 0. -1.
<mgrwt>
<rscale>  1 0.12669207E+03</rscale>
<asrwt>0</asrwt>
<pdfrwt beam="2">  1        4 0.63932186E-01 0.12669207E+03</pdfrwt>
<pdfrwt beam="1">  1       -4 0.35101654E-02 0.12669207E+03</pdfrwt>
<totfact> 0.15839490E+03</totfact>
</mgrwt>
</event>
<event>
 6    4  0.2220150E-003  0.1284260E+03  0.7818608E-02  0.1229810E+00
         -4   -1    0    0    0  501 -0.00000000000E+00  0.00000000000E+00  0.94887353183E+02  0.94895851828E+02  0.12700000000E+01 0.  1.
          4   -1    0    0  502    0  0.00000000000E+00 -0.00000000000E+00 -0.67593376839E+02  0.67605306689E+02  0.12700000000E+01 0.  1.
         25    2    1    2    0    0  0.28987200753E+02 -0.49470409175E+01  0.11034918376E+02  0.12889925400E+03  0.12501406815E+03 0.  0.
    9000005    1    3    3    0    0 -0.39083916079E+02 -0.15550093838E+02 -0.27200100101E+02  0.50101929703E+02  0.10000000000E+01 0.  0.
    9000005    1    3    3    0    0  0.68071116831E+02  0.10603052921E+02  0.38235018477E+02  0.78797324294E+02  0.10000000000E+01 0.  0.
         21    1    1    2  502  501 -0.28987200753E+02  0.49470409175E+01  0.16259057969E+02  0.33601904520E+02  0.00000000000E+00 0.  1.
<mgrwt>
<rscale>  1 0.12842604E+03</rscale>
<asrwt>0</asrwt>
<pdfrwt beam="2">  1        4 0.10400553E-01 0.12842604E+03</pdfrwt>
<pdfrwt beam="1">  1       -4 0.14599626E-01 0.12842604E+03</pdfrwt>
<totfact> 0.45221873E+03</totfact>
</mgrwt>
</event>
<event>
 6    4  0.2220150E-003  0.1295756E+03  0.7818608E-02  0.1228087E+00
          4   -1    0    0  502    0  0.00000000000E+00  0.00000000000E+00  0.16656685257E+04  0.16656690099E+04  0.12700000000E+01 0.  1.
         -4   -1    0    0    0  501 -0.00000000000E+00 -0.00000000000E+00 -0.41434630624E+01  0.43337265892E+01  0.12700000000E+01 0.  1.
         25    2    1    2    0    0  0.13047152259E+02 -0.31547227871E+02  0.14455968120E+04  0.14513924320E+04  0.12499757263E+03 0.  0.
    9000005    1    3    3    0    0  0.37123716047E+02 -0.34240112235E+02  0.13877542937E+04  0.13886733004E+04  0.10000000000E+01 0.  0.
    9000005    1    3    3    0    0 -0.24076563788E+02  0.26928843644E+01  0.57842518280E+02  0.62719131619E+02  0.10000000000E+01 0.  0.
         21    1    1    2  502  501 -0.13047152259E+02  0.31547227871E+02  0.21592825068E+03  0.21861030445E+03  0.00000000000E+00 0.  1.
<mgrwt>
<rscale>  1 0.12957565E+03</rscale>
<asrwt>0</asrwt>
<pdfrwt beam="1">  1        4 0.25627107E+00 0.12957565E+03</pdfrwt>
<pdfrwt beam="2">  1       -4 0.65212953E-03 0.12957565E+03</pdfrwt>
<totfact> 0.62371780E+02</totfact>
</mgrwt>
</event>
<event>
 6    4  0.2220150E-003  0.2259042E+03  0.7818608E-02  0.1129556E+00
          4   -1    0    0  502    0  0.00000000000E+00  0.00000000000E+00  0.16097065905E+04  0.16097070915E+04  0.12700000000E+01 0.  1.
         -4   -1    0    0    0  501 -0.00000000000E+00 -0.00000000000E+00 -0.28344709611E+02  0.28373146864E+02  0.12700000000E+01 0.  1.
         25    2    1    2    0    0 -0.14275755853E+03  0.12258840009E+03  0.10598911275E+04  0.10836982554E+04  0.12500028126E+03 0.  0.
    9000005    1    3    3    0    0  0.22820639717E+02  0.24174795078E+02  0.16183682287E+03  0.16521912587E+03  0.10000000000E+01 0.  0.
    9000005    1    3    3    0    0 -0.16557819824E+03  0.98413605010E+02  0.89805430462E+03  0.91847912955E+03  0.10000000000E+01 0.  0.
         21    1    1    2  502  501  0.14275755853E+03 -0.12258840009E+03  0.52147075337E+03  0.55438198291E+03  0.00000000000E+00 0.  1.
<mgrwt>
<rscale>  1 0.22590420E+03</rscale>
<asrwt>0</asrwt>
<pdfrwt beam="1">  1        4 0.24764944E+00 0.22590420E+03</pdfrwt>
<pdfrwt beam="2">  1       -4 0.43629497E-02 0.22590420E+03</pdfrwt>
<totfact> 0.40007683E+01</totfact>
</mgrwt>
</event>
<event>
 6    4  0.2220150E-003  0.1266906E+03  0.7818608E-02  0.1232451E+00
         -4   -1    0    0    0  501 -0.00000000000E+00  0.00000000000E+00  0.43520163234E+02  0.43538689781E+02  0.12700000000E+01 0. -1.
          4   -1    0    0  502    0  0.00000000000E+00 -0.00000000000E+00 -0.13340900557E+03  0.13341505038E+03  0.12700000000E+01 0. -1.
         25    2    1    2    0    0  0.14154870218E+02 -0.15003442379E+02 -0.91479404713E+02  0.15626573584E+03  0.12500014031E+03 0.  0.
    9000005    1    3    3    0    0 -0.18027625348E+02 -0.52052043770E+02 -0.31136047161E+01  0.55182470683E+02  0.10000000000E+01 0.  0.
    9000005    1    3    3    0    0  0.32182495566E+02  0.37048601391E+02 -0.88365799997E+02  0.10108326516E+03  0.10000000000E+01 0.  0.
         21    1    1    2  502  501 -0.14154870218E+02  0.15003442379E+02  0.15905623742E+01  0.20688004320E+02  0.00000000000E+00 0. -1.
<mgrwt>
<rscale>  1 0.12669056E+03</rscale>
<asrwt>0</asrwt>
<pdfrwt beam="2">  1        4 0.20526352E-01 0.12669056E+03</pdfrwt>
<pdfrwt beam="1">  1       -4 0.66972999E-02 0.12669056E+03</pdfrwt>
<totfact> 0.51215402E+03</totfact>
</mgrwt>
</event>
<event>
 6    4  0.2220150E-003  0.1468111E+03  0.7818608E-02  0.1204447E+00
         -4   -1    0    0    0  501 -0.00000000000E+00  0.00000000000E+00  0.42391416588E+02  0.42410436220E+02  0.12700000000E+01 0.  1.
          4   -1    0    0  502    0  0.00000000000E+00 -0.00000000000E+00 -0.42078918756E+03  0.42079110407E+03  0.12700000000E+01 0.  1.
         25    2    1    2    0    0 -0.58069400626E+02  0.50563010415E+02 -0.35268930095E+03  0.38202519680E+03  0.12499933870E+03 0.  0.
    9000005    1    3    3    0    0 -0.22766355561E+02 -0.41475875462E+02 -0.13499736629E+03  0.14305189302E+03  0.10000000000E+01 0.  0.
    9000005    1    3    3    0    0 -0.35303045065E+02  0.92038885878E+02 -0.21769193466E+03  0.23897330378E+03  0.10000000000E+01 0.  0.
         21    1    1    2  502  501  0.58069400626E+02 -0.50563010415E+02 -0.25708470016E+02  0.81176343487E+02  0.00000000000E+00 0. -1.
<mgrwt>
<rscale>  1 0.14681113E+03</rscale>
<asrwt>0</asrwt>
<pdfrwt beam="2">  1        4 0.64738406E-01 0.14681113E+03</pdfrwt>
<pdfrwt beam="1">  1       -4 0.65233672E-02 0.14681113E+03</pdfrwt>
<totfact> 0.58831655E+02</totfact>
</mgrwt>
</event>
<event>
 6    4  0.2220150E-003  0.1279032E+03  0.7818608E-02  0.1230601E+00
          4   -1    0    0  502    0  0.00000000000E+00  0.00000000000E+00  0.13540367010E+03  0.13540962587E+03  0.12700000000E+01 0.  1.
         -4   -1    0    0    0  501 -0.00000000000E+00 -0.00000000000E+00 -0.44492877241E+02  0.44510998924E+02  0.12700000000E+01 0.  1.
         25    2    1    2    0    0 -0.25252853513E+02  0.98427872575E+01  0.70983724097E+02  0.14628024517E+03  0.12499853587E+03 0.  0.
    9000005    1    3    3    0    0 -0.67790338289E+02 -0.15879512720E+02  0.66620873984E+02  0.96369236481E+02  0.10000000000E+01 0.  0.
    9000005    1    3    3    0    0  0.42537484776E+02  0.25722299978E+02  0.43628501132E+01  0.49911008689E+02  0.10000000000E+01 0.  0.
         21    1    1    2  502  501  0.25252853513E+02 -0.98427872575E+01  0.19927068765E+02  0.33640379622E+02  0.00000000000E+00 0. -1.
<mgrwt>
<rscale>  1 0.12790317E+03</rscale>
<asrwt>0</asrwt>
<pdfrwt beam="1">  1        4 0.20833186E-01 0.12790317E+03</pdfrwt>
<pdfrwt beam="2">  1       -4 0.68469102E-02 0.12790317E+03</pdfrwt>
<totfact> 0.48209054E+03</totfact>
</mgrwt>
</event>
<event>
 6    4  0.2220150E-003  0.1368910E+03  0.7818608E-02  0.1217575E+00
         -4   -1    0    0    0  501 -0.00000000000E+00  0.00000000000E+00  0.11297261886E+03  0.11297975709E+03  0.12700000000E+01 0. -1.
          4   -1    0    0  502    0  0.00000000000E+00 -0.00000000000E+00 -0.22937381729E+03  0.22937733314E+03  0.12700000000E+01 0. -1.
         25    2    1    2    0    0  0.11062881338E+02  0.54699091227E+02 -0.19968672377E+03  0.24210312943E+03  0.12499903883E+03 0.  0.
    9000005    1    3    3    0    0 -0.23151788349E+02  0.31174721263E+02 -0.19665984812E+03  0.20045938344E+03  0.10000000000E+01 0.  0.
    9000005    1    3    3    0    0  0.34214669687E+02  0.23524369964E+02 -0.30268756541E+01  0.41643745991E+02  0.10000000000E+01 0.  0.
         21    1    1    2  502  501 -0.11062881338E+02 -0.54699091227E+02  0.83285525340E+02  0.10025396080E+03  0.00000000000E+00 0. -1.
<mgrwt>
<rscale>  1 0.13689097E+03</rscale>
<asrwt>0</asrwt>
<pdfrwt beam="2">  1        4 0.35289099E-01 0.13689097E+03</pdfrwt>
<pdfrwt beam="1">  1       -4 0.17381222E-01 0.13689097E+03</pdfrwt>
<totfact> 0.37604933E+02</totfact>
</mgrwt>
</event>
<event>
 6    4  0.2220150E-003  0.1463189E+03  0.7818608E-02  0.1205071E+00
         -4   -1    0    0    0  501 -0.00000000000E+00  0.00000000000E+00  0.26782064510E+02  0.26812159171E+02  0.12700000000E+01 0.  1.
          4   -1    0    0  502    0  0.00000000000E+00 -0.00000000000E+00 -0.46167754942E+03  0.46167929620E+03  0.12700000000E+01 0.  1.
         25    2    1    2    0    0  0.71615289907E+02 -0.25586066174E+02 -0.27931208213E+03  0.31531642325E+03  0.12500324401E+03 0.  0.
    9000005    1    3    3    0    0  0.15284029241E+01 -0.63265741900E+02 -0.90667956079E+02  0.11057381414E+03  0.10000000000E+01 0.  0.
    9000005    1    3    3    0    0  0.70086886983E+02  0.37679675726E+02 -0.18864412606E+03  0.20474260911E+03  0.10000000000E+01 0.  0.
         21    1    1    2  502  501 -0.71615289907E+02  0.25586066174E+02 -0.15558340277E+03  0.17317503212E+03  0.00000000000E+00 0.  1.
<mgrwt>
<rscale>  1 0.14631886E+03</rscale>
<asrwt>0</asrwt>
<pdfrwt beam="2">  1        4 0.71029759E-01 0.14631886E+03</pdfrwt>
<pdfrwt beam="1">  1       -4 0.41227673E-02 0.14631886E+03</pdfrwt>
<totfact> 0.10102443E+03</totfact>
</mgrwt>
</event>
<event>
 6    4  0.2220150E-003  0.1270095E+03  0.7818608E-02  0.1231962E+00
          4   -1    0    0  502    0  0.00000000000E+00  0.00000000000E+00  0.38610671439E+02  0.38631552505E+02  0.12700000000E+01 0.  1.
         -4   -1    0    0    0  501 -0.00000000000E+00 -0.00000000000E+00 -0.17726680465E+03  0.17727135395E+03  0.12700000000E+01 0.  1.
         25    2    1    2    0    0  0.18470807993E+02 -0.12721257796E+02 -0.72937162325E+02  0.14646239751E+03  0.12501361161E+03 0.  0.
    9000005    1    3    3    0    0  0.32955646642E+02  0.49062986543E+02 -0.54422587081E+02  0.80349668815E+02  0.10000000000E+01 0.  0.
    9000005    1    3    3    0    0 -0.14484838650E+02 -0.61784244339E+02 -0.18514575244E+02  0.66112728697E+02  0.10000000000E+01 0.  0.
         21    1    1    2  502  501 -0.18470807993E+02  0.12721257796E+02 -0.65718970888E+02  0.69440508944E+02  0.00000000000E+00 0.  1.
<mgrwt>
<rscale>  1 0.12700947E+03</rscale>
<asrwt>0</asrwt>
<pdfrwt beam="1">  1        4 0.59420596E-02 0.12700947E+03</pdfrwt>
<pdfrwt beam="2">  1       -4 0.27273772E-01 0.12700947E+03</pdfrwt>
<totfact> 0.36997862E+03</totfact>
</mgrwt>
</event>
<event>
 6    4  0.2220150E-003  0.1269615E+03  0.7818608E-02  0.1232035E+00
         -4   -1    0    0    0  501 -0.00000000000E+00  0.00000000000E+00  0.16500415224E+03  0.16500903962E+03  0.12700000000E+01 0.  1.
          4   -1    0    0  502    0  0.00000000000E+00 -0.00000000000E+00 -0.35947706929E+02  0.35970133909E+02  0.12700000000E+01 0.  1.
         25    2    1    2    0    0 -0.21115835601E+02 -0.69512619981E+01  0.88608523422E+02  0.15482472692E+03  0.12500010835E+03 0.  0.
    9000005    1    3    3    0    0 -0.18798090705E+02 -0.61343904241E+02  0.19953715601E+02  0.67198166403E+02  0.10000000000E+01 0.  0.
    9000005    1    3    3    0    0 -0.23177448958E+01  0.54392642243E+02  0.68654807821E+02  0.87626560519E+02  0.10000000000E+01 0.  0.
         21    1    1    2  502  501  0.21115835601E+02  0.69512619981E+01  0.40447921888E+02  0.46154446606E+02  0.00000000000E+00 0. -1.
<mgrwt>
<rscale>  1 0.12696151E+03</rscale>
<asrwt>0</asrwt>
<pdfrwt beam="2">  1        4 0.55325175E-02 0.12696151E+03</pdfrwt>
<pdfrwt beam="1">  1       -4 0.25387355E-01 0.12696151E+03</pdfrwt>
<totfact> 0.47432407E+03</totfact>
</mgrwt>
</event>
<event>
 6    4  0.2220150E-003  0.1333334E+03  0.7818608E-02  0.1222592E+00
          4   -1    0    0  502    0  0.00000000000E+00  0.00000000000E+00  0.41084638133E+02  0.41104262438E+02  0.12700000000E+01 0. -1.
         -4   -1    0    0    0  501 -0.00000000000E+00 -0.00000000000E+00 -0.20370268803E+03  0.20370664695E+03  0.12700000000E+01 0. -1.
         25    2    1    2    0    0  0.19549551798E+01  0.46371005691E+02 -0.99030151838E+02  0.16608662598E+03  0.12499481724E+03 0.  0.
    9000005    1    3    3    0    0  0.19675198876E+02  0.67291179684E+02 -0.74793015358E+01  0.70513518318E+02  0.10000000000E+01 0.  0.
    9000005    1    3    3    0    0 -0.17720243696E+02 -0.20920173993E+02 -0.91550850302E+02  0.95573107659E+02  0.10000000000E+01 0.  0.
         21    1    1    2  502  501 -0.19549551798E+01 -0.46371005691E+02 -0.63587898057E+02  0.78724283407E+02  0.00000000000E+00 0. -1.
<mgrwt>
<rscale>  1 0.13333340E+03</rscale>
<asrwt>0</asrwt>
<pdfrwt beam="1">  1        4 0.63225277E-02 0.13333340E+03</pdfrwt>
<pdfrwt beam="2">  1       -4 0.31340689E-01 0.13333340E+03</pdfrwt>
<totfact> 0.26050592E+03</totfact>
</mgrwt>
</event>
<event>
 6    4  0.2220150E-003  0.1283145E+03  0.7818608E-02  0.1229978E+00
          4   -1    0    0  502    0  0.00000000000E+00  0.00000000000E+00  0.48223187339E+01  0.49867482362E+01  0.12700000000E+01 0. -1.
         -4   -1    0    0    0  501 -0.00000000000E+00 -0.00000000000E+00 -0.15162866466E+04  0.15162871784E+04  0.12700000000E+01 0. -1.
         25    2    1    2    0    0  0.28437723986E+02 -0.56285844439E+01 -0.89755514521E+03  0.90668067123E+03  0.12499686311E+03 0.  0.
    9000005    1    3    3    0    0  0.61972785962E+02  0.15931575910E+02 -0.25566031404E+03  0.26354816920E+03  0.10000000000E+01 0.  0.
    9000005    1    3    3    0    0 -0.33535061976E+02 -0.21560160354E+02 -0.64189483117E+03  0.64313250203E+03  0.10000000000E+01 0.  0.
         21    1    1    2  502  501 -0.28437723986E+02  0.56285844439E+01 -0.61390918264E+03  0.61459325545E+03  0.00000000000E+00 0.  1.
<mgrwt>
<rscale>  1 0.12831446E+03</rscale>
<asrwt>0</asrwt>
<pdfrwt beam="1">  1        4 0.75458573E-03 0.12831446E+03</pdfrwt>
<pdfrwt beam="2">  1       -4 0.23328719E+00 0.12831446E+03</pdfrwt>
<totfact> 0.68044600E+02</totfact>
</mgrwt>
</event>
<event>
 6    4  0.2220150E-003  0.1371122E+03  0.7818608E-02  0.1217268E+00
         -4   -1    0    0    0  501 -0.00000000000E+00  0.00000000000E+00  0.15444134109E+02  0.15496263368E+02  0.12700000000E+01 0.  1.
          4   -1    0    0  502    0  0.00000000000E+00 -0.00000000000E+00 -0.60593011421E+03  0.60593144513E+03  0.12700000000E+01 0.  1.
         25    2    1    2    0    0 -0.31421774027E+02  0.46771207628E+02 -0.40583567569E+03  0.42837173562E+03  0.12499949789E+03 0.  0.
    9000005    1    3    3    0    0 -0.28111405342E+02 -0.28636679688E+02 -0.27002255773E+03  0.27298991230E+03  0.10000000000E+01 0.  0.
    9000005    1    3    3    0    0 -0.33103686850E+01  0.75407887316E+02 -0.13581311796E+03  0.15538182333E+03  0.10000000000E+01 0.  0.
         21    1    1    2  502  501  0.31421774027E+02 -0.46771207628E+02 -0.18465030441E+03  0.19305597288E+03  0.00000000000E+00 0.  1.
<mgrwt>
<rscale>  1 0.13711217E+03</rscale>
<asrwt>0</asrwt>
<pdfrwt beam="2">  1        4 0.93224112E-01 0.13711217E+03</pdfrwt>
<pdfrwt beam="1">  1       -4 0.23801334E-02 0.13711217E+03</pdfrwt>
<totfact> 0.12921888E+03</totfact>
</mgrwt>
</event>
<event>
 6    4  0.2220150E-003  0.1532711E+03  0.7818608E-02  0.1196510E+00
         -4   -1    0    0    0  501 -0.00000000000E+00  0.00000000000E+00  0.77092659262E+03  0.77092763870E+03  0.12700000000E+01 0.  1.
          4   -1    0    0  502    0  0.00000000000E+00 -0.00000000000E+00 -0.19479865518E+02  0.19521220776E+02  0.12700000000E+01 0.  1.
         25    2    1    2    0    0  0.15256421535E+02 -0.87389248756E+02  0.41148957361E+03  0.43910784933E+03  0.12498957941E+03 0.  0.
    9000005    1    3    3    0    0  0.40753802192E+02 -0.32499866462E+02  0.48830672548E+02  0.71432123689E+02  0.10000000000E+01 0.  0.
    9000005    1    3    3    0    0 -0.25497380657E+02 -0.54889382294E+02  0.36265890106E+03  0.36767572564E+03  0.10000000000E+01 0.  0.
         21    1    1    2  502  501 -0.15256421535E+02  0.87389248756E+02  0.33995715350E+03  0.35134101015E+03  0.00000000000E+00 0.  1.
<mgrwt>
<rscale>  1 0.15327111E+03</rscale>
<asrwt>0</asrwt>
<pdfrwt beam="2">  1        4 0.30001643E-02 0.15327111E+03</pdfrwt>
<pdfrwt beam="1">  1       -4 0.11860734E+00 0.15327111E+03</pdfrwt>
<totfact> 0.52402607E+02</totfact>
</mgrwt>
</event>
<event>
 6    4  0.2220150E-003  0.1316107E+03  0.7818608E-02  0.1225085E+00
         -4   -1    0    0    0  501 -0.00000000000E+00  0.00000000000E+00  0.12096444892E+02  0.12162930528E+02  0.12700000000E+01 0.  1.
          4   -1    0    0  502    0  0.00000000000E+00 -0.00000000000E+00 -0.62400729850E+03  0.62400859087E+03  0.12700000000E+01 0.  1.
         25    2    1    2    0    0  0.25284223930E+02 -0.32492274513E+02 -0.43162346593E+03  0.45124293508E+03  0.12500532082E+03 0.  0.
    9000005    1    3    3    0    0  0.49861343642E+02 -0.65970179039E+02 -0.35022155588E+03  0.35985324275E+03  0.10000000000E+01 0.  0.
    9000005    1    3    3    0    0 -0.24577119712E+02  0.33477904526E+02 -0.81401910050E+02  0.91389692333E+02  0.10000000000E+01 0.  0.
         21    1    1    2  502  501 -0.25284223930E+02  0.32492274513E+02 -0.18028738767E+03  0.18492858631E+03  0.00000000000E+00 0. -1.
<mgrwt>
<rscale>  1 0.13161068E+03</rscale>
<asrwt>0</asrwt>
<pdfrwt beam="2">  1        4 0.96006312E-01 0.13161068E+03</pdfrwt>
<pdfrwt beam="1">  1       -4 0.18662057E-02 0.13161068E+03</pdfrwt>
<totfact> 0.17433966E+03</totfact>
</mgrwt>
</event>
<event>
 6    4  0.2220150E-003  0.1268499E+03  0.7818608E-02  0.1232206E+00
          4   -1    0    0  502    0  0.00000000000E+00  0.00000000000E+00  0.75358562479E+03  0.75358669494E+03  0.12700000000E+01 0.  1.
         -4   -1    0    0    0  501 -0.00000000000E+00 -0.00000000000E+00 -0.81664787144E+01  0.82646400159E+01  0.12700000000E+01 0.  1.
         25    2    1    2    0    0  0.19852988066E+02 -0.84475091707E+01  0.70198165753E+03  0.71335064468E+03  0.12500157282E+03 0.  0.
    9000005    1    3    3    0    0 -0.18414163390E+02 -0.32151108037E+02  0.60812072638E+03  0.60924920436E+03  0.10000000000E+01 0.  0.
    9000005    1    3    3    0    0  0.38267151455E+02  0.23703598867E+02  0.93860931152E+02  0.10410144032E+03  0.10000000000E+01 0.  0.
         21    1    1    2  502  501 -0.19852988066E+02  0.84475091707E+01  0.43437488549E+02  0.48500690281E+02  0.00000000000E+00 0.  1.
<mgrwt>
<rscale>  1 0.12684989E+03</rscale>
<asrwt>0</asrwt>
<pdfrwt beam="1">  1        4 0.11594386E+00 0.12684989E+03</pdfrwt>
<pdfrwt beam="2">  1       -4 0.12640148E-02 0.12684989E+03</pdfrwt>
<totfact> 0.20156572E+03</totfact>
</mgrwt>
</event>
<event>
 6    4  0.2220150E-003  0.1325246E+03  0.7818608E-02  0.1223757E+00
          4   -1    0    0  502    0  0.00000000000E+00  0.00000000000E+00  0.10556418762E+03  0.10557182677E+03  0.12700000000E+01 0.  1.
         -4   -1    0    0    0  501 -0.00000000000E+00 -0.00000000000E+00 -0.75459861330E+02  0.75470547712E+02  0.12700000000E+01 0.  1.
         25    2    1    2    0    0 -0.35294825966E+02  0.26300051679E+02  0.34111350239E+02  0.13684425575E+03  0.12500139463E+03 0.  0.
    9000005    1    3    3    0    0 -0.87647587490E+01 -0.17508868952E+02 -0.41278394346E+02  0.45697782525E+02  0.10000000000E+01 0.  0.
    9000005    1    3    3    0    0 -0.26530067216E+02  0.43808920631E+02  0.75389744585E+02  0.91146473229E+02  0.10000000000E+01 0.  0.
         21    1    1    2  502  501  0.35294825966E+02 -0.26300051679E+02 -0.40070239497E+01  0.44198118729E+02  0.00000000000E+00 0.  1.
<mgrwt>
<rscale>  1 0.13252459E+03</rscale>
<asrwt>0</asrwt>
<pdfrwt beam="1">  1        4 0.16242054E-01 0.13252459E+03</pdfrwt>
<pdfrwt beam="2">  1       -4 0.11610619E-01 0.13252459E+03</pdfrwt>
<totfact> 0.31378404E+03</totfact>
</mgrwt>
</event>
<event>
 6    4  0.2220150E-003  0.1296338E+03  0.7818608E-02  0.1228000E+00
          4   -1    0    0  502    0  0.00000000000E+00  0.00000000000E+00  0.12818002071E+04  0.12818008363E+04  0.12700000000E+01 0.  1.
         -4   -1    0    0    0  501 -0.00000000000E+00 -0.00000000000E+00 -0.16840221466E+02  0.16888041894E+02  0.12700000000E+01 0.  1.
         25    2    1    2    0    0  0.34325375237E+02 -0.58598354768E+00  0.12567136073E+04  0.12633819735E+04  0.12500538124E+03 0.  0.
    9000005    1    3    3    0    0  0.37396276369E+02 -0.22146500710E+01  0.12586984032E+04  0.12592561520E+04  0.10000000000E+01 0.  0.
    9000005    1    3    3    0    0 -0.30709011323E+01  0.16286665233E+01 -0.19847958577E+01  0.41258214946E+01  0.10000000000E+01 0.  0.
         21    1    1    2  502  501 -0.34325375237E+02  0.58598354768E+00  0.82463783179E+01  0.35306904668E+02  0.00000000000E+00 0.  1.
<mgrwt>
<rscale>  1 0.12963379E+03</rscale>
<asrwt>0</asrwt>
<pdfrwt beam="1">  1        4 0.19720382E+00 0.12963379E+03</pdfrwt>
<pdfrwt beam="2">  1       -4 0.25945293E-02 0.12963379E+03</pdfrwt>
<totfact> 0.17168441E+02</totfact>
</mgrwt>
</event>
<event>
 6    4  0.2220150E-003  0.1272498E+03  0.7818608E-02  0.1231594E+00
         -4   -1    0    0    0  501 -0.00000000000E+00  0.00000000000E+00  0.12102655621E+02  0.12169107325E+02  0.12700000000E+01 0.  1.
          4   -1    0    0  502    0  0.00000000000E+00 -0.00000000000E+00 -0.63870644400E+03  0.63870770663E+03  0.12700000000E+01 0.  1.
         25    2    1    2    0    0 -0.22595274423E+02  0.75232942660E+01 -0.60651677562E+03  0.61972180690E+03  0.12500148984E+03 0.  0.
    9000005    1    3    3    0    0 -0.10049710293E+02  0.47388585790E+02 -0.53262285154E+03  0.53482219169E+03  0.10000000000E+01 0.  0.
    9000005    1    3    3    0    0 -0.12545564130E+02 -0.39865291524E+02 -0.73893924075E+02  0.84899615210E+02  0.10000000000E+01 0.  0.
         21    1    1    2  502  501  0.22595274423E+02 -0.75232942660E+01 -0.20087012766E+02  0.31155007057E+02  0.00000000000E+00 0.  1.
<mgrwt>
<rscale>  1 0.12724983E+03</rscale>
<asrwt>0</asrwt>
<pdfrwt beam="2">  1        4 0.98267713E-01 0.12724983E+03</pdfrwt>
<pdfrwt beam="1">  1       -4 0.18671563E-02 0.12724983E+03</pdfrwt>
<totfact> 0.16389794E+03</totfact>
</mgrwt>
</event>
<event>
 6    4  0.2220150E-003  0.1343879E+03  0.7818608E-02  0.1221086E+00
          4   -1    0    0  502    0  0.00000000000E+00  0.00000000000E+00  0.57305438871E+02  0.57319509979E+02  0.12700000000E+01 0.  1.
         -4   -1    0    0    0  501 -0.00000000000E+00 -0.00000000000E+00 -0.18246113484E+03  0.18246555463E+03  0.12700000000E+01 0.  1.
         25    2    1    2    0    0 -0.25939115981E+02  0.41983366260E+02 -0.38049605352E+02  0.13967057114E+03  0.12499862077E+03 0.  0.
    9000005    1    3    3    0    0 -0.39477710067E+02  0.68794938154E+02 -0.62452463164E+02  0.10095812628E+03  0.10000000000E+01 0.  0.
    9000005    1    3    3    0    0  0.13538594085E+02 -0.26811571894E+02  0.24402857812E+02  0.38712444854E+02  0.10000000000E+01 0.  0.
         21    1    1    2  502  501  0.25939115981E+02 -0.41983366260E+02 -0.87106090612E+02  0.10011449347E+03  0.00000000000E+00 0.  1.
<mgrwt>
<rscale>  1 0.13438786E+03</rscale>
<asrwt>0</asrwt>
<pdfrwt beam="1">  1        4 0.88176439E-02 0.13438786E+03</pdfrwt>
<pdfrwt beam="2">  1       -4 0.28072366E-01 0.13438786E+03</pdfrwt>
<totfact> 0.18563857E+03</totfact>
</mgrwt>
</event>
<event>
 6    4  0.2220150E-003  0.1266987E+03  0.7818608E-02  0.1232438E+00
          4   -1    0    0  502    0  0.00000000000E+00  0.00000000000E+00  0.16311089615E+02  0.16360456730E+02  0.12700000000E+01 0.  1.
         -4   -1    0    0    0  501 -0.00000000000E+00 -0.00000000000E+00 -0.35401141293E+03  0.35401369096E+03  0.12700000000E+01 0.  1.
         25    2    1    2    0    0 -0.15392476817E+02 -0.13782294708E+02 -0.24999219139E+03  0.28026534459E+03  0.12500275049E+03 0.  0.
    9000005    1    3    3    0    0 -0.31898856928E+02 -0.20149823643E+02 -0.25805248732E+03  0.26079808028E+03  0.10000000000E+01 0.  0.
    9000005    1    3    3    0    0  0.16506380111E+02  0.63675289350E+01  0.80602959303E+01  0.19467264307E+02  0.10000000000E+01 0.  0.
         21    1    1    2  502  501  0.15392476817E+02  0.13782294708E+02 -0.87708131924E+02  0.90108803097E+02  0.00000000000E+00 0.  1.
<mgrwt>
<rscale>  1 0.12669873E+03</rscale>
<asrwt>0</asrwt>
<pdfrwt beam="1">  1        4 0.25133714E-02 0.12669873E+03</pdfrwt>
<pdfrwt beam="2">  1       -4 0.54467261E-01 0.12669873E+03</pdfrwt>
<totfact> 0.37332543E+03</totfact>
</mgrwt>
</event>
<event>
 6    4  0.2220150E-003  0.1269173E+03  0.7818608E-02  0.1232103E+00
          4   -1    0    0  502    0  0.00000000000E+00  0.00000000000E+00  0.13370364422E+03  0.13370967570E+03  0.12700000000E+01 0. -1.
         -4   -1    0    0    0  501 -0.00000000000E+00 -0.00000000000E+00 -0.51800646810E+02  0.51816212809E+02  0.12700000000E+01 0. -1.
         25    2    1    2    0    0  0.64190607843E+01  0.21039409425E+02  0.96230636360E+02  0.15927436802E+03  0.12499651132E+03 0.  0.
    9000005    1    3    3    0    0  0.26857927679E+02  0.63726665721E+02  0.24584864681E+02  0.73401987538E+02  0.10000000000E+01 0.  0.
    9000005    1    3    3    0    0 -0.20438866894E+02 -0.42687256296E+02  0.71645771679E+02  0.85872380481E+02  0.10000000000E+01 0.  0.
         21    1    1    2  502  501 -0.64190607843E+01 -0.21039409425E+02 -0.14327638953E+02  0.26251520494E+02  0.00000000000E+00 0. -1.
<mgrwt>
<rscale>  1 0.12691725E+03</rscale>
<asrwt>0</asrwt>
<pdfrwt beam="1">  1        4 0.20571453E-01 0.12691725E+03</pdfrwt>
<pdfrwt beam="2">  1       -4 0.79709916E-02 0.12691725E+03</pdfrwt>
<totfact> 0.38332829E+03</totfact>
</mgrwt>
</event>
<event>
 6    4  0.2220150E-003  0.1282563E+03  0.7818608E-02  0.1230066E+00
          4   -1    0    0  502    0  0.00000000000E+00  0.00000000000E+00  0.20353934556E+03  0.20354330766E+03  0.12700000000E+01 0.  1.
         -4   -1    0    0    0  501 -0.00000000000E+00 -0.00000000000E+00 -0.30613888257E+02  0.30640219552E+02  0.12700000000E+01 0.  1.
         25    2    1    2    0    0 -0.21781445811E+02 -0.18701578596E+02  0.15061858280E+03  0.19782727501E+03  0.12500197131E+03 0.  0.
    9000005    1    3    3    0    0  0.75415448598E+01 -0.35621822707E+02 -0.65858345018E+01  0.37015704342E+02  0.10000000000E+01 0.  0.
    9000005    1    3    3    0    0 -0.29322990671E+02  0.16920244111E+02  0.15720441730E+03  0.16081157067E+03  0.10000000000E+01 0.  0.
         21    1    1    2  502  501  0.21781445811E+02  0.18701578596E+02  0.22306874510E+02  0.36356252200E+02  0.00000000000E+00 0.  1.
<mgrwt>
<rscale>  1 0.12825628E+03</rscale>
<asrwt>0</asrwt>
<pdfrwt beam="1">  1        4 0.31316075E-01 0.12825628E+03</pdfrwt>
<pdfrwt beam="2">  1       -4 0.47121594E-02 0.12825628E+03</pdfrwt>
<totfact> 0.41549563E+03</totfact>
</mgrwt>
</event>
<event>
 6    4  0.2220150E-003  0.1311908E+03  0.7818608E-02  0.1225699E+00
         -4   -1    0    0    0  501 -0.00000000000E+00  0.00000000000E+00  0.33109026487E+02  0.33133374940E+02  0.12700000000E+01 0. -1.
          4   -1    0    0  502    0  0.00000000000E+00 -0.00000000000E+00 -0.22811353963E+03  0.22811707490E+03  0.12700000000E+01 0. -1.
         25    2    1    2    0    0  0.39506651986E+02 -0.50398005802E+01 -0.16789691452E+03  0.21307372264E+03  0.12499944893E+03 0.  0.
    9000005    1    3    3    0    0  0.74704599879E+02  0.26860846447E+01 -0.50377175158E+02  0.90149054741E+02  0.10000000000E+01 0.  0.
    9000005    1    3    3    0    0 -0.35197947893E+02 -0.77258852248E+01 -0.11751973936E+03  0.12292466790E+03  0.10000000000E+01 0.  0.
         21    1    1    2  502  501 -0.39506651986E+02  0.50398005802E+01 -0.27107598624E+02  0.48176727205E+02  0.00000000000E+00 0. -1.
<mgrwt>
<rscale>  1 0.13119084E+03</rscale>
<asrwt>0</asrwt>
<pdfrwt beam="2">  1        4 0.35096535E-01 0.13119084E+03</pdfrwt>
<pdfrwt beam="1">  1       -4 0.50958414E-02 0.13119084E+03</pdfrwt>
<totfact> 0.29627589E+03</totfact>
</mgrwt>
</event>
<event>
 6    4  0.2220150E-003  0.1268896E+03  0.7818608E-02  0.1232145E+00
          4   -1    0    0  502    0  0.00000000000E+00  0.00000000000E+00  0.14956581752E+03  0.14957120937E+03  0.12700000000E+01 0. -1.
         -4   -1    0    0    0  501 -0.00000000000E+00 -0.00000000000E+00 -0.55677435481E+02  0.55691917921E+02  0.12700000000E+01 0. -1.
         25    2    1    2    0    0 -0.28311987703E+01 -0.21636890701E+02  0.11762383600E+03  0.17302119030E+03  0.12499917909E+03 0.  0.
    9000005    1    3    3    0    0 -0.46999078229E+02 -0.30041241526E+02  0.11518423136E+03  0.12798357980E+03  0.10000000000E+01 0.  0.
    9000005    1    3    3    0    0  0.44167879458E+02  0.84043508250E+01  0.24396046481E+01  0.45037610499E+02  0.10000000000E+01 0.  0.
         21    1    1    2  502  501  0.28311987703E+01  0.21636890701E+02 -0.23735453962E+02  0.32241936984E+02  0.00000000000E+00 0. -1.
<mgrwt>
<rscale>  1 0.12688958E+03</rscale>
<asrwt>0</asrwt>
<pdfrwt beam="1">  1        4 0.23011655E-01 0.12688958E+03</pdfrwt>
<pdfrwt beam="2">  1       -4 0.85672881E-02 0.12688958E+03</pdfrwt>
<totfact> 0.27752775E+03</totfact>
</mgrwt>
</event>
<event>
 6    4  0.2220150E-003  0.1278321E+03  0.7818608E-02  0.1230708E+00
          4   -1    0    0  502    0  0.00000000000E+00  0.00000000000E+00  0.31189263443E+03  0.31189522009E+03  0.12700000000E+01 0. -1.
         -4   -1    0    0    0  501 -0.00000000000E+00 -0.00000000000E+00 -0.25248091639E+02  0.25280012488E+02  0.12700000000E+01 0. -1.
         25    2    1    2    0    0  0.26525756318E+02 -0.36528321001E+01  0.28250527508E+03  0.31008109174E+03  0.12499637625E+03 0.  0.
    9000005    1    3    3    0    0  0.19671179515E+02 -0.40908780853E+02  0.26406159061E+03  0.26793657326E+03  0.10000000000E+01 0.  0.
    9000005    1    3    3    0    0  0.68545768029E+01  0.37255948753E+02  0.18443684461E+02  0.42144518471E+02  0.10000000000E+01 0.  0.
         21    1    1    2  502  501 -0.26525756318E+02  0.36528321001E+01  0.41392677166E+01  0.27094140840E+02  0.00000000000E+00 0. -1.
<mgrwt>
<rscale>  1 0.12783213E+03</rscale>
<asrwt>0</asrwt>
<pdfrwt beam="1">  1        4 0.47986136E-01 0.12783213E+03</pdfrwt>
<pdfrwt beam="2">  1       -4 0.38869762E-02 0.12783213E+03</pdfrwt>
<totfact> 0.24464055E+03</totfact>
</mgrwt>
</event>
<event>
 6    4  0.2220150E-003  0.1283965E+03  0.7818608E-02  0.1229855E+00
         -4   -1    0    0    0  501 -0.00000000000E+00  0.00000000000E+00  0.67227594290E+02  0.67239589038E+02  0.12700000000E+01 0. -1.
          4   -1    0    0  502    0  0.00000000000E+00 -0.00000000000E+00 -0.96057994204E+02  0.96066389287E+02  0.12700000000E+01 0. -1.
         25    2    1    2    0    0 -0.26327230396E+02  0.12929744232E+02 -0.35525617272E+02  0.13322064499E+03  0.12500147769E+03 0.  0.
    9000005    1    3    3    0    0  0.27622934479E+02  0.25364128007E+02 -0.61514657202E+02  0.72051499287E+02  0.10000000000E+01 0.  0.
    9000005    1    3    3    0    0 -0.53950164875E+02 -0.12434383774E+02  0.25989039930E+02  0.61169145706E+02  0.10000000000E+01 0.  0.
         21    1    1    2  502  501  0.26327230396E+02 -0.12929744232E+02  0.66952173581E+01  0.30085333332E+02  0.00000000000E+00 0. -1.
<mgrwt>
<rscale>  1 0.12839654E+03</rscale>
<asrwt>0</asrwt>
<pdfrwt beam="2">  1        4 0.14779721E-01 0.12839654E+03</pdfrwt>
<pdfrwt beam="1">  1       -4 0.10344275E-01 0.12839654E+03</pdfrwt>
<totfact> 0.44671795E+03</totfact>
</mgrwt>
</event>
<event>
 6    4  0.2220150E-003  0.1270055E+03  0.7818608E-02  0.1231968E+00
         -4   -1    0    0    0  501 -0.00000000000E+00  0.00000000000E+00  0.88936970622E+02  0.88946037817E+02  0.12700000000E+01 0. -1.
          4   -1    0    0  502    0  0.00000000000E+00 -0.00000000000E+00 -0.68054074157E+02  0.68065923261E+02  0.12700000000E+01 0. -1.
         25    2    1    2    0    0 -0.22003529925E+02  0.45043366830E+01  0.99032324875E+00  0.12700931374E+03  0.12500376258E+03 0.  0.
    9000005    1    3    3    0    0  0.75888527924E+01  0.22365936543E+02 -0.55754186266E+02  0.60558691287E+02  0.10000000000E+01 0.  0.
    9000005    1    3    3    0    0 -0.29592382717E+02 -0.17861599860E+02  0.56744509515E+02  0.66450622454E+02  0.10000000000E+01 0.  0.
         21    1    1    2  502  501  0.22003529925E+02 -0.45043366830E+01  0.19892573216E+02  0.30002647337E+02  0.00000000000E+00 0. -1.
<mgrwt>
<rscale>  1 0.12700545E+03</rscale>
<asrwt>0</asrwt>
<pdfrwt beam="2">  1        4 0.10471467E-01 0.12700545E+03</pdfrwt>
<pdfrwt beam="1">  1       -4 0.13684220E-01 0.12700545E+03</pdfrwt>
<totfact> 0.49878840E+03</totfact>
</mgrwt>
</event>
<event>
 6    4  0.2220150E-003  0.1397218E+03  0.7818608E-02  0.1213704E+00
          4   -1    0    0  502    0  0.00000000000E+00  0.00000000000E+00  0.22705945206E+02  0.22741434600E+02  0.12700000000E+01 0. -1.
         -4   -1    0    0    0  501 -0.00000000000E+00 -0.00000000000E+00 -0.10467308570E+04  0.10467316274E+04  0.12700000000E+01 0. -1.
         25    2    1    2    0    0 -0.61845883947E+02 -0.84170776653E+01 -0.20508043027E+03  0.24815349916E+03  0.12500566271E+03 0.  0.
    9000005    1    3    3    0    0 -0.21337816366E+02  0.57245889689E+02 -0.73100397555E+02  0.95273618679E+02  0.10000000000E+01 0.  0.
    9000005    1    3    3    0    0 -0.40508067581E+02 -0.65662967354E+02 -0.13198003272E+03  0.15287988048E+03  0.10000000000E+01 0.  0.
         21    1    1    2  502  501  0.61845883947E+02  0.84170776653E+01 -0.81894448149E+03  0.82131956285E+03  0.00000000000E+00 0. -1.
<mgrwt>
<rscale>  1 0.13972178E+03</rscale>
<asrwt>0</asrwt>
<pdfrwt beam="1">  1        4 0.34960124E-02 0.13972178E+03</pdfrwt>
<pdfrwt beam="2">  1       -4 0.16103827E+00 0.13972178E+03</pdfrwt>
<totfact> 0.18873224E+02</totfact>
</mgrwt>
</event>
<event>
 6    4  0.2220150E-003  0.1271005E+03  0.7818608E-02  0.1231823E+00
          4   -1    0    0  502    0  0.00000000000E+00  0.00000000000E+00  0.58493322395E+03  0.58493460265E+03  0.12700000000E+01 0.  1.
         -4   -1    0    0    0  501 -0.00000000000E+00 -0.00000000000E+00 -0.97532938155E+01  0.98356311568E+01  0.12700000000E+01 0.  1.
         25    2    1    2    0    0 -0.12218353297E+02 -0.19501613317E+02  0.51165686446E+03  0.52720707113E+03  0.12499979126E+03 0.  0.
    9000005    1    3    3    0    0  0.25386325424E+02 -0.75549645654E+01  0.46641794786E+03  0.46717046685E+03  0.10000000000E+01 0.  0.
    9000005    1    3    3    0    0 -0.37604678721E+02 -0.11946648751E+02  0.45238916601E+02  0.60036604278E+02  0.10000000000E+01 0.  0.
         21    1    1    2  502  501  0.12218353297E+02  0.19501613317E+02  0.63523065669E+02  0.67563162679E+02  0.00000000000E+00 0.  1.
<mgrwt>
<rscale>  1 0.12710055E+03</rscale>
<asrwt>0</asrwt>
<pdfrwt beam="1">  1        4 0.89996165E-01 0.12710055E+03</pdfrwt>
<pdfrwt beam="2">  1       -4 0.15069465E-02 0.12710055E+03</pdfrwt>
<totfact> 0.27775917E+03</totfact>
</mgrwt>
</event>
<event>
 6    4  0.2220150E-003  0.1276062E+03  0.7818608E-02  0.1231052E+00
          4   -1    0    0  502    0  0.00000000000E+00  0.00000000000E+00  0.64615979617E+02  0.64628459071E+02  0.12700000000E+01 0.  1.
         -4   -1    0    0    0  501 -0.00000000000E+00 -0.00000000000E+00 -0.90946980336E+02  0.90955847158E+02  0.12700000000E+01 0.  1.
         25    2    1    2    0    0 -0.16420676656E+02 -0.19702562389E+02 -0.23855720543E+02  0.12981695094E+03  0.12500206303E+03 0.  0.
    9000005    1    3    3    0    0  0.50879559647E+02 -0.28299968110E+02 -0.21007709530E+02  0.61902678816E+02  0.10000000000E+01 0.  0.
    9000005    1    3    3    0    0 -0.67300236304E+02  0.85974057213E+01 -0.28480110135E+01  0.67914272126E+02  0.10000000000E+01 0.  0.
         21    1    1    2  502  501  0.16420676656E+02  0.19702562389E+02 -0.24752801754E+01  0.25767355287E+02  0.00000000000E+00 0. -1.
<mgrwt>
<rscale>  1 0.12760621E+03</rscale>
<asrwt>0</asrwt>
<pdfrwt beam="1">  1        4 0.99425619E-02 0.12760621E+03</pdfrwt>
<pdfrwt beam="2">  1       -4 0.13993485E-01 0.12760621E+03</pdfrwt>
<totfact> 0.52429373E+03</totfact>
</mgrwt>
</event>
<event>
 6    4  0.2220150E-003  0.1314628E+03  0.7818608E-02  0.1225301E+00
         -4   -1    0    0    0  501 -0.00000000000E+00  0.00000000000E+00  0.15760784927E+03  0.15761296600E+03  0.12700000000E+01 0. -1.
          4   -1    0    0  502    0  0.00000000000E+00 -0.00000000000E+00 -0.80016506725E+02  0.80026584636E+02  0.12700000000E+01 0. -1.
         25    2    1    2    0    0 -0.16278620937E+02 -0.37317495254E+02 -0.18990267294E+02  0.13282735521E+03  0.12499954835E+03 0.  0.
    9000005    1    3    3    0    0  0.52679760705E+02 -0.63822543513E+00 -0.14173665045E+02  0.54566081960E+02  0.10000000000E+01 0.  0.
    9000005    1    3    3    0    0 -0.68958381643E+02 -0.36679269818E+02 -0.48166022489E+01  0.78261273248E+02  0.10000000000E+01 0.  0.
         21    1    1    2  502  501  0.16278620937E+02  0.37317495254E+02  0.96581609842E+02  0.10481219543E+03  0.00000000000E+00 0. -1.
<mgrwt>
<rscale>  1 0.13146283E+03</rscale>
<asrwt>0</asrwt>
<pdfrwt beam="2">  1        4 0.12311401E-01 0.13146283E+03</pdfrwt>
<pdfrwt beam="1">  1       -4 0.24248530E-01 0.13146283E+03</pdfrwt>
<totfact> 0.13790092E+03</totfact>
</mgrwt>
</event>
<event>
 6    4  0.2220150E-003  0.1329401E+03  0.7818608E-02  0.1223157E+00
         -4   -1    0    0    0  501 -0.00000000000E+00  0.00000000000E+00  0.16238852134E+02  0.16288438189E+02  0.12700000000E+01 0. -1.
          4   -1    0    0  502    0  0.00000000000E+00 -0.00000000000E+00 -0.61948015517E+03  0.61948145699E+03  0.12700000000E+01 0. -1.
         25    2    1    2    0    0 -0.43267217925E+02  0.13260204121E+02 -0.55026783401E+03  0.56609871332E+03  0.12500071567E+03 0.  0.
    9000005    1    3    3    0    0 -0.35441060016E+02  0.11345256935E+02 -0.36062891762E+02  0.51829680225E+02  0.10000000000E+01 0.  0.
    9000005    1    3    3    0    0 -0.78261579095E+01  0.19149471853E+01 -0.51420494225E+03  0.51426903310E+03  0.10000000000E+01 0.  0.
         21    1    1    2  502  501  0.43267217925E+02 -0.13260204121E+02 -0.52973469031E+02  0.69671181858E+02  0.00000000000E+00 0. -1.
<mgrwt>
<rscale>  1 0.13294008E+03</rscale>
<asrwt>0</asrwt>
<pdfrwt beam="2">  1        4 0.95308536E-01 0.13294008E+03</pdfrwt>
<pdfrwt beam="1">  1       -4 0.25021999E-02 0.13294008E+03</pdfrwt>
<totfact> 0.11295521E+03</totfact>
</mgrwt>
</event>
<event>
 6    4  0.2220150E-003  0.1284335E+03  0.7818608E-02  0.1229799E+00
          4   -1    0    0  502    0  0.00000000000E+00  0.00000000000E+00  0.80727486216E+02  0.80737475380E+02  0.12700000000E+01 0. -1.
         -4   -1    0    0    0  501 -0.00000000000E+00 -0.00000000000E+00 -0.78082163489E+02  0.78092491029E+02  0.12700000000E+01 0. -1.
         25    2    1    2    0    0  0.12238996203E+02 -0.26828758570E+02  0.86941359124E+01  0.12872741742E+03  0.12500233871E+03 0.  0.
    9000005    1    3    3    0    0 -0.38331275932E+02 -0.38181824426E+02 -0.31962693284E+02  0.62847053973E+02  0.10000000000E+01 0.  0.
    9000005    1    3    3    0    0  0.50570272135E+02  0.11353065855E+02  0.40656829197E+02  0.65880363451E+02  0.10000000000E+01 0.  0.
         21    1    1    2  502  501 -0.12238996203E+02  0.26828758570E+02 -0.60488131857E+01  0.30102548986E+02  0.00000000000E+00 0.  1.
<mgrwt>
<rscale>  1 0.12843348E+03</rscale>
<asrwt>0</asrwt>
<pdfrwt beam="1">  1        4 0.12421176E-01 0.12843348E+03</pdfrwt>
<pdfrwt beam="2">  1       -4 0.12014203E-01 0.12843348E+03</pdfrwt>
<totfact> 0.46788438E+03</totfact>
</mgrwt>
</event>
<event>
 6    4  0.2220150E-003  0.1282609E+03  0.7818608E-02  0.1230059E+00
          4   -1    0    0  502    0  0.00000000000E+00  0.00000000000E+00  0.12652285429E+03  0.12652922808E+03  0.12700000000E+01 0. -1.
         -4   -1    0    0    0  501 -0.00000000000E+00 -0.00000000000E+00 -0.53755240168E+02  0.53770240333E+02  0.12700000000E+01 0. -1.
         25    2    1    2    0    0 -0.54012423069E+01  0.28231864231E+02  0.79336007573E+02  0.15081463555E+03  0.12499856247E+03 0.  0.
    9000005    1    3    3    0    0  0.37131821798E+02  0.70181715552E+01 -0.18465077062E+02  0.42071201468E+02  0.10000000000E+01 0.  0.
    9000005    1    3    3    0    0 -0.42533064105E+02  0.21213692675E+02  0.97801084635E+02  0.10874343408E+03  0.10000000000E+01 0.  0.
         21    1    1    2  502  501  0.54012423069E+01 -0.28231864231E+02 -0.65683934519E+01  0.29484832863E+02  0.00000000000E+00 0. -1.
<mgrwt>
<rscale>  1 0.12826088E+03</rscale>
<asrwt>0</asrwt>
<pdfrwt beam="1">  1        4 0.19466698E-01 0.12826088E+03</pdfrwt>
<pdfrwt beam="2">  1       -4 0.82716812E-02 0.12826088E+03</pdfrwt>
<totfact> 0.39915451E+03</totfact>
</mgrwt>
</event>
<event>
 6    4  0.2220150E-003  0.1331136E+03  0.7818608E-02  0.1222907E+00
         -4   -1    0    0    0  501 -0.00000000000E+00  0.00000000000E+00  0.42380646409E+03  0.42380836696E+03  0.12700000000E+01 0. -1.
          4   -1    0    0  502    0  0.00000000000E+00 -0.00000000000E+00 -0.18928735957E+02  0.18971292654E+02  0.12700000000E+01 0. -1.
         25    2    1    2    0    0  0.81520324281E+01 -0.45024641488E+02  0.28844557846E+03  0.31767922216E+03  0.12500224992E+03 0.  0.
    9000005    1    3    3    0    0  0.17162324554E+02 -0.75766900212E+02  0.26943814730E+03  0.28041591212E+03  0.10000000000E+01 0.  0.
    9000005    1    3    3    0    0 -0.90102921261E+01  0.30742258724E+02  0.19007431167E+02  0.37263310041E+02  0.10000000000E+01 0.  0.
         21    1    1    2  502  501 -0.81520324281E+01  0.45024641488E+02  0.11643214967E+03  0.12510043745E+03  0.00000000000E+00 0. -1.
<mgrwt>
<rscale>  1 0.13311362E+03</rscale>
<asrwt>0</asrwt>
<pdfrwt beam="2">  1        4 0.29155331E-02 0.13311362E+03</pdfrwt>
<pdfrwt beam="1">  1       -4 0.65204417E-01 0.13311362E+03</pdfrwt>
<totfact> 0.20559081E+03</totfact>
</mgrwt>
</event>
<event>
 6    4  0.2220150E-003  0.1327252E+03  0.7818608E-02  0.1223467E+00
         -4   -1    0    0    0  501 -0.00000000000E+00  0.00000000000E+00  0.84417826505E+02  0.84427379041E+02  0.12700000000E+01 0.  1.
          4   -1    0    0  502    0  0.00000000000E+00 -0.00000000000E+00 -0.95589413934E+02  0.95597850166E+02  0.12700000000E+01 0.  1.
         25    2    1    2    0    0  0.44547341897E+02 -0.26042444027E+01 -0.20880970159E+02  0.13435773670E+03  0.12499895494E+03 0.  0.
    9000005    1    3    3    0    0  0.50975330645E+02  0.52282274598E+02  0.52617689849E+01  0.73216164775E+02  0.10000000000E+01 0.  0.
    9000005    1    3    3    0    0 -0.64279887480E+01 -0.54886519001E+02 -0.26142739144E+02  0.61141571924E+02  0.10000000000E+01 0.  0.
         21    1    1    2  502  501 -0.44547341897E+02  0.26042444027E+01  0.97093827296E+01  0.45667492508E+02  0.00000000000E+00 0.  1.
<mgrwt>
<rscale>  1 0.13272523E+03</rscale>
<asrwt>0</asrwt>
<pdfrwt beam="2">  1        4 0.14707447E-01 0.13272523E+03</pdfrwt>
<pdfrwt beam="1">  1       -4 0.12988742E-01 0.13272523E+03</pdfrwt>
<totfact> 0.30816321E+03</totfact>
</mgrwt>
</event>
<event>
 6    4  0.2220150E-003  0.1275175E+03  0.7818608E-02  0.1231186E+00
          4   -1    0    0  502    0  0.00000000000E+00  0.00000000000E+00  0.46387573865E+02  0.46404955652E+02  0.12700000000E+01 0. -1.
         -4   -1    0    0    0  501 -0.00000000000E+00 -0.00000000000E+00 -0.14916228287E+04  0.14916233693E+04  0.12700000000E+01 0. -1.
         25    2    1    2    0    0 -0.52714209170E+01  0.24645640647E+02 -0.41548937237E+02  0.13411576587E+03  0.12500211594E+03 0.  0.
    9000005    1    3    3    0    0 -0.40093536261E+02  0.62666441370E+01  0.31328191613E+02  0.51275901439E+02  0.10000000000E+01 0.  0.
    9000005    1    3    3    0    0  0.34822115344E+02  0.18378996511E+02 -0.72877128850E+02  0.82839864433E+02  0.10000000000E+01 0.  0.
         21    1    1    2  502  501  0.52714209170E+01 -0.24645640647E+02 -0.14036863175E+04  0.14039125591E+04  0.00000000000E+00 0. -1.
<mgrwt>
<rscale>  1 0.12751755E+03</rscale>
<asrwt>0</asrwt>
<pdfrwt beam="1">  1        4 0.71379296E-02 0.12751755E+03</pdfrwt>
<pdfrwt beam="2">  1       -4 0.22948178E+00 0.12751755E+03</pdfrwt>
<totfact> 0.21793068E+01</totfact>
</mgrwt>
</event>
<event>
 6    4  0.2220150E-003  0.1509012E+03  0.7818608E-02  0.1199370E+00
         -4   -1    0    0    0  501 -0.00000000000E+00  0.00000000000E+00  0.37936638888E+02  0.37957890749E+02  0.12700000000E+01 0. -1.
          4   -1    0    0  502    0  0.00000000000E+00 -0.00000000000E+00 -0.36595180726E+03  0.36595401096E+03  0.12700000000E+01 0. -1.
         25    2    1    2    0    0 -0.74169847975E+02  0.40533695069E+02 -0.20090510148E+03  0.25126487130E+03  0.12500811561E+03 0.  0.
    9000005    1    3    3    0    0 -0.99763144074E+02  0.33156899853E+01 -0.10298496599E+03  0.14342448164E+03  0.10000000000E+01 0.  0.
    9000005    1    3    3    0    0  0.25593296099E+02  0.37218005084E+02 -0.97920135491E+02  0.10784038966E+03  0.10000000000E+01 0.  0.
         21    1    1    2  502  501  0.74169847975E+02 -0.40533695069E+02 -0.12711006689E+03  0.15264703040E+03  0.00000000000E+00 0. -1.
<mgrwt>
<rscale>  1 0.15090121E+03</rscale>
<asrwt>0</asrwt>
<pdfrwt beam="2">  1        4 0.56302080E-01 0.15090121E+03</pdfrwt>
<pdfrwt beam="1">  1       -4 0.58382105E-02 0.15090121E+03</pdfrwt>
<totfact> 0.95127082E+02</totfact>
</mgrwt>
</event>
<event>
 6    4  0.2220150E-003  0.1280696E+03  0.7818608E-02  0.1230348E+00
          4   -1    0    0  502    0  0.00000000000E+00  0.00000000000E+00  0.12291706881E+02  0.12357141986E+02  0.12700000000E+01 0.  1.
         -4   -1    0    0    0  501 -0.00000000000E+00 -0.00000000000E+00 -0.49760653372E+03  0.49760815438E+03  0.12700000000E+01 0.  1.
         25    2    1    2    0    0  0.25326734755E+02 -0.11644152810E+02 -0.37883559099E+03  0.39989778319E+03  0.12499920885E+03 0.  0.
    9000005    1    3    3    0    0  0.12736343233E+02  0.28497899967E+02 -0.16872864945E+02  0.35497018367E+02  0.10000000000E+01 0.  0.
    9000005    1    3    3    0    0  0.12590391521E+02 -0.40142052778E+02 -0.36196272604E+03  0.36440076482E+03  0.10000000000E+01 0.  0.
         21    1    1    2  502  501 -0.25326734755E+02  0.11644152810E+02 -0.10647923585E+03  0.11006751317E+03  0.00000000000E+00 0.  1.
<mgrwt>
<rscale>  1 0.12806964E+03</rscale>
<asrwt>0</asrwt>
<pdfrwt beam="1">  1        4 0.18961903E-02 0.12806964E+03</pdfrwt>
<pdfrwt beam="2">  1       -4 0.76559994E-01 0.12806964E+03</pdfrwt>
<totfact> 0.28051177E+03</totfact>
</mgrwt>
</event>
<event>
 6    4  0.2220150E-003  0.1267050E+03  0.7818608E-02  0.1232428E+00
         -4   -1    0    0    0  501 -0.00000000000E+00  0.00000000000E+00  0.93228958262E+03  0.93229044764E+03  0.12700000000E+01 0. -1.
          4   -1    0    0  502    0  0.00000000000E+00 -0.00000000000E+00 -0.68015573120E+01  0.69191099044E+01  0.12700000000E+01 0. -1.
         25    2    1    2    0    0 -0.15551514404E+02  0.13673790984E+02  0.60880580428E+03  0.62185100436E+03  0.12500136858E+03 0.  0.
    9000005    1    3    3    0    0 -0.14360766149E+02 -0.22984292139E+02  0.24974178979E+02  0.36867586105E+02  0.10000000000E+01 0.  0.
    9000005    1    3    3    0    0 -0.11907482550E+01  0.36658083123E+02  0.58383162530E+03  0.58498341826E+03  0.10000000000E+01 0.  0.
         21    1    1    2  502  501  0.15551514404E+02 -0.13673790984E+02  0.31668222103E+03  0.31735855318E+03  0.00000000000E+00 0. -1.
<mgrwt>
<rscale>  1 0.12670503E+03</rscale>
<asrwt>0</asrwt>
<pdfrwt beam="2">  1        4 0.10555036E-02 0.12670503E+03</pdfrwt>
<pdfrwt beam="1">  1       -4 0.14343812E+00 0.12670503E+03</pdfrwt>
<totfact> 0.15735669E+03</totfact>
</mgrwt>
</event>
<event>
 6    4  0.2220150E-003  0.1287983E+03  0.7818608E-02  0.1229250E+00
         -4   -1    0    0    0  501 -0.00000000000E+00  0.00000000000E+00  0.44517495157E+02  0.44535606822E+02  0.12700000000E+01 0. -1.
          4   -1    0    0  502    0  0.00000000000E+00 -0.00000000000E+00 -0.14985913212E+03  0.14986451341E+03  0.12700000000E+01 0. -1.
         25    2    1    2    0    0 -0.11283600027E+02  0.28933302672E+02 -0.99604232729E+02  0.16281890049E+03  0.12499814218E+03 0.  0.
    9000005    1    3    3    0    0  0.45402218374E+02  0.50564841982E+02 -0.48659061402E+02  0.83587492692E+02  0.10000000000E+01 0.  0.
    9000005    1    3    3    0    0 -0.56685818401E+02 -0.21631539310E+02 -0.50945171327E+02  0.79231407802E+02  0.10000000000E+01 0.  0.
         21    1    1    2  502  501  0.11283600027E+02 -0.28933302672E+02 -0.57374042380E+01  0.31581219743E+02  0.00000000000E+00 0.  1.
<mgrwt>
<rscale>  1 0.12879826E+03</rscale>
<asrwt>0</asrwt>
<pdfrwt beam="2">  1        4 0.23057058E-01 0.12879826E+03</pdfrwt>
<pdfrwt beam="1">  1       -4 0.68506526E-02 0.12879826E+03</pdfrwt>
<totfact> 0.40134981E+03</totfact>
</mgrwt>
</event>
<event>
 6    4  0.2220150E-003  0.1296832E+03  0.7818608E-02  0.1227927E+00
          4   -1    0    0  502    0  0.00000000000E+00  0.00000000000E+00  0.74188279636E+01  0.75267461997E+01  0.12700000000E+01 0. -1.
         -4   -1    0    0    0  501 -0.00000000000E+00 -0.00000000000E+00 -0.13462382951E+04  0.13462388941E+04  0.12700000000E+01 0. -1.
         25    2    1    2    0    0 -0.22040743171E+02  0.26598551553E+02 -0.58706665129E+03  0.60121957966E+03  0.12499781042E+03 0.  0.
    9000005    1    3    3    0    0  0.22551821390E+02 -0.21899332515E+02 -0.42651638258E+03  0.42767439720E+03  0.10000000000E+01 0.  0.
    9000005    1    3    3    0    0 -0.44592564561E+02  0.48497884068E+02 -0.16055026871E+03  0.17354518246E+03  0.10000000000E+01 0.  0.
         21    1    1    2  502  501  0.22040743171E+02 -0.26598551553E+02 -0.75175281585E+03  0.75254606067E+03  0.00000000000E+00 0.  1.
<mgrwt>
<rscale>  1 0.12968319E+03</rscale>
<asrwt>0</asrwt>
<pdfrwt beam="1">  1        4 0.11497067E-02 0.12968319E+03</pdfrwt>
<pdfrwt beam="2">  1       -4 0.20712174E+00 0.12968319E+03</pdfrwt>
<totfact> 0.51869519E+02</totfact>
</mgrwt>
</event>
<event>
 6    4  0.2220150E-003  0.1288411E+03  0.7818608E-02  0.1229185E+00
         -4   -1    0    0    0  501 -0.00000000000E+00  0.00000000000E+00  0.55308102994E+03  0.55308248805E+03  0.12700000000E+01 0. -1.
          4   -1    0    0  502    0  0.00000000000E+00 -0.00000000000E+00 -0.21326721351E+02  0.21364501950E+02  0.12700000000E+01 0. -1.
         25    2    1    2    0    0  0.17179567960E+02 -0.26149746213E+02  0.18030444602E+03  0.22160715001E+03  0.12498435461E+03 0.  0.
    9000005    1    3    3    0    0  0.59696927445E+01  0.50704018283E+02  0.75896336666E+02  0.91475617630E+02  0.10000000000E+01 0.  0.
    9000005    1    3    3    0    0  0.11209875215E+02 -0.76853764496E+02  0.10440810936E+03  0.13013153238E+03  0.10000000000E+01 0.  0.
         21    1    1    2  502  501 -0.17179567960E+02  0.26149746213E+02  0.35144986257E+03  0.35283983999E+03  0.00000000000E+00 0.  1.
<mgrwt>
<rscale>  1 0.12884113E+03</rscale>
<asrwt>0</asrwt>
<pdfrwt beam="2">  1        4 0.32840531E-02 0.12884113E+03</pdfrwt>
<pdfrwt beam="1">  1       -4 0.85092390E-01 0.12884113E+03</pdfrwt>
<totfact> 0.94777941E+02</totfact>
</mgrwt>
</event>
<event>
 6    4  0.2220150E-003  0.1307381E+03  0.7818608E-02  0.1226365E+00
         -4   -1    0    0    0  501 -0.00000000000E+00  0.00000000000E+00  0.17788401594E+02  0.17833679689E+02  0.12700000000E+01 0. -1.
          4   -1    0    0  502    0  0.00000000000E+00 -0.00000000000E+00 -0.49755194350E+03  0.49755356433E+03  0.12700000000E+01 0. -1.
         25    2    1    2    0    0 -0.29833693674E+02 -0.24007946578E+02 -0.44450794644E+03  0.46333546414E+03  0.12500402836E+03 0.  0.
    9000005    1    3    3    0    0  0.22829165471E+02 -0.61791695057E+02 -0.22931401003E+03  0.23859023360E+03  0.10000000000E+01 0.  0.
    9000005    1    3    3    0    0 -0.52662859145E+02  0.37783748478E+02 -0.21519393641E+03  0.22474523054E+03  0.10000000000E+01 0.  0.
         21    1    1    2  502  501  0.29833693674E+02  0.24007946578E+02 -0.35255595467E+02  0.52051779882E+02  0.00000000000E+00 0. -1.
<mgrwt>
<rscale>  1 0.13073805E+03</rscale>
<asrwt>0</asrwt>
<pdfrwt beam="2">  1        4 0.76550050E-01 0.13073805E+03</pdfrwt>
<pdfrwt beam="1">  1       -4 0.27402852E-02 0.13073805E+03</pdfrwt>
<totfact> 0.15950677E+03</totfact>
</mgrwt>
</event>
<event>
 6    4  0.2220150E-003  0.1282952E+03  0.7818608E-02  0.1230008E+00
         -4   -1    0    0    0  501 -0.00000000000E+00  0.00000000000E+00  0.47546025848E+02  0.47562984284E+02  0.12700000000E+01 0. -1.
          4   -1    0    0  502    0  0.00000000000E+00 -0.00000000000E+00 -0.19029377429E+03  0.19029801216E+03  0.12700000000E+01 0. -1.
         25    2    1    2    0    0 -0.24984747948E+02 -0.14515524402E+02 -0.15931705660E+03  0.20455213799E+03  0.12499885822E+03 0.  0.
    9000005    1    3    3    0    0 -0.30521331278E+02 -0.55725448054E+02 -0.14857769331E+03  0.16159581732E+03  0.10000000000E+01 0.  0.
    9000005    1    3    3    0    0  0.55365833304E+01  0.41209923652E+02 -0.10739363286E+02  0.42956320678E+02  0.10000000000E+01 0.  0.
         21    1    1    2  502  501  0.24984747948E+02  0.14515524402E+02  0.16569308157E+02  0.33308858454E+02  0.00000000000E+00 0. -1.
<mgrwt>
<rscale>  1 0.12829518E+03</rscale>
<asrwt>0</asrwt>
<pdfrwt beam="2">  1        4 0.29277595E-01 0.12829518E+03</pdfrwt>
<pdfrwt beam="1">  1       -4 0.73164038E-02 0.12829518E+03</pdfrwt>
<totfact> 0.23120627E+03</totfact>
</mgrwt>
</event>
<event>
 6    4  0.2220150E-003  0.1267869E+03  0.7818608E-02  0.1232303E+00
         -4   -1    0    0    0  501 -0.00000000000E+00  0.00000000000E+00  0.94005709486E+01  0.94859703858E+01  0.12700000000E+01 0. -1.
          4   -1    0    0  502    0  0.00000000000E+00 -0.00000000000E+00 -0.59560359473E+03  0.59560494873E+03  0.12700000000E+01 0. -1.
         25    2    1    2    0    0  0.99977247456E+01 -0.18702448163E+02 -0.53169766165E+03  0.54660527499E+03  0.12500074873E+03 0.  0.
    9000005    1    3    3    0    0  0.19041218346E+02  0.23952158844E+02 -0.29492360362E+02  0.42509683945E+02  0.10000000000E+01 0.  0.
    9000005    1    3    3    0    0 -0.90434936001E+01 -0.42654607007E+02 -0.50220530129E+03  0.50409559105E+03  0.10000000000E+01 0.  0.
         21    1    1    2  502  501 -0.99977247456E+01  0.18702448163E+02 -0.54505362130E+02  0.58485644121E+02  0.00000000000E+00 0. -1.
<mgrwt>
<rscale>  1 0.12678692E+03</rscale>
<asrwt>0</asrwt>
<pdfrwt beam="2">  1        4 0.91637966E-01 0.12678692E+03</pdfrwt>
<pdfrwt beam="1">  1       -4 0.14529155E-02 0.12678692E+03</pdfrwt>
<totfact> 0.28171065E+03</totfact>
</mgrwt>
</event>
<event>
 6    4  0.2220150E-003  0.1276323E+03  0.7818608E-02  0.1231012E+00
         -4   -1    0    0    0  501 -0.00000000000E+00  0.00000000000E+00  0.58546911866E+02  0.58560684670E+02  0.12700000000E+01 0. -1.
          4   -1    0    0  502    0  0.00000000000E+00 -0.00000000000E+00 -0.10116446235E+03  0.10117243371E+03  0.12700000000E+01 0. -1.
         25    2    1    2    0    0 -0.74847734320E+01  0.24666934455E+02 -0.30379237413E+02  0.13119795068E+03  0.12500209882E+03 0.  0.
    9000005    1    3    3    0    0 -0.65344911127E+02  0.12470270597E+02 -0.46214518241E+01  0.66692000089E+02  0.10000000000E+01 0.  0.
    9000005    1    3    3    0    0  0.57860137695E+02  0.12196663857E+02 -0.25757785589E+02  0.64505950592E+02  0.10000000000E+01 0.  0.
         21    1    1    2  502  501  0.74847734320E+01 -0.24666934455E+02 -0.12238313070E+02  0.28535167697E+02  0.00000000000E+00 0. -1.
<mgrwt>
<rscale>  1 0.12763230E+03</rscale>
<asrwt>0</asrwt>
<pdfrwt beam="2">  1        4 0.15565436E-01 0.12763230E+03</pdfrwt>
<pdfrwt beam="1">  1       -4 0.90088898E-02 0.12763230E+03</pdfrwt>
<totfact> 0.51387392E+03</totfact>
</mgrwt>
</event>
<event>
 6    4  0.2220150E-003  0.1486824E+03  0.7818608E-02  0.1202101E+00
          4   -1    0    0  502    0  0.00000000000E+00  0.00000000000E+00  0.12617753129E+03  0.12618392252E+03  0.12700000000E+01 0. -1.
         -4   -1    0    0    0  501 -0.00000000000E+00 -0.00000000000E+00 -0.15675346662E+03  0.15675861124E+03  0.12700000000E+01 0. -1.
         25    2    1    2    0    0  0.24369796412E+02  0.76731636437E+02  0.61264880951E+02  0.16080995603E+03  0.12499930124E+03 0.  0.
    9000005    1    3    3    0    0  0.13907836975E+02  0.36578918412E+02  0.97907918663E+02  0.10544385112E+03  0.10000000000E+01 0.  0.
    9000005    1    3    3    0    0  0.10461959437E+02  0.40152718025E+02 -0.36643037712E+02  0.55366104909E+02  0.10000000000E+01 0.  0.
         21    1    1    2  502  501 -0.24369796412E+02 -0.76731636437E+02 -0.91840816279E+02  0.12213257773E+03  0.00000000000E+00 0. -1.
<mgrwt>
<rscale>  1 0.14868240E+03</rscale>
<asrwt>0</asrwt>
<pdfrwt beam="1">  1        4 0.19412815E-01 0.14868240E+03</pdfrwt>
<pdfrwt beam="2">  1       -4 0.24116805E-01 0.14868240E+03</pdfrwt>
<totfact> 0.64285775E+02</totfact>
</mgrwt>
</event>
<event>
 6    4  0.2220150E-003  0.1269370E+03  0.7818608E-02  0.1232073E+00
         -4   -1    0    0    0  501 -0.00000000000E+00  0.00000000000E+00  0.62458889992E+01  0.63736982507E+01  0.12700000000E+01 0. -1.
          4   -1    0    0  502    0  0.00000000000E+00 -0.00000000000E+00 -0.13183543469E+04  0.13183549586E+04  0.12700000000E+01 0. -1.
         25    2    1    2    0    0 -0.16086116178E+02  0.15160502642E+02 -0.12766464432E+04  0.12829415959E+04  0.12499757472E+03 0.  0.
    9000005    1    3    3    0    0  0.26812455177E+02 -0.43116705957E+02 -0.68617295339E+03  0.68804962034E+03  0.10000000000E+01 0.  0.
    9000005    1    3    3    0    0 -0.42898571355E+02  0.58277208599E+02 -0.59047348978E+03  0.59489197557E+03  0.10000000000E+01 0.  0.
         21    1    1    2  502  501  0.16086116178E+02 -0.15160502642E+02 -0.35462014734E+02  0.41787060952E+02  0.00000000000E+00 0. -1.
<mgrwt>
<rscale>  1 0.12693698E+03</rscale>
<asrwt>0</asrwt>
<pdfrwt beam="2">  1        4 0.20283340E+00 0.12693698E+03</pdfrwt>
<pdfrwt beam="1">  1       -4 0.97078559E-03 0.12693698E+03</pdfrwt>
<totfact> 0.70813473E+02</totfact>
</mgrwt>
</event>
<event>
 6    4  0.2220150E-003  0.1276769E+03  0.7818608E-02  0.1230944E+00
         -4   -1    0    0    0  501 -0.00000000000E+00  0.00000000000E+00  0.32415683738E+03  0.32415932521E+03  0.12700000000E+01 0.  1.
          4   -1    0    0  502    0  0.00000000000E+00 -0.00000000000E+00 -0.20083598054E+02  0.20123712649E+02  0.12700000000E+01 0.  1.
         25    2    1    2    0    0 -0.11969111746E+02  0.23115413619E+02  0.20219746942E+03  0.23913431235E+03  0.12499528279E+03 0.  0.
    9000005    1    3    3    0    0  0.24900476488E+02  0.63480848616E+02  0.14369913273E+03  0.15906065703E+03  0.10000000000E+01 0.  0.
    9000005    1    3    3    0    0 -0.36869588234E+02 -0.40365434996E+02  0.58498336693E+02  0.80073655311E+02  0.10000000000E+01 0.  0.
         21    1    1    2  502  501  0.11969111746E+02 -0.23115413619E+02  0.10187576991E+03  0.10514872551E+03  0.00000000000E+00 0.  1.
<mgrwt>
<rscale>  1 0.12767695E+03</rscale>
<asrwt>0</asrwt>
<pdfrwt beam="2">  1        4 0.30930615E-02 0.12767695E+03</pdfrwt>
<pdfrwt beam="1">  1       -4 0.49873559E-01 0.12767695E+03</pdfrwt>
<totfact> 0.32413783E+03</totfact>
</mgrwt>
</event>
<event>
 6    4  0.2220150E-003  0.1408777E+03  0.7818608E-02  0.1212153E+00
         -4   -1    0    0    0  501 -0.00000000000E+00  0.00000000000E+00  0.32069668957E+02  0.32094805919E+02  0.12700000000E+01 0.  1.
          4   -1    0    0  502    0  0.00000000000E+00 -0.00000000000E+00 -0.44035806904E+03  0.44035990039E+03  0.12700000000E+01 0.  1.
         25    2    1    2    0    0 -0.64906382231E+02 -0.36193825910E+00 -0.37268748779E+03  0.39842502030E+03  0.12503425048E+03 0.  0.
    9000005    1    3    3    0    0 -0.36697361895E+02 -0.16463060217E+02 -0.36198184071E+03  0.36421090281E+03  0.10000000000E+01 0.  0.
    9000005    1    3    3    0    0 -0.28209020336E+02  0.16101121958E+02 -0.10705647086E+02  0.34214117497E+02  0.10000000000E+01 0.  0.
         21    1    1    2  502  501  0.64906382231E+02  0.36193825910E+00 -0.35600912289E+02  0.74029686001E+02  0.00000000000E+00 0.  1.
<mgrwt>
<rscale>  1 0.14087772E+03</rscale>
<asrwt>0</asrwt>
<pdfrwt beam="2">  1        4 0.67749465E-01 0.14087772E+03</pdfrwt>
<pdfrwt beam="1">  1       -4 0.49358700E-02 0.14087772E+03</pdfrwt>
<totfact> 0.83228254E+02</totfact>
</mgrwt>
</event>
<event>
 6    4  0.2220150E-003  0.1276093E+03  0.7818608E-02  0.1231047E+00
          4   -1    0    0  502    0  0.00000000000E+00  0.00000000000E+00  0.31414670115E+03  0.31414926826E+03  0.12700000000E+01 0. -1.
         -4   -1    0    0    0  501 -0.00000000000E+00 -0.00000000000E+00 -0.22809641504E+02  0.22844969808E+02  0.12700000000E+01 0. -1.
         25    2    1    2    0    0  0.16969702527E+02 -0.19176228160E+02  0.28236469794E+03  0.30986119907E+03  0.12501376531E+03 0.  0.
    9000005    1    3    3    0    0 -0.47435252040E+02 -0.36593300595E+02  0.11471377904E+03  0.12941956532E+03  0.10000000000E+01 0.  0.
    9000005    1    3    3    0    0  0.64404954568E+02  0.17417072435E+02  0.16765091890E+03  0.18044163375E+03  0.10000000000E+01 0.  0.
         21    1    1    2  502  501 -0.16969702527E+02  0.19176228160E+02  0.89723617092E+01  0.27133038992E+02  0.00000000000E+00 0.  1.
<mgrwt>
<rscale>  1 0.12760933E+03</rscale>
<asrwt>0</asrwt>
<pdfrwt beam="1">  1        4 0.48333172E-01 0.12760933E+03</pdfrwt>
<pdfrwt beam="2">  1       -4 0.35120910E-02 0.12760933E+03</pdfrwt>
<totfact> 0.28288445E+03</totfact>
</mgrwt>
</event>
<event>
 6    4  0.2220150E-003  0.1275886E+03  0.7818608E-02  0.1231078E+00
          4   -1    0    0  502    0  0.00000000000E+00  0.00000000000E+00  0.12751882957E+02  0.12814968551E+02  0.12700000000E+01 0.  1.
         -4   -1    0    0    0  501 -0.00000000000E+00 -0.00000000000E+00 -0.50501607865E+03  0.50501767552E+03  0.12700000000E+01 0.  1.
         25    2    1    2    0    0  0.24250873077E+02  0.81096817190E+01 -0.33445338766E+03  0.35796356353E+03  0.12499989007E+03 0.  0.
    9000005    1    3    3    0    0  0.66856203785E+01  0.55283064366E+02 -0.27249303096E+03  0.27812652993E+03  0.10000000000E+01 0.  0.
    9000005    1    3    3    0    0  0.17565252699E+02 -0.47173382648E+02 -0.61960356693E+02  0.79837033601E+02  0.10000000000E+01 0.  0.
         21    1    1    2  502  501 -0.24250873077E+02 -0.81096817190E+01 -0.15781080803E+03  0.15986908055E+03  0.00000000000E+00 0.  1.
<mgrwt>
<rscale>  1 0.12758857E+03</rscale>
<asrwt>0</asrwt>
<pdfrwt beam="1">  1        4 0.19668041E-02 0.12758857E+03</pdfrwt>
<pdfrwt beam="2">  1       -4 0.77699741E-01 0.12758857E+03</pdfrwt>
<totfact> 0.25650241E+03</totfact>
</mgrwt>
</event>
<event>
 6    4  0.2220150E-003  0.1269363E+03  0.7818608E-02  0.1232074E+00
          4   -1    0    0  502    0  0.00000000000E+00  0.00000000000E+00  0.47527167919E+02  0.47544133081E+02  0.12700000000E+01 0. -1.
         -4   -1    0    0    0  501 -0.00000000000E+00 -0.00000000000E+00 -0.11689912889E+03  0.11690602737E+03  0.12700000000E+01 0. -1.
         25    2    1    2    0    0  0.10168764568E+02 -0.19693032899E+02 -0.58743881922E+02  0.13987018116E+03  0.12498641765E+03 0.  0.
    9000005    1    3    3    0    0 -0.16559999363E+01 -0.16074861319E+02  0.38537706307E+02  0.41800697478E+02  0.10000000000E+01 0.  0.
    9000005    1    3    3    0    0  0.11824764504E+02 -0.36181715802E+01 -0.97281588229E+02  0.98069483682E+02  0.10000000000E+01 0.  0.
         21    1    1    2  502  501 -0.10168764568E+02  0.19693032899E+02 -0.10628079045E+02  0.24579979288E+02  0.00000000000E+00 0. -1.
<mgrwt>
<rscale>  1 0.12693630E+03</rscale>
<asrwt>0</asrwt>
<pdfrwt beam="1">  1        4 0.73137077E-02 0.12693630E+03</pdfrwt>
<pdfrwt beam="2">  1       -4 0.17986317E-01 0.12693630E+03</pdfrwt>
<totfact> 0.56174615E+03</totfact>
</mgrwt>
</event>
<event>
 6    4  0.2220150E-003  0.1301249E+03  0.7818608E-02  0.1227271E+00
          4   -1    0    0  502    0  0.00000000000E+00  0.00000000000E+00  0.48314009114E+03  0.48314176032E+03  0.12700000000E+01 0.  1.
         -4   -1    0    0    0  501 -0.00000000000E+00 -0.00000000000E+00 -0.14424596107E+02  0.14480396157E+02  0.12700000000E+01 0.  1.
         25    2    1    2    0    0 -0.17816132859E+02 -0.31503779159E+02  0.38574005305E+03  0.40709687458E+03  0.12499029591E+03 0.  0.
    9000005    1    3    3    0    0  0.19602599224E+02 -0.53434209830E+01  0.34588813555E+03  0.34648580975E+03  0.10000000000E+01 0.  0.
    9000005    1    3    3    0    0 -0.37418732083E+02 -0.26160358176E+02  0.39851917496E+02  0.60611064821E+02  0.10000000000E+01 0.  0.
         21    1    1    2  502  501  0.17816132859E+02  0.31503779159E+02  0.82975441982E+02  0.90525281902E+02  0.00000000000E+00 0.  1.
<mgrwt>
<rscale>  1 0.13012485E+03</rscale>
<asrwt>0</asrwt>
<pdfrwt beam="1">  1        4 0.74333664E-01 0.13012485E+03</pdfrwt>
<pdfrwt beam="2">  1       -4 0.22235894E-02 0.13012485E+03</pdfrwt>
<totfact> 0.23497845E+03</totfact>
</mgrwt>
</event>
<event>
 6    4  0.2220150E-003  0.1421115E+03  0.7818608E-02  0.1210516E+00
         -4   -1    0    0    0  501 -0.00000000000E+00  0.00000000000E+00  0.26126222705E+02  0.26157071947E+02  0.12700000000E+01 0. -1.
          4   -1    0    0  502    0  0.00000000000E+00 -0.00000000000E+00 -0.42296126507E+03  0.42296317174E+03  0.12700000000E+01 0. -1.
         25    2    1    2    0    0  0.32588233702E+02  0.59232314301E+02 -0.28429408828E+03  0.31783457661E+03  0.12500091770E+03 0.  0.
    9000005    1    3    3    0    0  0.51872123343E+02 -0.23643372973E+02 -0.11351293650E+03  0.12702721369E+03  0.10000000000E+01 0.  0.
    9000005    1    3    3    0    0 -0.19283889642E+02  0.82875687274E+02 -0.17078115178E+03  0.19080736292E+03  0.10000000000E+01 0.  0.
         21    1    1    2  502  501 -0.32588233702E+02 -0.59232314301E+02 -0.11254095409E+03  0.13128566708E+03  0.00000000000E+00 0. -1.
<mgrwt>
<rscale>  1 0.14211154E+03</rscale>
<asrwt>0</asrwt>
<pdfrwt beam="2">  1        4 0.65073478E-01 0.14211154E+03</pdfrwt>
<pdfrwt beam="1">  1       -4 0.40219389E-02 0.14211154E+03</pdfrwt>
<totfact> 0.12608921E+03</totfact>
</mgrwt>
</event>
<event>
 6    4  0.2220150E-003  0.1266801E+03  0.7818608E-02  0.1232467E+00
         -4   -1    0    0    0  501 -0.00000000000E+00  0.00000000000E+00  0.26018184046E+02  0.26049161235E+02  0.12700000000E+01 0.  1.
          4   -1    0    0  502    0  0.00000000000E+00 -0.00000000000E+00 -0.50840236259E+03  0.50840394883E+03  0.12700000000E+01 0.  1.
         25    2    1    2    0    0  0.20374862106E+02  0.26731690771E+01 -0.49458750843E+03  0.51055327536E+03  0.12500225055E+03 0.  0.
    9000005    1    3    3    0    0 -0.99228924122E+01 -0.56837636613E+02 -0.18276269380E+03  0.19165641908E+03  0.10000000000E+01 0.  0.
    9000005    1    3    3    0    0  0.30297754518E+02  0.59510805691E+02 -0.31182481463E+03  0.31889685628E+03  0.10000000000E+01 0.  0.
         21    1    1    2  502  501 -0.20374862106E+02 -0.26731690771E+01  0.12203329889E+02  0.23899834709E+02  0.00000000000E+00 0.  1.
<mgrwt>
<rscale>  1 0.12668008E+03</rscale>
<asrwt>0</asrwt>
<pdfrwt beam="2">  1        4 0.78218246E-01 0.12668008E+03</pdfrwt>
<pdfrwt beam="1">  1       -4 0.40053028E-02 0.12668008E+03</pdfrwt>
<totfact> 0.83190731E+02</totfact>
</mgrwt>
</event>
<event>
 6    4  0.2220150E-003  0.1268764E+03  0.7818608E-02  0.1232166E+00
          4   -1    0    0  502    0  0.00000000000E+00  0.00000000000E+00  0.53076698769E+03  0.53076850709E+03  0.12700000000E+01 0.  1.
         -4   -1    0    0    0  501 -0.00000000000E+00 -0.00000000000E+00 -0.11267931982E+02  0.11339276482E+02  0.12700000000E+01 0.  1.
         25    2    1    2    0    0  0.31666658304E+01 -0.21492795080E+02  0.48514287755E+03  0.50145910598E+03  0.12500262124E+03 0.  0.
    9000005    1    3    3    0    0 -0.28020852148E+02  0.44573035772E+02  0.23721133714E+03  0.24298588877E+03  0.10000000000E+01 0.  0.
    9000005    1    3    3    0    0  0.31187517978E+02 -0.66065830852E+02  0.24793154041E+03  0.25847321721E+03  0.10000000000E+01 0.  0.
         21    1    1    2  502  501 -0.31666658304E+01  0.21492795080E+02  0.34356178155E+02  0.40648677596E+02  0.00000000000E+00 0.  1.
<mgrwt>
<rscale>  1 0.12687641E+03</rscale>
<asrwt>0</asrwt>
<pdfrwt beam="1">  1        4 0.81662065E-01 0.12687641E+03</pdfrwt>
<pdfrwt beam="2">  1       -4 0.17391329E-02 0.12687641E+03</pdfrwt>
<totfact> 0.27721408E+03</totfact>
</mgrwt>
</event>
<event>
 6    4  0.2220150E-003  0.1272877E+03  0.7818608E-02  0.1231537E+00
          4   -1    0    0  502    0  0.00000000000E+00  0.00000000000E+00  0.34955056342E+02  0.34978119787E+02  0.12700000000E+01 0. -1.
         -4   -1    0    0    0  501 -0.00000000000E+00 -0.00000000000E+00 -0.18730109737E+03  0.18730540296E+03  0.12700000000E+01 0. -1.
         25    2    1    2    0    0 -0.25864397409E+01 -0.23890516015E+02 -0.91206590403E+02  0.15659121841E+03  0.12499888449E+03 0.  0.
    9000005    1    3    3    0    0 -0.34754414417E+02  0.36889373247E+02 -0.66270263093E+02  0.83435262033E+02  0.10000000000E+01 0.  0.
    9000005    1    3    3    0    0  0.32167974676E+02 -0.60779889262E+02 -0.24936327310E+02  0.73155956375E+02  0.10000000000E+01 0.  0.
         21    1    1    2  502  501  0.25864397409E+01  0.23890516015E+02 -0.61139450628E+02  0.65692304337E+02  0.00000000000E+00 0. -1.
<mgrwt>
<rscale>  1 0.12728774E+03</rscale>
<asrwt>0</asrwt>
<pdfrwt beam="1">  1        4 0.53798064E-02 0.12728774E+03</pdfrwt>
<pdfrwt beam="2">  1       -4 0.28817658E-01 0.12728774E+03</pdfrwt>
<totfact> 0.39217639E+03</totfact>
</mgrwt>
</event>
<event>
 6    4  0.2220150E-003  0.1271370E+03  0.7818608E-02  0.1231767E+00
         -4   -1    0    0    0  501 -0.00000000000E+00  0.00000000000E+00  0.35206591744E+02  0.35229490519E+02  0.12700000000E+01 0.  1.
          4   -1    0    0  502    0  0.00000000000E+00 -0.00000000000E+00 -0.21032202807E+03  0.21032586239E+03  0.12700000000E+01 0.  1.
         25    2    1    2    0    0  0.20593599485E+02 -0.10670815954E+02 -0.18140738803E+03  0.22152305570E+03  0.12500344443E+03 0.  0.
    9000005    1    3    3    0    0  0.48766437322E+02 -0.14335171972E+02 -0.18591435440E+03  0.19274026496E+03  0.10000000000E+01 0.  0.
    9000005    1    3    3    0    0 -0.28172837836E+02  0.36643560178E+01  0.45069663692E+01  0.28782790737E+02  0.10000000000E+01 0.  0.
         21    1    1    2  502  501 -0.20593599485E+02  0.10670815954E+02  0.62919517106E+01  0.24032297211E+02  0.00000000000E+00 0.  1.
<mgrwt>
<rscale>  1 0.12713703E+03</rscale>
<asrwt>0</asrwt>
<pdfrwt beam="2">  1        4 0.32359291E-01 0.12713703E+03</pdfrwt>
<pdfrwt beam="1">  1       -4 0.54184553E-02 0.12713703E+03</pdfrwt>
<totfact> 0.31124810E+03</totfact>
</mgrwt>
</event>
<event>
 6    4  0.2220150E-003  0.1266387E+03  0.7818608E-02  0.1232530E+00
         -4   -1    0    0    0  501 -0.00000000000E+00  0.00000000000E+00  0.45882079948E+02  0.45899653162E+02  0.12700000000E+01 0. -1.
          4   -1    0    0  502    0  0.00000000000E+00 -0.00000000000E+00 -0.16079222030E+03  0.16079723570E+03  0.12700000000E+01 0. -1.
         25    2    1    2    0    0  0.96887245349E+01 -0.17822463290E+02 -0.12994485230E+03  0.18144705432E+03  0.12500342915E+03 0.  0.
    9000005    1    3    3    0    0 -0.13224902637E+02  0.36529722452E+02 -0.11384638004E+03  0.12029678683E+03  0.10000000000E+01 0.  0.
    9000005    1    3    3    0    0  0.22913627172E+02 -0.54352185742E+02 -0.16098472259E+02  0.61150267490E+02  0.10000000000E+01 0.  0.
         21    1    1    2  502  501 -0.96887245349E+01  0.17822463290E+02  0.15034711953E+02  0.25249834541E+02  0.00000000000E+00 0. -1.
<mgrwt>
<rscale>  1 0.12663873E+03</rscale>
<asrwt>0</asrwt>
<pdfrwt beam="2">  1        4 0.24739002E-01 0.12663873E+03</pdfrwt>
<pdfrwt beam="1">  1       -4 0.70605192E-02 0.12663873E+03</pdfrwt>
<totfact> 0.33432924E+03</totfact>
</mgrwt>
</event>
<event>
 6    4  0.2220150E-003  0.1273748E+03  0.7818608E-02  0.1231404E+00
          4   -1    0    0  502    0  0.00000000000E+00  0.00000000000E+00  0.23237439134E+03  0.23237786179E+03  0.12700000000E+01 0. -1.
         -4   -1    0    0    0  501 -0.00000000000E+00 -0.00000000000E+00 -0.42896068684E+02  0.42914864657E+02  0.12700000000E+01 0. -1.
         25    2    1    2    0    0  0.15200907938E+02  0.19171723430E+02  0.20848145450E+03  0.24431302985E+03  0.12500286839E+03 0.  0.
    9000005    1    3    3    0    0  0.27756554075E+02  0.48731456763E+02  0.20436067883E+03  0.21191854149E+03  0.10000000000E+01 0.  0.
    9000005    1    3    3    0    0 -0.12555646138E+02 -0.29559733332E+02  0.41207756631E+01  0.32394488369E+02  0.10000000000E+01 0.  0.
         21    1    1    2  502  501 -0.15200907938E+02 -0.19171723430E+02 -0.19003131839E+02  0.30979696595E+02  0.00000000000E+00 0. -1.
<mgrwt>
<rscale>  1 0.12737480E+03</rscale>
<asrwt>0</asrwt>
<pdfrwt beam="1">  1        4 0.35751619E-01 0.12737480E+03</pdfrwt>
<pdfrwt beam="2">  1       -4 0.66011080E-02 0.12737480E+03</pdfrwt>
<totfact> 0.18665618E+03</totfact>
</mgrwt>
</event>
<event>
 6    4  0.2220150E-003  0.1329313E+03  0.7818608E-02  0.1223170E+00
         -4   -1    0    0    0  501 -0.00000000000E+00  0.00000000000E+00  0.15268133662E+03  0.15268661844E+03  0.12700000000E+01 0.  1.
          4   -1    0    0  502    0  0.00000000000E+00 -0.00000000000E+00 -0.84469250407E+02  0.84478797129E+02  0.12700000000E+01 0.  1.
         25    2    1    2    0    0 -0.14458367808E+02  0.42859211301E+02 -0.23418831600E+02  0.13497842280E+03  0.12499910622E+03 0.  0.
    9000005    1    3    3    0    0 -0.32982390503E+02 -0.35422828396E+02 -0.25058001345E+02  0.54511634411E+02  0.10000000000E+01 0.  0.
    9000005    1    3    3    0    0  0.18524022694E+02  0.78282039697E+02  0.16391697449E+01  0.80466788387E+02  0.10000000000E+01 0.  0.
         21    1    1    2  502  501  0.14458367808E+02 -0.42859211301E+02  0.91630917811E+02  0.10218699277E+03  0.00000000000E+00 0. -1.
<mgrwt>
<rscale>  1 0.13293131E+03</rscale>
<asrwt>0</asrwt>
<pdfrwt beam="2">  1        4 0.12996410E-01 0.13293131E+03</pdfrwt>
<pdfrwt beam="1">  1       -4 0.23490577E-01 0.13293131E+03</pdfrwt>
<totfact> 0.13352150E+03</totfact>
</mgrwt>
</event>
<event>
 6    4  0.2220150E-003  0.1285431E+03  0.7818608E-02  0.1229634E+00
          4   -1    0    0  502    0  0.00000000000E+00  0.00000000000E+00  0.89141422746E+03  0.89141513214E+03  0.12700000000E+01 0.  1.
         -4   -1    0    0    0  501 -0.00000000000E+00 -0.00000000000E+00 -0.15516711046E+02  0.15568597294E+02  0.12700000000E+01 0.  1.
         25    2    1    2    0    0  0.29850488366E+02 -0.26287520709E+01  0.86590720053E+03  0.87539625716E+03  0.12500146054E+03 0.  0.
    9000005    1    3    3    0    0  0.29102730774E+02 -0.55076033499E+02  0.26594868540E+03  0.27314838764E+03  0.10000000000E+01 0.  0.
    9000005    1    3    3    0    0  0.74775759222E+00  0.52447281428E+02  0.59995851513E+03  0.60224786952E+03  0.10000000000E+01 0.  0.
         21    1    1    2  502  501 -0.29850488366E+02  0.26287520709E+01  0.99903158813E+01  0.31587472272E+02  0.00000000000E+00 0.  1.
<mgrwt>
<rscale>  1 0.12854309E+03</rscale>
<asrwt>0</asrwt>
<pdfrwt beam="1">  1        4 0.13714474E+00 0.12854309E+03</pdfrwt>
<pdfrwt beam="2">  1       -4 0.23912466E-02 0.12854309E+03</pdfrwt>
<totfact> 0.50667480E+02</totfact>
</mgrwt>
</event>
<event>
 6    4  0.2220150E-003  0.1283693E+03  0.7818608E-02  0.1229896E+00
         -4   -1    0    0    0  501 -0.00000000000E+00  0.00000000000E+00  0.37263010576E+02  0.37284646400E+02  0.12700000000E+01 0. -1.
          4   -1    0    0  502    0  0.00000000000E+00 -0.00000000000E+00 -0.16674762644E+03  0.16675246272E+03  0.12700000000E+01 0. -1.
         25    2    1    2    0    0  0.29200404847E+02  0.72210915560E+00 -0.10250055898E+03  0.16427123919E+03  0.12500196139E+03 0.  0.
    9000005    1    3    3    0    0 -0.11231820504E+01  0.45322085682E+02 -0.10054085051E+03  0.11029422292E+03  0.10000000000E+01 0.  0.
    9000005    1    3    3    0    0  0.30323586897E+02 -0.44599976526E+02 -0.19597084658E+01  0.53977016273E+02  0.10000000000E+01 0.  0.
         21    1    1    2  502  501 -0.29200404847E+02 -0.72210915560E+00 -0.26984056884E+02  0.39765869924E+02  0.00000000000E+00 0. -1.
<mgrwt>
<rscale>  1 0.12836929E+03</rscale>
<asrwt>0</asrwt>
<pdfrwt beam="2">  1        4 0.25655517E-01 0.12836929E+03</pdfrwt>
<pdfrwt beam="1">  1       -4 0.57348073E-02 0.12836929E+03</pdfrwt>
<totfact> 0.44017366E+03</totfact>
</mgrwt>
</event>
<event>
 6    4  0.2220150E-003  0.1312570E+03  0.7818608E-02  0.1225602E+00
          4   -1    0    0  502    0  0.00000000000E+00  0.00000000000E+00  0.18291571290E+02  0.18335606897E+02  0.12700000000E+01 0.  1.
         -4   -1    0    0    0  501 -0.00000000000E+00 -0.00000000000E+00 -0.44307533773E+03  0.44307715784E+03  0.12700000000E+01 0.  1.
         25    2    1    2    0    0  0.51273648873E+00 -0.40032923714E+02 -0.25295981094E+03  0.28498609566E+03  0.12500204354E+03 0.  0.
    9000005    1    3    3    0    0 -0.52392036552E+02 -0.23389886413E+02 -0.20082032967E+03  0.20885836610E+03  0.10000000000E+01 0.  0.
    9000005    1    3    3    0    0  0.52904773041E+02 -0.16643037301E+02 -0.52139481269E+02  0.76127729561E+02  0.10000000000E+01 0.  0.
         21    1    1    2  502  501 -0.51273648873E+00  0.40032923714E+02 -0.17182395550E+03  0.17642666908E+03  0.00000000000E+00 0.  1.
<mgrwt>
<rscale>  1 0.13125703E+03</rscale>
<asrwt>0</asrwt>
<pdfrwt beam="1">  1        4 0.28176156E-02 0.13125703E+03</pdfrwt>
<pdfrwt beam="2">  1       -4 0.68168956E-01 0.13125703E+03</pdfrwt>
<totfact> 0.19656798E+03</totfact>
</mgrwt>
</event>
<event>
 6    4  0.2220150E-003  0.1290343E+03  0.7818608E-02  0.1228896E+00
          4   -1    0    0  502    0  0.00000000000E+00  0.00000000000E+00  0.16300397888E+03  0.16300892623E+03  0.12700000000E+01 0.  1.
         -4   -1    0    0    0  501 -0.00000000000E+00 -0.00000000000E+00 -0.44710616568E+02  0.44728650035E+02  0.12700000000E+01 0.  1.
         25    2    1    2    0    0  0.19162209542E+02  0.25657636467E+02  0.11925002922E+03  0.17569978928E+03  0.12499736757E+03 0.  0.
    9000005    1    3    3    0    0  0.58651243573E+02 -0.25761735837E+02  0.63149363569E+02  0.89958198766E+02  0.10000000000E+01 0.  0.
    9000005    1    3    3    0    0 -0.39489034031E+02  0.51419372304E+02  0.56100665654E+02  0.85741590513E+02  0.10000000000E+01 0.  0.
         21    1    1    2  502  501 -0.19162209542E+02 -0.25657636467E+02 -0.95666690849E+00  0.32037786989E+02  0.00000000000E+00 0.  1.
<mgrwt>
<rscale>  1 0.12903428E+03</rscale>
<asrwt>0</asrwt>
<pdfrwt beam="1">  1        4 0.25079303E-01 0.12903428E+03</pdfrwt>
<pdfrwt beam="2">  1       -4 0.68803240E-02 0.12903428E+03</pdfrwt>
<totfact> 0.34168529E+03</totfact>
</mgrwt>
</event>
<event>
 6    4  0.2220150E-003  0.1325655E+03  0.7818608E-02  0.1223698E+00
          4   -1    0    0  502    0  0.00000000000E+00  0.00000000000E+00  0.97381744224E+02  0.97390025199E+02  0.12700000000E+01 0. -1.
         -4   -1    0    0    0  501 -0.00000000000E+00 -0.00000000000E+00 -0.80778379449E+02  0.80788362320E+02  0.12700000000E+01 0. -1.
         25    2    1    2    0    0  0.31941301398E+02  0.30438917456E+02  0.19351976836E+02  0.13397059071E+03  0.12500738272E+03 0.  0.
    9000005    1    3    3    0    0  0.88636955516E+01  0.13191841151E+02 -0.53395469990E+02  0.55719529675E+02  0.10000000000E+01 0.  0.
    9000005    1    3    3    0    0  0.23077605846E+02  0.17247076305E+02  0.72747446826E+02  0.78251061030E+02  0.10000000000E+01 0.  0.
         21    1    1    2  502  501 -0.31941301398E+02 -0.30438917456E+02 -0.27486120603E+01  0.44207796814E+02  0.00000000000E+00 0. -1.
<mgrwt>
<rscale>  1 0.13256553E+03</rscale>
<asrwt>0</asrwt>
<pdfrwt beam="1">  1        4 0.14983212E-01 0.13256553E+03</pdfrwt>
<pdfrwt beam="2">  1       -4 0.12428848E-01 0.13256553E+03</pdfrwt>
<totfact> 0.32171724E+03</totfact>
</mgrwt>
</event>
<event>
 6    4  0.2220150E-003  0.1428350E+03  0.7818608E-02  0.1209564E+00
         -4   -1    0    0    0  501 -0.00000000000E+00  0.00000000000E+00  0.32975166715E+03  0.32975411277E+03  0.12700000000E+01 0. -1.
          4   -1    0    0  502    0  0.00000000000E+00 -0.00000000000E+00 -0.40338722028E+02  0.40358709033E+02  0.12700000000E+01 0. -1.
         25    2    1    2    0    0 -0.67877176051E+02 -0.13029727884E+02  0.11793921548E+03  0.18523360503E+03  0.12499898018E+03 0.  0.
    9000005    1    3    3    0    0 -0.37385739562E+02 -0.40915498647E+02 -0.48792204208E+01  0.55646907768E+02  0.10000000000E+01 0.  0.
    9000005    1    3    3    0    0 -0.30491436488E+02  0.27885770763E+02  0.12281843590E+03  0.12958669726E+03  0.10000000000E+01 0.  0.
         21    1    1    2  502  501  0.67877176051E+02  0.13029727884E+02  0.17147372965E+03  0.18487921678E+03  0.00000000000E+00 0. -1.
<mgrwt>
<rscale>  1 0.14283497E+03</rscale>
<asrwt>0</asrwt>
<pdfrwt beam="2">  1        4 0.62076827E-02 0.14283497E+03</pdfrwt>
<pdfrwt beam="1">  1       -4 0.50732752E-01 0.14283497E+03</pdfrwt>
<totfact> 0.10552890E+03</totfact>
</mgrwt>
</event>
<event>
 6    4  0.2220150E-003  0.1438733E+03  0.7818608E-02  0.1208210E+00
          4   -1    0    0  502    0  0.00000000000E+00  0.00000000000E+00  0.14926877177E+03  0.14927417435E+03  0.12700000000E+01 0.  1.
         -4   -1    0    0    0  501 -0.00000000000E+00 -0.00000000000E+00 -0.13615668753E+03  0.13616261036E+03  0.12700000000E+01 0.  1.
         25    2    1    2    0    0  0.27262537840E+02  0.65827297156E+02  0.98399548371E+02  0.17430429369E+03  0.12499214639E+03 0.  0.
    9000005    1    3    3    0    0  0.30659207600E+02  0.95200585291E+02  0.10389070428E+03  0.14421309540E+03  0.10000000000E+01 0.  0.
    9000005    1    3    3    0    0 -0.33966697596E+01 -0.29373288135E+02 -0.54911559070E+01  0.30091198290E+02  0.10000000000E+01 0.  0.
         21    1    1    2  502  501 -0.27262537840E+02 -0.65827297156E+02 -0.85287464131E+02  0.11113249101E+03  0.00000000000E+00 0.  1.
<mgrwt>
<rscale>  1 0.14387326E+03</rscale>
<asrwt>0</asrwt>
<pdfrwt beam="1">  1        4 0.22965298E-01 0.14387326E+03</pdfrwt>
<pdfrwt beam="2">  1       -4 0.20948054E-01 0.14387326E+03</pdfrwt>
<totfact> 0.60916505E+02</totfact>
</mgrwt>
</event>
<event>
 6    4  0.2220150E-003  0.1385700E+03  0.7818608E-02  0.1215266E+00
         -4   -1    0    0    0  501 -0.00000000000E+00  0.00000000000E+00  0.37930896755E+03  0.37931109365E+03  0.12700000000E+01 0.  1.
          4   -1    0    0  502    0  0.00000000000E+00 -0.00000000000E+00 -0.77843446528E+02  0.77853805734E+02  0.12700000000E+01 0.  1.
         25    2    1    2    0    0 -0.20071775369E+02 -0.56337709982E+02 -0.11020186477E+02  0.13900749946E+03  0.12499930665E+03 0.  0.
    9000005    1    3    3    0    0  0.29972907929E+02  0.13511741399E+02  0.29332502873E+02  0.44071964900E+02  0.10000000000E+01 0.  0.
    9000005    1    3    3    0    0 -0.50044683298E+02 -0.69849451382E+02 -0.40352689350E+02  0.94935534562E+02  0.10000000000E+01 0.  0.
         21    1    1    2  502  501  0.20071775369E+02  0.56337709982E+02  0.31248570750E+03  0.31815739992E+03  0.00000000000E+00 0.  1.
<mgrwt>
<rscale>  1 0.13856998E+03</rscale>
<asrwt>0</asrwt>
<pdfrwt beam="2">  1        4 0.11976875E-01 0.13856998E+03</pdfrwt>
<pdfrwt beam="1">  1       -4 0.58356186E-01 0.13856998E+03</pdfrwt>
<totfact> 0.26243272E+02</totfact>
</mgrwt>
</event>
<event>
 6    4  0.2220150E-003  0.1270026E+03  0.7818608E-02  0.1231972E+00
         -4   -1    0    0    0  501 -0.00000000000E+00  0.00000000000E+00  0.35890230607E+03  0.35890455305E+03  0.12700000000E+01 0.  1.
          4   -1    0    0  502    0  0.00000000000E+00 -0.00000000000E+00 -0.18364749862E+02  0.18408610417E+02  0.12700000000E+01 0.  1.
         25    2    1    2    0    0  0.18504687607E+02 -0.12776618078E+02  0.21444720124E+03  0.24923333271E+03  0.12499594625E+03 0.  0.
    9000005    1    3    3    0    0 -0.45500923051E+02  0.25721122052E+02  0.85755315204E+02  0.10043348149E+03  0.10000000000E+01 0.  0.
    9000005    1    3    3    0    0  0.64005610658E+02 -0.38497740130E+02  0.12869188604E+03  0.14879985122E+03  0.10000000000E+01 0.  0.
         21    1    1    2  502  501 -0.18504687607E+02  0.12776618078E+02  0.12609035496E+03  0.12807983076E+03  0.00000000000E+00 0. -1.
<mgrwt>
<rscale>  1 0.12700257E+03</rscale>
<asrwt>0</asrwt>
<pdfrwt beam="2">  1        4 0.28288929E-02 0.12700257E+03</pdfrwt>
<pdfrwt beam="1">  1       -4 0.55219286E-01 0.12700257E+03</pdfrwt>
<totfact> 0.30207986E+03</totfact>
</mgrwt>
</event>
<event>
 6    4  0.2220150E-003  0.1335624E+03  0.7818608E-02  0.1222263E+00
          4   -1    0    0  502    0  0.00000000000E+00  0.00000000000E+00  0.30742195194E+03  0.30742457520E+03  0.12700000000E+01 0. -1.
         -4   -1    0    0    0  501 -0.00000000000E+00 -0.00000000000E+00 -0.29301346716E+02  0.29328856428E+02  0.12700000000E+01 0. -1.
         25    2    1    2    0    0  0.45024765324E+02  0.13664604899E+02  0.24556132976E+03  0.27953405258E+03  0.12499987583E+03 0.  0.
    9000005    1    3    3    0    0  0.20311110291E+02 -0.34018997389E+02  0.21313526676E+03  0.21678901107E+03  0.10000000000E+01 0.  0.
    9000005    1    3    3    0    0  0.24713655033E+02  0.47683602287E+02  0.32426063002E+02  0.62745041509E+02  0.10000000000E+01 0.  0.
         21    1    1    2  502  501 -0.45024765324E+02 -0.13664604899E+02  0.32559275464E+02  0.57219379045E+02  0.00000000000E+00 0.  1.
<mgrwt>
<rscale>  1 0.13356242E+03</rscale>
<asrwt>0</asrwt>
<pdfrwt beam="1">  1        4 0.47298002E-01 0.13356242E+03</pdfrwt>
<pdfrwt beam="2">  1       -4 0.45102175E-02 0.13356242E+03</pdfrwt>
<totfact> 0.20085032E+03</totfact>
</mgrwt>
</event>
<event>
 6    4  0.2220150E-003  0.1267986E+03  0.7818608E-02  0.1232285E+00
         -4   -1    0    0    0  501 -0.00000000000E+00  0.00000000000E+00  0.37904787339E+03  0.37905000095E+03  0.12700000000E+01 0. -1.
          4   -1    0    0  502    0  0.00000000000E+00 -0.00000000000E+00 -0.14523554752E+02  0.14578976049E+02  0.12700000000E+01 0. -1.
         25    2    1    2    0    0  0.20208317042E+02  0.67242580547E+01  0.32208580341E+03  0.34614614538E+03  0.12499718988E+03 0.  0.
    9000005    1    3    3    0    0 -0.36397847415E+01 -0.54579991139E+02  0.20134855979E+03  0.20864914568E+03  0.10000000000E+01 0.  0.
    9000005    1    3    3    0    0  0.23848101783E+02  0.61304249193E+02  0.12073724362E+03  0.13749699969E+03  0.10000000000E+01 0.  0.
         21    1    1    2  502  501 -0.20208317042E+02 -0.67242580547E+01  0.42438515234E+02  0.47482831627E+02  0.00000000000E+00 0. -1.
<mgrwt>
<rscale>  1 0.12679862E+03</rscale>
<asrwt>0</asrwt>
<pdfrwt beam="2">  1        4 0.22388199E-02 0.12679862E+03</pdfrwt>
<pdfrwt beam="1">  1       -4 0.58319485E-01 0.12679862E+03</pdfrwt>
<totfact> 0.38761476E+03</totfact>
</mgrwt>
</event>
<event>
 6    4  0.2220150E-003  0.1456491E+03  0.7818608E-02  0.1205924E+00
          4   -1    0    0  502    0  0.00000000000E+00  0.00000000000E+00  0.56568841654E+03  0.56568984215E+03  0.12700000000E+01 0.  1.
         -4   -1    0    0    0  501 -0.00000000000E+00 -0.00000000000E+00 -0.22326804925E+02  0.22362896014E+02  0.12700000000E+01 0.  1.
         25    2    1    2    0    0 -0.52034408921E+02  0.53682563710E+02  0.41088827466E+03  0.43593902293E+03  0.12499704036E+03 0.  0.
    9000005    1    3    3    0    0 -0.42909196915E+00 -0.37992210024E+02  0.77029253704E+02  0.85895855946E+02  0.10000000000E+01 0.  0.
    9000005    1    3    3    0    0 -0.51605316952E+02  0.91674773734E+02  0.33385902096E+03  0.35004316698E+03  0.10000000000E+01 0.  0.
         21    1    1    2  502  501  0.52034408921E+02 -0.53682563710E+02  0.13247333696E+03  0.15211371524E+03  0.00000000000E+00 0.  1.
<mgrwt>
<rscale>  1 0.14564909E+03</rscale>
<asrwt>0</asrwt>
<pdfrwt beam="1">  1        4 0.87031860E-01 0.14564909E+03</pdfrwt>
<pdfrwt beam="2">  1       -4 0.34377795E-02 0.14564909E+03</pdfrwt>
<totfact> 0.85977568E+02</totfact>
</mgrwt>
</event>
<event>
 6    4  0.2220150E-003  0.1282436E+03  0.7818608E-02  0.1230085E+00
         -4   -1    0    0    0  501 -0.00000000000E+00  0.00000000000E+00  0.10293113087E+03  0.10293896542E+03  0.12700000000E+01 0.  1.
          4   -1    0    0  502    0  0.00000000000E+00 -0.00000000000E+00 -0.72536227248E+02  0.72547344289E+02  0.12700000000E+01 0.  1.
         25    2    1    2    0    0  0.11105298272E+02  0.26412924309E+02 -0.69314457766E+01  0.12843074065E+03  0.12500175992E+03 0.  0.
    9000005    1    3    3    0    0 -0.17288578708E+01 -0.31323155748E+02  0.41463047938E+02  0.52003013180E+02  0.10000000000E+01 0.  0.
    9000005    1    3    3    0    0  0.12834156143E+02  0.57736080057E+02 -0.48394493714E+02  0.76427727469E+02  0.10000000000E+01 0.  0.
         21    1    1    2  502  501 -0.11105298272E+02 -0.26412924309E+02  0.37326349397E+02  0.47055569060E+02  0.00000000000E+00 0. -1.
<mgrwt>
<rscale>  1 0.12824356E+03</rscale>
<asrwt>0</asrwt>
<pdfrwt beam="2">  1        4 0.11160877E-01 0.12824356E+03</pdfrwt>
<pdfrwt beam="1">  1       -4 0.15837016E-01 0.12824356E+03</pdfrwt>
<totfact> 0.34803158E+03</totfact>
</mgrwt>
</event>
<event>
 6    4  0.2220150E-003  0.1327465E+03  0.7818608E-02  0.1223436E+00
          4   -1    0    0  502    0  0.00000000000E+00  0.00000000000E+00  0.34813445429E+03  0.34813677078E+03  0.12700000000E+01 0. -1.
         -4   -1    0    0    0  501 -0.00000000000E+00 -0.00000000000E+00 -0.53497049729E+02  0.53512122269E+02  0.12700000000E+01 0. -1.
         25    2    1    2    0    0  0.19886808885E+02 -0.40054560849E+02  0.32264270156E+03  0.34888385090E+03  0.12498710147E+03 0.  0.
    9000005    1    3    3    0    0 -0.28763107897E+02  0.17170935573E+02  0.24738521981E+02  0.41655154233E+02  0.10000000000E+01 0.  0.
    9000005    1    3    3    0    0  0.48649916782E+02 -0.57225496422E+02  0.29790417958E+03  0.30722869667E+03  0.10000000000E+01 0.  0.
         21    1    1    2  502  501 -0.19886808885E+02  0.40054560849E+02 -0.28005296999E+02  0.52765042144E+02  0.00000000000E+00 0. -1.
<mgrwt>
<rscale>  1 0.13274648E+03</rscale>
<asrwt>0</asrwt>
<pdfrwt beam="1">  1        4 0.53560483E-01 0.13274648E+03</pdfrwt>
<pdfrwt beam="2">  1       -4 0.82316532E-02 0.13274648E+03</pdfrwt>
<totfact> 0.58495778E+02</totfact>
</mgrwt>
</event>
<event>
 6    4  0.2220150E-003  0.1317025E+03  0.7818608E-02  0.1224951E+00
          4   -1    0    0  502    0  0.00000000000E+00  0.00000000000E+00  0.79582530185E+03  0.79582631520E+03  0.12700000000E+01 0.  1.
         -4   -1    0    0    0  501 -0.00000000000E+00 -0.00000000000E+00 -0.14449185691E+02  0.14504891145E+02  0.12700000000E+01 0.  1.
         25    2    1    2    0    0  0.23700873580E+02 -0.34036400181E+02  0.74042022323E+03  0.75204232995E+03  0.12500140448E+03 0.  0.
    9000005    1    3    3    0    0 -0.36400091474E+02 -0.34257410597E+02  0.55215849785E+03  0.55441730094E+03  0.10000000000E+01 0.  0.
    9000005    1    3    3    0    0  0.60100965053E+02  0.22101041610E+00  0.18826172539E+03  0.19762502901E+03  0.10000000000E+01 0.  0.
         21    1    1    2  502  501 -0.23700873580E+02  0.34036400181E+02  0.40955892927E+02  0.58288876393E+02  0.00000000000E+00 0.  1.
<mgrwt>
<rscale>  1 0.13170254E+03</rscale>
<asrwt>0</asrwt>
<pdfrwt beam="1">  1        4 0.12243902E+00 0.13170254E+03</pdfrwt>
<pdfrwt beam="2">  1       -4 0.22273147E-02 0.13170254E+03</pdfrwt>
<totfact> 0.74980905E+02</totfact>
</mgrwt>
</event>
<event>
 6    4  0.2220150E-003  0.1304459E+03  0.7818608E-02  0.1226796E+00
          4   -1    0    0  502    0  0.00000000000E+00  0.00000000000E+00  0.74541609530E+01  0.75615749360E+01  0.12700000000E+01 0.  1.
         -4   -1    0    0    0  501 -0.00000000000E+00 -0.00000000000E+00 -0.99020870025E+03  0.99020951467E+03  0.12700000000E+01 0.  1.
         25    2    1    2    0    0 -0.37212290526E+02 -0.22265465410E+01 -0.65190815574E+03  0.66483109264E+03  0.12500570440E+03 0.  0.
    9000005    1    3    3    0    0 -0.78787660184E+01 -0.26907567529E+02 -0.27631028552E+02  0.39377225437E+02  0.10000000000E+01 0.  0.
    9000005    1    3    3    0    0 -0.29333524508E+02  0.24681020988E+02 -0.62427712719E+03  0.62545386720E+03  0.10000000000E+01 0.  0.
         21    1    1    2  502  501  0.37212290526E+02  0.22265465410E+01 -0.33084638355E+03  0.33293999697E+03  0.00000000000E+00 0. -1.
<mgrwt>
<rscale>  1 0.13044592E+03</rscale>
<asrwt>0</asrwt>
<pdfrwt beam="1">  1        4 0.11551200E-02 0.13044592E+03</pdfrwt>
<pdfrwt beam="2">  1       -4 0.15234802E+00 0.13044592E+03</pdfrwt>
<totfact> 0.11864570E+03</totfact>
</mgrwt>
</event>
<event>
 6    4  0.2220150E-003  0.1283055E+03  0.7818608E-02  0.1229992E+00
          4   -1    0    0  502    0  0.00000000000E+00  0.00000000000E+00  0.11773046140E+02  0.11841347703E+02  0.12700000000E+01 0.  1.
         -4   -1    0    0    0  501 -0.00000000000E+00 -0.00000000000E+00 -0.14683705443E+04  0.14683710935E+04  0.12700000000E+01 0.  1.
         25    2    1    2    0    0  0.23097882732E+02 -0.17509813304E+02 -0.34259289299E+03  0.36583083419E+03  0.12498881216E+03 0.  0.
    9000005    1    3    3    0    0 -0.93100460284E+01  0.18675222361E+02 -0.11226158253E+01  0.20921308601E+02  0.10000000000E+01 0.  0.
    9000005    1    3    3    0    0  0.32407928760E+02 -0.36185035665E+02 -0.34147027717E+03  0.34490952559E+03  0.10000000000E+01 0.  0.
         21    1    1    2  502  501 -0.23097882732E+02  0.17509813304E+02 -0.11140046052E+04  0.11143816070E+04  0.00000000000E+00 0.  1.
<mgrwt>
<rscale>  1 0.12830553E+03</rscale>
<asrwt>0</asrwt>
<pdfrwt beam="1">  1        4 0.18165352E-02 0.12830553E+03</pdfrwt>
<pdfrwt beam="2">  1       -4 0.22590831E+00 0.12830553E+03</pdfrwt>
<totfact> 0.19923782E+02</totfact>
</mgrwt>
</event>
<event>
 6    4  0.2220150E-003  0.1272004E+03  0.7818608E-02  0.1231670E+00
         -4   -1    0    0    0  501 -0.00000000000E+00  0.00000000000E+00  0.83281114189E+02  0.83290797094E+02  0.12700000000E+01 0. -1.
          4   -1    0    0  502    0  0.00000000000E+00 -0.00000000000E+00 -0.71503860100E+02  0.71515137623E+02  0.12700000000E+01 0. -1.
         25    2    1    2    0    0  0.17335097109E+02  0.15924502718E+02 -0.25933074615E+01  0.12722680460E+03  0.12500335670E+03 0.  0.
    9000005    1    3    3    0    0  0.65892214148E+02  0.11833453788E+02 -0.27632479380E+02  0.72431819186E+02  0.10000000000E+01 0.  0.
    9000005    1    3    3    0    0 -0.48557117039E+02  0.40910489296E+01  0.25039171918E+02  0.54794985417E+02  0.10000000000E+01 0.  0.
         21    1    1    2  502  501 -0.17335097109E+02 -0.15924502718E+02  0.14370561550E+02  0.27579130114E+02  0.00000000000E+00 0. -1.
<mgrwt>
<rscale>  1 0.12720037E+03</rscale>
<asrwt>0</asrwt>
<pdfrwt beam="2">  1        4 0.11002206E-01 0.12720037E+03</pdfrwt>
<pdfrwt beam="1">  1       -4 0.12814091E-01 0.12720037E+03</pdfrwt>
<totfact> 0.51395205E+03</totfact>
</mgrwt>
</event>
<event>
 6    4  0.2220150E-003  0.1270087E+03  0.7818608E-02  0.1231963E+00
          4   -1    0    0  502    0  0.00000000000E+00  0.00000000000E+00  0.40459869492E+03  0.40460068812E+03  0.12700000000E+01 0.  1.
         -4   -1    0    0    0  501 -0.00000000000E+00 -0.00000000000E+00 -0.13822892489E+02  0.13881111510E+02  0.12700000000E+01 0.  1.
         25    2    1    2    0    0  0.76932460047E+00 -0.22484099670E+02  0.33987907503E+03  0.36283466621E+03  0.12500033105E+03 0.  0.
    9000005    1    3    3    0    0 -0.58745160614E+01 -0.43003321479E+02  0.31347860462E+02  0.53548893105E+02  0.10000000000E+01 0.  0.
    9000005    1    3    3    0    0  0.66438406618E+01  0.20519221809E+02  0.30853121457E+03  0.30928577311E+03  0.10000000000E+01 0.  0.
         21    1    1    2  502  501 -0.76932460047E+00  0.22484099670E+02  0.50896727398E+02  0.55647133423E+02  0.00000000000E+00 0.  1.
<mgrwt>
<rscale>  1 0.12700870E+03</rscale>
<asrwt>0</asrwt>
<pdfrwt beam="1">  1        4 0.62250586E-01 0.12700870E+03</pdfrwt>
<pdfrwt beam="2">  1       -4 0.21312305E-02 0.12700870E+03</pdfrwt>
<totfact> 0.36487725E+03</totfact>
</mgrwt>
</event>
<event>
 6    4  0.2220150E-003  0.1312425E+03  0.7818608E-02  0.1225624E+00
         -4   -1    0    0    0  501 -0.00000000000E+00  0.00000000000E+00  0.21924533797E+02  0.21961285987E+02  0.12700000000E+01 0.  1.
          4   -1    0    0  502    0  0.00000000000E+00 -0.00000000000E+00 -0.42741724226E+03  0.42741912905E+03  0.12700000000E+01 0.  1.
         25    2    1    2    0    0  0.37773962522E+02 -0.13087991922E+02 -0.37985540302E+03  0.40188895046E+03  0.12500573397E+03 0.  0.
    9000005    1    3    3    0    0  0.24149553077E+02  0.46324011801E+02 -0.77629362194E+02  0.93575813424E+02  0.10000000000E+01 0.  0.
    9000005    1    3    3    0    0  0.13624409445E+02 -0.59412003724E+02 -0.30222604082E+03  0.30831313704E+03  0.10000000000E+01 0.  0.
         21    1    1    2  502  501 -0.37773962522E+02  0.13087991922E+02 -0.25637305443E+02  0.47491464576E+02  0.00000000000E+00 0.  1.
<mgrwt>
<rscale>  1 0.13124253E+03</rscale>
<asrwt>0</asrwt>
<pdfrwt beam="2">  1        4 0.65759465E-01 0.13124253E+03</pdfrwt>
<pdfrwt beam="1">  1       -4 0.33759777E-02 0.13124253E+03</pdfrwt>
<totfact> 0.15990369E+03</totfact>
</mgrwt>
</event>
<event>
 6    4  0.2220150E-003  0.1366052E+03  0.7818608E-02  0.1217971E+00
          4   -1    0    0  502    0  0.00000000000E+00  0.00000000000E+00  0.29014750860E+02  0.29042532043E+02  0.12700000000E+01 0.  1.
         -4   -1    0    0    0  501 -0.00000000000E+00 -0.00000000000E+00 -0.31974595623E+03  0.31974847838E+03  0.12700000000E+01 0.  1.
         25    2    1    2    0    0 -0.30174959047E+02  0.46115102039E+02 -0.19063521116E+03  0.23452667282E+03  0.12499538288E+03 0.  0.
    9000005    1    3    3    0    0 -0.51756130141E+02  0.57458155352E+02 -0.50688712619E+02  0.92468817504E+02  0.10000000000E+01 0.  0.
    9000005    1    3    3    0    0  0.21581171094E+02 -0.11343053314E+02 -0.13994649854E+03  0.14205785532E+03  0.10000000000E+01 0.  0.
         21    1    1    2  502  501  0.30174959047E+02 -0.46115102039E+02 -0.10009599421E+03  0.11426433760E+03  0.00000000000E+00 0.  1.
<mgrwt>
<rscale>  1 0.13660518E+03</rscale>
<asrwt>0</asrwt>
<pdfrwt beam="1">  1        4 0.44661391E-02 0.13660518E+03</pdfrwt>
<pdfrwt beam="2">  1       -4 0.49194014E-01 0.13660518E+03</pdfrwt>
<totfact> 0.18935322E+03</totfact>
</mgrwt>
</event>
<event>
 6    4  0.2220150E-003  0.1276601E+03  0.7818608E-02  0.1230970E+00
          4   -1    0    0  502    0  0.00000000000E+00  0.00000000000E+00  0.60489861453E+01  0.61808683360E+01  0.12700000000E+01 0. -1.
         -4   -1    0    0    0  501 -0.00000000000E+00 -0.00000000000E+00 -0.14171631094E+04  0.14171636785E+04  0.12700000000E+01 0. -1.
         25    2    1    2    0    0  0.11449946763E+02 -0.23255563862E+02 -0.68661659831E+03  0.69838345393E+03  0.12500069241E+03 0.  0.
    9000005    1    3    3    0    0 -0.14912711339E+01  0.49677161555E+02 -0.36353885598E+03  0.36692171383E+03  0.10000000000E+01 0.  0.
    9000005    1    3    3    0    0  0.12941217897E+02 -0.72932725417E+02 -0.32307774233E+03  0.33146174010E+03  0.10000000000E+01 0.  0.
         21    1    1    2  502  501 -0.11449946763E+02  0.23255563862E+02 -0.72449752495E+03  0.72496109288E+03  0.00000000000E+00 0. -1.
<mgrwt>
<rscale>  1 0.12766008E+03</rscale>
<asrwt>0</asrwt>
<pdfrwt beam="1">  1        4 0.94080294E-03 0.12766008E+03</pdfrwt>
<pdfrwt beam="2">  1       -4 0.21803502E+00 0.12766008E+03</pdfrwt>
<totfact> 0.60117872E+02</totfact>
</mgrwt>
</event>
<event>
 6    4  0.2220150E-003  0.1298622E+03  0.7818608E-02  0.1227660E+00
          4   -1    0    0  502    0  0.00000000000E+00  0.00000000000E+00  0.72760211877E+03  0.72760322714E+03  0.12700000000E+01 0.  1.
         -4   -1    0    0    0  501 -0.00000000000E+00 -0.00000000000E+00 -0.15919026062E+02  0.15969605216E+02  0.12700000000E+01 0.  1.
         25    2    1    2    0    0  0.22947376813E+02  0.26670295524E+02  0.69028283942E+03  0.70239204063E+03  0.12500517421E+03 0.  0.
    9000005    1    3    3    0    0 -0.47729055763E+02 -0.10472284809E+02  0.21846437629E+03  0.22386472527E+03  0.10000000000E+01 0.  0.
    9000005    1    3    3    0    0  0.70676432576E+02  0.37142580333E+02  0.47181846313E+03  0.47852731536E+03  0.10000000000E+01 0.  0.
         21    1    1    2  502  501 -0.22947376813E+02 -0.26670295524E+02  0.21400253288E+02  0.41180791720E+02  0.00000000000E+00 0.  1.
<mgrwt>
<rscale>  1 0.12986216E+03</rscale>
<asrwt>0</asrwt>
<pdfrwt beam="1">  1        4 0.11194273E+00 0.12986216E+03</pdfrwt>
<pdfrwt beam="2">  1       -4 0.24530576E-02 0.12986216E+03</pdfrwt>
<totfact> 0.79724001E+02</totfact>
</mgrwt>
</event>
<event>
 6    4  0.2220150E-003  0.1293171E+03  0.7818608E-02  0.1228473E+00
         -4   -1    0    0    0  501 -0.00000000000E+00  0.00000000000E+00  0.11283101516E+03  0.11283816234E+03  0.12700000000E+01 0.  1.
          4   -1    0    0  502    0  0.00000000000E+00 -0.00000000000E+00 -0.59540241105E+02  0.59553784186E+02  0.12700000000E+01 0.  1.
         25    2    1    2    0    0  0.33138861309E+02 -0.96095723733E-02  0.32736964453E+02  0.13339651974E+03  0.12499895366E+03 0.  0.
    9000005    1    3    3    0    0  0.73098125689E+02 -0.30193974116E+02  0.17079385903E+02  0.80917967566E+02  0.10000000000E+01 0.  0.
    9000005    1    3    3    0    0 -0.39959264380E+02  0.30184364543E+02  0.15657578550E+02  0.52478552178E+02  0.10000000000E+01 0.  0.
         21    1    1    2  502  501 -0.33138861309E+02  0.96095723733E-02  0.20553809598E+02  0.38995426786E+02  0.00000000000E+00 0.  1.
<mgrwt>
<rscale>  1 0.12931714E+03</rscale>
<asrwt>0</asrwt>
<pdfrwt beam="2">  1        4 0.91616287E-02 0.12931714E+03</pdfrwt>
<pdfrwt beam="1">  1       -4 0.17360209E-01 0.12931714E+03</pdfrwt>
<totfact> 0.41369744E+03</totfact>
</mgrwt>
</event>
<event>
 6    4  0.2220150E-003  0.1288407E+03  0.7818608E-02  0.1229186E+00
          4   -1    0    0  502    0  0.00000000000E+00  0.00000000000E+00  0.78102017373E+01  0.79127840345E+01  0.12700000000E+01 0.  1.
         -4   -1    0    0    0  501 -0.00000000000E+00 -0.00000000000E+00 -0.93830599363E+03  0.93830685310E+03  0.12700000000E+01 0.  1.
         25    2    1    2    0    0 -0.65922929863E+00  0.31189588178E+02 -0.57016400288E+03  0.58453991256E+03  0.12500677665E+03 0.  0.
    9000005    1    3    3    0    0 -0.38786974418E+02 -0.15341797969E+02 -0.75765829526E+02  0.86494283471E+02  0.10000000000E+01 0.  0.
    9000005    1    3    3    0    0  0.38127745119E+02  0.46531386146E+02 -0.49439817335E+03  0.49804562909E+03  0.10000000000E+01 0.  0.
         21    1    1    2  502  501  0.65922929863E+00 -0.31189588178E+02 -0.36033178902E+03  0.36167972458E+03  0.00000000000E+00 0.  1.
<mgrwt>
<rscale>  1 0.12884067E+03</rscale>
<asrwt>0</asrwt>
<pdfrwt beam="1">  1        4 0.12095273E-02 0.12884067E+03</pdfrwt>
<pdfrwt beam="2">  1       -4 0.14436264E+00 0.12884067E+03</pdfrwt>
<totfact> 0.12651939E+03</totfact>
</mgrwt>
</event>
<event>
 6    4  0.2220150E-003  0.1272868E+03  0.7818608E-02  0.1231538E+00
         -4   -1    0    0    0  501 -0.00000000000E+00  0.00000000000E+00  0.12282503468E+03  0.12283160035E+03  0.12700000000E+01 0. -1.
          4   -1    0    0  502    0  0.00000000000E+00 -0.00000000000E+00 -0.53484715306E+02  0.53499791321E+02  0.12700000000E+01 0. -1.
         25    2    1    2    0    0 -0.10398093007E+02 -0.21653563280E+02  0.30868373467E+02  0.13097626227E+03  0.12499971063E+03 0.  0.
    9000005    1    3    3    0    0  0.55314256038E+02 -0.21927626058E+02  0.29847719537E+01  0.59585204281E+02  0.10000000000E+01 0.  0.
    9000005    1    3    3    0    0 -0.65712349045E+02  0.27406277732E+00  0.27883601514E+02  0.71391057989E+02  0.10000000000E+01 0.  0.
         21    1    1    2  502  501  0.10398093007E+02  0.21653563280E+02  0.38471945906E+02  0.45355129398E+02  0.00000000000E+00 0.  1.
<mgrwt>
<rscale>  1 0.12728678E+03</rscale>
<asrwt>0</asrwt>
<pdfrwt beam="2">  1        4 0.82300825E-02 0.12728678E+03</pdfrwt>
<pdfrwt beam="1">  1       -4 0.18897824E-01 0.12728678E+03</pdfrwt>
<totfact> 0.42363117E+03</totfact>
</mgrwt>
</event>
<event>
 6    4  0.2220150E-003  0.2174700E+03  0.7818608E-02  0.1135783E+00
          4   -1    0    0  502    0  0.00000000000E+00  0.00000000000E+00  0.22647844557E+03  0.22648200636E+03  0.12700000000E+01 0.  1.
         -4   -1    0    0    0  501 -0.00000000000E+00 -0.00000000000E+00 -0.18611776609E+03  0.18612209905E+03  0.12700000000E+01 0.  1.
         25    2    1    2    0    0 -0.13493175327E+03 -0.11602241768E+03  0.77404925690E+02  0.23083486813E+03  0.12500173751E+03 0.  0.
    9000005    1    3    3    0    0 -0.10695842963E+03 -0.31581093377E+02  0.86877108612E+02  0.14137221484E+03  0.10000000000E+01 0.  0.
    9000005    1    3    3    0    0 -0.27973323641E+02 -0.84441324299E+02 -0.94721829216E+01  0.89462653292E+02  0.10000000000E+01 0.  0.
         21    1    1    2  502  501  0.13493175327E+03  0.11602241768E+03 -0.37044246220E+02  0.18176923728E+03  0.00000000000E+00 0.  1.
<mgrwt>
<rscale>  1 0.21747003E+03</rscale>
<asrwt>0</asrwt>
<pdfrwt beam="1">  1        4 0.34843445E-01 0.21747003E+03</pdfrwt>
<pdfrwt beam="2">  1       -4 0.28634110E-01 0.21747003E+03</pdfrwt>
<totfact> 0.16659775E+02</totfact>
</mgrwt>
</event>
<event>
 6    4  0.2220150E-003  0.1267704E+03  0.7818608E-02  0.1232328E+00
          4   -1    0    0  502    0  0.00000000000E+00  0.00000000000E+00  0.49178510000E+03  0.49178673984E+03  0.12700000000E+01 0. -1.
         -4   -1    0    0    0  501 -0.00000000000E+00 -0.00000000000E+00 -0.15059722024E+02  0.15113177278E+02  0.12700000000E+01 0. -1.
         25    2    1    2    0    0 -0.78372496300E+00 -0.21122637405E+02  0.46650245382E+03  0.48342038956E+03  0.12499581430E+03 0.  0.
    9000005    1    3    3    0    0 -0.36409008303E+02 -0.62158667571E+02  0.28409778613E+03  0.29309020442E+03  0.10000000000E+01 0.  0.
    9000005    1    3    3    0    0  0.35625283340E+02  0.41036030166E+02  0.18240466768E+03  0.19033018515E+03  0.10000000000E+01 0.  0.
         21    1    1    2  502  501  0.78372496300E+00  0.21122637405E+02  0.10222924159E+02  0.23479527553E+02  0.00000000000E+00 0.  1.
<mgrwt>
<rscale>  1 0.12677040E+03</rscale>
<asrwt>0</asrwt>
<pdfrwt beam="1">  1        4 0.75663493E-01 0.12677040E+03</pdfrwt>
<pdfrwt beam="2">  1       -4 0.23211181E-02 0.12677040E+03</pdfrwt>
<totfact> 0.21025502E+03</totfact>
</mgrwt>
</event>
<event>
 6    4  0.2220150E-003  0.1564857E+03  0.7818608E-02  0.1192723E+00
          4   -1    0    0  502    0  0.00000000000E+00  0.00000000000E+00  0.19670560645E+03  0.19670970619E+03  0.12700000000E+01 0.  1.
         -4   -1    0    0    0  501 -0.00000000000E+00 -0.00000000000E+00 -0.85970514088E+02  0.85979894118E+02  0.12700000000E+01 0.  1.
         25    2    1    2    0    0  0.41472592394E+02 -0.84503912268E+02  0.31446303359E+02  0.15961401715E+03  0.12500750924E+03 0.  0.
    9000005    1    3    3    0    0  0.39532276979E+02 -0.85838571600E+02  0.72105129168E+02  0.11887477003E+03  0.10000000000E+01 0.  0.
    9000005    1    3    3    0    0  0.19403154152E+01  0.13346593320E+01 -0.40658825809E+02  0.40739247116E+02  0.10000000000E+01 0.  0.
         21    1    1    2  502  501 -0.41472592394E+02  0.84503912268E+02  0.79288788999E+02  0.12307558316E+03  0.00000000000E+00 0.  1.
<mgrwt>
<rscale>  1 0.15648567E+03</rscale>
<asrwt>0</asrwt>
<pdfrwt beam="1">  1        4 0.30263438E-01 0.15648567E+03</pdfrwt>
<pdfrwt beam="2">  1       -4 0.13227270E-01 0.15648567E+03</pdfrwt>
<totfact> 0.83524180E+02</totfact>
</mgrwt>
</event>
<event>
 6    4  0.2220150E-003  0.1306163E+03  0.7818608E-02  0.1226544E+00
          4   -1    0    0  502    0  0.00000000000E+00  0.00000000000E+00  0.21816750221E+02  0.21853683676E+02  0.12700000000E+01 0.  1.
         -4   -1    0    0    0  501 -0.00000000000E+00 -0.00000000000E+00 -0.37412293182E+03  0.37412508739E+03  0.12700000000E+01 0.  1.
         25    2    1    2    0    0  0.33203195798E+02 -0.18255690796E+02 -0.19883377068E+03  0.23789808480E+03  0.12499963172E+03 0.  0.
    9000005    1    3    3    0    0 -0.39017163372E+02  0.11205327948E+02 -0.25840512620E+02  0.48131387934E+02  0.10000000000E+01 0.  0.
    9000005    1    3    3    0    0  0.72220359170E+02 -0.29461018745E+02 -0.17299325806E+03  0.18976669686E+03  0.10000000000E+01 0.  0.
         21    1    1    2  502  501 -0.33203195798E+02  0.18255690796E+02 -0.15347241092E+03  0.15808068627E+03  0.00000000000E+00 0.  1.
<mgrwt>
<rscale>  1 0.13061635E+03</rscale>
<asrwt>0</asrwt>
<pdfrwt beam="1">  1        4 0.33594302E-02 0.13061635E+03</pdfrwt>
<pdfrwt beam="2">  1       -4 0.57560376E-01 0.13061635E+03</pdfrwt>
<totfact> 0.21312040E+03</totfact>
</mgrwt>
</event>
<event>
 6    4  0.2220150E-003  0.1272210E+03  0.7818608E-02  0.1231639E+00
         -4   -1    0    0    0  501 -0.00000000000E+00  0.00000000000E+00  0.63615351967E+03  0.63615478737E+03  0.12700000000E+01 0. -1.
          4   -1    0    0  502    0  0.00000000000E+00 -0.00000000000E+00 -0.89372324806E+01  0.90270163627E+01  0.12700000000E+01 0. -1.
         25    2    1    2    0    0 -0.92649501761E+01 -0.21785146485E+02  0.51320222181E+03  0.52873594072E+03  0.12499897048E+03 0.  0.
    9000005    1    3    3    0    0  0.82119351852E+01 -0.68845880333E+02  0.38223069391E+03  0.38846942542E+03  0.10000000000E+01 0.  0.
    9000005    1    3    3    0    0 -0.17476885361E+02  0.47060733848E+02  0.13097152790E+03  0.14026651529E+03  0.10000000000E+01 0.  0.
         21    1    1    2  502  501  0.92649501761E+01  0.21785146485E+02  0.11401406538E+03  0.11644586301E+03  0.00000000000E+00 0. -1.
<mgrwt>
<rscale>  1 0.12722097E+03</rscale>
<asrwt>0</asrwt>
<pdfrwt beam="2">  1        4 0.13819632E-02 0.12722097E+03</pdfrwt>
<pdfrwt beam="1">  1       -4 0.97876747E-01 0.12722097E+03</pdfrwt>
<totfact> 0.26181944E+03</totfact>
</mgrwt>
</event>
<event>
 6    4  0.2220150E-003  0.1286140E+03  0.7818608E-02  0.1229527E+00
         -4   -1    0    0    0  501 -0.00000000000E+00  0.00000000000E+00  0.17666123373E+02  0.17711714063E+02  0.12700000000E+01 0.  1.
          4   -1    0    0  502    0  0.00000000000E+00 -0.00000000000E+00 -0.42548066902E+03  0.42548256440E+03  0.12700000000E+01 0.  1.
         25    2    1    2    0    0  0.84523035596E+01 -0.29078441820E+02 -0.38308189179E+03  0.40409566748E+03  0.12499830176E+03 0.  0.
    9000005    1    3    3    0    0 -0.11943003475E+02 -0.69143934195E+02 -0.31342047055E+03  0.32118049494E+03  0.10000000000E+01 0.  0.
    9000005    1    3    3    0    0  0.20395307035E+02  0.40065492375E+02 -0.69661421238E+02  0.82915172539E+02  0.10000000000E+01 0.  0.
         21    1    1    2  502  501 -0.84523035596E+01  0.29078441820E+02 -0.24732653853E+02  0.39098610982E+02  0.00000000000E+00 0.  1.
<mgrwt>
<rscale>  1 0.12861405E+03</rscale>
<asrwt>0</asrwt>
<pdfrwt beam="2">  1        4 0.65462209E-01 0.12861405E+03</pdfrwt>
<pdfrwt beam="1">  1       -4 0.27215182E-02 0.12861405E+03</pdfrwt>
<totfact> 0.22520271E+03</totfact>
</mgrwt>
</event>
<event>
 6    4  0.2220150E-003  0.1267382E+03  0.7818608E-02  0.1232377E+00
         -4   -1    0    0    0  501 -0.00000000000E+00  0.00000000000E+00  0.18739998729E+03  0.18740429060E+03  0.12700000000E+01 0. -1.
          4   -1    0    0  502    0  0.00000000000E+00 -0.00000000000E+00 -0.70901791161E+02  0.70913164433E+02  0.12700000000E+01 0. -1.
         25    2    1    2    0    0  0.68518134710E+01  0.19808886102E+02 -0.12752542880E+02  0.12737818342E+03  0.12499293958E+03 0.  0.
    9000005    1    3    3    0    0 -0.59740876910E+00 -0.20284969361E+02  0.49183776144E+02  0.53215418019E+02  0.10000000000E+01 0.  0.
    9000005    1    3    3    0    0  0.74492222401E+01  0.40093855463E+02 -0.61936319024E+02  0.74162765402E+02  0.10000000000E+01 0.  0.
         21    1    1    2  502  501 -0.68518134710E+01 -0.19808886102E+02  0.12925073900E+03  0.13093927161E+03  0.00000000000E+00 0.  1.
<mgrwt>
<rscale>  1 0.12673821E+03</rscale>
<asrwt>0</asrwt>
<pdfrwt beam="2">  1        4 0.10909174E-01 0.12673821E+03</pdfrwt>
<pdfrwt beam="1">  1       -4 0.28831973E-01 0.12673821E+03</pdfrwt>
<totfact> 0.12185321E+03</totfact>
</mgrwt>
</event>
<event>
 6    4  0.2220150E-003  0.1279943E+03  0.7818608E-02  0.1230463E+00
          4   -1    0    0  502    0  0.00000000000E+00  0.00000000000E+00  0.43961043659E+03  0.43961227105E+03  0.12700000000E+01 0. -1.
         -4   -1    0    0    0  501 -0.00000000000E+00 -0.00000000000E+00 -0.14325920287E+02  0.14382103187E+02  0.12700000000E+01 0. -1.
         25    2    1    2    0    0 -0.19858903226E+02  0.19086550692E+02  0.38014941578E+03  0.40111857870E+03  0.12499545354E+03 0.  0.
    9000005    1    3    3    0    0  0.15903077755E+02 -0.31969405609E+02  0.28585688221E+03  0.28808003729E+03  0.10000000000E+01 0.  0.
    9000005    1    3    3    0    0 -0.35761980981E+02  0.51055956301E+02  0.94292533570E+02  0.11303854141E+03  0.10000000000E+01 0.  0.
         21    1    1    2  502  501  0.19858903226E+02 -0.19086550692E+02  0.45135100525E+02  0.52875795541E+02  0.00000000000E+00 0.  1.
<mgrwt>
<rscale>  1 0.12799428E+03</rscale>
<asrwt>0</asrwt>
<pdfrwt beam="1">  1        4 0.67636830E-01 0.12799428E+03</pdfrwt>
<pdfrwt beam="2">  1       -4 0.22084509E-02 0.12799428E+03</pdfrwt>
<totfact> 0.29006104E+03</totfact>
</mgrwt>
</event>
<event>
 6    4  0.2220150E-003  0.1277943E+03  0.7818608E-02  0.1230766E+00
          4   -1    0    0  502    0  0.00000000000E+00  0.00000000000E+00  0.66453106219E+03  0.66453227576E+03  0.12700000000E+01 0.  1.
         -4   -1    0    0    0  501 -0.00000000000E+00 -0.00000000000E+00 -0.10591738168E+02  0.10667605984E+02  0.12700000000E+01 0.  1.
         25    2    1    2    0    0  0.20314941701E+02  0.17104954293E+02  0.61453329171E+03  0.62768028893E+03  0.12500440863E+03 0.  0.
    9000005    1    3    3    0    0  0.62402960468E+02  0.26491797553E+02  0.51162432261E+03  0.51609727019E+03  0.10000000000E+01 0.  0.
    9000005    1    3    3    0    0 -0.42088018766E+02 -0.93868432600E+01  0.10290896909E+03  0.11158301873E+03  0.10000000000E+01 0.  0.
         21    1    1    2  502  501 -0.20314941701E+02 -0.17104954293E+02  0.39406032320E+02  0.47519592811E+02  0.00000000000E+00 0.  1.
<mgrwt>
<rscale>  1 0.12779428E+03</rscale>
<asrwt>0</asrwt>
<pdfrwt beam="1">  1        4 0.10224145E+00 0.12779428E+03</pdfrwt>
<pdfrwt beam="2">  1       -4 0.16354279E-02 0.12779428E+03</pdfrwt>
<totfact> 0.18335654E+03</totfact>
</mgrwt>
</event>
<event>
 6    4  0.2220150E-003  0.1308397E+03  0.7818608E-02  0.1226215E+00
         -4   -1    0    0    0  501 -0.00000000000E+00  0.00000000000E+00  0.23139156015E+02  0.23173981986E+02  0.12700000000E+01 0.  1.
          4   -1    0    0  502    0  0.00000000000E+00 -0.00000000000E+00 -0.32827915857E+03  0.32828161516E+03  0.12700000000E+01 0.  1.
         25    2    1    2    0    0 -0.16116244090E+02 -0.35136984908E+02 -0.26603629160E+03  0.29646976950E+03  0.12499869896E+03 0.  0.
    9000005    1    3    3    0    0  0.54532151676E+02 -0.21633523305E+02 -0.12830805836E+03  0.14108764204E+03  0.10000000000E+01 0.  0.
    9000005    1    3    3    0    0 -0.70648395766E+02 -0.13503461602E+02 -0.13772823324E+03  0.15538212745E+03  0.10000000000E+01 0.  0.
         21    1    1    2  502  501  0.16116244090E+02  0.35136984908E+02 -0.39103710952E+02  0.54985827649E+02  0.00000000000E+00 0.  1.
<mgrwt>
<rscale>  1 0.13083966E+03</rscale>
<asrwt>0</asrwt>
<pdfrwt beam="2">  1        4 0.50507350E-01 0.13083966E+03</pdfrwt>
<pdfrwt beam="1">  1       -4 0.35627383E-02 0.13083966E+03</pdfrwt>
<totfact> 0.25443598E+03</totfact>
</mgrwt>
</event>
<event>
 6    4  0.2220150E-003  0.1413142E+03  0.7818608E-02  0.1211571E+00
          4   -1    0    0  502    0  0.00000000000E+00  0.00000000000E+00  0.39170277263E+02  0.39190860170E+02  0.12700000000E+01 0.  1.
         -4   -1    0    0    0  501 -0.00000000000E+00 -0.00000000000E+00 -0.27410042015E+03  0.27410336230E+03  0.12700000000E+01 0.  1.
         25    2    1    2    0    0  0.13475453376E+02 -0.64528325479E+02 -0.16290464253E+03  0.21565629268E+03  0.12499688549E+03 0.  0.
    9000005    1    3    3    0    0  0.25161007764E+02  0.23247596598E+02 -0.50267251289E+01  0.34638057463E+02  0.10000000000E+01 0.  0.
    9000005    1    3    3    0    0 -0.11685554388E+02 -0.87775922077E+02 -0.15787791741E+03  0.18101823522E+03  0.10000000000E+01 0.  0.
         21    1    1    2  502  501 -0.13475453376E+02  0.64528325479E+02 -0.72025500352E+02  0.97637929791E+02  0.00000000000E+00 0.  1.
<mgrwt>
<rscale>  1 0.14131424E+03</rscale>
<asrwt>0</asrwt>
<pdfrwt beam="1">  1        4 0.60280063E-02 0.14131424E+03</pdfrwt>
<pdfrwt beam="2">  1       -4 0.42171104E-01 0.14131424E+03</pdfrwt>
<totfact> 0.16026989E+03</totfact>
</mgrwt>
</event>
<event>
 6    4  0.2220150E-003  0.1271874E+03  0.7818608E-02  0.1231690E+00
          4   -1    0    0  502    0  0.00000000000E+00  0.00000000000E+00  0.13721141521E+02  0.13779790443E+02  0.12700000000E+01 0.  1.
         -4   -1    0    0    0  501 -0.00000000000E+00 -0.00000000000E+00 -0.42179088404E+03  0.42179279601E+03  0.12700000000E+01 0.  1.
         25    2    1    2    0    0 -0.11377668694E+02  0.20531705731E+02 -0.31793527322E+03  0.34243169940E+03  0.12500251400E+03 0.  0.
    9000005    1    3    3    0    0  0.51728826212E+02  0.26238515293E+01 -0.20848513585E+03  0.21482506355E+03  0.10000000000E+01 0.  0.
    9000005    1    3    3    0    0 -0.63106494905E+02  0.17907854202E+02 -0.10945013737E+03  0.12760663584E+03  0.10000000000E+01 0.  0.
         21    1    1    2  502  501  0.11377668694E+02 -0.20531705731E+02 -0.90134469300E+02  0.93140887053E+02  0.00000000000E+00 0.  1.
<mgrwt>
<rscale>  1 0.12718738E+03</rscale>
<asrwt>0</asrwt>
<pdfrwt beam="1">  1        4 0.21156037E-02 0.12718738E+03</pdfrwt>
<pdfrwt beam="2">  1       -4 0.64895554E-01 0.12718738E+03</pdfrwt>
<totfact> 0.33802572E+03</totfact>
</mgrwt>
</event>
<event>
 6    4  0.2220150E-003  0.1270224E+03  0.7818608E-02  0.1231942E+00
         -4   -1    0    0    0  501 -0.00000000000E+00  0.00000000000E+00  0.46904723256E+02  0.46921913470E+02  0.12700000000E+01 0. -1.
          4   -1    0    0  502    0  0.00000000000E+00 -0.00000000000E+00 -0.12208756720E+03  0.12209417252E+03  0.12700000000E+01 0. -1.
         25    2    1    2    0    0  0.47074841413E+01 -0.22049862638E+02 -0.72641395678E+02  0.14632653314E+03  0.12500530023E+03 0.  0.
    9000005    1    3    3    0    0  0.53351273472E+02 -0.40186992890E+02 -0.66125971955E+02  0.93994664453E+02  0.10000000000E+01 0.  0.
    9000005    1    3    3    0    0 -0.48643789330E+02  0.18137130252E+02 -0.65154237230E+01  0.52331868689E+02  0.10000000000E+01 0.  0.
         21    1    1    2  502  501 -0.47074841413E+01  0.22049862638E+02 -0.25414482628E+01  0.22689552850E+02  0.00000000000E+00 0. -1.
<mgrwt>
<rscale>  1 0.12702237E+03</rscale>
<asrwt>0</asrwt>
<pdfrwt beam="2">  1        4 0.18784533E-01 0.12702237E+03</pdfrwt>
<pdfrwt beam="1">  1       -4 0.72179418E-02 0.12702237E+03</pdfrwt>
<totfact> 0.53144831E+03</totfact>
</mgrwt>
</event>
<event>
 6    4  0.2220150E-003  0.1268797E+03  0.7818608E-02  0.1232161E+00
         -4   -1    0    0    0  501 -0.00000000000E+00  0.00000000000E+00  0.17877924187E+02  0.17922976126E+02  0.12700000000E+01 0.  1.
          4   -1    0    0  502    0  0.00000000000E+00 -0.00000000000E+00 -0.50686291540E+03  0.50686450646E+03  0.12700000000E+01 0.  1.
         25    2    1    2    0    0  0.15975064287E+02 -0.14754513342E+02 -0.48664777679E+03  0.50291601912E+03  0.12500226111E+03 0.  0.
    9000005    1    3    3    0    0  0.55330302682E+02  0.31229241197E+02 -0.19641889022E+03  0.20644148889E+03  0.10000000000E+01 0.  0.
    9000005    1    3    3    0    0 -0.39355238395E+02 -0.45983754539E+02 -0.29022888657E+03  0.29647453022E+03  0.10000000000E+01 0.  0.
         21    1    1    2  502  501 -0.15975064287E+02  0.14754513342E+02 -0.23372144189E+01  0.21871463467E+02  0.00000000000E+00 0. -1.
<mgrwt>
<rscale>  1 0.12687972E+03</rscale>
<asrwt>0</asrwt>
<pdfrwt beam="2">  1        4 0.77982487E-01 0.12687972E+03</pdfrwt>
<pdfrwt beam="1">  1       -4 0.27540382E-02 0.12687972E+03</pdfrwt>
<totfact> 0.15093331E+03</totfact>
</mgrwt>
</event>
<event>
 6    4  0.2220150E-003  0.1348110E+03  0.7818608E-02  0.1220487E+00
         -4   -1    0    0    0  501 -0.00000000000E+00  0.00000000000E+00  0.87183249264E+03  0.87183341765E+03  0.12700000000E+01 0.  1.
          4   -1    0    0  502    0  0.00000000000E+00 -0.00000000000E+00 -0.10225489414E+02  0.10304054239E+02  0.12700000000E+01 0.  1.
         25    2    1    2    0    0  0.20943075634E+02 -0.45930129968E+02  0.53890519695E+03  0.55551131704E+03  0.12500329117E+03 0.  0.
    9000005    1    3    3    0    0  0.71661023328E+02 -0.15019334280E+02  0.34614563762E+03  0.35380599926E+03  0.10000000000E+01 0.  0.
    9000005    1    3    3    0    0 -0.50717947694E+02 -0.30910795688E+02  0.19275955933E+03  0.20170531778E+03  0.10000000000E+01 0.  0.
         21    1    1    2  502  501 -0.20943075634E+02  0.45930129968E+02  0.32270180628E+03  0.32662615485E+03  0.00000000000E+00 0.  1.
<mgrwt>
<rscale>  1 0.13481102E+03</rscale>
<asrwt>0</asrwt>
<pdfrwt beam="2">  1        4 0.15792657E-02 0.13481102E+03</pdfrwt>
<pdfrwt beam="1">  1       -4 0.13413428E+00 0.13481102E+03</pdfrwt>
<totfact> 0.10227085E+03</totfact>
</mgrwt>
</event>
<event>
 6    4  0.2220150E-003  0.1295947E+03  0.7818608E-02  0.1228058E+00
          4   -1    0    0  502    0  0.00000000000E+00  0.00000000000E+00  0.51468376598E+03  0.51468533287E+03  0.12700000000E+01 0.  1.
         -4   -1    0    0    0  501 -0.00000000000E+00 -0.00000000000E+00 -0.13651721654E+02  0.13710667530E+02  0.12700000000E+01 0.  1.
         25    2    1    2    0    0  0.27615959848E+02  0.20170225569E+02  0.43690830962E+03  0.45572322289E+03  0.12500122249E+03 0.  0.
    9000005    1    3    3    0    0  0.42739571787E+02  0.67255133352E+02  0.28743405185E+03  0.29827714985E+03  0.10000000000E+01 0.  0.
    9000005    1    3    3    0    0 -0.15123611938E+02 -0.47084907783E+02  0.14947425777E+03  0.15744607304E+03  0.10000000000E+01 0.  0.
         21    1    1    2  502  501 -0.27615959848E+02 -0.20170225569E+02  0.64123734708E+02  0.72672777508E+02  0.00000000000E+00 0.  1.
<mgrwt>
<rscale>  1 0.12959469E+03</rscale>
<asrwt>0</asrwt>
<pdfrwt beam="1">  1        4 0.79186784E-01 0.12959469E+03</pdfrwt>
<pdfrwt beam="2">  1       -4 0.21049194E-02 0.12959469E+03</pdfrwt>
<totfact> 0.22242502E+03</totfact>
</mgrwt>
</event>
<event>
 6    4  0.2220150E-003  0.1305367E+03  0.7818608E-02  0.1226661E+00
         -4   -1    0    0    0  501 -0.00000000000E+00  0.00000000000E+00  0.40327186853E+02  0.40347179573E+02  0.12700000000E+01 0.  1.
          4   -1    0    0  502    0  0.00000000000E+00 -0.00000000000E+00 -0.24869608392E+03  0.24869932662E+03  0.12700000000E+01 0.  1.
         25    2    1    2    0    0 -0.16349816128E+01  0.37579251869E+02 -0.21433961150E+03  0.25096077702E+03  0.12499987683E+03 0.  0.
    9000005    1    3    3    0    0  0.24487440208E+02  0.49062104310E+02 -0.26402637967E+02  0.60867266234E+02  0.10000000000E+01 0.  0.
    9000005    1    3    3    0    0 -0.26122421821E+02 -0.11482852441E+02 -0.18793697353E+03  0.19009351078E+03  0.10000000000E+01 0.  0.
         21    1    1    2  502  501  0.16349816128E+01 -0.37579251869E+02  0.59707144245E+01  0.38085729173E+02  0.00000000000E+00 0.  1.
<mgrwt>
<rscale>  1 0.13053675E+03</rscale>
<asrwt>0</asrwt>
<pdfrwt beam="2">  1        4 0.38262722E-01 0.13053675E+03</pdfrwt>
<pdfrwt beam="1">  1       -4 0.62059701E-02 0.13053675E+03</pdfrwt>
<totfact> 0.18193570E+03</totfact>
</mgrwt>
</event>
<event>
 6    4  0.2220150E-003  0.1320120E+03  0.7818608E-02  0.1224500E+00
          4   -1    0    0  502    0  0.00000000000E+00  0.00000000000E+00  0.17614830116E+02  0.17660553220E+02  0.12700000000E+01 0. -1.
         -4   -1    0    0    0  501 -0.00000000000E+00 -0.00000000000E+00 -0.61974670094E+03  0.61974800220E+03  0.12700000000E+01 0. -1.
         25    2    1    2    0    0 -0.41699489208E+02 -0.79295658651E+01 -0.24987414400E+03  0.28260264858E+03  0.12500177492E+03 0.  0.
    9000005    1    3    3    0    0  0.40020169136E+02  0.17033365296E+02 -0.57508522203E+02  0.72110884040E+02  0.10000000000E+01 0.  0.
    9000005    1    3    3    0    0 -0.81719658344E+02 -0.24962931161E+02 -0.19236562179E+03  0.21049176454E+03  0.10000000000E+01 0.  0.
         21    1    1    2  502  501  0.41699489208E+02  0.79295658651E+01 -0.35225772683E+03  0.35480590684E+03  0.00000000000E+00 0. -1.
<mgrwt>
<rscale>  1 0.13201200E+03</rscale>
<asrwt>0</asrwt>
<pdfrwt beam="1">  1        4 0.27135916E-02 0.13201200E+03</pdfrwt>
<pdfrwt beam="2">  1       -4 0.95349247E-01 0.13201200E+03</pdfrwt>
<totfact> 0.99318974E+02</totfact>
</mgrwt>
</event>
<event>
 6    4  0.2220150E-003  0.1282300E+03  0.7818608E-02  0.1230106E+00
          4   -1    0    0  502    0  0.00000000000E+00  0.00000000000E+00  0.51225100110E+03  0.51225257542E+03  0.12700000000E+01 0.  1.
         -4   -1    0    0    0  501 -0.00000000000E+00 -0.00000000000E+00 -0.17042061271E+02  0.17089316908E+02  0.12700000000E+01 0.  1.
         25    2    1    2    0    0 -0.24628619406E+02 -0.14446480709E+02  0.48031625708E+03  0.49713845000E+03  0.12501064736E+03 0.  0.
    9000005    1    3    3    0    0 -0.44164329397E+02  0.38769440330E+02  0.35173426612E+03  0.35661120490E+03  0.10000000000E+01 0.  0.
    9000005    1    3    3    0    0  0.19535709992E+02 -0.53215921039E+02  0.12858199095E+03  0.14052724510E+03  0.10000000000E+01 0.  0.
         21    1    1    2  502  501  0.24628619406E+02  0.14446480709E+02  0.14892682753E+02  0.32203442336E+02  0.00000000000E+00 0.  1.
<mgrwt>
<rscale>  1 0.12823000E+03</rscale>
<asrwt>0</asrwt>
<pdfrwt beam="1">  1        4 0.78811610E-01 0.12823000E+03</pdfrwt>
<pdfrwt beam="2">  1       -4 0.26256115E-02 0.12823000E+03</pdfrwt>
<totfact> 0.15922434E+03</totfact>
</mgrwt>
</event>
<event>
 6    4  0.2220150E-003  0.1349469E+03  0.7818608E-02  0.1220295E+00
          4   -1    0    0  502    0  0.00000000000E+00  0.00000000000E+00  0.36524999667E+02  0.36547072396E+02  0.12700000000E+01 0.  1.
         -4   -1    0    0    0  501 -0.00000000000E+00 -0.00000000000E+00 -0.24023144076E+03  0.24023479770E+03  0.12700000000E+01 0.  1.
         25    2    1    2    0    0  0.12419912401E+02 -0.49314851469E+02 -0.13115059317E+03  0.18817848492E+03  0.12499782116E+03 0.  0.
    9000005    1    3    3    0    0  0.47734487273E+02 -0.54738938146E+02 -0.26048681043E+02  0.77165189099E+02  0.10000000000E+01 0.  0.
    9000005    1    3    3    0    0 -0.35314574872E+02  0.54240866775E+01 -0.10510191213E+03  0.11101329582E+03  0.10000000000E+01 0.  0.
         21    1    1    2  502  501 -0.12419912401E+02  0.49314851469E+02 -0.72555847915E+02  0.88603385184E+02  0.00000000000E+00 0.  1.
<mgrwt>
<rscale>  1 0.13494689E+03</rscale>
<asrwt>0</asrwt>
<pdfrwt beam="1">  1        4 0.56211870E-02 0.13494689E+03</pdfrwt>
<pdfrwt beam="2">  1       -4 0.36960638E-01 0.13494689E+03</pdfrwt>
<totfact> 0.23027079E+03</totfact>
</mgrwt>
</event>
<event>
 6    4  0.2220150E-003  0.1269749E+03  0.7818608E-02  0.1232015E+00
         -4   -1    0    0    0  501 -0.00000000000E+00  0.00000000000E+00  0.44704817199E+03  0.44704997594E+03  0.12700000000E+01 0.  1.
          4   -1    0    0  502    0  0.00000000000E+00 -0.00000000000E+00 -0.16870827990E+02  0.16918561909E+02  0.12700000000E+01 0.  1.
         25    2    1    2    0    0 -0.22206726922E+02 -0.16296778946E+01  0.23140098724E+03  0.26394895235E+03  0.12500735172E+03 0.  0.
    9000005    1    3    3    0    0 -0.34982762661E+02  0.21353375714E+02  0.23394667509E+03  0.23751169892E+03  0.10000000000E+01 0.  0.
    9000005    1    3    3    0    0  0.12776035738E+02 -0.22983053608E+02 -0.25456878545E+01  0.26437253431E+02  0.10000000000E+01 0.  0.
         21    1    1    2  502  501  0.22206726922E+02  0.16296778946E+01  0.19877635677E+03  0.20001958549E+03  0.00000000000E+00 0.  1.
<mgrwt>
<rscale>  1 0.12697493E+03</rscale>
<asrwt>0</asrwt>
<pdfrwt beam="2">  1        4 0.25993224E-02 0.12697493E+03</pdfrwt>
<pdfrwt beam="1">  1       -4 0.68780457E-01 0.12697493E+03</pdfrwt>
<totfact> 0.21696669E+03</totfact>
</mgrwt>
</event>
<event>
 6    4  0.2220150E-003  0.1268775E+03  0.7818608E-02  0.1232164E+00
         -4   -1    0    0    0  501 -0.00000000000E+00  0.00000000000E+00  0.12917923209E+03  0.12918547482E+03  0.12700000000E+01 0. -1.
          4   -1    0    0  502    0  0.00000000000E+00 -0.00000000000E+00 -0.43039389163E+02  0.43058122573E+02  0.12700000000E+01 0. -1.
         25    2    1    2    0    0  0.13047677971E+02  0.17433824343E+02  0.68298053713E+02  0.14409205082E+03  0.12499485925E+03 0.  0.
    9000005    1    3    3    0    0 -0.12791973611E+02  0.91536346232E+01  0.10063815041E+03  0.10186491512E+03  0.10000000000E+01 0.  0.
    9000005    1    3    3    0    0  0.25839651582E+02  0.82801897197E+01 -0.32340096692E+02  0.42227135704E+02  0.10000000000E+01 0.  0.
         21    1    1    2  502  501 -0.13047677971E+02 -0.17433824343E+02  0.17841789218E+02  0.28151546568E+02  0.00000000000E+00 0. -1.
<mgrwt>
<rscale>  1 0.12687748E+03</rscale>
<asrwt>0</asrwt>
<pdfrwt beam="2">  1        4 0.66233658E-02 0.12687748E+03</pdfrwt>
<pdfrwt beam="1">  1       -4 0.19875649E-01 0.12687748E+03</pdfrwt>
<totfact> 0.55284147E+03</totfact>
</mgrwt>
</event>
<event>
 6    4  0.2220150E-003  0.1279240E+03  0.7818608E-02  0.1230569E+00
          4   -1    0    0  502    0  0.00000000000E+00  0.00000000000E+00  0.74019913321E+03  0.74020022272E+03  0.12700000000E+01 0. -1.
         -4   -1    0    0    0  501 -0.00000000000E+00 -0.00000000000E+00 -0.85597965837E+01  0.86534974175E+01  0.12700000000E+01 0. -1.
         25    2    1    2    0    0  0.26434920059E+02 -0.63511978809E+01  0.52138904203E+03  0.53685294397E+03  0.12500163036E+03 0.  0.
    9000005    1    3    3    0    0  0.67407144284E+02  0.25507831041E+01  0.44149663862E+03  0.44662121704E+03  0.10000000000E+01 0.  0.
    9000005    1    3    3    0    0 -0.40972224225E+02 -0.89019809849E+01  0.79892403406E+02  0.90231726933E+02  0.10000000000E+01 0.  0.
         21    1    1    2  502  501 -0.26434920059E+02  0.63511978809E+01  0.21025029460E+03  0.21200077616E+03  0.00000000000E+00 0.  1.
<mgrwt>
<rscale>  1 0.12792400E+03</rscale>
<asrwt>0</asrwt>
<pdfrwt beam="1">  1        4 0.11388406E+00 0.12792400E+03</pdfrwt>
<pdfrwt beam="2">  1       -4 0.13241836E-02 0.12792400E+03</pdfrwt>
<totfact> 0.19637334E+03</totfact>
</mgrwt>
</event>
<event>
 6    4  0.2220150E-003  0.1353304E+03  0.7818608E-02  0.1219754E+00
         -4   -1    0    0    0  501 -0.00000000000E+00  0.00000000000E+00  0.16246196238E+03  0.16246692624E+03  0.12700000000E+01 0. -1.
          4   -1    0    0  502    0  0.00000000000E+00 -0.00000000000E+00 -0.20858860924E+03  0.20859247542E+03  0.12700000000E+01 0. -1.
         25    2    1    2    0    0 -0.14240313097E+02 -0.49913471965E+02 -0.18131399007E+03  0.22625001327E+03  0.12498065574E+03 0.  0.
    9000005    1    3    3    0    0 -0.66445489513E+02 -0.49512299794E+02 -0.10454319514E+03  0.13340446229E+03  0.10000000000E+01 0.  0.
    9000005    1    3    3    0    0  0.52205176416E+02 -0.40117217115E+00 -0.76770794927E+02  0.92845550984E+02  0.10000000000E+01 0.  0.
         21    1    1    2  502  501  0.14240313097E+02  0.49913471965E+02  0.13518734321E+03  0.14480938839E+03  0.00000000000E+00 0. -1.
<mgrwt>
<rscale>  1 0.13533036E+03</rscale>
<asrwt>0</asrwt>
<pdfrwt beam="2">  1        4 0.32091234E-01 0.13533036E+03</pdfrwt>
<pdfrwt beam="1">  1       -4 0.24994827E-01 0.13533036E+03</pdfrwt>
<totfact> 0.23350988E+02</totfact>
</mgrwt>
</event>
<event>
 6    4  0.2220150E-003  0.1273436E+03  0.7818608E-02  0.1231452E+00
          4   -1    0    0  502    0  0.00000000000E+00  0.00000000000E+00  0.96502790997E+02  0.96511147388E+02  0.12700000000E+01 0. -1.
         -4   -1    0    0    0  501 -0.00000000000E+00 -0.00000000000E+00 -0.61159643119E+02  0.61172827680E+02  0.12700000000E+01 0. -1.
         25    2    1    2    0    0  0.20708557679E+02  0.12756570080E+02  0.38785906919E+02  0.13311922326E+03  0.12499922634E+03 0.  0.
    9000005    1    3    3    0    0 -0.30818774264E+02 -0.21808349475E+01  0.66054520434E+02  0.72929778267E+02  0.10000000000E+01 0.  0.
    9000005    1    3    3    0    0  0.51527331943E+02  0.14937405028E+02 -0.27268613515E+02  0.60189444998E+02  0.10000000000E+01 0.  0.
         21    1    1    2  502  501 -0.20708557679E+02 -0.12756570080E+02 -0.34427590409E+01  0.24564751804E+02  0.00000000000E+00 0.  1.
<mgrwt>
<rscale>  1 0.12734356E+03</rscale>
<asrwt>0</asrwt>
<pdfrwt beam="1">  1        4 0.14848240E-01 0.12734356E+03</pdfrwt>
<pdfrwt beam="2">  1       -4 0.94108329E-02 0.12734356E+03</pdfrwt>
<totfact> 0.51841870E+03</totfact>
</mgrwt>
</event>
<event>
 6    4  0.2220150E-003  0.1283494E+03  0.7818608E-02  0.1229926E+00
         -4   -1    0    0    0  501 -0.00000000000E+00  0.00000000000E+00  0.93699482530E+02  0.93708088906E+02  0.12700000000E+01 0.  1.
          4   -1    0    0  502    0  0.00000000000E+00 -0.00000000000E+00 -0.66153961844E+02  0.66166151223E+02  0.12700000000E+01 0.  1.
         25    2    1    2    0    0  0.18987038711E+02  0.22092892249E+02  0.22052548360E+02  0.13023007929E+03  0.12499982054E+03 0.  0.
    9000005    1    3    3    0    0 -0.23720453569E+02  0.43839512128E+02 -0.31016902488E+02  0.58716360421E+02  0.10000000000E+01 0.  0.
    9000005    1    3    3    0    0  0.42707492280E+02 -0.21746619880E+02  0.53069450848E+02  0.71513718868E+02  0.10000000000E+01 0.  0.
         21    1    1    2  502  501 -0.18987038711E+02 -0.22092892249E+02  0.54929723262E+01  0.29644160840E+02  0.00000000000E+00 0.  1.
<mgrwt>
<rscale>  1 0.12834936E+03</rscale>
<asrwt>0</asrwt>
<pdfrwt beam="2">  1        4 0.10179132E-01 0.12834936E+03</pdfrwt>
<pdfrwt beam="1">  1       -4 0.14416905E-01 0.12834936E+03</pdfrwt>
<totfact> 0.47924374E+03</totfact>
</mgrwt>
</event>
<event>
 6    4  0.2220150E-003  0.1274509E+03  0.7818608E-02  0.1231288E+00
          4   -1    0    0  502    0  0.00000000000E+00  0.00000000000E+00  0.13294109144E+03  0.13294715752E+03  0.12700000000E+01 0.  1.
         -4   -1    0    0    0  501 -0.00000000000E+00 -0.00000000000E+00 -0.49210195718E+02  0.49226580854E+02  0.12700000000E+01 0.  1.
         25    2    1    2    0    0 -0.19684931706E+02 -0.15218121946E+02  0.90587980258E+02  0.15636468221E+03  0.12499857560E+03 0.  0.
    9000005    1    3    3    0    0  0.51848500002E+02 -0.12058874610E+02  0.54443638195E+02  0.76149807283E+02  0.10000000000E+01 0.  0.
    9000005    1    3    3    0    0 -0.71533431708E+02 -0.31592473355E+01  0.36144342063E+02  0.80214874922E+02  0.10000000000E+01 0.  0.
         21    1    1    2  502  501  0.19684931706E+02  0.15218121946E+02 -0.68570845402E+01  0.25809056167E+02  0.00000000000E+00 0.  1.
<mgrwt>
<rscale>  1 0.12745090E+03</rscale>
<asrwt>0</asrwt>
<pdfrwt beam="1">  1        4 0.20454202E-01 0.12745090E+03</pdfrwt>
<pdfrwt beam="2">  1       -4 0.75725265E-02 0.12745090E+03</pdfrwt>
<totfact> 0.42195287E+03</totfact>
</mgrwt>
</event>
<event>
 6    4  0.2220150E-003  0.1270658E+03  0.7818608E-02  0.1231876E+00
         -4   -1    0    0    0  501 -0.00000000000E+00  0.00000000000E+00  0.26239913489E+02  0.26270629225E+02  0.12700000000E+01 0. -1.
          4   -1    0    0  502    0  0.00000000000E+00 -0.00000000000E+00 -0.22734264500E+03  0.22734619226E+03  0.12700000000E+01 0. -1.
         25    2    1    2    0    0  0.17538090223E+02  0.14564185092E+02 -0.18917526713E+03  0.22788815066E+03  0.12500410962E+03 0.  0.
    9000005    1    3    3    0    0  0.52676069368E+02  0.34655732566E+02 -0.17326711655E+03  0.18438622986E+03  0.10000000000E+01 0.  0.
    9000005    1    3    3    0    0 -0.35137979145E+02 -0.20091547475E+02 -0.15908150574E+02  0.43501920797E+02  0.10000000000E+01 0.  0.
         21    1    1    2  502  501 -0.17538090223E+02 -0.14564185092E+02 -0.11927464387E+02  0.25728670831E+02  0.00000000000E+00 0. -1.
<mgrwt>
<rscale>  1 0.12706584E+03</rscale>
<asrwt>0</asrwt>
<pdfrwt beam="2">  1        4 0.34978426E-01 0.12706584E+03</pdfrwt>
<pdfrwt beam="1">  1       -4 0.40395455E-02 0.12706584E+03</pdfrwt>
<totfact> 0.42882805E+03</totfact>
</mgrwt>
</event>
<event>
 6    4  0.2220150E-003  0.1303499E+03  0.7818608E-02  0.1226937E+00
          4   -1    0    0  502    0  0.00000000000E+00  0.00000000000E+00  0.22269834451E+03  0.22270196575E+03  0.12700000000E+01 0.  1.
         -4   -1    0    0    0  501 -0.00000000000E+00 -0.00000000000E+00 -0.31838172359E+02  0.31863491949E+02  0.12700000000E+01 0.  1.
         25    2    1    2    0    0  0.16204863515E+02  0.33219083604E+02  0.16028608264E+03  0.20659796802E+03  0.12499994793E+03 0.  0.
    9000005    1    3    3    0    0 -0.37681818632E+02 -0.27902885874E+02  0.41985010839E+02  0.62946259862E+02  0.10000000000E+01 0.  0.
    9000005    1    3    3    0    0  0.53886682147E+02  0.61121969479E+02  0.11830107180E+03  0.14365170815E+03  0.10000000000E+01 0.  0.
         21    1    1    2  502  501 -0.16204863515E+02 -0.33219083604E+02  0.30574089512E+02  0.47967489683E+02  0.00000000000E+00 0.  1.
<mgrwt>
<rscale>  1 0.13034988E+03</rscale>
<asrwt>0</asrwt>
<pdfrwt beam="1">  1        4 0.34263512E-01 0.13034988E+03</pdfrwt>
<pdfrwt beam="2">  1       -4 0.49004063E-02 0.13034988E+03</pdfrwt>
<totfact> 0.32991186E+03</totfact>
</mgrwt>
</event>
<event>
 6    4  0.2220150E-003  0.1299005E+03  0.7818608E-02  0.1227603E+00
         -4   -1    0    0    0  501 -0.00000000000E+00  0.00000000000E+00  0.87153732217E+02  0.87162984916E+02  0.12700000000E+01 0.  1.
          4   -1    0    0  502    0  0.00000000000E+00 -0.00000000000E+00 -0.78898517502E+02  0.78908738198E+02  0.12700000000E+01 0.  1.
         25    2    1    2    0    0  0.27465019787E+02  0.22318495567E+02  0.78933041966E+00  0.12990292462E+03  0.12498681621E+03 0.  0.
    9000005    1    3    3    0    0 -0.47816728889E+02 -0.39196110043E+01  0.11799410716E+02  0.49416889879E+02  0.10000000000E+01 0.  0.
    9000005    1    3    3    0    0  0.75281748676E+02  0.26238106571E+02 -0.11010080296E+02  0.80486034740E+02  0.10000000000E+01 0.  0.
         21    1    1    2  502  501 -0.27465019787E+02 -0.22318495567E+02  0.74658842954E+01  0.36168798495E+02  0.00000000000E+00 0.  1.
<mgrwt>
<rscale>  1 0.12990053E+03</rscale>
<asrwt>0</asrwt>
<pdfrwt beam="2">  1        4 0.12139731E-01 0.12990053E+03</pdfrwt>
<pdfrwt beam="1">  1       -4 0.13409764E-01 0.12990053E+03</pdfrwt>
<totfact> 0.40406400E+03</totfact>
</mgrwt>
</event>
<event>
 6    4  0.2220150E-003  0.1269478E+03  0.7818608E-02  0.1232056E+00
          4   -1    0    0  502    0  0.00000000000E+00  0.00000000000E+00  0.90587800183E+03  0.90587889207E+03  0.12700000000E+01 0. -1.
         -4   -1    0    0    0  501 -0.00000000000E+00 -0.00000000000E+00 -0.82304664737E+01  0.83278735807E+01  0.12700000000E+01 0. -1.
         25    2    1    2    0    0  0.16661092497E+02 -0.14603012243E+02  0.86779508932E+03  0.87703139068E+03  0.12499961289E+03 0.  0.
    9000005    1    3    3    0    0  0.26583377499E+02  0.13718866661E+02  0.82026801932E+03  0.82081392945E+03  0.10000000000E+01 0.  0.
    9000005    1    3    3    0    0 -0.99222850020E+01 -0.28321878905E+02  0.47527069993E+02  0.56217461224E+02  0.10000000000E+01 0.  0.
         21    1    1    2  502  501 -0.16661092497E+02  0.14603012243E+02  0.29852446036E+02  0.37175374970E+02  0.00000000000E+00 0. -1.
<mgrwt>
<rscale>  1 0.12694780E+03</rscale>
<asrwt>0</asrwt>
<pdfrwt beam="1">  1        4 0.13937349E+00 0.12694780E+03</pdfrwt>
<pdfrwt beam="2">  1       -4 0.12737862E-02 0.12694780E+03</pdfrwt>
<totfact> 0.12735806E+03</totfact>
</mgrwt>
</event>
<event>
 6    4  0.2220150E-003  0.1273093E+03  0.7818608E-02  0.1231504E+00
         -4   -1    0    0    0  501 -0.00000000000E+00  0.00000000000E+00  0.26311280692E+03  0.26311587193E+03  0.12700000000E+01 0. -1.
          4   -1    0    0  502    0  0.00000000000E+00 -0.00000000000E+00 -0.21840869583E+02  0.21877762320E+02  0.12700000000E+01 0. -1.
         25    2    1    2    0    0 -0.38190214641E+01  0.23816586047E+02  0.20864826572E+03  0.24442124653E+03  0.12500332904E+03 0.  0.
    9000005    1    3    3    0    0 -0.40350369955E+02  0.33300274134E+02  0.19856295179E+03  0.20534192567E+03  0.10000000000E+01 0.  0.
    9000005    1    3    3    0    0  0.36531348491E+02 -0.94836880870E+01  0.10085313932E+02  0.39079320867E+02  0.10000000000E+01 0.  0.
         21    1    1    2  502  501  0.38190214641E+01 -0.23816586047E+02  0.32623671611E+02  0.40572387720E+02  0.00000000000E+00 0.  1.
<mgrwt>
<rscale>  1 0.12730926E+03</rscale>
<asrwt>0</asrwt>
<pdfrwt beam="2">  1        4 0.33632075E-02 0.12730926E+03</pdfrwt>
<pdfrwt beam="1">  1       -4 0.40481966E-01 0.12730926E+03</pdfrwt>
<totfact> 0.43112415E+03</totfact>
</mgrwt>
</event>
<event>
 6    4  0.2220150E-003  0.1272095E+03  0.7818608E-02  0.1231656E+00
         -4   -1    0    0    0  501 -0.00000000000E+00  0.00000000000E+00  0.25392044895E+02  0.25423785005E+02  0.12700000000E+01 0.  1.
          4   -1    0    0  502    0  0.00000000000E+00 -0.00000000000E+00 -0.45663291690E+03  0.45663468298E+03  0.12700000000E+01 0.  1.
         25    2    1    2    0    0  0.78813413534E+01 -0.22264408517E+02 -0.43910907494E+03  0.45716413036E+03  0.12499777186E+03 0.  0.
    9000005    1    3    3    0    0 -0.14570770816E+01 -0.38963585804E+02 -0.34412984835E+02  0.52014782684E+02  0.10000000000E+01 0.  0.
    9000005    1    3    3    0    0  0.93384184350E+01  0.16699177287E+02 -0.40469609010E+03  0.40514934768E+03  0.10000000000E+01 0.  0.
         21    1    1    2  502  501 -0.78813413534E+01  0.22264408517E+02  0.78682029312E+01  0.24894337619E+02  0.00000000000E+00 0.  1.
<mgrwt>
<rscale>  1 0.12720952E+03</rscale>
<asrwt>0</asrwt>
<pdfrwt beam="2">  1        4 0.70253790E-01 0.12720952E+03</pdfrwt>
<pdfrwt beam="1">  1       -4 0.39090462E-02 0.12720952E+03</pdfrwt>
<totfact> 0.10933079E+03</totfact>
</mgrwt>
</event>
<event>
 6    4  0.2220150E-003  0.1289442E+03  0.7818608E-02  0.1229031E+00
          4   -1    0    0  502    0  0.00000000000E+00  0.00000000000E+00  0.13453241123E+02  0.13513052827E+02  0.12700000000E+01 0.  1.
         -4   -1    0    0    0  501 -0.00000000000E+00 -0.00000000000E+00 -0.47822893974E+03  0.47823062607E+03  0.12700000000E+01 0.  1.
         25    2    1    2    0    0  0.22523057574E+02  0.22219610206E+02 -0.36959273616E+03  0.39144016179E+03  0.12500244174E+03 0.  0.
    9000005    1    3    3    0    0  0.54132109315E+02  0.56723027896E+02 -0.27407402220E+03  0.28507079260E+03  0.10000000000E+01 0.  0.
    9000005    1    3    3    0    0 -0.31609051741E+02 -0.34503417690E+02 -0.95518713964E+02  0.10636936919E+03  0.10000000000E+01 0.  0.
         21    1    1    2  502  501 -0.22523057574E+02 -0.22219610206E+02 -0.95182962461E+02  0.10030351710E+03  0.00000000000E+00 0. -1.
<mgrwt>
<rscale>  1 0.12894421E+03</rscale>
<asrwt>0</asrwt>
<pdfrwt beam="1">  1        4 0.20744604E-02 0.12894421E+03</pdfrwt>
<pdfrwt beam="2">  1       -4 0.73578400E-01 0.12894421E+03</pdfrwt>
<totfact> 0.26685724E+03</totfact>
</mgrwt>
</event>
<event>
 6    4  0.2220150E-003  0.1315879E+03  0.7818608E-02  0.1225118E+00
          4   -1    0    0  502    0  0.00000000000E+00  0.00000000000E+00  0.16963120396E+03  0.16963595803E+03  0.12700000000E+01 0.  1.
         -4   -1    0    0    0  501 -0.00000000000E+00 -0.00000000000E+00 -0.46903954392E+02  0.46921144888E+02  0.12700000000E+01 0.  1.
         25    2    1    2    0    0 -0.40823140553E+02  0.50224464481E+01  0.11489094835E+03  0.17468633281E+03  0.12499452421E+03 0.  0.
    9000005    1    3    3    0    0  0.35548929863E+02 -0.27997272153E+02  0.23177929983E+02  0.50850664703E+02  0.10000000000E+01 0.  0.
    9000005    1    3    3    0    0 -0.76372070415E+02  0.33019718602E+02  0.91713018369E+02  0.12383566810E+03  0.10000000000E+01 0.  0.
         21    1    1    2  502  501  0.40823140553E+02 -0.50224464481E+01  0.78363012119E+01  0.41870770110E+02  0.00000000000E+00 0.  1.
<mgrwt>
<rscale>  1 0.13158794E+03</rscale>
<asrwt>0</asrwt>
<pdfrwt beam="1">  1        4 0.26098796E-01 0.13158794E+03</pdfrwt>
<pdfrwt beam="2">  1       -4 0.72176811E-02 0.13158794E+03</pdfrwt>
<totfact> 0.29482328E+03</totfact>
</mgrwt>
</event>
<event>
 6    4  0.2220150E-003  0.1282280E+03  0.7818608E-02  0.1230109E+00
          4   -1    0    0  502    0  0.00000000000E+00  0.00000000000E+00  0.69214381451E+02  0.69226031951E+02  0.12700000000E+01 0.  1.
         -4   -1    0    0    0  501 -0.00000000000E+00 -0.00000000000E+00 -0.89011193733E+02  0.89020253368E+02  0.12700000000E+01 0.  1.
         25    2    1    2    0    0 -0.49294039876E+00 -0.28585276775E+02 -0.19145012459E+02  0.12964932951E+03  0.12500022441E+03 0.  0.
    9000005    1    3    3    0    0  0.61330605543E+01  0.39405238089E+02 -0.41694188703E+02  0.57704355054E+02  0.10000000000E+01 0.  0.
    9000005    1    3    3    0    0 -0.66260009531E+01 -0.67990514864E+02  0.22549176244E+02  0.71944974456E+02  0.10000000000E+01 0.  0.
         21    1    1    2  502  501  0.49294039876E+00  0.28585276775E+02 -0.65179982333E+00  0.28596955810E+02  0.00000000000E+00 0. -1.
<mgrwt>
<rscale>  1 0.12822799E+03</rscale>
<asrwt>0</asrwt>
<pdfrwt beam="1">  1        4 0.10649959E-01 0.12822799E+03</pdfrwt>
<pdfrwt beam="2">  1       -4 0.13695623E-01 0.12822799E+03</pdfrwt>
<totfact> 0.48521366E+03</totfact>
</mgrwt>
</event>
<event>
 6    4  0.2220150E-003  0.1269122E+03  0.7818608E-02  0.1232111E+00
         -4   -1    0    0    0  501 -0.00000000000E+00  0.00000000000E+00  0.66954851242E+02  0.66966894843E+02  0.12700000000E+01 0. -1.
          4   -1    0    0  502    0  0.00000000000E+00 -0.00000000000E+00 -0.83108901730E+02  0.83118604697E+02  0.12700000000E+01 0. -1.
         25    2    1    2    0    0 -0.13063939837E+02 -0.17604421275E+02 -0.99463765701E+01  0.12730135181E+03  0.12500448629E+03 0.  0.
    9000005    1    3    3    0    0  0.25987607981E+02  0.42655739904E+02  0.13510226278E+02  0.51753204049E+02  0.10000000000E+01 0.  0.
    9000005    1    3    3    0    0 -0.39051547818E+02 -0.60260161179E+02 -0.23456602848E+02  0.75548147756E+02  0.10000000000E+01 0.  0.
         21    1    1    2  502  501  0.13063939837E+02  0.17604421275E+02 -0.62076739177E+01  0.22784147734E+02  0.00000000000E+00 0.  1.
<mgrwt>
<rscale>  1 0.12691219E+03</rscale>
<asrwt>0</asrwt>
<pdfrwt beam="2">  1        4 0.12787658E-01 0.12691219E+03</pdfrwt>
<pdfrwt beam="1">  1       -4 0.10302419E-01 0.12691219E+03</pdfrwt>
<totfact> 0.57607114E+03</totfact>
</mgrwt>
</event>
<event>
 6    4  0.2220150E-003  0.1267669E+03  0.7818608E-02  0.1232334E+00
         -4   -1    0    0    0  501 -0.00000000000E+00  0.00000000000E+00  0.16942325195E+03  0.16942801186E+03  0.12700000000E+01 0.  1.
          4   -1    0    0  502    0  0.00000000000E+00 -0.00000000000E+00 -0.32243408819E+02  0.32268410440E+02  0.12700000000E+01 0.  1.
         25    2    1    2    0    0 -0.14280227198E+02 -0.15514066302E+02  0.11839746410E+03  0.17345834686E+03  0.12500090979E+03 0.  0.
    9000005    1    3    3    0    0 -0.27859992385E+02 -0.56493768110E+02  0.20153698443E+02  0.66143000929E+02  0.10000000000E+01 0.  0.
    9000005    1    3    3    0    0  0.13579765187E+02  0.40979701808E+02  0.98243765655E+02  0.10731534593E+03  0.10000000000E+01 0.  0.
         21    1    1    2  502  501  0.14280227198E+02  0.15514066302E+02  0.18782379035E+02  0.28238075435E+02  0.00000000000E+00 0. -1.
<mgrwt>
<rscale>  1 0.12676687E+03</rscale>
<asrwt>0</asrwt>
<pdfrwt beam="2">  1        4 0.49628138E-02 0.12676687E+03</pdfrwt>
<pdfrwt beam="1">  1       -4 0.26067405E-01 0.12676687E+03</pdfrwt>
<totfact> 0.53782324E+03</totfact>
</mgrwt>
</event>
<event>
 6    4  0.2220150E-003  0.1268716E+03  0.7818608E-02  0.1232173E+00
          4   -1    0    0  502    0  0.00000000000E+00  0.00000000000E+00  0.26768982094E+03  0.26769283355E+03  0.12700000000E+01 0.  1.
         -4   -1    0    0    0  501 -0.00000000000E+00 -0.00000000000E+00 -0.32082280165E+02  0.32107407254E+02  0.12700000000E+01 0.  1.
         25    2    1    2    0    0  0.59826083166E+01 -0.20876416074E+02  0.24518500913E+03  0.27606536667E+03  0.12499912647E+03 0.  0.
    9000005    1    3    3    0    0  0.38999088816E+02  0.31851416600E+02  0.49065335123E+02  0.70312507982E+02  0.10000000000E+01 0.  0.
    9000005    1    3    3    0    0 -0.33016480500E+02 -0.52727832674E+02  0.19611967401E+03  0.20575285869E+03  0.10000000000E+01 0.  0.
         21    1    1    2  502  501 -0.59826083166E+01  0.20876416074E+02 -0.95774683571E+01  0.23734874141E+02  0.00000000000E+00 0.  1.
<mgrwt>
<rscale>  1 0.12687158E+03</rscale>
<asrwt>0</asrwt>
<pdfrwt beam="1">  1        4 0.41185215E-01 0.12687158E+03</pdfrwt>
<pdfrwt beam="2">  1       -4 0.49378999E-02 0.12687158E+03</pdfrwt>
<totfact> 0.22628042E+03</totfact>
</mgrwt>
</event>
<event>
 6    4  0.2220150E-003  0.1269443E+03  0.7818608E-02  0.1232062E+00
         -4   -1    0    0    0  501 -0.00000000000E+00  0.00000000000E+00  0.43523717677E+03  0.43523902967E+03  0.12700000000E+01 0. -1.
          4   -1    0    0  502    0  0.00000000000E+00 -0.00000000000E+00 -0.20467112097E+02  0.20506476479E+02  0.12700000000E+01 0. -1.
         25    2    1    2    0    0  0.10459199785E+01  0.22133641020E+02  0.18185836810E+03  0.22178215343E+03  0.12499546199E+03 0.  0.
    9000005    1    3    3    0    0 -0.30020734186E+02 -0.84550562088E+01 -0.34653638484E+01  0.31396515781E+02  0.10000000000E+01 0.  0.
    9000005    1    3    3    0    0  0.31066654164E+02  0.30588697229E+02  0.18532373195E+03  0.19038563765E+03  0.10000000000E+01 0.  0.
         21    1    1    2  502  501 -0.10459199785E+01 -0.22133641020E+02  0.23291169657E+03  0.23396335271E+03  0.00000000000E+00 0. -1.
<mgrwt>
<rscale>  1 0.12694431E+03</rscale>
<asrwt>0</asrwt>
<pdfrwt beam="2">  1        4 0.31519572E-02 0.12694431E+03</pdfrwt>
<pdfrwt beam="1">  1       -4 0.66962733E-01 0.12694431E+03</pdfrwt>
<totfact> 0.17005933E+03</totfact>
</mgrwt>
</event>
<event>
 6    4  0.2220150E-003  0.1273605E+03  0.7818608E-02  0.1231426E+00
          4   -1    0    0  502    0  0.00000000000E+00  0.00000000000E+00  0.35592151291E+02  0.35614802169E+02  0.12700000000E+01 0. -1.
         -4   -1    0    0    0  501 -0.00000000000E+00 -0.00000000000E+00 -0.21169689565E+03  0.21170070507E+03  0.12700000000E+01 0. -1.
         25    2    1    2    0    0 -0.24387573668E+02  0.93032967629E+00 -0.85295886518E+02  0.15328430005E+03  0.12500027649E+03 0.  0.
    9000005    1    3    3    0    0  0.25285324285E+02  0.42342487877E+02 -0.41311680939E+01  0.49500509630E+02  0.10000000000E+01 0.  0.
    9000005    1    3    3    0    0 -0.49672897953E+02 -0.41412158200E+02 -0.81164718424E+02  0.10378379042E+03  0.10000000000E+01 0.  0.
         21    1    1    2  502  501  0.24387573668E+02 -0.93032967629E+00 -0.90808857837E+02  0.94031207183E+02  0.00000000000E+00 0. -1.
<mgrwt>
<rscale>  1 0.12736047E+03</rscale>
<asrwt>0</asrwt>
<pdfrwt beam="1">  1        4 0.54777511E-02 0.12736047E+03</pdfrwt>
<pdfrwt beam="2">  1       -4 0.32570788E-01 0.12736047E+03</pdfrwt>
<totfact> 0.30218162E+03</totfact>
</mgrwt>
</event>
<event>
 6    4  0.2220150E-003  0.1269392E+03  0.7818608E-02  0.1232069E+00
         -4   -1    0    0    0  501 -0.00000000000E+00  0.00000000000E+00  0.22687465741E+03  0.22687821199E+03  0.12700000000E+01 0.  1.
          4   -1    0    0  502    0  0.00000000000E+00 -0.00000000000E+00 -0.25837735166E+02  0.25868928437E+02  0.12700000000E+01 0.  1.
         25    2    1    2    0    0 -0.75979705049E+01 -0.20781712300E+02  0.14622269932E+03  0.19363531625E+03  0.12499579666E+03 0.  0.
    9000005    1    3    3    0    0  0.55735070548E+02  0.95906298459E+01  0.60887247978E+02  0.83106168461E+02  0.10000000000E+01 0.  0.
    9000005    1    3    3    0    0 -0.63333041053E+02 -0.30372342146E+02  0.85335451339E+02  0.11052914779E+03  0.10000000000E+01 0.  0.
         21    1    1    2  502  501  0.75979705049E+01  0.20781712300E+02  0.54814222932E+02  0.59111824177E+02  0.00000000000E+00 0.  1.
<mgrwt>
<rscale>  1 0.12693919E+03</rscale>
<asrwt>0</asrwt>
<pdfrwt beam="2">  1        4 0.39777091E-02 0.12693919E+03</pdfrwt>
<pdfrwt beam="1">  1       -4 0.34906467E-01 0.12693919E+03</pdfrwt>
<totfact> 0.44108767E+03</totfact>
</mgrwt>
</event>
<event>
 6    4  0.2220150E-003  0.1281908E+03  0.7818608E-02  0.1230165E+00
         -4   -1    0    0    0  501 -0.00000000000E+00  0.00000000000E+00  0.29790656499E+02  0.29817714779E+02  0.12700000000E+01 0.  1.
          4   -1    0    0  502    0  0.00000000000E+00 -0.00000000000E+00 -0.20770448565E+03  0.20770836829E+03  0.12700000000E+01 0.  1.
         25    2    1    2    0    0 -0.26172097119E+02  0.11144445337E+02 -0.15393384684E+03  0.20032101781E+03  0.12499481447E+03 0.  0.
    9000005    1    3    3    0    0 -0.35832343980E+02  0.21421448796E+02  0.38210373399E+01  0.41933705656E+02  0.10000000000E+01 0.  0.
    9000005    1    3    3    0    0  0.96602468616E+01 -0.10277003460E+02 -0.15775488418E+03  0.15838731215E+03  0.10000000000E+01 0.  0.
         21    1    1    2  502  501  0.26172097119E+02 -0.11144445337E+02 -0.23979982313E+02  0.37205065262E+02  0.00000000000E+00 0.  1.
<mgrwt>
<rscale>  1 0.12819080E+03</rscale>
<asrwt>0</asrwt>
<pdfrwt beam="2">  1        4 0.31956915E-01 0.12819080E+03</pdfrwt>
<pdfrwt beam="1">  1       -4 0.45855581E-02 0.12819080E+03</pdfrwt>
<totfact> 0.41754479E+03</totfact>
</mgrwt>
</event>
<event>
 6    4  0.2220150E-003  0.1268932E+03  0.7818608E-02  0.1232140E+00
          4   -1    0    0  502    0  0.00000000000E+00  0.00000000000E+00  0.61577541614E+02  0.61590636717E+02  0.12700000000E+01 0. -1.
         -4   -1    0    0    0  501 -0.00000000000E+00 -0.00000000000E+00 -0.89806667913E+02  0.89815647310E+02  0.12700000000E+01 0. -1.
         25    2    1    2    0    0 -0.12747416041E+02 -0.17747873210E+02 -0.23568578344E+02  0.12906340314E+03  0.12499760208E+03 0.  0.
    9000005    1    3    3    0    0  0.12469007195E+02 -0.68229267030E+02 -0.45830834072E+01  0.69517722010E+02  0.10000000000E+01 0.  0.
    9000005    1    3    3    0    0 -0.25216423236E+02  0.50481393821E+02 -0.18985494936E+02  0.59545681127E+02  0.10000000000E+01 0.  0.
         21    1    1    2  502  501  0.12747416041E+02  0.17747873210E+02 -0.46605479562E+01  0.22342880890E+02  0.00000000000E+00 0. -1.
<mgrwt>
<rscale>  1 0.12689320E+03</rscale>
<asrwt>0</asrwt>
<pdfrwt beam="1">  1        4 0.94751659E-02 0.12689320E+03</pdfrwt>
<pdfrwt beam="2">  1       -4 0.13818109E-01 0.12689320E+03</pdfrwt>
<totfact> 0.58015317E+03</totfact>
</mgrwt>
</event>
<event>
 6    4  0.2220150E-003  0.1287610E+03  0.7818608E-02  0.1229306E+00
          4   -1    0    0  502    0  0.00000000000E+00  0.00000000000E+00  0.56744367924E+03  0.56744510044E+03  0.12700000000E+01 0.  1.
         -4   -1    0    0    0  501 -0.00000000000E+00 -0.00000000000E+00 -0.22145856849E+02  0.22182242348E+02  0.12700000000E+01 0.  1.
         25    2    1    2    0    0  0.23678066497E+02 -0.19849548491E+02  0.54364539145E+03  0.55868568905E+03  0.12499892835E+03 0.  0.
    9000005    1    3    3    0    0 -0.10582431521E+02  0.43792774996E+02  0.10707766074E+03  0.11617409534E+03  0.10000000000E+01 0.  0.
    9000005    1    3    3    0    0  0.34260498018E+02 -0.63642323487E+02  0.43656773072E+03  0.44251159371E+03  0.10000000000E+01 0.  0.
         21    1    1    2  502  501 -0.23678066497E+02  0.19849548491E+02  0.16524309432E+01  0.30941653743E+02  0.00000000000E+00 0.  1.
<mgrwt>
<rscale>  1 0.12876097E+03</rscale>
<asrwt>0</asrwt>
<pdfrwt beam="1">  1        4 0.87301932E-01 0.12876097E+03</pdfrwt>
<pdfrwt beam="2">  1       -4 0.34099633E-02 0.12876097E+03</pdfrwt>
<totfact> 0.84340216E+02</totfact>
</mgrwt>
</event>
<event>
 6    4  0.2220150E-003  0.1282970E+03  0.7818608E-02  0.1230005E+00
         -4   -1    0    0    0  501 -0.00000000000E+00  0.00000000000E+00  0.56826690456E+02  0.56840880080E+02  0.12700000000E+01 0.  1.
          4   -1    0    0  502    0  0.00000000000E+00 -0.00000000000E+00 -0.11478618485E+03  0.11479321030E+03  0.12700000000E+01 0.  1.
         25    2    1    2    0    0 -0.27297435380E+02  0.94632103977E+01 -0.61946164545E+02  0.14246911364E+03  0.12500167483E+03 0.  0.
    9000005    1    3    3    0    0 -0.14523639049E+02 -0.37154967987E+02  0.22020934254E+02  0.45577947329E+02  0.10000000000E+01 0.  0.
    9000005    1    3    3    0    0 -0.12773796332E+02  0.46618178384E+02 -0.83967098799E+02  0.96891166312E+02  0.10000000000E+01 0.  0.
         21    1    1    2  502  501  0.27297435380E+02 -0.94632103977E+01  0.39866701559E+01  0.29164976741E+02  0.00000000000E+00 0. -1.
<mgrwt>
<rscale>  1 0.12829700E+03</rscale>
<asrwt>0</asrwt>
<pdfrwt beam="2">  1        4 0.17661045E-01 0.12829700E+03</pdfrwt>
<pdfrwt beam="1">  1       -4 0.87441997E-02 0.12829700E+03</pdfrwt>
<totfact> 0.43291970E+03</totfact>
</mgrwt>
</event>
<event>
 6    4  0.2220150E-003  0.1334011E+03  0.7818608E-02  0.1222495E+00
          4   -1    0    0  502    0  0.00000000000E+00  0.00000000000E+00  0.19745680418E+03  0.19746088832E+03  0.12700000000E+01 0.  1.
         -4   -1    0    0    0  501 -0.00000000000E+00 -0.00000000000E+00 -0.16180215079E+03  0.16180713488E+03  0.12700000000E+01 0.  1.
         25    2    1    2    0    0  0.27619963567E+02  0.37578761313E+02  0.17055754815E+03  0.21653114394E+03  0.12498333239E+03 0.  0.
    9000005    1    3    3    0    0  0.44911318285E+02  0.38760619823E+02  0.16618746793E+02  0.61616514865E+02  0.10000000000E+01 0.  0.
    9000005    1    3    3    0    0 -0.17291354718E+02 -0.11818585102E+01  0.15393880136E+03  0.15491462907E+03  0.10000000000E+01 0.  0.
         21    1    1    2  502  501 -0.27619963567E+02 -0.37578761313E+02 -0.13490289476E+03  0.14273687927E+03  0.00000000000E+00 0.  1.
<mgrwt>
<rscale>  1 0.13340112E+03</rscale>
<asrwt>0</asrwt>
<pdfrwt beam="1">  1        4 0.30378667E-01 0.13340112E+03</pdfrwt>
<pdfrwt beam="2">  1       -4 0.24893336E-01 0.13340112E+03</pdfrwt>
<totfact> 0.26044258E+02</totfact>
</mgrwt>
</event>
<event>
 6    4  0.2220150E-003  0.1278046E+03  0.7818608E-02  0.1230750E+00
         -4   -1    0    0    0  501 -0.00000000000E+00  0.00000000000E+00  0.36727453561E+03  0.36727673137E+03  0.12700000000E+01 0. -1.
          4   -1    0    0  502    0  0.00000000000E+00 -0.00000000000E+00 -0.19464669531E+02  0.19506057007E+02  0.12700000000E+01 0. -1.
         25    2    1    2    0    0  0.14236810510E+02  0.22515478712E+02  0.20549562657E+03  0.24199682109E+03  0.12499750128E+03 0.  0.
    9000005    1    3    3    0    0  0.45842920406E+02 -0.18687076443E+02  0.17477379205E+03  0.18165257654E+03  0.10000000000E+01 0.  0.
    9000005    1    3    3    0    0 -0.31606109896E+02  0.41202555155E+02  0.30721834516E+02  0.60344244548E+02  0.10000000000E+01 0.  0.
         21    1    1    2  502  501 -0.14236810510E+02 -0.22515478712E+02  0.14231423951E+03  0.14478596728E+03  0.00000000000E+00 0. -1.
<mgrwt>
<rscale>  1 0.12780457E+03</rscale>
<asrwt>0</asrwt>
<pdfrwt beam="2">  1        4 0.29979171E-02 0.12780457E+03</pdfrwt>
<pdfrwt beam="1">  1       -4 0.56507127E-01 0.12780457E+03</pdfrwt>
<totfact> 0.26342654E+03</totfact>
</mgrwt>
</event>
<event>
 6    4  0.2220150E-003  0.1304480E+03  0.7818608E-02  0.1226793E+00
          4   -1    0    0  502    0  0.00000000000E+00  0.00000000000E+00  0.38916887659E+03  0.38917094882E+03  0.12700000000E+01 0. -1.
         -4   -1    0    0    0  501 -0.00000000000E+00 -0.00000000000E+00 -0.18295317803E+02  0.18339344414E+02  0.12700000000E+01 0. -1.
         25    2    1    2    0    0 -0.12993364694E+02 -0.34965868139E+02  0.30659225907E+03  0.33318987239E+03  0.12500095313E+03 0.  0.
    9000005    1    3    3    0    0  0.17775611326E+02  0.40151394495E+02  0.15654045656E+03  0.16258542794E+03  0.10000000000E+01 0.  0.
    9000005    1    3    3    0    0 -0.30768976020E+02 -0.75117262634E+02  0.15005180251E+03  0.17060444445E+03  0.10000000000E+01 0.  0.
         21    1    1    2  502  501  0.12993364694E+02  0.34965868139E+02  0.64281299715E+02  0.74320420840E+02  0.00000000000E+00 0. -1.
<mgrwt>
<rscale>  1 0.13044799E+03</rscale>
<asrwt>0</asrwt>
<pdfrwt beam="1">  1        4 0.59875680E-01 0.13044799E+03</pdfrwt>
<pdfrwt beam="2">  1       -4 0.28182104E-02 0.13044799E+03</pdfrwt>
<totfact> 0.25837442E+03</totfact>
</mgrwt>
</event>
<event>
 6    4  0.2220150E-003  0.1285220E+03  0.7818608E-02  0.1229665E+00
         -4   -1    0    0    0  501 -0.00000000000E+00  0.00000000000E+00  0.32579787070E+02  0.32604530752E+02  0.12700000000E+01 0. -1.
          4   -1    0    0  502    0  0.00000000000E+00 -0.00000000000E+00 -0.19247979906E+03  0.19248398881E+03  0.12700000000E+01 0. -1.
         25    2    1    2    0    0  0.52147274842E+01 -0.29430031814E+02 -0.13067978956E+03  0.18328969716E+03  0.12499834210E+03 0.  0.
    9000005    1    3    3    0    0 -0.91906374590E+01  0.45245239868E+02 -0.78421424160E+02  0.91008347501E+02  0.10000000000E+01 0.  0.
    9000005    1    3    3    0    0  0.14405364943E+02 -0.74675271682E+02 -0.52258365403E+02  0.92281349657E+02  0.10000000000E+01 0.  0.
         21    1    1    2  502  501 -0.52147274842E+01  0.29430031814E+02 -0.29220222427E+02  0.41798822399E+02  0.00000000000E+00 0.  1.
<mgrwt>
<rscale>  1 0.12852200E+03</rscale>
<asrwt>0</asrwt>
<pdfrwt beam="2">  1        4 0.29614502E-01 0.12852200E+03</pdfrwt>
<pdfrwt beam="1">  1       -4 0.50145007E-02 0.12852200E+03</pdfrwt>
<totfact> 0.41819638E+03</totfact>
</mgrwt>
</event>
<event>
 6    4  0.2220150E-003  0.1300134E+03  0.7818608E-02  0.1227436E+00
          4   -1    0    0  502    0  0.00000000000E+00  0.00000000000E+00  0.11222431596E+02  0.11294063525E+02  0.12700000000E+01 0. -1.
         -4   -1    0    0    0  501 -0.00000000000E+00 -0.00000000000E+00 -0.12856128527E+04  0.12856134800E+04  0.12700000000E+01 0. -1.
         25    2    1    2    0    0  0.19045648282E+01  0.35767098555E+02 -0.37674308117E+03  0.39854589051E+03  0.12498225843E+03 0.  0.
    9000005    1    3    3    0    0  0.39376880233E+02  0.46157594661E+01 -0.32519267968E+03  0.32760208004E+03  0.10000000000E+01 0.  0.
    9000005    1    3    3    0    0 -0.37472315405E+02  0.31151339089E+02 -0.51550401493E+02  0.70943810462E+02  0.10000000000E+01 0.  0.
         21    1    1    2  502  501 -0.19045648282E+01 -0.35767098555E+02 -0.89764733990E+03  0.89836165297E+03  0.00000000000E+00 0. -1.
<mgrwt>
<rscale>  1 0.13001337E+03</rscale>
<asrwt>0</asrwt>
<pdfrwt beam="1">  1        4 0.17320874E-02 0.13001337E+03</pdfrwt>
<pdfrwt beam="2">  1       -4 0.19779203E+00 0.13001337E+03</pdfrwt>
<totfact> 0.31767905E+02</totfact>
</mgrwt>
</event>
<event>
 6    4  0.2220150E-003  0.1287710E+03  0.7818608E-02  0.1229291E+00
          4   -1    0    0  502    0  0.00000000000E+00  0.00000000000E+00  0.21218893040E+02  0.21256865287E+02  0.12700000000E+01 0. -1.
         -4   -1    0    0    0  501 -0.00000000000E+00 -0.00000000000E+00 -0.30545063573E+03  0.30545327592E+03  0.12700000000E+01 0. -1.
         25    2    1    2    0    0 -0.29520039692E+02 -0.92692253525E+01 -0.21070519444E+03  0.24693856369E+03  0.12499849595E+03 0.  0.
    9000005    1    3    3    0    0  0.71296025336E+01 -0.36523634944E+02 -0.19516565877E+03  0.19868427594E+03  0.10000000000E+01 0.  0.
    9000005    1    3    3    0    0 -0.36649642225E+02  0.27254409592E+02 -0.15539535673E+02  0.48254287751E+02  0.10000000000E+01 0.  0.
         21    1    1    2  502  501  0.29520039692E+02  0.92692253525E+01 -0.73526548249E+02  0.79771577516E+02  0.00000000000E+00 0.  1.
<mgrwt>
<rscale>  1 0.12877102E+03</rscale>
<asrwt>0</asrwt>
<pdfrwt beam="1">  1        4 0.32675693E-02 0.12877102E+03</pdfrwt>
<pdfrwt beam="2">  1       -4 0.46995526E-01 0.12877102E+03</pdfrwt>
<totfact> 0.33611144E+03</totfact>
</mgrwt>
</event>
<event>
 6    4  0.2220150E-003  0.1997168E+03  0.7818608E-02  0.1149978E+00
         -4   -1    0    0    0  501 -0.00000000000E+00  0.00000000000E+00  0.18835940510E+03  0.18836368650E+03  0.12700000000E+01 0. -1.
          4   -1    0    0  502    0  0.00000000000E+00 -0.00000000000E+00 -0.16776690141E+03  0.16777170831E+03  0.12700000000E+01 0. -1.
         25    2    1    2    0    0  0.10037899523E+03  0.11910513744E+03  0.83176203568E+01  0.19988991740E+03  0.12499927929E+03 0.  0.
    9000005    1    3    3    0    0  0.40046249177E+02  0.78587530453E+02  0.63454290138E+02  0.10866070565E+03  0.10000000000E+01 0.  0.
    9000005    1    3    3    0    0  0.60332746052E+02  0.40517606985E+02 -0.55136669782E+02  0.91229211750E+02  0.10000000000E+01 0.  0.
         21    1    1    2  502  501 -0.10037899523E+03 -0.11910513744E+03  0.12274883337E+02  0.15624547740E+03  0.00000000000E+00 0. -1.
<mgrwt>
<rscale>  1 0.19971679E+03</rscale>
<asrwt>0</asrwt>
<pdfrwt beam="2">  1        4 0.25810992E-01 0.19971679E+03</pdfrwt>
<pdfrwt beam="1">  1       -4 0.28979069E-01 0.19971679E+03</pdfrwt>
<totfact> 0.28499494E+02</totfact>
</mgrwt>
</event>
<event>
 6    4  0.2220150E-003  0.1281723E+03  0.7818608E-02  0.1230193E+00
         -4   -1    0    0    0  501 -0.00000000000E+00  0.00000000000E+00  0.12924426086E+02  0.12986673540E+02  0.12700000000E+01 0.  1.
          4   -1    0    0  502    0  0.00000000000E+00 -0.00000000000E+00 -0.67835375125E+03  0.67835494008E+03  0.12700000000E+01 0.  1.
         25    2    1    2    0    0 -0.27938407483E+02  0.47789025193E+01 -0.64170137893E+03  0.65437665786E+03  0.12499903244E+03 0.  0.
    9000005    1    3    3    0    0 -0.15410814466E+02 -0.45415970534E+02 -0.51898445806E+03  0.52119667237E+03  0.10000000000E+01 0.  0.
    9000005    1    3    3    0    0 -0.12527593017E+02  0.50194873053E+02 -0.12271692087E+03  0.13317998549E+03  0.10000000000E+01 0.  0.
         21    1    1    2  502  501  0.27938407483E+02 -0.47789025193E+01 -0.23727946232E+02  0.36964955760E+02  0.00000000000E+00 0.  1.
<mgrwt>
<rscale>  1 0.12817235E+03</rscale>
<asrwt>0</asrwt>
<pdfrwt beam="2">  1        4 0.10436697E+00 0.12817235E+03</pdfrwt>
<pdfrwt beam="1">  1       -4 0.19932535E-02 0.12817235E+03</pdfrwt>
<totfact> 0.12913942E+03</totfact>
</mgrwt>
</event>
<event>
 6    4  0.2220150E-003  0.1276057E+03  0.7818608E-02  0.1231052E+00
         -4   -1    0    0    0  501 -0.00000000000E+00  0.00000000000E+00  0.26359227079E+02  0.26389803944E+02  0.12700000000E+01 0.  1.
          4   -1    0    0  502    0  0.00000000000E+00 -0.00000000000E+00 -0.34657463783E+03  0.34657696473E+03  0.12700000000E+01 0.  1.
         25    2    1    2    0    0  0.25213098630E+02 -0.47927506686E+01 -0.32286369546E+03  0.34716591184E+03  0.12499813478E+03 0.  0.
    9000005    1    3    3    0    0 -0.14762174784E+02 -0.31244615907E+02 -0.28216887326E+03  0.28427877315E+03  0.10000000000E+01 0.  0.
    9000005    1    3    3    0    0  0.39975273414E+02  0.26451865239E+02 -0.40694822204E+02  0.62887138695E+02  0.10000000000E+01 0.  0.
         21    1    1    2  502  501 -0.25213098630E+02  0.47927506686E+01  0.26482847129E+01  0.25800856835E+02  0.00000000000E+00 0. -1.
<mgrwt>
<rscale>  1 0.12760566E+03</rscale>
<asrwt>0</asrwt>
<pdfrwt beam="2">  1        4 0.53321703E-01 0.12760566E+03</pdfrwt>
<pdfrwt beam="1">  1       -4 0.40577970E-02 0.12760566E+03</pdfrwt>
<totfact> 0.18424813E+03</totfact>
</mgrwt>
</event>
<event>
 6    4  0.2220150E-003  0.2234837E+03  0.7818608E-02  0.1131312E+00
          4   -1    0    0  502    0  0.00000000000E+00  0.00000000000E+00  0.26497617264E+03  0.26497921611E+03  0.12700000000E+01 0. -1.
         -4   -1    0    0    0  501 -0.00000000000E+00 -0.00000000000E+00 -0.18154110578E+03  0.18154554797E+03  0.12700000000E+01 0. -1.
         25    2    1    2    0    0  0.16869311219E+03  0.76561344983E+02  0.12584293269E+03  0.25647889401E+03  0.12500389482E+03 0.  0.
    9000005    1    3    3    0    0  0.17274974076E+03  0.55484787602E+02  0.14133066459E+03  0.22999215496E+03  0.10000000000E+01 0.  0.
    9000005    1    3    3    0    0 -0.40566285740E+01  0.21076557380E+02 -0.15487731899E+02  0.26486739055E+02  0.10000000000E+01 0.  0.
         21    1    1    2  502  501 -0.16869311219E+03 -0.76561344983E+02 -0.42407865833E+02  0.19004587007E+03  0.00000000000E+00 0. -1.
<mgrwt>
<rscale>  1 0.22348373E+03</rscale>
<asrwt>0</asrwt>
<pdfrwt beam="1">  1        4 0.40766141E-01 0.22348373E+03</pdfrwt>
<pdfrwt beam="2">  1       -4 0.27929977E-01 0.22348373E+03</pdfrwt>
<totfact> 0.12867453E+02</totfact>
</mgrwt>
</event>
<event>
 6    4  0.2220150E-003  0.1291836E+03  0.7818608E-02  0.1228672E+00
          4   -1    0    0  502    0  0.00000000000E+00  0.00000000000E+00  0.11488224731E+04  0.11488231751E+04  0.12700000000E+01 0. -1.
         -4   -1    0    0    0  501 -0.00000000000E+00 -0.00000000000E+00 -0.61158517701E+01  0.62463223479E+01  0.12700000000E+01 0. -1.
         25    2    1    2    0    0  0.21950748366E+02  0.24216946390E+02  0.75357652028E+03  0.76456913713E+03  0.12498038924E+03 0.  0.
    9000005    1    3    3    0    0 -0.33709237375E+02  0.50201309541E+02  0.50059886520E+03  0.50423874108E+03  0.10000000000E+01 0.  0.
    9000005    1    3    3    0    0  0.55659985741E+02 -0.25984363151E+02  0.25297765508E+03  0.26033039605E+03  0.10000000000E+01 0.  0.
         21    1    1    2  502  501 -0.21950748366E+02 -0.24216946390E+02  0.38913010109E+03  0.39050036034E+03  0.00000000000E+00 0. -1.
<mgrwt>
<rscale>  1 0.12918357E+03</rscale>
<asrwt>0</asrwt>
<pdfrwt beam="1">  1        4 0.17675198E+00 0.12918357E+03</pdfrwt>
<pdfrwt beam="2">  1       -4 0.95099064E-03 0.12918357E+03</pdfrwt>
<totfact> 0.10746470E+03</totfact>
</mgrwt>
</event>
<event>
 6    4  0.2220150E-003  0.1275318E+03  0.7818608E-02  0.1231165E+00
         -4   -1    0    0    0  501 -0.00000000000E+00  0.00000000000E+00  0.42042104090E+02  0.42061281677E+02  0.12700000000E+01 0. -1.
          4   -1    0    0  502    0  0.00000000000E+00 -0.00000000000E+00 -0.15894288175E+03  0.15894795551E+03  0.12700000000E+01 0. -1.
         25    2    1    2    0    0 -0.17634365034E+02  0.18119568233E+02 -0.12051781204E+03  0.17546765304E+03  0.12500025864E+03 0.  0.
    9000005    1    3    3    0    0 -0.42279887852E+02  0.17489651146E+02 -0.13789345982E+03  0.14528965233E+03  0.10000000000E+01 0.  0.
    9000005    1    3    3    0    0  0.24645522818E+02  0.62991708628E+00  0.17375647782E+02  0.30178000702E+02  0.10000000000E+01 0.  0.
         21    1    1    2  502  501  0.17634365034E+02 -0.18119568233E+02  0.36170343765E+01  0.25541584148E+02  0.00000000000E+00 0. -1.
<mgrwt>
<rscale>  1 0.12753178E+03</rscale>
<asrwt>0</asrwt>
<pdfrwt beam="2">  1        4 0.24454616E-01 0.12753178E+03</pdfrwt>
<pdfrwt beam="1">  1       -4 0.64698816E-02 0.12753178E+03</pdfrwt>
<totfact> 0.39465280E+03</totfact>
</mgrwt>
</event>
<event>
 6    4  0.2220150E-003  0.1426537E+03  0.7818608E-02  0.1209802E+00
          4   -1    0    0  502    0  0.00000000000E+00  0.00000000000E+00  0.49531443197E+03  0.49531606013E+03  0.12700000000E+01 0. -1.
         -4   -1    0    0    0  501 -0.00000000000E+00 -0.00000000000E+00 -0.44605468365E+02  0.44623544324E+02  0.12700000000E+01 0. -1.
         25    2    1    2    0    0  0.68326099921E+02 -0.73444327501E+01  0.44908809629E+03  0.47120079566E+03  0.12501069947E+03 0.  0.
    9000005    1    3    3    0    0  0.51776740354E+02 -0.22272967564E+02  0.63280504305E+02  0.84748676396E+02  0.10000000000E+01 0.  0.
    9000005    1    3    3    0    0  0.16549359567E+02  0.14928534814E+02  0.38580759198E+03  0.38645211926E+03  0.10000000000E+01 0.  0.
         21    1    1    2  502  501 -0.68326099921E+02  0.73444327501E+01  0.16208673201E+01  0.68738808789E+02  0.00000000000E+00 0. -1.
<mgrwt>
<rscale>  1 0.14265368E+03</rscale>
<asrwt>0</asrwt>
<pdfrwt beam="1">  1        4 0.76203740E-01 0.14265368E+03</pdfrwt>
<pdfrwt beam="2">  1       -4 0.68638951E-02 0.14265368E+03</pdfrwt>
<totfact> 0.37838819E+02</totfact>
</mgrwt>
</event>
<event>
 6    4  0.2220150E-003  0.1287542E+03  0.7818608E-02  0.1229316E+00
          4   -1    0    0  502    0  0.00000000000E+00  0.00000000000E+00  0.13271571446E+03  0.13272179084E+03  0.12700000000E+01 0. -1.
         -4   -1    0    0    0  501 -0.00000000000E+00 -0.00000000000E+00 -0.48464127919E+02  0.48480765206E+02  0.12700000000E+01 0. -1.
         25    2    1    2    0    0 -0.20232166178E+02  0.23303279424E+02  0.74904189903E+02  0.14895728967E+03  0.12500101239E+03 0.  0.
    9000005    1    3    3    0    0  0.38710250667E+02 -0.16108825233E+02  0.65001036568E+02  0.77357045652E+02  0.10000000000E+01 0.  0.
    9000005    1    3    3    0    0 -0.58942416845E+02  0.39412104657E+02  0.99031533351E+01  0.71600244015E+02  0.10000000000E+01 0.  0.
         21    1    1    2  502  501  0.20232166178E+02 -0.23303279424E+02  0.93473966381E+01  0.32245266382E+02  0.00000000000E+00 0. -1.
<mgrwt>
<rscale>  1 0.12875417E+03</rscale>
<asrwt>0</asrwt>
<pdfrwt beam="1">  1        4 0.20419549E-01 0.12875417E+03</pdfrwt>
<pdfrwt beam="2">  1       -4 0.74577670E-02 0.12875417E+03</pdfrwt>
<totfact> 0.43512620E+03</totfact>
</mgrwt>
</event>
<event>
 6    4  0.2220150E-003  0.1275951E+03  0.7818608E-02  0.1231068E+00
          4   -1    0    0  502    0  0.00000000000E+00  0.00000000000E+00  0.15121646267E+03  0.15122179566E+03  0.12700000000E+01 0. -1.
         -4   -1    0    0    0  501 -0.00000000000E+00 -0.00000000000E+00 -0.41211245100E+02  0.41230809144E+02  0.12700000000E+01 0. -1.
         25    2    1    2    0    0 -0.23405708592E+02  0.10400823592E+02  0.10726812490E+03  0.16669418866E+03  0.12499799033E+03 0.  0.
    9000005    1    3    3    0    0 -0.47896121280E+02  0.13858167946E+02 -0.64744872522E+01  0.50289225861E+02  0.10000000000E+01 0.  0.
    9000005    1    3    3    0    0  0.24490412689E+02 -0.34573443545E+01  0.11374261215E+03  0.11640496280E+03  0.10000000000E+01 0.  0.
         21    1    1    2  502  501  0.23405708592E+02 -0.10400823592E+02  0.27370926664E+01  0.25758416146E+02  0.00000000000E+00 0. -1.
<mgrwt>
<rscale>  1 0.12759507E+03</rscale>
<asrwt>0</asrwt>
<pdfrwt beam="1">  1        4 0.23265986E-01 0.12759507E+03</pdfrwt>
<pdfrwt beam="2">  1       -4 0.63421067E-02 0.12759507E+03</pdfrwt>
<totfact> 0.44674634E+03</totfact>
</mgrwt>
</event>
<event>
 6    4  0.2220150E-003  0.1278426E+03  0.7818608E-02  0.1230693E+00
          4   -1    0    0  502    0  0.00000000000E+00  0.00000000000E+00  0.19567089781E+03  0.19567501922E+03  0.12700000000E+01 0. -1.
         -4   -1    0    0    0  501 -0.00000000000E+00 -0.00000000000E+00 -0.31060290566E+02  0.31086243742E+02  0.12700000000E+01 0. -1.
         25    2    1    2    0    0  0.26560530264E+02 -0.26933868835E+01  0.14682490070E+03  0.19468249339E+03  0.12502402035E+03 0.  0.
    9000005    1    3    3    0    0 -0.19155221275E+02 -0.41533016295E+02  0.12280883209E+02  0.47368069805E+02  0.10000000000E+01 0.  0.
    9000005    1    3    3    0    0  0.45715751538E+02  0.38839629411E+02  0.13454401749E+03  0.14731442358E+03  0.10000000000E+01 0.  0.
         21    1    1    2  502  501 -0.26560530264E+02  0.26933868835E+01  0.17785706538E+02  0.32078769581E+02  0.00000000000E+00 0.  1.
<mgrwt>
<rscale>  1 0.12784257E+03</rscale>
<asrwt>0</asrwt>
<pdfrwt beam="1">  1        4 0.30105528E-01 0.12784257E+03</pdfrwt>
<pdfrwt beam="2">  1       -4 0.47808197E-02 0.12784257E+03</pdfrwt>
<totfact> 0.43709540E+03</totfact>
</mgrwt>
</event>
<event>
 6    4  0.2220150E-003  0.1293060E+03  0.7818608E-02  0.1228489E+00
          4   -1    0    0  502    0  0.00000000000E+00  0.00000000000E+00  0.30305524095E+03  0.30305790201E+03  0.12700000000E+01 0.  1.
         -4   -1    0    0    0  501 -0.00000000000E+00 -0.00000000000E+00 -0.44750305024E+02  0.44768322503E+02  0.12700000000E+01 0.  1.
         25    2    1    2    0    0 -0.32181687626E+02  0.76655614628E+01  0.27989661509E+03  0.30832151011E+03  0.12500246641E+03 0.  0.
    9000005    1    3    3    0    0 -0.63549749421E+02 -0.28605957277E+02  0.22437469930E+03  0.23495079726E+03  0.10000000000E+01 0.  0.
    9000005    1    3    3    0    0  0.31368061796E+02  0.36271518740E+02  0.55521915784E+02  0.73370712855E+02  0.10000000000E+01 0.  0.
         21    1    1    2  502  501  0.32181687626E+02 -0.76655614628E+01 -0.21591679159E+02  0.39504714401E+02  0.00000000000E+00 0.  1.
<mgrwt>
<rscale>  1 0.12930599E+03</rscale>
<asrwt>0</asrwt>
<pdfrwt beam="1">  1        4 0.46625474E-01 0.12930599E+03</pdfrwt>
<pdfrwt beam="2">  1       -4 0.68862529E-02 0.12930599E+03</pdfrwt>
<totfact> 0.10352816E+03</totfact>
</mgrwt>
</event>
<event>
 6    4  0.2220150E-003  0.1278931E+03  0.7818608E-02  0.1230616E+00
         -4   -1    0    0    0  501 -0.00000000000E+00  0.00000000000E+00  0.72502050412E+02  0.72513172692E+02  0.12700000000E+01 0. -1.
          4   -1    0    0  502    0  0.00000000000E+00 -0.00000000000E+00 -0.91572685085E+02  0.91581491327E+02  0.12700000000E+01 0. -1.
         25    2    1    2    0    0 -0.24816254770E+02  0.10757479846E+02 -0.35141055524E+02  0.13263312719E+03  0.12500033108E+03 0.  0.
    9000005    1    3    3    0    0 -0.57181275566E+02 -0.80557990448E+01 -0.63367266005E+02  0.85737999595E+02  0.10000000000E+01 0.  0.
    9000005    1    3    3    0    0  0.32365020796E+02  0.18813278891E+02  0.28226210481E+02  0.46895127592E+02  0.10000000000E+01 0.  0.
         21    1    1    2  502  501  0.24816254770E+02 -0.10757479846E+02  0.16070420851E+02  0.31461536832E+02  0.00000000000E+00 0. -1.
<mgrwt>
<rscale>  1 0.12789313E+03</rscale>
<asrwt>0</asrwt>
<pdfrwt beam="2">  1        4 0.14089638E-01 0.12789313E+03</pdfrwt>
<pdfrwt beam="1">  1       -4 0.11155695E-01 0.12789313E+03</pdfrwt>
<totfact> 0.42675548E+03</totfact>
</mgrwt>
</event>
<event>
 6    4  0.2220150E-003  0.1324386E+03  0.7818608E-02  0.1223881E+00
         -4   -1    0    0    0  501 -0.00000000000E+00  0.00000000000E+00  0.11051397890E+02  0.11124131216E+02  0.12700000000E+01 0.  1.
          4   -1    0    0  502    0  0.00000000000E+00 -0.00000000000E+00 -0.10301649054E+04  0.10301656883E+04  0.12700000000E+01 0.  1.
         25    2    1    2    0    0  0.16666784798E+02  0.40463504352E+02 -0.95200821216E+03  0.96117616542E+03  0.12499963218E+03 0.  0.
    9000005    1    3    3    0    0  0.34960483937E+02  0.77688638907E+02 -0.49404648068E+03  0.50133889249E+03  0.10000000000E+01 0.  0.
    9000005    1    3    3    0    0 -0.18293699140E+02 -0.37225134555E+02 -0.45796173149E+03  0.45983727293E+03  0.10000000000E+01 0.  0.
         21    1    1    2  502  501 -0.16666784798E+02 -0.40463504352E+02 -0.67105295395E+02  0.80113654079E+02  0.00000000000E+00 0.  1.
<mgrwt>
<rscale>  1 0.13243861E+03</rscale>
<asrwt>0</asrwt>
<pdfrwt beam="2">  1        4 0.15849249E+00 0.13243861E+03</pdfrwt>
<pdfrwt beam="1">  1       -4 0.17058710E-02 0.13243861E+03</pdfrwt>
<totfact> 0.59417766E+02</totfact>
</mgrwt>
</event>
<event>
 6    4  0.2220150E-003  0.1307914E+03  0.7818608E-02  0.1226286E+00
         -4   -1    0    0    0  501 -0.00000000000E+00  0.00000000000E+00  0.79639629575E+02  0.79649755172E+02  0.12700000000E+01 0. -1.
          4   -1    0    0  502    0  0.00000000000E+00 -0.00000000000E+00 -0.17849801796E+03  0.17850253588E+03  0.12700000000E+01 0. -1.
         25    2    1    2    0    0  0.35310088179E+02 -0.15322971248E+02 -0.14683780375E+03  0.19664115325E+03  0.12499922707E+03 0.  0.
    9000005    1    3    3    0    0  0.52580604543E+02  0.21521267201E+01 -0.16022134333E+03  0.16864528005E+03  0.10000000000E+01 0.  0.
    9000005    1    3    3    0    0 -0.17270516364E+02 -0.17475097968E+02  0.13383539587E+02  0.27995873202E+02  0.10000000000E+01 0.  0.
         21    1    1    2  502  501 -0.35310088179E+02  0.15322971248E+02  0.47979415361E+02  0.61511137800E+02  0.00000000000E+00 0. -1.
<mgrwt>
<rscale>  1 0.13079145E+03</rscale>
<asrwt>0</asrwt>
<pdfrwt beam="2">  1        4 0.27462360E-01 0.13079145E+03</pdfrwt>
<pdfrwt beam="1">  1       -4 0.12253377E-01 0.13079145E+03</pdfrwt>
<totfact> 0.11027528E+03</totfact>
</mgrwt>
</event>
<event>
 6    4  0.2220150E-003  0.1266922E+03  0.7818608E-02  0.1232448E+00
          4   -1    0    0  502    0  0.00000000000E+00  0.00000000000E+00  0.58952641039E+03  0.58952777835E+03  0.12700000000E+01 0.  1.
         -4   -1    0    0    0  501 -0.00000000000E+00 -0.00000000000E+00 -0.10665060978E+02  0.10740410871E+02  0.12700000000E+01 0.  1.
         25    2    1    2    0    0 -0.19758396249E+02  0.59366760918E+01  0.55225133770E+03  0.56659726603E+03  0.12500113413E+03 0.  0.
    9000005    1    3    3    0    0 -0.44914795303E+02  0.23541957694E+02  0.89857280528E+02  0.10318378493E+03  0.10000000000E+01 0.  0.
    9000005    1    3    3    0    0  0.25156399054E+02 -0.17605281602E+02  0.46239405717E+03  0.46341348109E+03  0.10000000000E+01 0.  0.
         21    1    1    2  502  501  0.19758396249E+02 -0.59366760918E+01  0.26610011713E+02  0.33670923194E+02  0.00000000000E+00 0.  1.
<mgrwt>
<rscale>  1 0.12669223E+03</rscale>
<asrwt>0</asrwt>
<pdfrwt beam="1">  1        4 0.90702303E-01 0.12669223E+03</pdfrwt>
<pdfrwt beam="2">  1       -4 0.16466794E-02 0.12669223E+03</pdfrwt>
<totfact> 0.23819667E+03</totfact>
</mgrwt>
</event>
<event>
 6    4  0.2220150E-003  0.1268843E+03  0.7818608E-02  0.1232153E+00
          4   -1    0    0  502    0  0.00000000000E+00  0.00000000000E+00  0.61329511296E+03  0.61329642791E+03  0.12700000000E+01 0.  1.
         -4   -1    0    0    0  501 -0.00000000000E+00 -0.00000000000E+00 -0.95528253015E+01  0.96368755954E+01  0.12700000000E+01 0.  1.
         25    2    1    2    0    0 -0.19520015646E+02 -0.95348256931E+01  0.55868396720E+03  0.57291134678E+03  0.12501076813E+03 0.  0.
    9000005    1    3    3    0    0 -0.44884447357E+02 -0.43225813858E+02  0.47625673728E+03  0.48031714981E+03  0.10000000000E+01 0.  0.
    9000005    1    3    3    0    0  0.25364431710E+02  0.33690988165E+02  0.82427229917E+02  0.92594196963E+02  0.10000000000E+01 0.  0.
         21    1    1    2  502  501  0.19520015646E+02  0.95348256931E+01  0.45058320463E+02  0.50021956726E+02  0.00000000000E+00 0.  1.
<mgrwt>
<rscale>  1 0.12688434E+03</rscale>
<asrwt>0</asrwt>
<pdfrwt beam="1">  1        4 0.94359632E-01 0.12688434E+03</pdfrwt>
<pdfrwt beam="2">  1       -4 0.14762324E-02 0.12688434E+03</pdfrwt>
<totfact> 0.25733371E+03</totfact>
</mgrwt>
</event>
<event>
 6    4  0.2220150E-003  0.1268380E+03  0.7818608E-02  0.1232224E+00
         -4   -1    0    0    0  501 -0.00000000000E+00  0.00000000000E+00  0.40338785515E+03  0.40338985434E+03  0.12700000000E+01 0.  1.
          4   -1    0    0  502    0  0.00000000000E+00 -0.00000000000E+00 -0.15111797614E+02  0.15165069309E+02  0.12700000000E+01 0.  1.
         25    2    1    2    0    0  0.97089639562E+01  0.19271799400E+02  0.26977057612E+03  0.29810071925E+03  0.12498883486E+03 0.  0.
    9000005    1    3    3    0    0  0.46705384101E+02  0.57148285590E+02  0.15220358791E+03  0.16915747581E+03  0.10000000000E+01 0.  0.
    9000005    1    3    3    0    0 -0.36996420145E+02 -0.37876486191E+02  0.11756698822E+03  0.12894324344E+03  0.10000000000E+01 0.  0.
         21    1    1    2  502  501 -0.97089639562E+01 -0.19271799400E+02  0.11850548141E+03  0.12045420440E+03  0.00000000000E+00 0.  1.
<mgrwt>
<rscale>  1 0.12683799E+03</rscale>
<asrwt>0</asrwt>
<pdfrwt beam="2">  1        4 0.23291437E-02 0.12683799E+03</pdfrwt>
<pdfrwt beam="1">  1       -4 0.62063919E-01 0.12683799E+03</pdfrwt>
<totfact> 0.32002101E+03</totfact>
</mgrwt>
</event>
<event>
 6    4  0.2220150E-003  0.1326000E+03  0.7818608E-02  0.1223648E+00
          4   -1    0    0  502    0  0.00000000000E+00  0.00000000000E+00  0.50250286372E+02  0.50266332475E+02  0.12700000000E+01 0.  1.
         -4   -1    0    0    0  501 -0.00000000000E+00 -0.00000000000E+00 -0.18319354295E+03  0.18319794507E+03  0.12700000000E+01 0.  1.
         25    2    1    2    0    0  0.52389926494E+01 -0.43933048943E+02 -0.54417624772E+02  0.14333195990E+03  0.12500085204E+03 0.  0.
    9000005    1    3    3    0    0 -0.38226138695E+02  0.98493519178E+01 -0.62265196070E+02  0.73730604598E+02  0.10000000000E+01 0.  0.
    9000005    1    3    3    0    0  0.43465131344E+02 -0.53782400861E+02  0.78475712978E+01  0.69601355306E+02  0.10000000000E+01 0.  0.
         21    1    1    2  502  501 -0.52389926494E+01  0.43933048943E+02 -0.78525631803E+02  0.90132317641E+02  0.00000000000E+00 0.  1.
<mgrwt>
<rscale>  1 0.13260005E+03</rscale>
<asrwt>0</asrwt>
<pdfrwt beam="1">  1        4 0.77323863E-02 0.13260005E+03</pdfrwt>
<pdfrwt beam="2">  1       -4 0.28185195E-01 0.13260005E+03</pdfrwt>
<totfact> 0.22845021E+03</totfact>
</mgrwt>
</event>
<event>
 6    4  0.2220150E-003  0.1274834E+03  0.7818608E-02  0.1231238E+00
         -4   -1    0    0    0  501 -0.00000000000E+00  0.00000000000E+00  0.21517473448E+03  0.21517848234E+03  0.12700000000E+01 0.  1.
          4   -1    0    0  502    0  0.00000000000E+00 -0.00000000000E+00 -0.14922429511E+03  0.14922969929E+03  0.12700000000E+01 0.  1.
         25    2    1    2    0    0  0.20068274100E+02  0.14968795986E+02 -0.12101473157E+03  0.17577420901E+03  0.12500082727E+03 0.  0.
    9000005    1    3    3    0    0 -0.39887456003E+01 -0.47503968803E+02 -0.90293997229E+02  0.10211044549E+03  0.10000000000E+01 0.  0.
    9000005    1    3    3    0    0  0.24057019700E+02  0.62472764790E+02 -0.30720734338E+02  0.73663763517E+02  0.10000000000E+01 0.  0.
         21    1    1    2  502  501 -0.20068274100E+02 -0.14968795986E+02  0.18696517094E+03  0.18863397262E+03  0.00000000000E+00 0.  1.
<mgrwt>
<rscale>  1 0.12748336E+03</rscale>
<asrwt>0</asrwt>
<pdfrwt beam="2">  1        4 0.22958288E-01 0.12748336E+03</pdfrwt>
<pdfrwt beam="1">  1       -4 0.33104509E-01 0.12748336E+03</pdfrwt>
<totfact> 0.25439704E+02</totfact>
</mgrwt>
</event>
<event>
 6    4  0.2220150E-003  0.1356333E+03  0.7818608E-02  0.1219328E+00
         -4   -1    0    0    0  501 -0.00000000000E+00  0.00000000000E+00  0.56366556141E+02  0.56380861569E+02  0.12700000000E+01 0. -1.
          4   -1    0    0  502    0  0.00000000000E+00 -0.00000000000E+00 -0.30005990798E+03  0.30006259560E+03  0.12700000000E+01 0. -1.
         25    2    1    2    0    0 -0.20076052117E+01 -0.52605654343E+02 -0.26653266901E+03  0.29905861809E+03  0.12500003222E+03 0.  0.
    9000005    1    3    3    0    0 -0.38887739765E+02 -0.57568016250E+02 -0.24785638726E+03  0.25741041452E+03  0.10000000000E+01 0.  0.
    9000005    1    3    3    0    0  0.36880134553E+02  0.49623619071E+01 -0.18676281753E+02  0.41648203569E+02  0.10000000000E+01 0.  0.
         21    1    1    2  502  501  0.20076052117E+01  0.52605654343E+02  0.22839317169E+02  0.57384839081E+02  0.00000000000E+00 0. -1.
<mgrwt>
<rscale>  1 0.13563330E+03</rscale>
<asrwt>0</asrwt>
<pdfrwt beam="2">  1        4 0.46164369E-01 0.13563330E+03</pdfrwt>
<pdfrwt beam="1">  1       -4 0.86730852E-02 0.13563330E+03</pdfrwt>
<totfact> 0.72873449E+02</totfact>
</mgrwt>
</event>
<event>
 6    4  0.2220150E-003  0.1281065E+03  0.7818608E-02  0.1230293E+00
          4   -1    0    0  502    0  0.00000000000E+00  0.00000000000E+00  0.52181239096E+02  0.52196691597E+02  0.12700000000E+01 0.  1.
         -4   -1    0    0    0  501 -0.00000000000E+00 -0.00000000000E+00 -0.13001270450E+03  0.13001890721E+03  0.12700000000E+01 0.  1.
         25    2    1    2    0    0 -0.14764448998E+02  0.23821880965E+02 -0.38209356231E+02  0.13368331571E+03  0.12500321208E+03 0.  0.
    9000005    1    3    3    0    0 -0.55075947761E+02  0.41731562639E+02  0.82650095130E+01  0.69600242272E+02  0.10000000000E+01 0.  0.
    9000005    1    3    3    0    0  0.40311498763E+02 -0.17909681675E+02 -0.46474365744E+02  0.64083073440E+02  0.10000000000E+01 0.  0.
         21    1    1    2  502  501  0.14764448998E+02 -0.23821880965E+02 -0.39622109176E+02  0.48532283096E+02  0.00000000000E+00 0.  1.
<mgrwt>
<rscale>  1 0.12810649E+03</rscale>
<asrwt>0</asrwt>
<pdfrwt beam="1">  1        4 0.80295488E-02 0.12810649E+03</pdfrwt>
<pdfrwt beam="2">  1       -4 0.20003620E-01 0.12810649E+03</pdfrwt>
<totfact> 0.39919731E+03</totfact>
</mgrwt>
</event>
<event>
 6    4  0.2220150E-003  0.1290397E+03  0.7818608E-02  0.1228888E+00
         -4   -1    0    0    0  501 -0.00000000000E+00  0.00000000000E+00  0.51911695531E+03  0.51911850881E+03  0.12700000000E+01 0. -1.
          4   -1    0    0  502    0  0.00000000000E+00 -0.00000000000E+00 -0.30661726326E+02  0.30688016575E+02  0.12700000000E+01 0. -1.
         25    2    1    2    0    0  0.97089492025E+01 -0.30542656840E+02  0.10875708368E+03  0.16875823563E+03  0.12499648499E+03 0.  0.
    9000005    1    3    3    0    0 -0.46560131771E+02 -0.37193922628E+02  0.18903114692E+02  0.62526486356E+02  0.10000000000E+01 0.  0.
    9000005    1    3    3    0    0  0.56269080973E+02  0.66512657883E+01  0.89853968993E+02  0.10623174927E+03  0.10000000000E+01 0.  0.
         21    1    1    2  502  501 -0.97089492025E+01  0.30542656840E+02  0.37969814530E+03  0.38104828976E+03  0.00000000000E+00 0. -1.
<mgrwt>
<rscale>  1 0.12903968E+03</rscale>
<asrwt>0</asrwt>
<pdfrwt beam="2">  1        4 0.47193305E-02 0.12903968E+03</pdfrwt>
<pdfrwt beam="1">  1       -4 0.79866289E-01 0.12903968E+03</pdfrwt>
<totfact> 0.61416748E+02</totfact>
</mgrwt>
</event>
<event>
 6    4  0.2220150E-003  0.1538753E+03  0.7818608E-02  0.1195790E+00
          4   -1    0    0  502    0  0.00000000000E+00  0.00000000000E+00  0.43457668348E+02  0.43476221526E+02  0.12700000000E+01 0. -1.
         -4   -1    0    0    0  501 -0.00000000000E+00 -0.00000000000E+00 -0.44849025556E+03  0.44849205370E+03  0.12700000000E+01 0. -1.
         25    2    1    2    0    0 -0.72231366188E+02 -0.53243930450E+02 -0.12606021865E+03  0.19891901518E+03  0.12500123793E+03 0.  0.
    9000005    1    3    3    0    0 -0.16320063923E+02  0.40886221125E+02 -0.30185811629E+02  0.53387365435E+02  0.10000000000E+01 0.  0.
    9000005    1    3    3    0    0 -0.55911302265E+02 -0.94130151575E+02 -0.95874407020E+02  0.14553164975E+03  0.10000000000E+01 0.  0.
         21    1    1    2  502  501  0.72231366188E+02  0.53243930450E+02 -0.27897236856E+03  0.29304926004E+03  0.00000000000E+00 0. -1.
<mgrwt>
<rscale>  1 0.15387526E+03</rscale>
<asrwt>0</asrwt>
<pdfrwt beam="1">  1        4 0.66873609E-02 0.15387526E+03</pdfrwt>
<pdfrwt beam="2">  1       -4 0.69000063E-01 0.15387526E+03</pdfrwt>
<totfact> 0.49709209E+02</totfact>
</mgrwt>
</event>
<event>
 6    4  0.2220150E-003  0.1275010E+03  0.7818608E-02  0.1231212E+00
         -4   -1    0    0    0  501 -0.00000000000E+00  0.00000000000E+00  0.25969814731E+03  0.25970125262E+03  0.12700000000E+01 0.  1.
          4   -1    0    0  502    0  0.00000000000E+00 -0.00000000000E+00 -0.38136311467E+02  0.38157452121E+02  0.12700000000E+01 0.  1.
         25    2    1    2    0    0  0.25056964838E+02 -0.19375447585E+01  0.72457634247E+02  0.14665133555E+03  0.12499959956E+03 0.  0.
    9000005    1    3    3    0    0  0.45010341480E+02 -0.52352291463E+02  0.21710561607E+02  0.72381225099E+02  0.10000000000E+01 0.  0.
    9000005    1    3    3    0    0 -0.19953376642E+02  0.50414746704E+02  0.50747072640E+02  0.74270110450E+02  0.10000000000E+01 0.  0.
         21    1    1    2  502  501 -0.25056964838E+02  0.19375447585E+01  0.14910420159E+03  0.15120736920E+03  0.00000000000E+00 0.  1.
<mgrwt>
<rscale>  1 0.12750100E+03</rscale>
<asrwt>0</asrwt>
<pdfrwt beam="2">  1        4 0.58689899E-02 0.12750100E+03</pdfrwt>
<pdfrwt beam="1">  1       -4 0.39955427E-01 0.12750100E+03</pdfrwt>
<totfact> 0.18201705E+03</totfact>
</mgrwt>
</event>
<event>
 6    4  0.2220150E-003  0.1283275E+03  0.7818608E-02  0.1229959E+00
         -4   -1    0    0    0  501 -0.00000000000E+00  0.00000000000E+00  0.12905711123E+03  0.12906335986E+03  0.12700000000E+01 0.  1.
          4   -1    0    0  502    0  0.00000000000E+00 -0.00000000000E+00 -0.58957144006E+02  0.58970821000E+02  0.12700000000E+01 0.  1.
         25    2    1    2    0    0  0.16948826556E+02 -0.23586278875E+02  0.19653096599E+02  0.12982368328E+03  0.12499747702E+03 0.  0.
    9000005    1    3    3    0    0 -0.18588796764E+02  0.30977280723E+02  0.46917357130E+02  0.59223084065E+02  0.10000000000E+01 0.  0.
    9000005    1    3    3    0    0  0.35537623320E+02 -0.54563559598E+02 -0.27264260531E+02  0.70600599215E+02  0.10000000000E+01 0.  0.
         21    1    1    2  502  501 -0.16948826556E+02  0.23586278875E+02  0.50446870621E+02  0.58210497577E+02  0.00000000000E+00 0.  1.
<mgrwt>
<rscale>  1 0.12832749E+03</rscale>
<asrwt>0</asrwt>
<pdfrwt beam="2">  1        4 0.90718627E-02 0.12832749E+03</pdfrwt>
<pdfrwt beam="1">  1       -4 0.19856473E-01 0.12832749E+03</pdfrwt>
<totfact> 0.33037929E+03</totfact>
</mgrwt>
</event>
<event>
 6    4  0.2220150E-003  0.1291762E+03  0.7818608E-02  0.1228683E+00
         -4   -1    0    0    0  501 -0.00000000000E+00  0.00000000000E+00  0.33943142255E+02  0.33966892795E+02  0.12700000000E+01 0.  1.
          4   -1    0    0  502    0  0.00000000000E+00 -0.00000000000E+00 -0.19408869734E+03  0.19409285235E+03  0.12700000000E+01 0.  1.
         25    2    1    2    0    0 -0.11342658734E+02 -0.30528198824E+02 -0.13558669340E+03  0.18727047551E+03  0.12500341091E+03 0.  0.
    9000005    1    3    3    0    0 -0.32050521130E+02 -0.67231397929E+02 -0.12207237824E+03  0.14300336465E+03  0.10000000000E+01 0.  0.
    9000005    1    3    3    0    0  0.20707862397E+02  0.36703199105E+02 -0.13514315168E+02  0.44267110862E+02  0.10000000000E+01 0.  0.
         21    1    1    2  502  501  0.11342658734E+02  0.30528198824E+02 -0.24558861677E+02  0.40789269636E+02  0.00000000000E+00 0.  1.
<mgrwt>
<rscale>  1 0.12917616E+03</rscale>
<asrwt>0</asrwt>
<pdfrwt beam="2">  1        4 0.29861945E-01 0.12917616E+03</pdfrwt>
<pdfrwt beam="1">  1       -4 0.52241686E-02 0.12917616E+03</pdfrwt>
<totfact> 0.38592620E+03</totfact>
</mgrwt>
</event>
<event>
 6    4  0.2220150E-003  0.1275635E+03  0.7818608E-02  0.1231116E+00
         -4   -1    0    0    0  501 -0.00000000000E+00  0.00000000000E+00  0.21238264190E+03  0.21238643902E+03  0.12700000000E+01 0. -1.
          4   -1    0    0  502    0  0.00000000000E+00 -0.00000000000E+00 -0.34087269996E+02  0.34110920183E+02  0.12700000000E+01 0. -1.
         25    2    1    2    0    0 -0.24426902672E+02 -0.69632233878E+01  0.93994920193E+02  0.15845347121E+03  0.12500918951E+03 0.  0.
    9000005    1    3    3    0    0 -0.48777352587E+02  0.31792757852E+02  0.50915116149E+01  0.58454538470E+02  0.10000000000E+01 0.  0.
    9000005    1    3    3    0    0  0.24350449914E+02 -0.38755981240E+02  0.88903408578E+02  0.99998932742E+02  0.10000000000E+01 0.  0.
         21    1    1    2  502  501  0.24426902672E+02  0.69632233878E+01  0.84300451709E+02  0.88043887990E+02  0.00000000000E+00 0.  1.
<mgrwt>
<rscale>  1 0.12756354E+03</rscale>
<asrwt>0</asrwt>
<pdfrwt beam="2">  1        4 0.52463068E-02 0.12756354E+03</pdfrwt>
<pdfrwt beam="1">  1       -4 0.32676363E-01 0.12756354E+03</pdfrwt>
<totfact> 0.32208875E+03</totfact>
</mgrwt>
</event>
<event>
 6    4  0.2220150E-003  0.1297257E+03  0.7818608E-02  0.1227863E+00
          4   -1    0    0  502    0  0.00000000000E+00  0.00000000000E+00  0.20440376725E+03  0.20440771259E+03  0.12700000000E+01 0.  1.
         -4   -1    0    0    0  501 -0.00000000000E+00 -0.00000000000E+00 -0.20043363663E+03  0.20043766012E+03  0.12700000000E+01 0.  1.
         25    2    1    2    0    0  0.22464963737E+02  0.26437001642E+02  0.18198083839E+03  0.22348550468E+03  0.12500062244E+03 0.  0.
    9000005    1    3    3    0    0 -0.50547623047E+02 -0.33235496959E+01  0.65083267514E+02  0.82479936279E+02  0.10000000000E+01 0.  0.
    9000005    1    3    3    0    0  0.73012586784E+02  0.29760551338E+02  0.11689757088E+03  0.14100556841E+03  0.10000000000E+01 0.  0.
         21    1    1    2  502  501 -0.22464963737E+02 -0.26437001642E+02 -0.17801070777E+03  0.18135986803E+03  0.00000000000E+00 0.  1.
<mgrwt>
<rscale>  1 0.12972565E+03</rscale>
<asrwt>0</asrwt>
<pdfrwt beam="1">  1        4 0.31447346E-01 0.12972565E+03</pdfrwt>
<pdfrwt beam="2">  1       -4 0.30836557E-01 0.12972565E+03</pdfrwt>
<totfact> 0.16264211E+02</totfact>
</mgrwt>
</event>
<event>
 6    4  0.2220150E-003  0.1270254E+03  0.7818608E-02  0.1231937E+00
         -4   -1    0    0    0  501 -0.00000000000E+00  0.00000000000E+00  0.95001112298E+01  0.95846237995E+01  0.12700000000E+01 0. -1.
          4   -1    0    0  502    0  0.00000000000E+00 -0.00000000000E+00 -0.10510992364E+04  0.10511000037E+04  0.12700000000E+01 0. -1.
         25    2    1    2    0    0  0.22307506605E+02 -0.36254491028E+01 -0.10244999635E+04  0.10323447252E+04  0.12499875040E+03 0.  0.
    9000005    1    3    3    0    0 -0.19864884525E+02 -0.50486824021E+02 -0.28206124971E+03  0.28723349669E+03  0.10000000000E+01 0.  0.
    9000005    1    3    3    0    0  0.42172391129E+02  0.46861374919E+02 -0.74243871383E+03  0.74511122849E+03  0.10000000000E+01 0.  0.
         21    1    1    2  502  501 -0.22307506605E+02  0.36254491028E+01 -0.17099161667E+02  0.28339902291E+02  0.00000000000E+00 0. -1.
<mgrwt>
<rscale>  1 0.12702542E+03</rscale>
<asrwt>0</asrwt>
<pdfrwt beam="2">  1        4 0.16171404E+00 0.12702542E+03</pdfrwt>
<pdfrwt beam="1">  1       -4 0.14681164E-02 0.12702542E+03</pdfrwt>
<totfact> 0.70322789E+02</totfact>
</mgrwt>
</event>
<event>
 6    4  0.2220150E-003  0.1268575E+03  0.7818608E-02  0.1232195E+00
         -4   -1    0    0    0  501 -0.00000000000E+00  0.00000000000E+00  0.10747046444E+03  0.10747796811E+03  0.12700000000E+01 0.  1.
          4   -1    0    0  502    0  0.00000000000E+00 -0.00000000000E+00 -0.82876113693E+02  0.82885843912E+02  0.12700000000E+01 0.  1.
         25    2    1    2    0    0  0.20682534843E+02 -0.63067658704E+01 -0.31104526320E+02  0.13061510952E+03  0.12500109093E+03 0.  0.
    9000005    1    3    3    0    0  0.19743654555E+02 -0.27866558513E+02  0.42140222104E+02  0.54250855270E+02  0.10000000000E+01 0.  0.
    9000005    1    3    3    0    0  0.93888028819E+00  0.21559792643E+02 -0.73244748425E+02  0.76364254247E+02  0.10000000000E+01 0.  0.
         21    1    1    2  502  501 -0.20682534843E+02  0.63067658704E+01  0.55698877072E+02  0.59748702499E+02  0.00000000000E+00 0.  1.
<mgrwt>
<rscale>  1 0.12685746E+03</rscale>
<asrwt>0</asrwt>
<pdfrwt beam="2">  1        4 0.12751497E-01 0.12685746E+03</pdfrwt>
<pdfrwt beam="1">  1       -4 0.16535243E-01 0.12685746E+03</pdfrwt>
<totfact> 0.25631382E+03</totfact>
</mgrwt>
</event>
<event>
 6    4  0.2220150E-003  0.1273009E+03  0.7818608E-02  0.1231517E+00
         -4   -1    0    0    0  501 -0.00000000000E+00  0.00000000000E+00  0.49581595986E+02  0.49597858427E+02  0.12700000000E+01 0. -1.
          4   -1    0    0  502    0  0.00000000000E+00 -0.00000000000E+00 -0.13423037244E+03  0.13423638026E+03  0.12700000000E+01 0. -1.
         25    2    1    2    0    0 -0.19893253163E+00  0.24116939645E+02 -0.93707255924E+02  0.15807142824E+03  0.12499544096E+03 0.  0.
    9000005    1    3    3    0    0 -0.43567551392E+02  0.12274614393E+02 -0.10267909562E+03  0.11221762058E+03  0.10000000000E+01 0.  0.
    9000005    1    3    3    0    0  0.43368618860E+02  0.11842325252E+02  0.89718396915E+01  0.45853807657E+02  0.10000000000E+01 0.  0.
         21    1    1    2  502  501  0.19893253163E+00 -0.24116939645E+02  0.90584794682E+01  0.25762810450E+02  0.00000000000E+00 0. -1.
<mgrwt>
<rscale>  1 0.12730093E+03</rscale>
<asrwt>0</asrwt>
<pdfrwt beam="2">  1        4 0.20652539E-01 0.12730093E+03</pdfrwt>
<pdfrwt beam="1">  1       -4 0.76296510E-02 0.12730093E+03</pdfrwt>
<totfact> 0.40945306E+03</totfact>
</mgrwt>
</event>
<event>
 6    4  0.2220150E-003  0.1399072E+03  0.7818608E-02  0.1213454E+00
          4   -1    0    0  502    0  0.00000000000E+00  0.00000000000E+00  0.68149398064E+02  0.68161230597E+02  0.12700000000E+01 0. -1.
         -4   -1    0    0    0  501 -0.00000000000E+00 -0.00000000000E+00 -0.21601855515E+03  0.21602228836E+03  0.12700000000E+01 0. -1.
         25    2    1    2    0    0  0.35407332867E+02  0.51901222168E+02 -0.19494481334E+02  0.14125880641E+03  0.12500639785E+03 0.  0.
    9000005    1    3    3    0    0 -0.73616953850E+01  0.71459850553E+02  0.25430339306E+02  0.76212905451E+02  0.10000000000E+01 0.  0.
    9000005    1    3    3    0    0  0.42769028252E+02 -0.19558628385E+02 -0.44924820640E+02  0.65045900958E+02  0.10000000000E+01 0.  0.
         21    1    1    2  502  501 -0.35407332867E+02 -0.51901222168E+02 -0.12837467575E+03  0.14292471255E+03  0.00000000000E+00 0. -1.
<mgrwt>
<rscale>  1 0.13990717E+03</rscale>
<asrwt>0</asrwt>
<pdfrwt beam="1">  1        4 0.10485720E-01 0.13990717E+03</pdfrwt>
<pdfrwt beam="2">  1       -4 0.33234821E-01 0.13990717E+03</pdfrwt>
<totfact> 0.10162813E+03</totfact>
</mgrwt>
</event>
<event>
 6    4  0.2220150E-003  0.1268929E+03  0.7818608E-02  0.1232140E+00
         -4   -1    0    0    0  501 -0.00000000000E+00  0.00000000000E+00  0.84907740138E+01  0.85852282063E+01  0.12700000000E+01 0.  1.
          4   -1    0    0  502    0  0.00000000000E+00 -0.00000000000E+00 -0.14951093785E+04  0.14951099179E+04  0.12700000000E+01 0.  1.
         25    2    1    2    0    0 -0.36331194859E+01  0.21545130289E+02 -0.14718796459E+04  0.14773393289E+04  0.12499763466E+03 0.  0.
    9000005    1    3    3    0    0 -0.16628913034E+02 -0.39811847909E+01 -0.25753407645E+02  0.30929089647E+02  0.10000000000E+01 0.  0.
    9000005    1    3    3    0    0  0.12995793548E+02  0.25526315080E+02 -0.14461262382E+04  0.14464102393E+04  0.10000000000E+01 0.  0.
         21    1    1    2  502  501  0.36331194859E+01 -0.21545130289E+02 -0.14738958558E+02  0.26355817114E+02  0.00000000000E+00 0.  1.
<mgrwt>
<rscale>  1 0.12689287E+03</rscale>
<asrwt>0</asrwt>
<pdfrwt beam="2">  1        4 0.23002393E+00 0.12689287E+03</pdfrwt>
<pdfrwt beam="1">  1       -4 0.13135813E-02 0.12689287E+03</pdfrwt>
<totfact> 0.30834906E+02</totfact>
</mgrwt>
</event>
<event>
 6    4  0.2220150E-003  0.1277951E+03  0.7818608E-02  0.1230765E+00
         -4   -1    0    0    0  501 -0.00000000000E+00  0.00000000000E+00  0.26063419883E+02  0.26094343372E+02  0.12700000000E+01 0. -1.
          4   -1    0    0  502    0  0.00000000000E+00 -0.00000000000E+00 -0.27551754332E+03  0.27552047034E+03  0.12700000000E+01 0. -1.
         25    2    1    2    0    0 -0.11193777614E+02  0.24115500555E+02 -0.24253287181E+03  0.27414188616E+03  0.12499888725E+03 0.  0.
    9000005    1    3    3    0    0 -0.23331466554E+02 -0.41778973889E+00 -0.24548476414E+03  0.24659339266E+03  0.10000000000E+01 0.  0.
    9000005    1    3    3    0    0  0.12137688940E+02  0.24533290294E+02  0.29518923333E+01  0.27548493494E+02  0.10000000000E+01 0.  0.
         21    1    1    2  502  501  0.11193777614E+02 -0.24115500555E+02 -0.69212516271E+01  0.27472927554E+02  0.00000000000E+00 0. -1.
<mgrwt>
<rscale>  1 0.12779507E+03</rscale>
<asrwt>0</asrwt>
<pdfrwt beam="2">  1        4 0.42389916E-01 0.12779507E+03</pdfrwt>
<pdfrwt beam="1">  1       -4 0.40123610E-02 0.12779507E+03</pdfrwt>
<totfact> 0.29814927E+03</totfact>
</mgrwt>
</event>
<event>
 6    4  0.2220150E-003  0.1300039E+03  0.7818608E-02  0.1227450E+00
          4   -1    0    0  502    0  0.00000000000E+00  0.00000000000E+00  0.38456195997E+02  0.38477160896E+02  0.12700000000E+01 0. -1.
         -4   -1    0    0    0  501 -0.00000000000E+00 -0.00000000000E+00 -0.18116155046E+03  0.18116600195E+03  0.12700000000E+01 0. -1.
         25    2    1    2    0    0  0.23800508923E+02 -0.26645544154E+02 -0.10033144416E+03  0.16421755936E+03  0.12499823545E+03 0.  0.
    9000005    1    3    3    0    0 -0.11518300174E+02  0.69660643418E+01 -0.11302346664E+03  0.11382662827E+03  0.10000000000E+01 0.  0.
    9000005    1    3    3    0    0  0.35318809097E+02 -0.33611608495E+02  0.12692022480E+02  0.50390931092E+02  0.10000000000E+01 0.  0.
         21    1    1    2  502  501 -0.23800508923E+02  0.26645544154E+02 -0.42373910302E+02  0.55425603492E+02  0.00000000000E+00 0. -1.
<mgrwt>
<rscale>  1 0.13000388E+03</rscale>
<asrwt>0</asrwt>
<pdfrwt beam="1">  1        4 0.59182931E-02 0.13000388E+03</pdfrwt>
<pdfrwt beam="2">  1       -4 0.27872962E-01 0.13000388E+03</pdfrwt>
<totfact> 0.35963298E+03</totfact>
</mgrwt>
</event>
<event>
 6    4  0.2220150E-003  0.1279615E+03  0.7818608E-02  0.1230512E+00
          4   -1    0    0  502    0  0.00000000000E+00  0.00000000000E+00  0.22411775608E+02  0.22447730084E+02  0.12700000000E+01 0.  1.
         -4   -1    0    0    0  501 -0.00000000000E+00 -0.00000000000E+00 -0.27598390909E+03  0.27598683116E+03  0.12700000000E+01 0.  1.
         25    2    1    2    0    0 -0.27173566455E+02  0.26036617957E+01 -0.18809366110E+03  0.22749365546E+03  0.12501582364E+03 0.  0.
    9000005    1    3    3    0    0 -0.34789720457E+02  0.67056701616E+01 -0.20523182522E+03  0.20826999963E+03  0.10000000000E+01 0.  0.
    9000005    1    3    3    0    0  0.76161540027E+01 -0.41020083658E+01  0.17138164116E+02  0.19223655836E+02  0.10000000000E+01 0.  0.
         21    1    1    2  502  501  0.27173566455E+02 -0.26036617957E+01 -0.65478472376E+02  0.70940905783E+02  0.00000000000E+00 0.  1.
<mgrwt>
<rscale>  1 0.12796147E+03</rscale>
<asrwt>0</asrwt>
<pdfrwt beam="1">  1        4 0.34509562E-02 0.12796147E+03</pdfrwt>
<pdfrwt beam="2">  1       -4 0.42462051E-01 0.12796147E+03</pdfrwt>
<totfact> 0.37719858E+03</totfact>
</mgrwt>
</event>
<event>
 6    4  0.2220150E-003  0.1291502E+03  0.7818608E-02  0.1228722E+00
          4   -1    0    0  502    0  0.00000000000E+00  0.00000000000E+00  0.13623934668E+03  0.13624526591E+03  0.12700000000E+01 0. -1.
         -4   -1    0    0    0  501 -0.00000000000E+00 -0.00000000000E+00 -0.16851480616E+03  0.16851959173E+03  0.12700000000E+01 0. -1.
         25    2    1    2    0    0 -0.30732382990E+02 -0.10487750296E+02  0.10328395362E+03  0.16537035720E+03  0.12500123077E+03 0.  0.
    9000005    1    3    3    0    0  0.34026930461E+02  0.13524697103E+02 -0.49600998661E+01  0.36964199153E+02  0.10000000000E+01 0.  0.
    9000005    1    3    3    0    0 -0.64759313452E+02 -0.24012447399E+02  0.10824405349E+03  0.12840615805E+03  0.10000000000E+01 0.  0.
         21    1    1    2  502  501  0.30732382990E+02  0.10487750296E+02 -0.13555941311E+03  0.13939450044E+03  0.00000000000E+00 0. -1.
<mgrwt>
<rscale>  1 0.12915022E+03</rscale>
<asrwt>0</asrwt>
<pdfrwt beam="1">  1        4 0.20960723E-01 0.12915022E+03</pdfrwt>
<pdfrwt beam="2">  1       -4 0.25926178E-01 0.12915022E+03</pdfrwt>
<totfact> 0.47661458E+02</totfact>
</mgrwt>
</event>
<event>
 6    4  0.2220150E-003  0.1275141E+03  0.7818608E-02  0.1231192E+00
         -4   -1    0    0    0  501 -0.00000000000E+00  0.00000000000E+00  0.21726626027E+02  0.21763712425E+02  0.12700000000E+01 0.  1.
          4   -1    0    0  502    0  0.00000000000E+00 -0.00000000000E+00 -0.27810002050E+03  0.27810292034E+03  0.12700000000E+01 0.  1.
         25    2    1    2    0    0 -0.92793127719E+01  0.23376068600E+02 -0.18938349642E+03  0.22831111118E+03  0.12500923382E+03 0.  0.
    9000005    1    3    3    0    0  0.28324734530E+02 -0.41239093606E+02 -0.99671804511E+02  0.11152767388E+03  0.10000000000E+01 0.  0.
    9000005    1    3    3    0    0 -0.37604047302E+02  0.64615162206E+02 -0.89711691908E+02  0.11678343729E+03  0.10000000000E+01 0.  0.
         21    1    1    2  502  501  0.92793127719E+01 -0.23376068600E+02 -0.66989898050E+02  0.71555521587E+02  0.00000000000E+00 0. -1.
<mgrwt>
<rscale>  1 0.12751414E+03</rscale>
<asrwt>0</asrwt>
<pdfrwt beam="2">  1        4 0.42787692E-01 0.12751414E+03</pdfrwt>
<pdfrwt beam="1">  1       -4 0.33456339E-02 0.12751414E+03</pdfrwt>
<totfact> 0.38975736E+03</totfact>
</mgrwt>
</event>
<event>
 6    4  0.2220150E-003  0.1357095E+03  0.7818608E-02  0.1219222E+00
         -4   -1    0    0    0  501 -0.00000000000E+00  0.00000000000E+00  0.29459809279E+01  0.32080685198E+01  0.12700000000E+01 0. -1.
          4   -1    0    0  502    0  0.00000000000E+00 -0.00000000000E+00 -0.29358171856E+04  0.29358174603E+04  0.12700000000E+01 0. -1.
         25    2    1    2    0    0  0.37032776868E+02  0.37688040985E+02 -0.19318654962E+04  0.19366262853E+04  0.12500103409E+03 0.  0.
    9000005    1    3    3    0    0 -0.40241509868E+01  0.74763207854E+01 -0.69016030075E+01  0.10987323956E+02  0.10000000000E+01 0.  0.
    9000005    1    3    3    0    0  0.41056927855E+02  0.30211720200E+02 -0.19249638932E+04  0.19256389613E+04  0.10000000000E+01 0.  0.
         21    1    1    2  502  501 -0.37032776868E+02 -0.37688040985E+02 -0.10010057085E+04  0.10023992435E+04  0.00000000000E+00 0.  1.
<mgrwt>
<rscale>  1 0.13570952E+03</rscale>
<asrwt>0</asrwt>
<pdfrwt beam="2">  1        4 0.45168212E+00 0.13570952E+03</pdfrwt>
<pdfrwt beam="1">  1       -4 0.47341190E-03 0.13570952E+03</pdfrwt>
<totfact> 0.61186894E+01</totfact>
</mgrwt>
</event>
<event>
 6    4  0.2220150E-003  0.1299617E+03  0.7818608E-02  0.1227513E+00
         -4   -1    0    0    0  501 -0.00000000000E+00  0.00000000000E+00  0.55606868399E+03  0.55607013426E+03  0.12700000000E+01 0.  1.
          4   -1    0    0  502    0  0.00000000000E+00 -0.00000000000E+00 -0.20075469242E+02  0.20115600048E+02  0.12700000000E+01 0.  1.
         25    2    1    2    0    0 -0.66095609249E+01 -0.34734182094E+02  0.20115338413E+03  0.23948429109E+03  0.12505955392E+03 0.  0.
    9000005    1    3    3    0    0 -0.27805036042E+02 -0.93611322919E+01 -0.57841570950E+01  0.29920015046E+02  0.10000000000E+01 0.  0.
    9000005    1    3    3    0    0  0.21195475117E+02 -0.25373049802E+02  0.20693754123E+03  0.20956427604E+03  0.10000000000E+01 0.  0.
         21    1    1    2  502  501  0.66095609249E+01  0.34734182094E+02  0.33483983061E+03  0.33670144322E+03  0.00000000000E+00 0.  1.
<mgrwt>
<rscale>  1 0.12996169E+03</rscale>
<asrwt>0</asrwt>
<pdfrwt beam="2">  1        4 0.30917326E-02 0.12996169E+03</pdfrwt>
<pdfrwt beam="1">  1       -4 0.85552216E-01 0.12996169E+03</pdfrwt>
<totfact> 0.10313822E+03</totfact>
</mgrwt>
</event>
<event>
 6    4  0.2220150E-003  0.1291020E+03  0.7818608E-02  0.1228794E+00
         -4   -1    0    0    0  501 -0.00000000000E+00  0.00000000000E+00  0.32167587707E+02  0.32192648212E+02  0.12700000000E+01 0.  1.
          4   -1    0    0  502    0  0.00000000000E+00 -0.00000000000E+00 -0.23137664292E+03  0.23138012834E+03  0.12700000000E+01 0.  1.
         25    2    1    2    0    0 -0.25591258180E+02 -0.19608640579E+02 -0.19059171047E+03  0.23020108329E+03  0.12501170893E+03 0.  0.
    9000005    1    3    3    0    0 -0.43195993153E+01 -0.31684099821E+02  0.56074668033E+01  0.32480529609E+02  0.10000000000E+01 0.  0.
    9000005    1    3    3    0    0 -0.21271658865E+02  0.12075459242E+02 -0.19619917727E+03  0.19772055368E+03  0.10000000000E+01 0.  0.
         21    1    1    2  502  501  0.25591258180E+02  0.19608640579E+02 -0.86173447490E+01  0.33371693261E+02  0.00000000000E+00 0.  1.
<mgrwt>
<rscale>  1 0.12910205E+03</rscale>
<asrwt>0</asrwt>
<pdfrwt beam="2">  1        4 0.35598601E-01 0.12910205E+03</pdfrwt>
<pdfrwt beam="1">  1       -4 0.49510556E-02 0.12910205E+03</pdfrwt>
<totfact> 0.30076101E+03</totfact>
</mgrwt>
</event>
<event>
 6    4  0.2220150E-003  0.1389238E+03  0.7818608E-02  0.1214784E+00
          4   -1    0    0  502    0  0.00000000000E+00  0.00000000000E+00  0.95776822264E+03  0.95776906465E+03  0.12700000000E+01 0.  1.
         -4   -1    0    0    0  501 -0.00000000000E+00 -0.00000000000E+00 -0.25321954752E+02  0.25353782606E+02  0.12700000000E+01 0.  1.
         25    2    1    2    0    0  0.97443483986E+01  0.59810926989E+02  0.90669948618E+03  0.91728064133E+03  0.12501006921E+03 0.  0.
    9000005    1    3    3    0    0 -0.66983576532E+01  0.97472654177E+02  0.65452377811E+03  0.66177652000E+03  0.10000000000E+01 0.  0.
    9000005    1    3    3    0    0  0.16442706052E+02 -0.37661727187E+02  0.25217570807E+03  0.25550412133E+03  0.10000000000E+01 0.  0.
         21    1    1    2  502  501 -0.97443483986E+01 -0.59810926989E+02  0.25746781710E+02  0.65842205928E+02  0.00000000000E+00 0.  1.
<mgrwt>
<rscale>  1 0.13892378E+03</rscale>
<asrwt>0</asrwt>
<pdfrwt beam="1">  1        4 0.14735147E+00 0.13892378E+03</pdfrwt>
<pdfrwt beam="2">  1       -4 0.38981984E-02 0.13892378E+03</pdfrwt>
<totfact> 0.19944015E+02</totfact>
</mgrwt>
</event>
<event>
 6    4  0.2220150E-003  0.1276438E+03  0.7818608E-02  0.1230994E+00
          4   -1    0    0  502    0  0.00000000000E+00  0.00000000000E+00  0.36348174613E+03  0.36348396480E+03  0.12700000000E+01 0. -1.
         -4   -1    0    0    0  501 -0.00000000000E+00 -0.00000000000E+00 -0.17585430324E+02  0.17631229670E+02  0.12700000000E+01 0. -1.
         25    2    1    2    0    0  0.18708414459E+02 -0.17866316018E+02  0.31996886229E+03  0.34448948130E+03  0.12499487938E+03 0.  0.
    9000005    1    3    3    0    0 -0.38822059168E+02 -0.92773668959E+01  0.25146729912E+03  0.25461740778E+03  0.10000000000E+01 0.  0.
    9000005    1    3    3    0    0  0.57530473627E+02 -0.85889491223E+01  0.68501563170E+02  0.89872073524E+02  0.10000000000E+01 0.  0.
         21    1    1    2  502  501 -0.18708414459E+02  0.17866316018E+02  0.25927453507E+02  0.36625713167E+02  0.00000000000E+00 0. -1.
<mgrwt>
<rscale>  1 0.12764376E+03</rscale>
<asrwt>0</asrwt>
<pdfrwt beam="1">  1        4 0.55923962E-01 0.12764376E+03</pdfrwt>
<pdfrwt beam="2">  1       -4 0.27091445E-02 0.12764376E+03</pdfrwt>
<totfact> 0.31515915E+03</totfact>
</mgrwt>
</event>
<event>
 6    4  0.2220150E-003  0.1372745E+03  0.7818608E-02  0.1217044E+00
         -4   -1    0    0    0  501 -0.00000000000E+00  0.00000000000E+00  0.14891952062E+03  0.14892493587E+03  0.12700000000E+01 0. -1.
          4   -1    0    0  502    0  0.00000000000E+00 -0.00000000000E+00 -0.63236658239E+02  0.63249409841E+02  0.12700000000E+01 0. -1.
         25    2    1    2    0    0  0.89542681427E+01 -0.56035494341E+02  0.63433398296E+02  0.15122195284E+03  0.12499650978E+03 0.  0.
    9000005    1    3    3    0    0 -0.26474559214E+02 -0.23272851172E+02  0.89621215557E+02  0.96309346198E+02  0.10000000000E+01 0.  0.
    9000005    1    3    3    0    0  0.35428827356E+02 -0.32762643169E+02 -0.26187817261E+02  0.54912606641E+02  0.10000000000E+01 0.  0.
         21    1    1    2  502  501 -0.89542681427E+01  0.56035494341E+02  0.22249464089E+02  0.60952392868E+02  0.00000000000E+00 0. -1.
<mgrwt>
<rscale>  1 0.13727448E+03</rscale>
<asrwt>0</asrwt>
<pdfrwt beam="2">  1        4 0.97301142E-02 0.13727448E+03</pdfrwt>
<pdfrwt beam="1">  1       -4 0.22912093E-01 0.13727448E+03</pdfrwt>
<totfact> 0.23027403E+03</totfact>
</mgrwt>
</event>
<event>
 6    4  0.2220150E-003  0.1287399E+03  0.7818608E-02  0.1229338E+00
          4   -1    0    0  502    0  0.00000000000E+00  0.00000000000E+00  0.51817940479E+02  0.51833501286E+02  0.12700000000E+01 0. -1.
         -4   -1    0    0    0  501 -0.00000000000E+00 -0.00000000000E+00 -0.16005996606E+03  0.16006500441E+03  0.12700000000E+01 0. -1.
         25    2    1    2    0    0  0.29887327923E+02  0.74630027104E+01 -0.36487050473E+02  0.13381057300E+03  0.12500006325E+03 0.  0.
    9000005    1    3    3    0    0  0.26580165205E+02 -0.16119272817E+02  0.41728494314E+02  0.52044244409E+02  0.10000000000E+01 0.  0.
    9000005    1    3    3    0    0  0.33071627189E+01  0.23582275527E+02 -0.78215544787E+02  0.81766328587E+02  0.10000000000E+01 0.  0.
         21    1    1    2  502  501 -0.29887327923E+02 -0.74630027104E+01 -0.71754975110E+02  0.78087932697E+02  0.00000000000E+00 0. -1.
<mgrwt>
<rscale>  1 0.12873991E+03</rscale>
<asrwt>0</asrwt>
<pdfrwt beam="1">  1        4 0.79735754E-02 0.12873991E+03</pdfrwt>
<pdfrwt beam="2">  1       -4 0.24626195E-01 0.12873991E+03</pdfrwt>
<totfact> 0.27704962E+03</totfact>
</mgrwt>
</event>
<event>
 6    4  0.2220150E-003  0.1276420E+03  0.7818608E-02  0.1230997E+00
          4   -1    0    0  502    0  0.00000000000E+00  0.00000000000E+00  0.64359667507E+02  0.64372196650E+02  0.12700000000E+01 0. -1.
         -4   -1    0    0    0  501 -0.00000000000E+00 -0.00000000000E+00 -0.10607538474E+03  0.10608298708E+03  0.12700000000E+01 0. -1.
         25    2    1    2    0    0 -0.51740116841E+00  0.25840038390E+02 -0.78897461407E+01  0.12788557475E+03  0.12499798738E+03 0.  0.
    9000005    1    3    3    0    0  0.29036959958E+02 -0.27030936419E+02  0.35600266323E+02  0.53312245587E+02  0.10000000000E+01 0.  0.
    9000005    1    3    3    0    0 -0.29554361126E+02  0.52870974809E+02 -0.43490012464E+02  0.74573329166E+02  0.10000000000E+01 0.  0.
         21    1    1    2  502  501  0.51740116841E+00 -0.25840038390E+02 -0.33825971091E+02  0.42569608974E+02  0.00000000000E+00 0.  1.
<mgrwt>
<rscale>  1 0.12764197E+03</rscale>
<asrwt>0</asrwt>
<pdfrwt beam="1">  1        4 0.99030359E-02 0.12764197E+03</pdfrwt>
<pdfrwt beam="2">  1       -4 0.16320839E-01 0.12764197E+03</pdfrwt>
<totfact> 0.40356414E+03</totfact>
</mgrwt>
</event>
<event>
 6    4  0.2220150E-003  0.1278894E+03  0.7818608E-02  0.1230621E+00
          4   -1    0    0  502    0  0.00000000000E+00  0.00000000000E+00  0.16768988759E+02  0.16817011745E+02  0.12700000000E+01 0.  1.
         -4   -1    0    0    0  501 -0.00000000000E+00 -0.00000000000E+00 -0.42551910900E+03  0.42552100421E+03  0.12700000000E+01 0.  1.
         25    2    1    2    0    0 -0.27002771189E+02  0.12179670965E+01 -0.24498655735E+03  0.27635868705E+03  0.12500031010E+03 0.  0.
    9000005    1    3    3    0    0 -0.49452482337E+01 -0.60393397054E+02 -0.94598643756E+02  0.11234643425E+03  0.10000000000E+01 0.  0.
    9000005    1    3    3    0    0 -0.22057522956E+02  0.61611364150E+02 -0.15038791360E+03  0.16401225280E+03  0.10000000000E+01 0.  0.
         21    1    1    2  502  501  0.27002771189E+02 -0.12179670965E+01 -0.16376356288E+03  0.16597932891E+03  0.00000000000E+00 0.  1.
<mgrwt>
<rscale>  1 0.12788945E+03</rscale>
<asrwt>0</asrwt>
<pdfrwt beam="1">  1        4 0.25836846E-02 0.12788945E+03</pdfrwt>
<pdfrwt beam="2">  1       -4 0.65468310E-01 0.12788945E+03</pdfrwt>
<totfact> 0.24379994E+03</totfact>
</mgrwt>
</event>
<event>
 6    4  0.2220150E-003  0.1267274E+03  0.7818608E-02  0.1232394E+00
         -4   -1    0    0    0  501 -0.00000000000E+00  0.00000000000E+00  0.43850132492E+02  0.43868519687E+02  0.12700000000E+01 0.  1.
          4   -1    0    0  502    0  0.00000000000E+00 -0.00000000000E+00 -0.13448883257E+03  0.13449482885E+03  0.12700000000E+01 0.  1.
         25    2    1    2    0    0 -0.40418470749E+01 -0.20705993802E+02 -0.92920683185E+02  0.15714349571E+03  0.12495899396E+03 0.  0.
    9000005    1    3    3    0    0  0.43880090402E+02 -0.52637826905E+02 -0.42866851339E+02  0.80837924879E+02  0.10000000000E+01 0.  0.
    9000005    1    3    3    0    0 -0.47921937477E+02  0.31931833103E+02 -0.50053831846E+02  0.76305570827E+02  0.10000000000E+01 0.  0.
         21    1    1    2  502  501  0.40418470749E+01  0.20705993802E+02  0.22819831053E+01  0.21219852827E+02  0.00000000000E+00 0.  1.
<mgrwt>
<rscale>  1 0.12672736E+03</rscale>
<asrwt>0</asrwt>
<pdfrwt beam="2">  1        4 0.20692465E-01 0.12672736E+03</pdfrwt>
<pdfrwt beam="1">  1       -4 0.67480499E-02 0.12672736E+03</pdfrwt>
<totfact> 0.49861265E+03</totfact>
</mgrwt>
</event>
<event>
 6    4  0.2220150E-003  0.1323081E+03  0.7818608E-02  0.1224071E+00
         -4   -1    0    0    0  501 -0.00000000000E+00  0.00000000000E+00  0.16995109202E+02  0.17042495028E+02  0.12700000000E+01 0. -1.
          4   -1    0    0  502    0  0.00000000000E+00 -0.00000000000E+00 -0.50259447053E+03  0.50259607510E+03  0.12700000000E+01 0. -1.
         25    2    1    2    0    0 -0.34017976931E+02  0.26909331612E+02 -0.42498251993E+03  0.44510175813E+03  0.12499639179E+03 0.  0.
    9000005    1    3    3    0    0 -0.38569196618E+02  0.12208578758E+02 -0.31409814578E+02  0.51227031682E+02  0.10000000000E+01 0.  0.
    9000005    1    3    3    0    0  0.45512196879E+01  0.14700752855E+02 -0.39357270535E+03  0.39387472645E+03  0.10000000000E+01 0.  0.
         21    1    1    2  502  501  0.34017976931E+02 -0.26909331612E+02 -0.60616841395E+02  0.74536811999E+02  0.00000000000E+00 0. -1.
<mgrwt>
<rscale>  1 0.13230810E+03</rscale>
<asrwt>0</asrwt>
<pdfrwt beam="2">  1        4 0.77325983E-01 0.13230810E+03</pdfrwt>
<pdfrwt beam="1">  1       -4 0.26184011E-02 0.13230810E+03</pdfrwt>
<totfact> 0.16792709E+03</totfact>
</mgrwt>
</event>
<event>
 6    4  0.2220150E-003  0.1269257E+03  0.7818608E-02  0.1232090E+00
          4   -1    0    0  502    0  0.00000000000E+00  0.00000000000E+00  0.12053475571E+03  0.12054144613E+03  0.12700000000E+01 0. -1.
         -4   -1    0    0    0  501 -0.00000000000E+00 -0.00000000000E+00 -0.46354136615E+02  0.46371530936E+02  0.12700000000E+01 0. -1.
         25    2    1    2    0    0  0.26880877698E+01  0.21865261101E+02  0.57834512211E+02  0.13948104915E+03  0.12499926724E+03 0.  0.
    9000005    1    3    3    0    0 -0.52566070508E+02  0.13333615844E+02  0.63226176711E+02  0.83303820451E+02  0.10000000000E+01 0.  0.
    9000005    1    3    3    0    0  0.55254158278E+02  0.85316452562E+01 -0.53916645004E+01  0.56177228695E+02  0.10000000000E+01 0.  0.
         21    1    1    2  502  501 -0.26880877698E+01 -0.21865261101E+02  0.16346106884E+02  0.27431927915E+02  0.00000000000E+00 0.  1.
<mgrwt>
<rscale>  1 0.12692570E+03</rscale>
<asrwt>0</asrwt>
<pdfrwt beam="1">  1        4 0.18545661E-01 0.12692570E+03</pdfrwt>
<pdfrwt beam="2">  1       -4 0.71332584E-02 0.12692570E+03</pdfrwt>
<totfact> 0.55424351E+03</totfact>
</mgrwt>
</event>
<event>
 6    4  0.2220150E-003  0.1266598E+03  0.7818608E-02  0.1232498E+00
          4   -1    0    0  502    0  0.00000000000E+00  0.00000000000E+00  0.24070550852E+02  0.24104031163E+02  0.12700000000E+01 0.  1.
         -4   -1    0    0    0  501 -0.00000000000E+00 -0.00000000000E+00 -0.22574348472E+03  0.22574705711E+03  0.12700000000E+01 0.  1.
         25    2    1    2    0    0  0.30461168658E+01  0.20223247411E+02 -0.16704546129E+03  0.20963516579E+03  0.12499783212E+03 0.  0.
    9000005    1    3    3    0    0 -0.54932185990E+02  0.32807830502E+02 -0.11037799707E+03  0.12758605346E+03  0.10000000000E+01 0.  0.
    9000005    1    3    3    0    0  0.57978302856E+02 -0.12584583091E+02 -0.56667464219E+02  0.82049112333E+02  0.10000000000E+01 0.  0.
         21    1    1    2  502  501 -0.30461168658E+01 -0.20223247411E+02 -0.34627472575E+02  0.40215922478E+02  0.00000000000E+00 0.  1.
<mgrwt>
<rscale>  1 0.12665985E+03</rscale>
<asrwt>0</asrwt>
<pdfrwt beam="1">  1        4 0.37060120E-02 0.12665985E+03</pdfrwt>
<pdfrwt beam="2">  1       -4 0.34732616E-01 0.12665985E+03</pdfrwt>
<totfact> 0.49784051E+03</totfact>
</mgrwt>
</event>
<event>
 6    4  0.2220150E-003  0.1350169E+03  0.7818608E-02  0.1220196E+00
          4   -1    0    0  502    0  0.00000000000E+00  0.00000000000E+00  0.33005963372E+02  0.33030387798E+02  0.12700000000E+01 0.  1.
         -4   -1    0    0    0  501 -0.00000000000E+00 -0.00000000000E+00 -0.26330833513E+03  0.26331139787E+03  0.12700000000E+01 0.  1.
         25    2    1    2    0    0  0.28973311558E+02 -0.42048022490E+02 -0.15808950096E+03  0.20789865316E+03  0.12498828224E+03 0.  0.
    9000005    1    3    3    0    0  0.78791885461E+01 -0.15955133087E+02 -0.17100543548E+03  0.17193169239E+03  0.10000000000E+01 0.  0.
    9000005    1    3    3    0    0  0.21094123012E+02 -0.26092889402E+02  0.12915934521E+02  0.35966960777E+02  0.10000000000E+01 0.  0.
         21    1    1    2  502  501 -0.28973311558E+02  0.42048022490E+02 -0.72212870798E+02  0.88443132502E+02  0.00000000000E+00 0.  1.
<mgrwt>
<rscale>  1 0.13501689E+03</rscale>
<asrwt>0</asrwt>
<pdfrwt beam="1">  1        4 0.50799551E-02 0.13501689E+03</pdfrwt>
<pdfrwt beam="2">  1       -4 0.40511088E-01 0.13501689E+03</pdfrwt>
<totfact> 0.22659369E+03</totfact>
</mgrwt>
</event>
<event>
 6    4  0.2220150E-003  0.1278455E+03  0.7818608E-02  0.1230688E+00
          4   -1    0    0  502    0  0.00000000000E+00  0.00000000000E+00  0.77216813091E+03  0.77216917530E+03  0.12700000000E+01 0.  1.
         -4   -1    0    0    0  501 -0.00000000000E+00 -0.00000000000E+00 -0.11800594463E+02  0.11868737493E+02  0.12700000000E+01 0.  1.
         25    2    1    2    0    0  0.22672448532E+02 -0.14324928482E+02  0.73835710178E+03  0.74934349347E+03  0.12500087182E+03 0.  0.
    9000005    1    3    3    0    0  0.73339402014E+02 -0.51807192102E+01  0.50850749636E+03  0.51379605058E+03  0.10000000000E+01 0.  0.
    9000005    1    3    3    0    0 -0.50666953482E+02 -0.91442092722E+01  0.22984960542E+03  0.23554744288E+03  0.10000000000E+01 0.  0.
         21    1    1    2  502  501 -0.22672448532E+02  0.14324928482E+02  0.22010434666E+02  0.34694419330E+02  0.00000000000E+00 0.  1.
<mgrwt>
<rscale>  1 0.12784546E+03</rscale>
<asrwt>0</asrwt>
<pdfrwt beam="1">  1        4 0.11880039E+00 0.12784546E+03</pdfrwt>
<pdfrwt beam="2">  1       -4 0.18207986E-02 0.12784546E+03</pdfrwt>
<totfact> 0.10927828E+03</totfact>
</mgrwt>
</event>
<event>
 6    4  0.2220150E-003  0.1283518E+03  0.7818608E-02  0.1229922E+00
          4   -1    0    0  502    0  0.00000000000E+00  0.00000000000E+00  0.56010108572E+02  0.56024505016E+02  0.12700000000E+01 0.  1.
         -4   -1    0    0    0  501 -0.00000000000E+00 -0.00000000000E+00 -0.11423036581E+03  0.11423742545E+03  0.12700000000E+01 0.  1.
         25    2    1    2    0    0  0.16314509695E+02  0.24147737900E+02 -0.35106894218E+02  0.13306644657E+03  0.12499963483E+03 0.  0.
    9000005    1    3    3    0    0  0.35915169894E+02 -0.36463407493E+02  0.13489789622E+02  0.52938208683E+02  0.10000000000E+01 0.  0.
    9000005    1    3    3    0    0 -0.19600660199E+02  0.60611145393E+02 -0.48596683840E+02  0.80128237884E+02  0.10000000000E+01 0.  0.
         21    1    1    2  502  501 -0.16314509695E+02 -0.24147737900E+02 -0.23113363018E+02  0.37195483896E+02  0.00000000000E+00 0.  1.
<mgrwt>
<rscale>  1 0.12835180E+03</rscale>
<asrwt>0</asrwt>
<pdfrwt beam="1">  1        4 0.86185903E-02 0.12835180E+03</pdfrwt>
<pdfrwt beam="2">  1       -4 0.17575553E-01 0.12835180E+03</pdfrwt>
<totfact> 0.44734964E+03</totfact>
</mgrwt>
</event>
<event>
 6    4  0.2220150E-003  0.1296900E+03  0.7818608E-02  0.1227916E+00
         -4   -1    0    0    0  501 -0.00000000000E+00  0.00000000000E+00  0.93898680453E+01  0.94753639459E+01  0.12700000000E+01 0. -1.
          4   -1    0    0  502    0  0.00000000000E+00 -0.00000000000E+00 -0.15809580410E+04  0.15809585511E+04  0.12700000000E+01 0. -1.
         25    2    1    2    0    0  0.29843554808E+02  0.17458908131E+02 -0.15336309612E+04  0.15391047492E+04  0.12499620983E+03 0.  0.
    9000005    1    3    3    0    0 -0.16844658276E+02  0.15680513366E+02 -0.53650221709E+02  0.58386362288E+02  0.10000000000E+01 0.  0.
    9000005    1    3    3    0    0  0.46688213084E+02  0.17783947651E+01 -0.14799807395E+04  0.14807183869E+04  0.10000000000E+01 0.  0.
         21    1    1    2  502  501 -0.29843554808E+02 -0.17458908131E+02 -0.37937211785E+02  0.51329165927E+02  0.00000000000E+00 0. -1.
<mgrwt>
<rscale>  1 0.12969003E+03</rscale>
<asrwt>0</asrwt>
<pdfrwt beam="2">  1        4 0.24323072E+00 0.12969003E+03</pdfrwt>
<pdfrwt beam="1">  1       -4 0.14512122E-02 0.12969003E+03</pdfrwt>
<totfact> 0.22279909E+02</totfact>
</mgrwt>
</event>
<event>
 6    4  0.2220150E-003  0.1305598E+03  0.7818608E-02  0.1226627E+00
         -4   -1    0    0    0  501 -0.00000000000E+00  0.00000000000E+00  0.12871518375E+03  0.12872144898E+03  0.12700000000E+01 0. -1.
          4   -1    0    0  502    0  0.00000000000E+00 -0.00000000000E+00 -0.65363526545E+02  0.65375863302E+02  0.12700000000E+01 0. -1.
         25    2    1    2    0    0 -0.28129910790E+02  0.25051630584E+02  0.12986100697E+02  0.13120402680E+03  0.12500792680E+03 0.  0.
    9000005    1    3    3    0    0  0.48608631168E+02  0.17788214031E+02 -0.51041568399E+01  0.52021841562E+02  0.10000000000E+01 0.  0.
    9000005    1    3    3    0    0 -0.76738541958E+02  0.72634165525E+01  0.18090257537E+02  0.79182185241E+02  0.10000000000E+01 0.  0.
         21    1    1    2  502  501  0.28129910790E+02 -0.25051630584E+02  0.50365556504E+02  0.62893285475E+02  0.00000000000E+00 0. -1.
<mgrwt>
<rscale>  1 0.13055979E+03</rscale>
<asrwt>0</asrwt>
<pdfrwt beam="2">  1        4 0.10057358E-01 0.13055979E+03</pdfrwt>
<pdfrwt beam="1">  1       -4 0.19803767E-01 0.13055979E+03</pdfrwt>
<totfact> 0.28039514E+03</totfact>
</mgrwt>
</event>
<event>
 6    4  0.2220150E-003  0.1306199E+03  0.7818608E-02  0.1226539E+00
          4   -1    0    0  502    0  0.00000000000E+00  0.00000000000E+00  0.78670808478E+03  0.78670910987E+03  0.12700000000E+01 0. -1.
         -4   -1    0    0    0  501 -0.00000000000E+00 -0.00000000000E+00 -0.12661804059E+02  0.12725336225E+02  0.12700000000E+01 0. -1.
         25    2    1    2    0    0  0.17393963366E+02  0.33677882422E+02  0.72878396216E+03  0.74039693931E+03  0.12499925806E+03 0.  0.
    9000005    1    3    3    0    0  0.14813524385E+02  0.79568211072E+02  0.37482889758E+03  0.38346869909E+03  0.10000000000E+01 0.  0.
    9000005    1    3    3    0    0  0.25804389809E+01 -0.45890328650E+02  0.35395506458E+03  0.35692824022E+03  0.10000000000E+01 0.  0.
         21    1    1    2  502  501 -0.17393963366E+02 -0.33677882422E+02  0.45262318559E+02  0.59037506784E+02  0.00000000000E+00 0. -1.
<mgrwt>
<rscale>  1 0.13061992E+03</rscale>
<asrwt>0</asrwt>
<pdfrwt beam="1">  1        4 0.12103698E+00 0.13061992E+03</pdfrwt>
<pdfrwt beam="2">  1       -4 0.19529357E-02 0.13061992E+03</pdfrwt>
<totfact> 0.94256785E+02</totfact>
</mgrwt>
</event>
<event>
 6    4  0.2220150E-003  0.1383476E+03  0.7818608E-02  0.1215570E+00
          4   -1    0    0  502    0  0.00000000000E+00  0.00000000000E+00  0.26498419877E+03  0.26498724214E+03  0.12700000000E+01 0. -1.
         -4   -1    0    0    0  501 -0.00000000000E+00 -0.00000000000E+00 -0.47384656456E+02  0.47401672623E+02  0.12700000000E+01 0. -1.
         25    2    1    2    0    0  0.57550304100E+02 -0.14283027146E+02  0.21156813363E+03  0.25278673144E+03  0.12499605616E+03 0.  0.
    9000005    1    3    3    0    0 -0.38876672501E+02 -0.14907032129E+02  0.56797843206E+02  0.70431599900E+02  0.10000000000E+01 0.  0.
    9000005    1    3    3    0    0  0.96426976601E+02  0.62400498261E+00  0.15477029043E+03  0.18235513154E+03  0.10000000000E+01 0.  0.
         21    1    1    2  502  501 -0.57550304100E+02  0.14283027146E+02  0.60314086776E+01  0.59602183325E+02  0.00000000000E+00 0.  1.
<mgrwt>
<rscale>  1 0.13834759E+03</rscale>
<asrwt>0</asrwt>
<pdfrwt beam="1">  1        4 0.40768344E-01 0.13834759E+03</pdfrwt>
<pdfrwt beam="2">  1       -4 0.72914900E-02 0.13834759E+03</pdfrwt>
<totfact> 0.12494278E+03</totfact>
</mgrwt>
</event>
<event>
 6    4  0.2220150E-003  0.1312554E+03  0.7818608E-02  0.1225605E+00
          4   -1    0    0  502    0  0.00000000000E+00  0.00000000000E+00  0.30105119877E+03  0.30105387754E+03  0.12700000000E+01 0.  1.
         -4   -1    0    0    0  501 -0.00000000000E+00 -0.00000000000E+00 -0.85635968755E+02  0.85645385425E+02  0.12700000000E+01 0.  1.
         25    2    1    2    0    0 -0.33432707845E+02 -0.22076986535E+02  0.28083060453E+03  0.30999000335E+03  0.12499133750E+03 0.  0.
    9000005    1    3    3    0    0  0.12937579765E+01  0.44855799686E+02  0.17078386111E+03  0.17658381520E+03  0.10000000000E+01 0.  0.
    9000005    1    3    3    0    0 -0.34726465821E+02 -0.66932786221E+02  0.11004674342E+03  0.13340618815E+03  0.10000000000E+01 0.  0.
         21    1    1    2  502  501  0.33432707845E+02  0.22076986535E+02 -0.65415374511E+02  0.76709259615E+02  0.00000000000E+00 0.  1.
<mgrwt>
<rscale>  1 0.13125538E+03</rscale>
<asrwt>0</asrwt>
<pdfrwt beam="1">  1        4 0.46316499E-01 0.13125538E+03</pdfrwt>
<pdfrwt beam="2">  1       -4 0.13175695E-01 0.13125538E+03</pdfrwt>
<totfact> 0.35424583E+02</totfact>
</mgrwt>
</event>
<event>
 6    4  0.2220150E-003  0.1275148E+03  0.7818608E-02  0.1231191E+00
         -4   -1    0    0    0  501 -0.00000000000E+00  0.00000000000E+00  0.32469450461E+03  0.32469698832E+03  0.12700000000E+01 0. -1.
          4   -1    0    0  502    0  0.00000000000E+00 -0.00000000000E+00 -0.22452039877E+02  0.22487929977E+02  0.12700000000E+01 0. -1.
         25    2    1    2    0    0 -0.97751661113E+01  0.23234663654E+02  0.16971196535E+03  0.21227851839E+03  0.12499845888E+03 0.  0.
    9000005    1    3    3    0    0 -0.38197650310E+02  0.52750828000E+02  0.40451130710E+02  0.76674665435E+02  0.10000000000E+01 0.  0.
    9000005    1    3    3    0    0  0.28422484199E+02 -0.29516164346E+02  0.12926083464E+03  0.13560385296E+03  0.10000000000E+01 0.  0.
         21    1    1    2  502  501  0.97751661113E+01 -0.23234663654E+02  0.13253049938E+03  0.13490639990E+03  0.00000000000E+00 0. -1.
<mgrwt>
<rscale>  1 0.12751478E+03</rscale>
<asrwt>0</asrwt>
<pdfrwt beam="2">  1        4 0.34571120E-02 0.12751478E+03</pdfrwt>
<pdfrwt beam="1">  1       -4 0.49955950E-01 0.12751478E+03</pdfrwt>
<totfact> 0.27116427E+03</totfact>
</mgrwt>
</event>
<event>
 6    4  0.2220150E-003  0.1283253E+03  0.7818608E-02  0.1229962E+00
         -4   -1    0    0    0  501 -0.00000000000E+00  0.00000000000E+00  0.28418640914E+02  0.28447004261E+02  0.12700000000E+01 0.  1.
          4   -1    0    0  502    0  0.00000000000E+00 -0.00000000000E+00 -0.22212068974E+03  0.22212432040E+03  0.12700000000E+01 0.  1.
         25    2    1    2    0    0 -0.16929654411E+02 -0.23562267692E+02 -0.17064638754E+03  0.21351249070E+03  0.12500240176E+03 0.  0.
    9000005    1    3    3    0    0 -0.69800591644E+02 -0.14104423656E+02 -0.12079045587E+03  0.14022265006E+03  0.10000000000E+01 0.  0.
    9000005    1    3    3    0    0  0.52870937233E+02 -0.94578440355E+01 -0.49855931679E+02  0.73289840642E+02  0.10000000000E+01 0.  0.
         21    1    1    2  502  501  0.16929654411E+02  0.23562267692E+02 -0.23055661283E+02  0.37058833960E+02  0.00000000000E+00 0. -1.
<mgrwt>
<rscale>  1 0.12832534E+03</rscale>
<asrwt>0</asrwt>
<pdfrwt beam="2">  1        4 0.34174874E-01 0.12832534E+03</pdfrwt>
<pdfrwt beam="1">  1       -4 0.43745598E-02 0.12832534E+03</pdfrwt>
<totfact> 0.39603789E+03</totfact>
</mgrwt>
</event>
<event>
 6    4  0.2220150E-003  0.1290555E+03  0.7818608E-02  0.1228864E+00
         -4   -1    0    0    0  501 -0.00000000000E+00  0.00000000000E+00  0.14488083447E+03  0.14488640066E+03  0.12700000000E+01 0. -1.
          4   -1    0    0  502    0  0.00000000000E+00 -0.00000000000E+00 -0.46747933145E+02  0.46765180993E+02  0.12700000000E+01 0. -1.
         25    2    1    2    0    0  0.35114565639E+01  0.31896312815E+02  0.61525652083E+02  0.14297103322E+03  0.12500242149E+03 0.  0.
    9000005    1    3    3    0    0 -0.16671655082E+02  0.65193991349E+00  0.92843424951E+02  0.94335945776E+02  0.10000000000E+01 0.  0.
    9000005    1    3    3    0    0  0.20183111646E+02  0.31244372902E+02 -0.31317772868E+02  0.48635087449E+02  0.10000000000E+01 0.  0.
         21    1    1    2  502  501 -0.35114565639E+01 -0.31896312815E+02  0.36607249245E+02  0.48680548433E+02  0.00000000000E+00 0. -1.
<mgrwt>
<rscale>  1 0.12905546E+03</rscale>
<asrwt>0</asrwt>
<pdfrwt beam="2">  1        4 0.71937447E-02 0.12905546E+03</pdfrwt>
<pdfrwt beam="1">  1       -4 0.22291114E-01 0.12905546E+03</pdfrwt>
<totfact> 0.39416050E+03</totfact>
</mgrwt>
</event>
<event>
 6    4  0.2220150E-003  0.1269779E+03  0.7818608E-02  0.1232010E+00
          4   -1    0    0  502    0  0.00000000000E+00  0.00000000000E+00  0.79141487280E+02  0.79151676602E+02  0.12700000000E+01 0.  1.
         -4   -1    0    0    0  501 -0.00000000000E+00 -0.00000000000E+00 -0.26350775572E+03  0.26351081614E+03  0.12700000000E+01 0.  1.
         25    2    1    2    0    0 -0.21782956877E+01  0.22219962305E+02  0.27252282614E+02  0.12986944106E+03  0.12499965246E+03 0.  0.
    9000005    1    3    3    0    0  0.22259857724E+02  0.63362707499E+02  0.42681209096E+02  0.79580271282E+02  0.10000000000E+01 0.  0.
    9000005    1    3    3    0    0 -0.24438153411E+02 -0.41142745193E+02 -0.15428926483E+02  0.50289169774E+02  0.10000000000E+01 0.  0.
         21    1    1    2  502  501  0.21782956877E+01 -0.22219962305E+02 -0.21161855105E+03  0.21279305168E+03  0.00000000000E+00 0.  1.
<mgrwt>
<rscale>  1 0.12697789E+03</rscale>
<asrwt>0</asrwt>
<pdfrwt beam="1">  1        4 0.12176633E-01 0.12697789E+03</pdfrwt>
<pdfrwt beam="2">  1       -4 0.40540673E-01 0.12697789E+03</pdfrwt>
<totfact> 0.52519679E+02</totfact>
</mgrwt>
</event>
<event>
 6    4  0.2220150E-003  0.1287943E+03  0.7818608E-02  0.1229256E+00
          4   -1    0    0  502    0  0.00000000000E+00  0.00000000000E+00  0.18284976968E+03  0.18285418008E+03  0.12700000000E+01 0.  1.
         -4   -1    0    0    0  501 -0.00000000000E+00 -0.00000000000E+00 -0.73644896678E+02  0.73655846385E+02  0.12700000000E+01 0.  1.
         25    2    1    2    0    0 -0.72184882490E+01  0.30156728800E+02  0.15479808062E+03  0.20137133364E+03  0.12500573340E+03 0.  0.
    9000005    1    3    3    0    0  0.44042077929E+02  0.49974709276E+02  0.11708291812E+03  0.13470926439E+03  0.10000000000E+01 0.  0.
    9000005    1    3    3    0    0 -0.51260566178E+02 -0.19817980476E+02  0.37715162499E+02  0.66662069255E+02  0.10000000000E+01 0.  0.
         21    1    1    2  502  501  0.72184882490E+01 -0.30156728800E+02 -0.45593207622E+02  0.55138692819E+02  0.00000000000E+00 0.  1.
<mgrwt>
<rscale>  1 0.12879429E+03</rscale>
<asrwt>0</asrwt>
<pdfrwt beam="1">  1        4 0.28131915E-01 0.12879429E+03</pdfrwt>
<pdfrwt beam="2">  1       -4 0.11331166E-01 0.12879429E+03</pdfrwt>
<totfact> 0.12006738E+03</totfact>
</mgrwt>
</event>
<event>
 6    4  0.2220150E-003  0.1280996E+03  0.7818608E-02  0.1230303E+00
          4   -1    0    0  502    0  0.00000000000E+00  0.00000000000E+00  0.20038599429E+03  0.20039001874E+03  0.12700000000E+01 0.  1.
         -4   -1    0    0    0  501 -0.00000000000E+00 -0.00000000000E+00 -0.43386003372E+02  0.43404587184E+02  0.12700000000E+01 0.  1.
         25    2    1    2    0    0  0.26367003434E+02  0.94784568593E+01  0.17003808671E+03  0.21289069102E+03  0.12499774149E+03 0.  0.
    9000005    1    3    3    0    0  0.62882464628E+02  0.17884899766E+02  0.37977116727E+02  0.75613063634E+02  0.10000000000E+01 0.  0.
    9000005    1    3    3    0    0 -0.36515461194E+02 -0.84064429070E+01  0.13206096998E+03  0.13727762738E+03  0.10000000000E+01 0.  0.
         21    1    1    2  502  501 -0.26367003434E+02 -0.94784568593E+01 -0.13038095784E+02  0.30903914901E+02  0.00000000000E+00 0.  1.
<mgrwt>
<rscale>  1 0.12809955E+03</rscale>
<asrwt>0</asrwt>
<pdfrwt beam="1">  1        4 0.30830353E-01 0.12809955E+03</pdfrwt>
<pdfrwt beam="2">  1       -4 0.66765090E-02 0.12809955E+03</pdfrwt>
<totfact> 0.24357651E+03</totfact>
</mgrwt>
</event>
<event>
 6    4  0.2220150E-003  0.1314622E+03  0.7818608E-02  0.1225302E+00
         -4   -1    0    0    0  501 -0.00000000000E+00  0.00000000000E+00  0.62130109225E+01  0.63414828489E+01  0.12700000000E+01 0. -1.
          4   -1    0    0  502    0  0.00000000000E+00 -0.00000000000E+00 -0.11955509596E+04  0.11955516341E+04  0.12700000000E+01 0. -1.
         25    2    1    2    0    0  0.35379295362E+02  0.20175293104E+02 -0.96119765941E+03  0.97014599494E+03  0.12499429607E+03 0.  0.
    9000005    1    3    3    0    0  0.58815292190E+02  0.13427012836E+02 -0.92198420629E+03  0.92395638421E+03  0.10000000000E+01 0.  0.
    9000005    1    3    3    0    0 -0.23435996829E+02  0.67482802681E+01 -0.39213453116E+02  0.46189610728E+02  0.10000000000E+01 0.  0.
         21    1    1    2  502  501 -0.35379295362E+02 -0.20175293104E+02 -0.22814028924E+03  0.23174712202E+03  0.00000000000E+00 0. -1.
<mgrwt>
<rscale>  1 0.13146220E+03</rscale>
<asrwt>0</asrwt>
<pdfrwt beam="2">  1        4 0.18394067E+00 0.13146220E+03</pdfrwt>
<pdfrwt beam="1">  1       -4 0.96578313E-03 0.13146220E+03</pdfrwt>
<totfact> 0.94532794E+02</totfact>
</mgrwt>
</event>
<event>
 6    4  0.2220150E-003  0.1270878E+03  0.7818608E-02  0.1231842E+00
          4   -1    0    0  502    0  0.00000000000E+00  0.00000000000E+00  0.18483801385E+02  0.18527380108E+02  0.12700000000E+01 0.  1.
         -4   -1    0    0    0  501 -0.00000000000E+00 -0.00000000000E+00 -0.31116583161E+03  0.31116842330E+03  0.12700000000E+01 0.  1.
         25    2    1    2    0    0 -0.16270623072E+02  0.16546743103E+02 -0.22875669022E+03  0.26168862014E+03  0.12495112126E+03 0.  0.
    9000005    1    3    3    0    0  0.76146389350E+00  0.68254381784E+02 -0.16020834545E+03  0.17414635917E+03  0.10000000000E+01 0.  0.
    9000005    1    3    3    0    0 -0.17032086966E+02 -0.51707638681E+02 -0.68548344769E+02  0.87542260965E+02  0.10000000000E+01 0.  0.
         21    1    1    2  502  501  0.16270623072E+02 -0.16546743103E+02 -0.63925340000E+02  0.68007183272E+02  0.00000000000E+00 0.  1.
<mgrwt>
<rscale>  1 0.12708781E+03</rscale>
<asrwt>0</asrwt>
<pdfrwt beam="1">  1        4 0.28472136E-02 0.12708781E+03</pdfrwt>
<pdfrwt beam="2">  1       -4 0.47875214E-01 0.12708781E+03</pdfrwt>
<totfact> 0.40038336E+03</totfact>
</mgrwt>
</event>
<event>
 6    4  0.2220150E-003  0.1276324E+03  0.7818608E-02  0.1231012E+00
          4   -1    0    0  502    0  0.00000000000E+00  0.00000000000E+00  0.79727683241E+01  0.80732852513E+01  0.12700000000E+01 0. -1.
         -4   -1    0    0    0  501 -0.00000000000E+00 -0.00000000000E+00 -0.74520819784E+03  0.74520928002E+03  0.12700000000E+01 0. -1.
         25    2    1    2    0    0  0.10181159599E+02  0.23736642257E+02 -0.57419796564E+03  0.58821197788E+03  0.12499177162E+03 0.  0.
    9000005    1    3    3    0    0  0.52138989811E+02 -0.29170678318E+02 -0.24801452846E+03  0.25511097401E+03  0.10000000000E+01 0.  0.
    9000005    1    3    3    0    0 -0.41957830211E+02  0.52907320575E+02 -0.32618343718E+03  0.33310100387E+03  0.10000000000E+01 0.  0.
         21    1    1    2  502  501 -0.10181159599E+02 -0.23736642257E+02 -0.16303746387E+03  0.16507058739E+03  0.00000000000E+00 0. -1.
<mgrwt>
<rscale>  1 0.12763239E+03</rscale>
<asrwt>0</asrwt>
<pdfrwt beam="1">  1        4 0.12343956E-02 0.12763239E+03</pdfrwt>
<pdfrwt beam="2">  1       -4 0.11465518E+00 0.12763239E+03</pdfrwt>
<totfact> 0.21484077E+03</totfact>
</mgrwt>
</event>
<event>
 6    4  0.2220150E-003  0.1278749E+03  0.7818608E-02  0.1230644E+00
          4   -1    0    0  502    0  0.00000000000E+00  0.00000000000E+00  0.50683255732E+02  0.50699164801E+02  0.12700000000E+01 0. -1.
         -4   -1    0    0    0  501 -0.00000000000E+00 -0.00000000000E+00 -0.16163255073E+03  0.16163754005E+03  0.12700000000E+01 0. -1.
         25    2    1    2    0    0  0.26896106847E+02  0.18066102665E+01 -0.36237104791E+02  0.13291016163E+03  0.12500127558E+03 0.  0.
    9000005    1    3    3    0    0 -0.39100558170E+02  0.32153663254E+02 -0.32503185737E+02  0.60167838526E+02  0.10000000000E+01 0.  0.
    9000005    1    3    3    0    0  0.65996665017E+02 -0.30347052987E+02 -0.37339190530E+01  0.72742323099E+02  0.10000000000E+01 0.  0.
         21    1    1    2  502  501 -0.26896106847E+02 -0.18066102665E+01 -0.74712190203E+02  0.79426543228E+02  0.00000000000E+00 0. -1.
<mgrwt>
<rscale>  1 0.12787487E+03</rscale>
<asrwt>0</asrwt>
<pdfrwt beam="1">  1        4 0.77990316E-02 0.12787487E+03</pdfrwt>
<pdfrwt beam="2">  1       -4 0.24868154E-01 0.12787487E+03</pdfrwt>
<totfact> 0.28178962E+03</totfact>
</mgrwt>
</event>
<event>
 6    4  0.2220150E-003  0.1289315E+03  0.7818608E-02  0.1229050E+00
         -4   -1    0    0    0  501 -0.00000000000E+00  0.00000000000E+00  0.55244817206E+01  0.56685799175E+01  0.12700000000E+01 0. -1.
          4   -1    0    0  502    0  0.00000000000E+00 -0.00000000000E+00 -0.13042007092E+04  0.13042013276E+04  0.12700000000E+01 0. -1.
         25    2    1    2    0    0  0.12120864060E+02  0.29172590317E+02 -0.81227637210E+03  0.82244527259E+03  0.12500146543E+03 0.  0.
    9000005    1    3    3    0    0 -0.37846285466E+02 -0.18546256204E+02 -0.12968670522E+03  0.13636695514E+03  0.10000000000E+01 0.  0.
    9000005    1    3    3    0    0  0.49967149526E+02  0.47718846522E+02 -0.68258966688E+03  0.68607831745E+03  0.10000000000E+01 0.  0.
         21    1    1    2  502  501 -0.12120864060E+02 -0.29172590317E+02 -0.48639985539E+03  0.48742463489E+03  0.00000000000E+00 0. -1.
<mgrwt>
<rscale>  1 0.12893146E+03</rscale>
<asrwt>0</asrwt>
<pdfrwt beam="2">  1        4 0.20065715E+00 0.12893146E+03</pdfrwt>
<pdfrwt beam="1">  1       -4 0.86105335E-03 0.12893146E+03</pdfrwt>
<totfact> 0.87693747E+02</totfact>
</mgrwt>
</event>
<event>
 6    4  0.2220150E-003  0.1294018E+03  0.7818608E-02  0.1228346E+00
         -4   -1    0    0    0  501 -0.00000000000E+00  0.00000000000E+00  0.17552372997E+03  0.17552832444E+03  0.12700000000E+01 0.  1.
          4   -1    0    0  502    0  0.00000000000E+00 -0.00000000000E+00 -0.66442569539E+02  0.66454705981E+02  0.12700000000E+01 0.  1.
         25    2    1    2    0    0  0.28321574739E+02  0.17851883342E+02  0.16032448559E+01  0.12941170339E+03  0.12499606892E+03 0.  0.
    9000005    1    3    3    0    0  0.28489922606E+02  0.70192611251E+02 -0.80201178060E+01  0.76183992111E+02  0.10000000000E+01 0.  0.
    9000005    1    3    3    0    0 -0.16834786748E+00 -0.52340727908E+02  0.96233626620E+01  0.53227711278E+02  0.10000000000E+01 0.  0.
         21    1    1    2  502  501 -0.28321574739E+02 -0.17851883342E+02  0.10747791557E+03  0.11257132703E+03  0.00000000000E+00 0.  1.
<mgrwt>
<rscale>  1 0.12940177E+03</rscale>
<asrwt>0</asrwt>
<pdfrwt beam="2">  1        4 0.10223221E-01 0.12940177E+03</pdfrwt>
<pdfrwt beam="1">  1       -4 0.27004937E-01 0.12940177E+03</pdfrwt>
<totfact> 0.15441797E+03</totfact>
</mgrwt>
</event>
<event>
 6    4  0.2220150E-003  0.1324700E+03  0.7818608E-02  0.1223836E+00
         -4   -1    0    0    0  501 -0.00000000000E+00  0.00000000000E+00  0.22279721426E+03  0.22280083389E+03  0.12700000000E+01 0.  1.
          4   -1    0    0  502    0  0.00000000000E+00 -0.00000000000E+00 -0.36574448018E+02  0.36596490922E+02  0.12700000000E+01 0.  1.
         25    2    1    2    0    0 -0.39961452674E+02 -0.18084322217E+02  0.11336891535E+03  0.17435825144E+03  0.12499731384E+03 0.  0.
    9000005    1    3    3    0    0 -0.57521582221E+02 -0.57842700569E+02  0.44537816015E+02  0.92946906811E+02  0.10000000000E+01 0.  0.
    9000005    1    3    3    0    0  0.17560129547E+02  0.39758378352E+02  0.68831099335E+02  0.81411344630E+02  0.10000000000E+01 0.  0.
         21    1    1    2  502  501  0.39961452674E+02  0.18084322217E+02  0.72853850889E+02  0.85039073367E+02  0.00000000000E+00 0.  1.
<mgrwt>
<rscale>  1 0.13246995E+03</rscale>
<asrwt>0</asrwt>
<pdfrwt beam="2">  1        4 0.56288122E-02 0.13246995E+03</pdfrwt>
<pdfrwt beam="1">  1       -4 0.34278468E-01 0.13246995E+03</pdfrwt>
<totfact> 0.26469618E+03</totfact>
</mgrwt>
</event>
<event>
 6    4  0.2220150E-003  0.1330238E+03  0.7818608E-02  0.1223037E+00
          4   -1    0    0  502    0  0.00000000000E+00  0.00000000000E+00  0.54841007194E+02  0.54855710460E+02  0.12700000000E+01 0.  1.
         -4   -1    0    0    0  501 -0.00000000000E+00 -0.00000000000E+00 -0.14568859648E+03  0.14569413182E+03  0.12700000000E+01 0.  1.
         25    2    1    2    0    0  0.19942777242E+02  0.40910232129E+02 -0.72311777791E+02  0.15140782599E+03  0.12499590036E+03 0.  0.
    9000005    1    3    3    0    0  0.37342017560E+02  0.21536788337E+02  0.25560487818E+02  0.50125822336E+02  0.10000000000E+01 0.  0.
    9000005    1    3    3    0    0 -0.17399240319E+02  0.19373443793E+02 -0.97872265609E+02  0.10128200365E+03  0.10000000000E+01 0.  0.
         21    1    1    2  502  501 -0.19942777242E+02 -0.40910232129E+02 -0.18535811499E+02  0.49142016289E+02  0.00000000000E+00 0.  1.
<mgrwt>
<rscale>  1 0.13302382E+03</rscale>
<asrwt>0</asrwt>
<pdfrwt beam="1">  1        4 0.84386349E-02 0.13302382E+03</pdfrwt>
<pdfrwt beam="2">  1       -4 0.22415187E-01 0.13302382E+03</pdfrwt>
<totfact> 0.30194750E+03</totfact>
</mgrwt>
</event>
<event>
 6    4  0.2220150E-003  0.1367565E+03  0.7818608E-02  0.1217761E+00
          4   -1    0    0  502    0  0.00000000000E+00  0.00000000000E+00  0.11341823475E+03  0.11342534493E+03  0.12700000000E+01 0.  1.
         -4   -1    0    0    0  501 -0.00000000000E+00 -0.00000000000E+00 -0.83263092534E+02  0.83272777535E+02  0.12700000000E+01 0.  1.
         25    2    1    2    0    0  0.53399683522E+02  0.15045607641E+02  0.34525851810E+02  0.14104742964E+03  0.12499778580E+03 0.  0.
    9000005    1    3    3    0    0 -0.27109681745E+02 -0.31541896496E+02 -0.61798114197E+00  0.41607787487E+02  0.10000000000E+01 0.  0.
    9000005    1    3    3    0    0  0.80509365266E+02  0.46587504137E+02  0.35143832952E+02  0.99439642155E+02  0.10000000000E+01 0.  0.
         21    1    1    2  502  501 -0.53399683522E+02 -0.15045607641E+02 -0.43707095982E+01  0.55650692825E+02  0.00000000000E+00 0.  1.
<mgrwt>
<rscale>  1 0.13675651E+03</rscale>
<asrwt>0</asrwt>
<pdfrwt beam="1">  1        4 0.17450251E-01 0.13675651E+03</pdfrwt>
<pdfrwt beam="2">  1       -4 0.12810999E-01 0.13675651E+03</pdfrwt>
<totfact> 0.23525296E+03</totfact>
</mgrwt>
</event>
<event>
 6    4  0.2220150E-003  0.1302417E+03  0.7818608E-02  0.1227097E+00
          4   -1    0    0  502    0  0.00000000000E+00  0.00000000000E+00  0.10729633079E+02  0.10804532660E+02  0.12700000000E+01 0.  1.
         -4   -1    0    0    0  501 -0.00000000000E+00 -0.00000000000E+00 -0.11541521261E+04  0.11541528248E+04  0.12700000000E+01 0.  1.
         25    2    1    2    0    0  0.35414189936E+02 -0.92029038425E+01 -0.40072432934E+03  0.42135839259E+03  0.12499619429E+03 0.  0.
    9000005    1    3    3    0    0  0.66322970502E+02  0.49016710987E+00 -0.10728641106E+03  0.12613623856E+03  0.10000000000E+01 0.  0.
    9000005    1    3    3    0    0 -0.30908780566E+02 -0.96930709524E+01 -0.29343791829E+03  0.29522215403E+03  0.10000000000E+01 0.  0.
         21    1    1    2  502  501 -0.35414189936E+02  0.92029038425E+01 -0.74269816365E+03  0.74359896488E+03  0.00000000000E+00 0.  1.
<mgrwt>
<rscale>  1 0.13024172E+03</rscale>
<asrwt>0</asrwt>
<pdfrwt beam="1">  1        4 0.16565289E-02 0.13024172E+03</pdfrwt>
<pdfrwt beam="2">  1       -4 0.17756758E+00 0.13024172E+03</pdfrwt>
<totfact> 0.45860620E+02</totfact>
</mgrwt>
</event>
<event>
 6    4  0.2220150E-003  0.1325360E+03  0.7818608E-02  0.1223740E+00
         -4   -1    0    0    0  501 -0.00000000000E+00  0.00000000000E+00  0.14839596939E+03  0.14840140374E+03  0.12700000000E+01 0.  1.
          4   -1    0    0  502    0  0.00000000000E+00 -0.00000000000E+00 -0.59195407619E+02  0.59209029575E+02  0.12700000000E+01 0.  1.
         25    2    1    2    0    0 -0.19697420889E+02  0.39415838331E+02  0.33715653803E+02  0.13675726321E+03  0.12499682807E+03 0.  0.
    9000005    1    3    3    0    0  0.16504864759E+02  0.51814048781E+02 -0.30233396376E+02  0.62226718283E+02  0.10000000000E+01 0.  0.
    9000005    1    3    3    0    0 -0.36202285648E+02 -0.12398210450E+02  0.63949050180E+02  0.74530544929E+02  0.10000000000E+01 0.  0.
         21    1    1    2  502  501  0.19697420889E+02 -0.39415838331E+02  0.55484907967E+02  0.70853170099E+02  0.00000000000E+00 0.  1.
<mgrwt>
<rscale>  1 0.13253605E+03</rscale>
<asrwt>0</asrwt>
<pdfrwt beam="2">  1        4 0.91084518E-02 0.13253605E+03</pdfrwt>
<pdfrwt beam="1">  1       -4 0.22831615E-01 0.13253605E+03</pdfrwt>
<totfact> 0.25685692E+03</totfact>
</mgrwt>
</event>
<event>
 6    4  0.2220150E-003  0.1273879E+03  0.7818608E-02  0.1231384E+00
         -4   -1    0    0    0  501 -0.00000000000E+00  0.00000000000E+00  0.20512721324E+02  0.20551998349E+02  0.12700000000E+01 0.  1.
          4   -1    0    0  502    0  0.00000000000E+00 -0.00000000000E+00 -0.29326935442E+03  0.29327210427E+03  0.12700000000E+01 0.  1.
         25    2    1    2    0    0  0.19299190339E+02  0.15091737033E+02 -0.24902067832E+03  0.27971230373E+03  0.12500982102E+03 0.  0.
    9000005    1    3    3    0    0  0.56030013772E+01 -0.30237933047E+02 -0.22408046633E+03  0.22618307100E+03  0.10000000000E+01 0.  0.
    9000005    1    3    3    0    0  0.13696188961E+02  0.45329670080E+02 -0.24940211991E+02  0.53529232722E+02  0.10000000000E+01 0.  0.
         21    1    1    2  502  501 -0.19299190339E+02 -0.15091737033E+02 -0.23735954778E+02  0.34111798892E+02  0.00000000000E+00 0.  1.
<mgrwt>
<rscale>  1 0.12738789E+03</rscale>
<asrwt>0</asrwt>
<pdfrwt beam="2">  1        4 0.45121592E-01 0.12738789E+03</pdfrwt>
<pdfrwt beam="1">  1       -4 0.31590363E-02 0.12738789E+03</pdfrwt>
<totfact> 0.38357345E+03</totfact>
</mgrwt>
</event>
<event>
 6    4  0.2220150E-003  0.1315652E+03  0.7818608E-02  0.1225152E+00
         -4   -1    0    0    0  501 -0.00000000000E+00  0.00000000000E+00  0.27419737675E+03  0.27420031786E+03  0.12700000000E+01 0.  1.
          4   -1    0    0  502    0  0.00000000000E+00 -0.00000000000E+00 -0.28596278816E+02  0.28624466145E+02  0.12700000000E+01 0.  1.
         25    2    1    2    0    0  0.35692510449E+02  0.20273123452E+02  0.15466487044E+03  0.20305328353E+03  0.12499783585E+03 0.  0.
    9000005    1    3    3    0    0  0.62197643926E+02  0.39781050508E+02  0.15323464927E+03  0.17009684484E+03  0.10000000000E+01 0.  0.
    9000005    1    3    3    0    0 -0.26505133478E+02 -0.19507927056E+02  0.14302211781E+01  0.32956438693E+02  0.10000000000E+01 0.  0.
         21    1    1    2  502  501 -0.35692510449E+02 -0.20273123452E+02  0.90936227487E+02  0.99771500471E+02  0.00000000000E+00 0.  1.
<mgrwt>
<rscale>  1 0.13156525E+03</rscale>
<asrwt>0</asrwt>
<pdfrwt beam="2">  1        4 0.44018219E-02 0.13156525E+03</pdfrwt>
<pdfrwt beam="1">  1       -4 0.42186607E-01 0.13156525E+03</pdfrwt>
<totfact> 0.26156919E+03</totfact>
</mgrwt>
</event>
<event>
 6    4  0.2220150E-003  0.1312419E+03  0.7818608E-02  0.1225625E+00
          4   -1    0    0  502    0  0.00000000000E+00  0.00000000000E+00  0.59559200565E+02  0.59572739335E+02  0.12700000000E+01 0.  1.
         -4   -1    0    0    0  501 -0.00000000000E+00 -0.00000000000E+00 -0.20711775047E+03  0.20712164411E+03  0.12700000000E+01 0.  1.
         25    2    1    2    0    0 -0.39578589322E+02  0.57236543014E+01 -0.19680567486E+02  0.13270929719E+03  0.12500083149E+03 0.  0.
    9000005    1    3    3    0    0  0.26336576055E+02 -0.42101424753E+02 -0.10303026650E+02  0.50727680439E+02  0.10000000000E+01 0.  0.
    9000005    1    3    3    0    0 -0.65915165377E+02  0.47825079055E+02 -0.93775408359E+01  0.81981616753E+02  0.10000000000E+01 0.  0.
         21    1    1    2  502  501  0.39578589322E+02 -0.57236543014E+01 -0.12787798242E+03  0.13398508625E+03  0.00000000000E+00 0. -1.
<mgrwt>
<rscale>  1 0.13124189E+03</rscale>
<asrwt>0</asrwt>
<pdfrwt beam="1">  1        4 0.91642950E-02 0.13124189E+03</pdfrwt>
<pdfrwt beam="2">  1       -4 0.31865610E-01 0.13124189E+03</pdfrwt>
<totfact> 0.13629690E+03</totfact>
</mgrwt>
</event>
<event>
 6    4  0.2220150E-003  0.1279067E+03  0.7818608E-02  0.1230595E+00
         -4   -1    0    0    0  501 -0.00000000000E+00  0.00000000000E+00  0.35684786283E+03  0.35685012275E+03  0.12700000000E+01 0.  1.
          4   -1    0    0  502    0  0.00000000000E+00 -0.00000000000E+00 -0.17553729858E+02  0.17599611698E+02  0.12700000000E+01 0.  1.
         25    2    1    2    0    0 -0.26533827637E+02  0.55592068536E+01  0.30500077580E+03  0.33073494134E+03  0.12500071759E+03 0.  0.
    9000005    1    3    3    0    0 -0.60063182312E+01  0.32176940020E+02  0.29330953250E+03  0.29513202670E+03  0.10000000000E+01 0.  0.
    9000005    1    3    3    0    0 -0.20527509406E+02 -0.26617733166E+02  0.11691243300E+02  0.35602914645E+02  0.10000000000E+01 0.  0.
         21    1    1    2  502  501  0.26533827637E+02 -0.55592068536E+01  0.34293357169E+02  0.43714793101E+02  0.00000000000E+00 0. -1.
<mgrwt>
<rscale>  1 0.12790672E+03</rscale>
<asrwt>0</asrwt>
<pdfrwt beam="2">  1        4 0.27042774E-02 0.12790672E+03</pdfrwt>
<pdfrwt beam="1">  1       -4 0.54903366E-01 0.12790672E+03</pdfrwt>
<totfact> 0.32848276E+03</totfact>
</mgrwt>
</event>
<event>
 6    4  0.2220150E-003  0.1807012E+03  0.7818608E-02  0.1167126E+00
          4   -1    0    0  502    0  0.00000000000E+00  0.00000000000E+00  0.21612619152E+03  0.21612992287E+03  0.12700000000E+01 0. -1.
         -4   -1    0    0    0  501 -0.00000000000E+00 -0.00000000000E+00 -0.11743490575E+03  0.11744177276E+03  0.12700000000E+01 0. -1.
         25    2    1    2    0    0  0.18934196084E+02 -0.12911071072E+03  0.92334890318E+02  0.20292529053E+03  0.12499944865E+03 0.  0.
    9000005    1    3    3    0    0 -0.16565851275E+02 -0.12461520129E+03  0.27234240651E+02  0.12863156566E+03  0.10000000000E+01 0.  0.
    9000005    1    3    3    0    0  0.35500047359E+02 -0.44955094285E+01  0.65100649667E+02  0.74293724867E+02  0.10000000000E+01 0.  0.
         21    1    1    2  502  501 -0.18934196084E+02  0.12911071072E+03  0.63563954501E+01  0.13064640510E+03  0.00000000000E+00 0. -1.
<mgrwt>
<rscale>  1 0.18070125E+03</rscale>
<asrwt>0</asrwt>
<pdfrwt beam="1">  1        4 0.33250998E-01 0.18070125E+03</pdfrwt>
<pdfrwt beam="2">  1       -4 0.18067724E-01 0.18070125E+03</pdfrwt>
<totfact> 0.41368500E+02</totfact>
</mgrwt>
</event>
<event>
 6    4  0.2220150E-003  0.1346421E+03  0.7818608E-02  0.1220726E+00
         -4   -1    0    0    0  501 -0.00000000000E+00  0.00000000000E+00  0.28842270868E+02  0.28870218026E+02  0.12700000000E+01 0. -1.
          4   -1    0    0  502    0  0.00000000000E+00 -0.00000000000E+00 -0.35000923830E+03  0.35001154238E+03  0.12700000000E+01 0. -1.
         25    2    1    2    0    0  0.47842441671E+02  0.14743158628E+02 -0.29046745564E+03  0.32015595708E+03  0.12498893598E+03 0.  0.
    9000005    1    3    3    0    0  0.40153723461E+02  0.52035239436E+02 -0.68477066955E+02  0.94921527325E+02  0.10000000000E+01 0.  0.
    9000005    1    3    3    0    0  0.76887182099E+01 -0.37292080808E+02 -0.22199038869E+03  0.22523442976E+03  0.10000000000E+01 0.  0.
         21    1    1    2  502  501 -0.47842441671E+02 -0.14743158628E+02 -0.30699511793E+02  0.58725803321E+02  0.00000000000E+00 0. -1.
<mgrwt>
<rscale>  1 0.13464210E+03</rscale>
<asrwt>0</asrwt>
<pdfrwt beam="2">  1        4 0.53849899E-01 0.13464210E+03</pdfrwt>
<pdfrwt beam="1">  1       -4 0.44395997E-02 0.13464210E+03</pdfrwt>
<totfact> 0.15836697E+03</totfact>
</mgrwt>
</event>
<event>
 6    4  0.2220150E-003  0.1350126E+03  0.7818608E-02  0.1220202E+00
         -4   -1    0    0    0  501 -0.00000000000E+00  0.00000000000E+00  0.40356508465E+02  0.40376486666E+02  0.12700000000E+01 0.  1.
          4   -1    0    0  502    0  0.00000000000E+00 -0.00000000000E+00 -0.23166652874E+03  0.23167000980E+03  0.12700000000E+01 0.  1.
         25    2    1    2    0    0  0.49013459215E+02  0.14110482722E+02 -0.16917739226E+03  0.21644723271E+03  0.12500795811E+03 0.  0.
    9000005    1    3    3    0    0  0.22564684226E+02 -0.51936295741E+01  0.16149051083E+02  0.28247665625E+02  0.10000000000E+01 0.  0.
    9000005    1    3    3    0    0  0.26448774988E+02  0.19304112296E+02 -0.18532644334E+03  0.18819956708E+03  0.10000000000E+01 0.  0.
         21    1    1    2  502  501 -0.49013459215E+02 -0.14110482722E+02 -0.22132628020E+02  0.55599263753E+02  0.00000000000E+00 0.  1.
<mgrwt>
<rscale>  1 0.13501265E+03</rscale>
<asrwt>0</asrwt>
<pdfrwt beam="2">  1        4 0.35642808E-01 0.13501265E+03</pdfrwt>
<pdfrwt beam="1">  1       -4 0.62104983E-02 0.13501265E+03</pdfrwt>
<totfact> 0.21017459E+03</totfact>
</mgrwt>
</event>
<event>
 6    4  0.2220150E-003  0.1273435E+03  0.7818608E-02  0.1231452E+00
          4   -1    0    0  502    0  0.00000000000E+00  0.00000000000E+00  0.22616329731E+02  0.22651959529E+02  0.12700000000E+01 0. -1.
         -4   -1    0    0    0  501 -0.00000000000E+00 -0.00000000000E+00 -0.66611297965E+03  0.66611419033E+03  0.12700000000E+01 0. -1.
         25    2    1    2    0    0  0.24093549856E+02 -0.31302005999E+01 -0.15922167585E+03  0.20388209381E+03  0.12500427519E+03 0.  0.
    9000005    1    3    3    0    0  0.35011733017E+02  0.53073727526E+02 -0.51273953720E+02  0.81686353404E+02  0.10000000000E+01 0.  0.
    9000005    1    3    3    0    0 -0.10918183161E+02 -0.56203928126E+02 -0.10794772213E+03  0.12219574041E+03  0.10000000000E+01 0.  0.
         21    1    1    2  502  501 -0.24093549856E+02  0.31302005999E+01 -0.48427497406E+03  0.48488405604E+03  0.00000000000E+00 0. -1.
<mgrwt>
<rscale>  1 0.12734350E+03</rscale>
<asrwt>0</asrwt>
<pdfrwt beam="1">  1        4 0.34822697E-02 0.12734350E+03</pdfrwt>
<pdfrwt beam="2">  1       -4 0.10248174E+00 0.12734350E+03</pdfrwt>
<totfact> 0.56477270E+02</totfact>
</mgrwt>
</event>
<event>
 6    4  0.2220150E-003  0.1293262E+03  0.7818608E-02  0.1228459E+00
         -4   -1    0    0    0  501 -0.00000000000E+00  0.00000000000E+00  0.55267997488E+03  0.55268143404E+03  0.12700000000E+01 0.  1.
          4   -1    0    0  502    0  0.00000000000E+00 -0.00000000000E+00 -0.24663682452E+02  0.24696358681E+02  0.12700000000E+01 0.  1.
         25    2    1    2    0    0 -0.30078547695E+02 -0.14002070338E+02  0.15061064927E+03  0.19851660905E+03  0.12499799754E+03 0.  0.
    9000005    1    3    3    0    0  0.47000632815E+02  0.96433865037E+01  0.46384956080E+02  0.66742928756E+02  0.10000000000E+01 0.  0.
    9000005    1    3    3    0    0 -0.77079180510E+02 -0.23645456842E+02  0.10422569319E+03  0.13177368029E+03  0.10000000000E+01 0.  0.
         21    1    1    2  502  501  0.30078547695E+02  0.14002070338E+02  0.37740564316E+03  0.37886118367E+03  0.00000000000E+00 0.  1.
<mgrwt>
<rscale>  1 0.12932624E+03</rscale>
<asrwt>0</asrwt>
<pdfrwt beam="2">  1        4 0.37970385E-02 0.12932624E+03</pdfrwt>
<pdfrwt beam="1">  1       -4 0.85030315E-01 0.12932624E+03</pdfrwt>
<totfact> 0.75572915E+02</totfact>
</mgrwt>
</event>
<event>
 6    4  0.2220150E-003  0.1291437E+03  0.7818608E-02  0.1228732E+00
          4   -1    0    0  502    0  0.00000000000E+00  0.00000000000E+00  0.11171804738E+03  0.11172526577E+03  0.12700000000E+01 0. -1.
         -4   -1    0    0    0  501 -0.00000000000E+00 -0.00000000000E+00 -0.70611798349E+02  0.70623218322E+02  0.12700000000E+01 0. -1.
         25    2    1    2    0    0  0.30392133560E+02 -0.11407738983E+02  0.62497861522E+02  0.14347150664E+03  0.12499708889E+03 0.  0.
    9000005    1    3    3    0    0  0.78718853033E+02 -0.26452674531E+01  0.48040362902E+02  0.92263382392E+02  0.10000000000E+01 0.  0.
    9000005    1    3    3    0    0 -0.48326719473E+02 -0.87624715299E+01  0.14457498620E+02  0.51208124245E+02  0.10000000000E+01 0.  0.
         21    1    1    2  502  501 -0.30392133560E+02  0.11407738983E+02 -0.21391612488E+02  0.38876977453E+02  0.00000000000E+00 0.  1.
<mgrwt>
<rscale>  1 0.12914368E+03</rscale>
<asrwt>0</asrwt>
<pdfrwt beam="1">  1        4 0.17188826E-01 0.12914368E+03</pdfrwt>
<pdfrwt beam="2">  1       -4 0.10864787E-01 0.12914368E+03</pdfrwt>
<totfact> 0.31589247E+03</totfact>
</mgrwt>
</event>
<event>
 6    4  0.2220150E-003  0.1271975E+03  0.7818608E-02  0.1231674E+00
         -4   -1    0    0    0  501 -0.00000000000E+00  0.00000000000E+00  0.10657635081E+03  0.10658391742E+03  0.12700000000E+01 0. -1.
          4   -1    0    0  502    0  0.00000000000E+00 -0.00000000000E+00 -0.58827800001E+02  0.58841507058E+02  0.12700000000E+01 0. -1.
         25    2    1    2    0    0 -0.13820615631E+02 -0.19056838839E+02  0.19548241051E+02  0.12869083596E+03  0.12500010004E+03 0.  0.
    9000005    1    3    3    0    0 -0.56031255459E+02 -0.49739447462E+02  0.93621815411E+01  0.75512678838E+02  0.10000000000E+01 0.  0.
    9000005    1    3    3    0    0  0.42210639828E+02  0.30682608623E+02  0.10186059509E+02  0.53178157123E+02  0.10000000000E+01 0.  0.
         21    1    1    2  502  501  0.13820615631E+02  0.19056838839E+02  0.28200309763E+02  0.36734588519E+02  0.00000000000E+00 0. -1.
<mgrwt>
<rscale>  1 0.12719747E+03</rscale>
<asrwt>0</asrwt>
<pdfrwt beam="2">  1        4 0.90520674E-02 0.12719747E+03</pdfrwt>
<pdfrwt beam="1">  1       -4 0.16397998E-01 0.12719747E+03</pdfrwt>
<totfact> 0.46485180E+03</totfact>
</mgrwt>
</event>
<event>
 6    4  0.2220150E-003  0.1301774E+03  0.7818608E-02  0.1227193E+00
         -4   -1    0    0    0  501 -0.00000000000E+00  0.00000000000E+00  0.28145665805E+02  0.28174303960E+02  0.12700000000E+01 0.  1.
          4   -1    0    0  502    0  0.00000000000E+00 -0.00000000000E+00 -0.24938995683E+03  0.24939319050E+03  0.12700000000E+01 0.  1.
         25    2    1    2    0    0  0.31624782012E+02 -0.17910493157E+02 -0.18525720148E+03  0.22642081112E+03  0.12500096162E+03 0.  0.
    9000005    1    3    3    0    0 -0.41116676959E+02 -0.99822628409E+01 -0.12387894542E+03  0.13090920446E+03  0.10000000000E+01 0.  0.
    9000005    1    3    3    0    0  0.72741458971E+02 -0.79282303159E+01 -0.61378256067E+02  0.95511606661E+02  0.10000000000E+01 0.  0.
         21    1    1    2  502  501 -0.31624782012E+02  0.17910493157E+02 -0.35987089538E+02  0.51146683332E+02  0.00000000000E+00 0.  1.
<mgrwt>
<rscale>  1 0.13017739E+03</rscale>
<asrwt>0</asrwt>
<pdfrwt beam="2">  1        4 0.38370136E-01 0.13017739E+03</pdfrwt>
<pdfrwt beam="1">  1       -4 0.43325543E-02 0.13017739E+03</pdfrwt>
<totfact> 0.32248709E+03</totfact>
</mgrwt>
</event>
<event>
 6    4  0.2220150E-003  0.1290377E+03  0.7818608E-02  0.1228891E+00
         -4   -1    0    0    0  501 -0.00000000000E+00  0.00000000000E+00  0.54670481369E+02  0.54685230484E+02  0.12700000000E+01 0.  1.
          4   -1    0    0  502    0  0.00000000000E+00 -0.00000000000E+00 -0.11915739686E+03  0.11916416461E+03  0.12700000000E+01 0.  1.
         25    2    1    2    0    0 -0.31961269181E+02  0.16901252738E+01 -0.56480385046E+02  0.14085721752E+03  0.12500537021E+03 0.  0.
    9000005    1    3    3    0    0 -0.66048261584E+02 -0.33863356319E+02 -0.13434208221E+02  0.75435917904E+02  0.10000000000E+01 0.  0.
    9000005    1    3    3    0    0  0.34086992403E+02  0.35553481593E+02 -0.43046176825E+02  0.65421299618E+02  0.10000000000E+01 0.  0.
         21    1    1    2  502  501  0.31961269181E+02 -0.16901252738E+01 -0.80065304468E+01  0.32992177571E+02  0.00000000000E+00 0.  1.
<mgrwt>
<rscale>  1 0.12903768E+03</rscale>
<asrwt>0</asrwt>
<pdfrwt beam="2">  1        4 0.18333562E-01 0.12903768E+03</pdfrwt>
<pdfrwt beam="1">  1       -4 0.84124984E-02 0.12903768E+03</pdfrwt>
<totfact> 0.43264628E+03</totfact>
</mgrwt>
</event>
<event>
 6    4  0.2220150E-003  0.1271866E+03  0.7818608E-02  0.1231691E+00
         -4   -1    0    0    0  501 -0.00000000000E+00  0.00000000000E+00  0.93694295880E+03  0.93694381952E+03  0.12700000000E+01 0. -1.
          4   -1    0    0  502    0  0.00000000000E+00 -0.00000000000E+00 -0.11081722528E+03  0.11082450234E+03  0.12700000000E+01 0. -1.
         25    2    1    2    0    0 -0.89715372277E+01  0.21695227073E+02 -0.74125646574E+02  0.14721087300E+03  0.12500103316E+03 0.  0.
    9000005    1    3    3    0    0  0.14122142157E+02  0.64766853582E+02 -0.10731650334E+02  0.67159128500E+02  0.10000000000E+01 0.  0.
    9000005    1    3    3    0    0 -0.23093679385E+02 -0.43071626509E+02 -0.63393996239E+02  0.80051744496E+02  0.10000000000E+01 0.  0.
         21    1    1    2  502  501  0.89715372277E+01 -0.21695227073E+02  0.90025138009E+03  0.90055744887E+03  0.00000000000E+00 0. -1.
<mgrwt>
<rscale>  1 0.12718659E+03</rscale>
<asrwt>0</asrwt>
<pdfrwt beam="2">  1        4 0.17049430E-01 0.12718659E+03</pdfrwt>
<pdfrwt beam="1">  1       -4 0.14414569E+00 0.12718659E+03</pdfrwt>
<totfact> 0.17858585E+01</totfact>
</mgrwt>
</event>
<event>
 6    4  0.2220150E-003  0.1390672E+03  0.7818608E-02  0.1214590E+00
          4   -1    0    0  502    0  0.00000000000E+00  0.00000000000E+00  0.89910103602E+02  0.89919072669E+02  0.12700000000E+01 0.  1.
         -4   -1    0    0    0  501 -0.00000000000E+00 -0.00000000000E+00 -0.12216689892E+03  0.12217349996E+03  0.12700000000E+01 0.  1.
         25    2    1    2    0    0  0.26124737590E+02  0.55068075712E+02  0.75871667740E+01  0.13927405718E+03  0.12499881210E+03 0.  0.
    9000005    1    3    3    0    0 -0.13522904164E+02  0.61657986768E+02  0.50223363508E+02  0.80671943768E+02  0.10000000000E+01 0.  0.
    9000005    1    3    3    0    0  0.39647641753E+02 -0.65899110558E+01 -0.42636196734E+02  0.58602113411E+02  0.10000000000E+01 0.  0.
         21    1    1    2  502  501 -0.26124737590E+02 -0.55068075712E+02 -0.39843962094E+02  0.72818515449E+02  0.00000000000E+00 0.  1.
<mgrwt>
<rscale>  1 0.13906724E+03</rscale>
<asrwt>0</asrwt>
<pdfrwt beam="1">  1        4 0.13833521E-01 0.13906724E+03</pdfrwt>
<pdfrwt beam="2">  1       -4 0.18796105E-01 0.13906724E+03</pdfrwt>
<totfact> 0.18117624E+03</totfact>
</mgrwt>
</event>
<event>
 6    4  0.2220150E-003  0.1268776E+03  0.7818608E-02  0.1232164E+00
          4   -1    0    0  502    0  0.00000000000E+00  0.00000000000E+00  0.15539055425E+02  0.15590867310E+02  0.12700000000E+01 0.  1.
         -4   -1    0    0    0  501 -0.00000000000E+00 -0.00000000000E+00 -0.40261985352E+03  0.40262185652E+03  0.12700000000E+01 0.  1.
         25    2    1    2    0    0 -0.16290042142E+02  0.14344789752E+02 -0.26016535058E+03  0.28945454241E+03  0.12500713584E+03 0.  0.
    9000005    1    3    3    0    0 -0.70985380561E+02  0.12690070919E+02 -0.15104354983E+03  0.16737716720E+03  0.10000000000E+01 0.  0.
    9000005    1    3    3    0    0  0.54695338419E+02  0.16547188334E+01 -0.10912180075E+03  0.12207737521E+03  0.10000000000E+01 0.  0.
         21    1    1    2  502  501  0.16290042142E+02 -0.14344789752E+02 -0.12691544751E+03  0.12875818142E+03  0.00000000000E+00 0.  1.
<mgrwt>
<rscale>  1 0.12687759E+03</rscale>
<asrwt>0</asrwt>
<pdfrwt beam="1">  1        4 0.23947638E-02 0.12687759E+03</pdfrwt>
<pdfrwt beam="2">  1       -4 0.61945648E-01 0.12687759E+03</pdfrwt>
<totfact> 0.30780453E+03</totfact>
</mgrwt>
</event>
<event>
 6    4  0.2220150E-003  0.1420801E+03  0.7818608E-02  0.1210557E+00
          4   -1    0    0  502    0  0.00000000000E+00  0.00000000000E+00  0.49651103193E+02  0.49667342876E+02  0.12700000000E+01 0.  1.
         -4   -1    0    0    0  501 -0.00000000000E+00 -0.00000000000E+00 -0.26549914672E+03  0.26550218419E+03  0.12700000000E+01 0.  1.
         25    2    1    2    0    0 -0.67369937196E+02  0.48554415492E+01 -0.79014997154E+02  0.16257343822E+03  0.12499787714E+03 0.  0.
    9000005    1    3    3    0    0  0.35055641039E+02 -0.14263271825E+02 -0.22304739880E+02  0.43941328074E+02  0.10000000000E+01 0.  0.
    9000005    1    3    3    0    0 -0.10242557824E+03  0.19118713374E+02 -0.56710257274E+02  0.11863211015E+03  0.10000000000E+01 0.  0.
         21    1    1    2  502  501  0.67369937196E+02 -0.48554415492E+01 -0.13683304637E+03  0.15259608884E+03  0.00000000000E+00 0.  1.
<mgrwt>
<rscale>  1 0.14208009E+03</rscale>
<asrwt>0</asrwt>
<pdfrwt beam="1">  1        4 0.76401142E-02 0.14208009E+03</pdfrwt>
<pdfrwt beam="2">  1       -4 0.40847505E-01 0.14208009E+03</pdfrwt>
<totfact> 0.11587660E+03</totfact>
</mgrwt>
</event>
<event>
 6    4  0.2220150E-003  0.1296826E+03  0.7818608E-02  0.1227928E+00
          4   -1    0    0  502    0  0.00000000000E+00  0.00000000000E+00  0.35089445824E+02  0.35112420996E+02  0.12700000000E+01 0.  1.
         -4   -1    0    0    0  501 -0.00000000000E+00 -0.00000000000E+00 -0.20964734625E+03  0.20965119291E+03  0.12700000000E+01 0.  1.
         25    2    1    2    0    0  0.15915801459E+01 -0.34499323813E+02 -0.10409751619E+03  0.16629449758E+03  0.12499932231E+03 0.  0.
    9000005    1    3    3    0    0  0.44005064285E+02  0.14410683782E+02 -0.32210206779E+01  0.46427238385E+02  0.10000000000E+01 0.  0.
    9000005    1    3    3    0    0 -0.42413484139E+02 -0.48910007595E+02 -0.10087649551E+03  0.11986725919E+03  0.10000000000E+01 0.  0.
         21    1    1    2  502  501 -0.15915801459E+01  0.34499323813E+02 -0.70460384235E+02  0.78469116329E+02  0.00000000000E+00 0.  1.
<mgrwt>
<rscale>  1 0.12968256E+03</rscale>
<asrwt>0</asrwt>
<pdfrwt beam="1">  1        4 0.54004396E-02 0.12968256E+03</pdfrwt>
<pdfrwt beam="2">  1       -4 0.32255500E-01 0.12968256E+03</pdfrwt>
<totfact> 0.31636141E+03</totfact>
</mgrwt>
</event>
<event>
 6    4  0.2220150E-003  0.1280019E+03  0.7818608E-02  0.1230451E+00
          4   -1    0    0  502    0  0.00000000000E+00  0.00000000000E+00  0.58331279307E+02  0.58345103013E+02  0.12700000000E+01 0.  1.
         -4   -1    0    0    0  501 -0.00000000000E+00 -0.00000000000E+00 -0.10431086316E+03  0.10431859409E+03  0.12700000000E+01 0.  1.
         25    2    1    2    0    0 -0.25353282689E+02 -0.10772003558E+02 -0.32860989351E+02  0.13215267409E+03  0.12500263855E+03 0.  0.
    9000005    1    3    3    0    0 -0.22388401558E+02 -0.39854625047E+02 -0.70779193201E+02  0.84263431287E+02  0.10000000000E+01 0.  0.
    9000005    1    3    3    0    0 -0.29648811305E+01  0.29082621489E+02  0.37918203851E+02  0.47889242801E+02  0.10000000000E+01 0.  0.
         21    1    1    2  502  501  0.25353282689E+02  0.10772003558E+02 -0.13118594500E+02  0.30511023015E+02  0.00000000000E+00 0.  1.
<mgrwt>
<rscale>  1 0.12800189E+03</rscale>
<asrwt>0</asrwt>
<pdfrwt beam="1">  1        4 0.89757010E-02 0.12800189E+03</pdfrwt>
<pdfrwt beam="2">  1       -4 0.16049483E-01 0.12800189E+03</pdfrwt>
<totfact> 0.49038635E+03</totfact>
</mgrwt>
</event>
<event>
 6    4  0.2220150E-003  0.1280702E+03  0.7818608E-02  0.1230348E+00
         -4   -1    0    0    0  501 -0.00000000000E+00  0.00000000000E+00  0.21886519590E+03  0.21886888056E+03  0.12700000000E+01 0. -1.
          4   -1    0    0  502    0  0.00000000000E+00 -0.00000000000E+00 -0.67038148767E+02  0.67050177406E+02  0.12700000000E+01 0. -1.
         25    2    1    2    0    0  0.26953965224E+02  0.71261199307E+01 -0.34918011887E+01  0.12811778271E+03  0.12499870297E+03 0.  0.
    9000005    1    3    3    0    0  0.42409392015E+02 -0.40694082309E+02 -0.35361592865E+02  0.68600343411E+02  0.10000000000E+01 0.  0.
    9000005    1    3    3    0    0 -0.15455426792E+02  0.47820202240E+02  0.31869791677E+02  0.59517439302E+02  0.10000000000E+01 0.  0.
         21    1    1    2  502  501 -0.26953965224E+02 -0.71261199307E+01  0.15531884832E+03  0.15780127525E+03  0.00000000000E+00 0. -1.
<mgrwt>
<rscale>  1 0.12807019E+03</rscale>
<asrwt>0</asrwt>
<pdfrwt beam="2">  1        4 0.10314770E-01 0.12807019E+03</pdfrwt>
<pdfrwt beam="1">  1       -4 0.33672778E-01 0.12807019E+03</pdfrwt>
<totfact> 0.10002380E+03</totfact>
</mgrwt>
</event>
<event>
 6    4  0.2220150E-003  0.1301754E+03  0.7818608E-02  0.1227196E+00
          4   -1    0    0  502    0  0.00000000000E+00  0.00000000000E+00  0.16445630716E+03  0.16446121082E+03  0.12700000000E+01 0.  1.
         -4   -1    0    0    0  501 -0.00000000000E+00 -0.00000000000E+00 -0.42403951138E+02  0.42422965150E+02  0.12700000000E+01 0.  1.
         25    2    1    2    0    0  0.34014657083E+02  0.12850420883E+02  0.10187221332E+03  0.16529850088E+03  0.12499406519E+03 0.  0.
    9000005    1    3    3    0    0  0.40708654993E+02 -0.49895354862E+02  0.68062022045E+02  0.93702614014E+02  0.10000000000E+01 0.  0.
    9000005    1    3    3    0    0 -0.66939979095E+01  0.62745775745E+02  0.33810191270E+02  0.71595886863E+02  0.10000000000E+01 0.  0.
         21    1    1    2  502  501 -0.34014657083E+02 -0.12850420883E+02  0.20180142706E+02  0.41585675094E+02  0.00000000000E+00 0.  1.
<mgrwt>
<rscale>  1 0.13017545E+03</rscale>
<asrwt>0</asrwt>
<pdfrwt beam="1">  1        4 0.25302810E-01 0.13017545E+03</pdfrwt>
<pdfrwt beam="2">  1       -4 0.65255246E-02 0.13017545E+03</pdfrwt>
<totfact> 0.36732293E+03</totfact>
</mgrwt>
</event>
<event>
 6    4  0.2220150E-003  0.1308276E+03  0.7818608E-02  0.1226233E+00
          4   -1    0    0  502    0  0.00000000000E+00  0.00000000000E+00  0.29338960001E+03  0.29339234873E+03  0.12700000000E+01 0. -1.
         -4   -1    0    0    0  501 -0.00000000000E+00 -0.00000000000E+00 -0.47032623589E+02  0.47049767074E+02  0.12700000000E+01 0. -1.
         25    2    1    2    0    0  0.80017077403E+01 -0.37730402807E+02  0.26653586623E+03  0.29691283581E+03  0.12501301318E+03 0.  0.
    9000005    1    3    3    0    0 -0.21371679110E+02  0.84792673934E+00 -0.42403387847E+01  0.21827691603E+02  0.10000000000E+01 0.  0.
    9000005    1    3    3    0    0  0.29373386850E+02 -0.38578329546E+02  0.27077620501E+03  0.27508514421E+03  0.10000000000E+01 0.  0.
         21    1    1    2  502  501 -0.80017077403E+01  0.37730402807E+02 -0.20178889806E+02  0.43529279991E+02  0.00000000000E+00 0. -1.
<mgrwt>
<rscale>  1 0.13082761E+03</rscale>
<asrwt>0</asrwt>
<pdfrwt beam="1">  1        4 0.45138392E-01 0.13082761E+03</pdfrwt>
<pdfrwt beam="2">  1       -4 0.72373184E-02 0.13082761E+03</pdfrwt>
<totfact> 0.10209127E+03</totfact>
</mgrwt>
</event>
<event>
 6    4  0.2220150E-003  0.1317129E+03  0.7818608E-02  0.1224936E+00
         -4   -1    0    0    0  501 -0.00000000000E+00  0.00000000000E+00  0.70195900417E+03  0.70196015303E+03  0.12700000000E+01 0. -1.
          4   -1    0    0  502    0  0.00000000000E+00 -0.00000000000E+00 -0.11669985024E+02  0.11738886253E+02  0.12700000000E+01 0. -1.
         25    2    1    2    0    0  0.36011528179E+02  0.20648162200E+02  0.41790183173E+03  0.43816690570E+03  0.12500047810E+03 0.  0.
    9000005    1    3    3    0    0 -0.22865571789E+02  0.11855365603E+02  0.33559413119E+03  0.33658253810E+03  0.10000000000E+01 0.  0.
    9000005    1    3    3    0    0  0.58877099968E+02  0.87927965976E+01  0.82307700542E+02  0.10158436760E+03  0.10000000000E+01 0.  0.
         21    1    1    2  502  501 -0.36011528179E+02 -0.20648162200E+02  0.27238718742E+03  0.27553213358E+03  0.00000000000E+00 0. -1.
<mgrwt>
<rscale>  1 0.13171293E+03</rscale>
<asrwt>0</asrwt>
<pdfrwt beam="2">  1        4 0.18007708E-02 0.13171293E+03</pdfrwt>
<pdfrwt beam="1">  1       -4 0.10799908E+00 0.13171293E+03</pdfrwt>
<totfact> 0.14016009E+03</totfact>
</mgrwt>
</event>
<event>
 6    4  0.2220150E-003  0.1271226E+03  0.7818608E-02  0.1231789E+00
          4   -1    0    0  502    0  0.00000000000E+00  0.00000000000E+00  0.73526374518E+02  0.73537341873E+02  0.12700000000E+01 0.  1.
         -4   -1    0    0    0  501 -0.00000000000E+00 -0.00000000000E+00 -0.10250916666E+03  0.10251703346E+03  0.12700000000E+01 0.  1.
         25    2    1    2    0    0  0.19678603670E+02  0.12208297110E+02  0.13329296741E+02  0.12781950386E+03  0.12499546173E+03 0.  0.
    9000005    1    3    3    0    0 -0.52427095933E+01 -0.49749482170E+01  0.66354208017E+02  0.66754153693E+02  0.10000000000E+01 0.  0.
    9000005    1    3    3    0    0  0.24921313263E+02  0.17183245327E+02 -0.53024911276E+02  0.61065350163E+02  0.10000000000E+01 0.  0.
         21    1    1    2  502  501 -0.19678603670E+02 -0.12208297110E+02 -0.42312088886E+02  0.48234871479E+02  0.00000000000E+00 0. -1.
<mgrwt>
<rscale>  1 0.12712260E+03</rscale>
<asrwt>0</asrwt>
<pdfrwt beam="1">  1        4 0.11313199E-01 0.12712260E+03</pdfrwt>
<pdfrwt beam="2">  1       -4 0.15772090E-01 0.12712260E+03</pdfrwt>
<totfact> 0.34183273E+03</totfact>
</mgrwt>
</event>
<event>
 6    4  0.2220150E-003  0.1335185E+03  0.7818608E-02  0.1222326E+00
          4   -1    0    0  502    0  0.00000000000E+00  0.00000000000E+00  0.14642603304E+02  0.14697575702E+02  0.12700000000E+01 0. -1.
         -4   -1    0    0    0  501 -0.00000000000E+00 -0.00000000000E+00 -0.55486512974E+03  0.55486658315E+03  0.12700000000E+01 0. -1.
         25    2    1    2    0    0  0.43947808660E+02  0.16455190902E+02 -0.40178149427E+03  0.42338583426E+03  0.12500004929E+03 0.  0.
    9000005    1    3    3    0    0  0.18220412244E+02 -0.45909569416E+02 -0.27851086738E+03  0.28285857815E+03  0.10000000000E+01 0.  0.
    9000005    1    3    3    0    0  0.25727396416E+02  0.62364760318E+02 -0.12327062689E+03  0.14052725611E+03  0.10000000000E+01 0.  0.
         21    1    1    2  502  501 -0.43947808660E+02 -0.16455190902E+02 -0.13844103216E+03  0.14617832459E+03  0.00000000000E+00 0. -1.
<mgrwt>
<rscale>  1 0.13351852E+03</rscale>
<asrwt>0</asrwt>
<pdfrwt beam="1">  1        4 0.22570491E-02 0.13351852E+03</pdfrwt>
<pdfrwt beam="2">  1       -4 0.85368190E-01 0.13351852E+03</pdfrwt>
<totfact> 0.17015345E+03</totfact>
</mgrwt>
</event>
<event>
 6    4  0.2220150E-003  0.1286098E+03  0.7818608E-02  0.1229533E+00
         -4   -1    0    0    0  501 -0.00000000000E+00  0.00000000000E+00  0.56339563468E+02  0.56353875748E+02  0.12700000000E+01 0. -1.
          4   -1    0    0  502    0  0.00000000000E+00 -0.00000000000E+00 -0.11587404646E+03  0.11588100596E+03  0.12700000000E+01 0. -1.
         25    2    1    2    0    0 -0.19591485884E+02  0.23068795830E+02 -0.60110597674E+02  0.14196397871E+03  0.12499796654E+03 0.  0.
    9000005    1    3    3    0    0  0.20756967187E+02 -0.26244599871E+02  0.20464425655E+02  0.39235486828E+02  0.10000000000E+01 0.  0.
    9000005    1    3    3    0    0 -0.40348453071E+02  0.49313395701E+02 -0.80575023330E+02  0.10272849189E+03  0.10000000000E+01 0.  0.
         21    1    1    2  502  501  0.19591485884E+02 -0.23068795830E+02  0.57611468119E+00  0.30270902997E+02  0.00000000000E+00 0.  1.
<mgrwt>
<rscale>  1 0.12860983E+03</rscale>
<asrwt>0</asrwt>
<pdfrwt beam="2">  1        4 0.17828413E-01 0.12860983E+03</pdfrwt>
<pdfrwt beam="1">  1       -4 0.86692615E-02 0.12860983E+03</pdfrwt>
<totfact> 0.43214448E+03</totfact>
</mgrwt>
</event>
<event>
 6    4  0.2220150E-003  0.1347383E+03  0.7818608E-02  0.1220590E+00
         -4   -1    0    0    0  501 -0.00000000000E+00  0.00000000000E+00  0.79548326795E+01  0.80555734097E+01  0.12700000000E+01 0. -1.
          4   -1    0    0  502    0  0.00000000000E+00 -0.00000000000E+00 -0.13909396009E+04  0.13909401806E+04  0.12700000000E+01 0. -1.
         25    2    1    2    0    0 -0.39820828540E+02  0.30684415109E+02 -0.12425555411E+04  0.12498394618E+04  0.12500870254E+03 0.  0.
    9000005    1    3    3    0    0 -0.67047800612E+02  0.37341087800E+01 -0.34556011886E+03  0.35202577587E+03  0.10000000000E+01 0.  0.
    9000005    1    3    3    0    0  0.27226972072E+02  0.26950306329E+02 -0.89699542227E+03  0.89781368591E+03  0.10000000000E+01 0.  0.
         21    1    1    2  502  501  0.39820828540E+02 -0.30684415109E+02 -0.14042922705E+03  0.14915629227E+03  0.00000000000E+00 0. -1.
<mgrwt>
<rscale>  1 0.13473829E+03</rscale>
<asrwt>0</asrwt>
<pdfrwt beam="2">  1        4 0.21399831E+00 0.13473829E+03</pdfrwt>
<pdfrwt beam="1">  1       -4 0.12316154E-02 0.13473829E+03</pdfrwt>
<totfact> 0.42747724E+02</totfact>
</mgrwt>
</event>
<event>
 6    4  0.2220150E-003  0.1270402E+03  0.7818608E-02  0.1231915E+00
         -4   -1    0    0    0  501 -0.00000000000E+00  0.00000000000E+00  0.27230288194E+02  0.27259888024E+02  0.12700000000E+01 0. -1.
          4   -1    0    0  502    0  0.00000000000E+00 -0.00000000000E+00 -0.20710582503E+03  0.20710971890E+03  0.12700000000E+01 0. -1.
         25    2    1    2    0    0 -0.21008647749E+02  0.84974023827E+01 -0.15935813538E+03  0.20379947624E+03  0.12500256827E+03 0.  0.
    9000005    1    3    3    0    0 -0.24861226192E+02  0.15558887970E+02 -0.17960691435E+03  0.18198847009E+03  0.10000000000E+01 0.  0.
    9000005    1    3    3    0    0  0.38525784435E+01 -0.70614855872E+01  0.20248778971E+02  0.21811006148E+02  0.10000000000E+01 0.  0.
         21    1    1    2  502  501  0.21008647749E+02 -0.84974023827E+01 -0.20517401455E+02  0.30570130682E+02  0.00000000000E+00 0. -1.
<mgrwt>
<rscale>  1 0.12704020E+03</rscale>
<asrwt>0</asrwt>
<pdfrwt beam="2">  1        4 0.31865010E-01 0.12704020E+03</pdfrwt>
<pdfrwt beam="1">  1       -4 0.41918517E-02 0.12704020E+03</pdfrwt>
<totfact> 0.48333961E+03</totfact>
</mgrwt>
</event>
<event>
 6    4  0.2220150E-003  0.1276993E+03  0.7818608E-02  0.1230910E+00
         -4   -1    0    0    0  501 -0.00000000000E+00  0.00000000000E+00  0.29163523162E+03  0.29163799688E+03  0.12700000000E+01 0.  1.
          4   -1    0    0  502    0  0.00000000000E+00 -0.00000000000E+00 -0.21819404155E+02  0.21856333125E+02  0.12700000000E+01 0.  1.
         25    2    1    2    0    0 -0.20726340958E+02  0.15723077693E+02  0.18511386200E+03  0.22488722343E+03  0.12502129809E+03 0.  0.
    9000005    1    3    3    0    0  0.52854116144E+02  0.73307700144E+01  0.84741527842E+02  0.10014701355E+03  0.10000000000E+01 0.  0.
    9000005    1    3    3    0    0 -0.73580457102E+02  0.83923076784E+01  0.10037233416E+03  0.12474020988E+03  0.10000000000E+01 0.  0.
         21    1    1    2  502  501  0.20726340958E+02 -0.15723077693E+02  0.84701965464E+02  0.88607106572E+02  0.00000000000E+00 0.  1.
<mgrwt>
<rscale>  1 0.12769934E+03</rscale>
<asrwt>0</asrwt>
<pdfrwt beam="2">  1        4 0.33598850E-02 0.12769934E+03</pdfrwt>
<pdfrwt beam="1">  1       -4 0.44870010E-01 0.12769934E+03</pdfrwt>
<totfact> 0.35231093E+03</totfact>
</mgrwt>
</event>
<event>
 6    4  0.2220150E-003  0.1535941E+03  0.7818608E-02  0.1196125E+00
         -4   -1    0    0    0  501 -0.00000000000E+00  0.00000000000E+00  0.14326568845E+03  0.14327131739E+03  0.12700000000E+01 0.  1.
          4   -1    0    0  502    0  0.00000000000E+00 -0.00000000000E+00 -0.12156372612E+03  0.12157035991E+03  0.12700000000E+01 0.  1.
         25    2    1    2    0    0  0.58980861721E+02  0.67008794567E+02 -0.37017336352E+02  0.15799189192E+03  0.12498893600E+03 0.  0.
    9000005    1    3    3    0    0  0.48609321010E+02  0.10067310352E+03 -0.47134375819E+02  0.12132843543E+03  0.10000000000E+01 0.  0.
    9000005    1    3    3    0    0  0.10371540710E+02 -0.33664308950E+02  0.10117039468E+02  0.36663456484E+02  0.10000000000E+01 0.  0.
         21    1    1    2  502  501 -0.58980861721E+02 -0.67008794567E+02  0.58719298677E+02  0.10684978538E+03  0.00000000000E+00 0.  1.
<mgrwt>
<rscale>  1 0.15359412E+03</rscale>
<asrwt>0</asrwt>
<pdfrwt beam="2">  1        4 0.18703055E-01 0.15359412E+03</pdfrwt>
<pdfrwt beam="1">  1       -4 0.22041819E-01 0.15359412E+03</pdfrwt>
<totfact> 0.81563393E+02</totfact>
</mgrwt>
</event>
<event>
 6    4  0.2220150E-003  0.1270153E+03  0.7818608E-02  0.1231953E+00
         -4   -1    0    0    0  501 -0.00000000000E+00  0.00000000000E+00  0.62171814585E+02  0.62184784544E+02  0.12700000000E+01 0. -1.
          4   -1    0    0  502    0  0.00000000000E+00 -0.00000000000E+00 -0.91979641134E+02  0.91988408417E+02  0.12700000000E+01 0. -1.
         25    2    1    2    0    0 -0.22492643326E+02  0.97146861947E+00 -0.33500050859E+02  0.13135882741E+03  0.12500410144E+03 0.  0.
    9000005    1    3    3    0    0 -0.15580097398E+01 -0.51879319611E+02 -0.50084875179E+02  0.72134498816E+02  0.10000000000E+01 0.  0.
    9000005    1    3    3    0    0 -0.20934633586E+02  0.52850788230E+02  0.16584824320E+02  0.59224328596E+02  0.10000000000E+01 0.  0.
         21    1    1    2  502  501  0.22492643326E+02 -0.97146861947E+00  0.36922243108E+01  0.22814365549E+02  0.00000000000E+00 0. -1.
<mgrwt>
<rscale>  1 0.12701531E+03</rscale>
<asrwt>0</asrwt>
<pdfrwt beam="2">  1        4 0.14152386E-01 0.12701531E+03</pdfrwt>
<pdfrwt beam="1">  1       -4 0.95665666E-02 0.12701531E+03</pdfrwt>
<totfact> 0.54787336E+03</totfact>
</mgrwt>
</event>
<event>
 6    4  0.2220150E-003  0.1365842E+03  0.7818608E-02  0.1218000E+00
         -4   -1    0    0    0  501 -0.00000000000E+00  0.00000000000E+00  0.33567035592E+03  0.33567275842E+03  0.12700000000E+01 0. -1.
          4   -1    0    0  502    0  0.00000000000E+00 -0.00000000000E+00 -0.29102044346E+02  0.29129742277E+02  0.12700000000E+01 0. -1.
         25    2    1    2    0    0 -0.54828150325E+02  0.48932564413E+01  0.25549682509E+03  0.28971344185E+03  0.12500072292E+03 0.  0.
    9000005    1    3    3    0    0 -0.69004148534E+02 -0.30028538368E+02  0.23508812764E+03  0.24684147421E+03  0.10000000000E+01 0.  0.
    9000005    1    3    3    0    0  0.14175998209E+02  0.34921794809E+02  0.20408697449E+02  0.42871967642E+02  0.10000000000E+01 0.  0.
         21    1    1    2  502  501  0.54828150325E+02 -0.48932564413E+01  0.51071486487E+02  0.75089058848E+02  0.00000000000E+00 0. -1.
<mgrwt>
<rscale>  1 0.13658423E+03</rscale>
<asrwt>0</asrwt>
<pdfrwt beam="2">  1        4 0.44795527E-02 0.13658423E+03</pdfrwt>
<pdfrwt beam="1">  1       -4 0.51643912E-01 0.13658423E+03</pdfrwt>
<totfact> 0.17065522E+03</totfact>
</mgrwt>
</event>
<event>
 6    4  0.2220150E-003  0.1312968E+03  0.7818608E-02  0.1225544E+00
         -4   -1    0    0    0  501 -0.00000000000E+00  0.00000000000E+00  0.10912960038E+03  0.10913698996E+03  0.12700000000E+01 0. -1.
          4   -1    0    0  502    0  0.00000000000E+00 -0.00000000000E+00 -0.12459512646E+03  0.12460159886E+03  0.12700000000E+01 0. -1.
         25    2    1    2    0    0  0.18356927060E+02 -0.35754330879E+02 -0.82869385582E+02  0.15526165448E+03  0.12499398921E+03 0.  0.
    9000005    1    3    3    0    0  0.52160503348E+02 -0.44995719895E+02 -0.95709104899E+02  0.11792610262E+03  0.10000000000E+01 0.  0.
    9000005    1    3    3    0    0 -0.33803576288E+02  0.92413890162E+01  0.12839719317E+02  0.37335551864E+02  0.10000000000E+01 0.  0.
         21    1    1    2  502  501 -0.18356927060E+02  0.35754330879E+02  0.67403859499E+02  0.78476934337E+02  0.00000000000E+00 0. -1.
<mgrwt>
<rscale>  1 0.13129679E+03</rscale>
<asrwt>0</asrwt>
<pdfrwt beam="2">  1        4 0.19169547E-01 0.13129679E+03</pdfrwt>
<pdfrwt beam="1">  1       -4 0.16790235E-01 0.13129679E+03</pdfrwt>
<totfact> 0.12311812E+03</totfact>
</mgrwt>
</event>
<event>
 6    4  0.2220150E-003  0.1293884E+03  0.7818608E-02  0.1228366E+00
         -4   -1    0    0    0  501 -0.00000000000E+00  0.00000000000E+00  0.48875295514E+02  0.48891792886E+02  0.12700000000E+01 0. -1.
          4   -1    0    0  502    0  0.00000000000E+00 -0.00000000000E+00 -0.14337218445E+03  0.14337780921E+03  0.12700000000E+01 0. -1.
         25    2    1    2    0    0  0.33171307850E+00  0.33358131690E+02 -0.92107621361E+02  0.15882436951E+03  0.12501396504E+03 0.  0.
    9000005    1    3    3    0    0 -0.10571448485E-01 -0.53039159758E+01  0.30132246153E+02  0.30611826059E+02  0.10000000000E+01 0.  0.
    9000005    1    3    3    0    0  0.34228452699E+00  0.38662047666E+02 -0.12223986751E+03  0.12821254345E+03  0.10000000000E+01 0.  0.
         21    1    1    2  502  501 -0.33171307850E+00 -0.33358131690E+02 -0.23892675796E+01  0.33445232590E+02  0.00000000000E+00 0.  1.
<mgrwt>
<rscale>  1 0.12938843E+03</rscale>
<asrwt>0</asrwt>
<pdfrwt beam="2">  1        4 0.22058961E-01 0.12938843E+03</pdfrwt>
<pdfrwt beam="1">  1       -4 0.75209780E-02 0.12938843E+03</pdfrwt>
<totfact> 0.37361897E+03</totfact>
</mgrwt>
</event>
<event>
 6    4  0.2220150E-003  0.1929473E+03  0.7818608E-02  0.1155830E+00
         -4   -1    0    0    0  501 -0.00000000000E+00  0.00000000000E+00  0.14736366444E+04  0.14736371916E+04  0.12700000000E+01 0. -1.
          4   -1    0    0  502    0  0.00000000000E+00 -0.00000000000E+00 -0.40300649378E+02  0.40320655257E+02  0.12700000000E+01 0. -1.
         25    2    1    2    0    0  0.11561835920E+03 -0.90750799119E+02  0.22366027584E+03  0.29538546166E+03  0.12500135776E+03 0.  0.
    9000005    1    3    3    0    0  0.13771623173E+03 -0.76909044500E+02  0.15173386945E+03  0.21887194600E+03  0.10000000000E+01 0.  0.
    9000005    1    3    3    0    0 -0.22097872529E+02 -0.13841754619E+02  0.71926406394E+02  0.76513515655E+02  0.10000000000E+01 0.  0.
         21    1    1    2  502  501 -0.11561835920E+03  0.90750799119E+02  0.12096757192E+04  0.12185723852E+04  0.00000000000E+00 0. -1.
<mgrwt>
<rscale>  1 0.19294728E+03</rscale>
<asrwt>0</asrwt>
<pdfrwt beam="2">  1        4 0.62016817E-02 0.19294728E+03</pdfrwt>
<pdfrwt beam="1">  1       -4 0.22671488E+00 0.19294728E+03</pdfrwt>
<totfact> 0.29675686E+01</totfact>
</mgrwt>
</event>
<event>
 6    4  0.2220150E-003  0.1292426E+03  0.7818608E-02  0.1228584E+00
         -4   -1    0    0    0  501 -0.00000000000E+00  0.00000000000E+00  0.97812473603E+03  0.97812556052E+03  0.12700000000E+01 0. -1.
          4   -1    0    0  502    0  0.00000000000E+00 -0.00000000000E+00 -0.11757103864E+02  0.11825497507E+02  0.12700000000E+01 0. -1.
         25    2    1    2    0    0 -0.29753448004E+02 -0.13874706259E+02  0.35656561015E+03  0.37926596635E+03  0.12500345493E+03 0.  0.
    9000005    1    3    3    0    0 -0.53531202277E+02  0.41674111582E+02  0.16537304557E+03  0.17875000810E+03  0.10000000000E+01 0.  0.
    9000005    1    3    3    0    0  0.23777754273E+02 -0.55548817841E+02  0.19119256458E+03  0.20051595825E+03  0.10000000000E+01 0.  0.
         21    1    1    2  502  501  0.29753448004E+02  0.13874706259E+02  0.60980202201E+03  0.61068509168E+03  0.00000000000E+00 0. -1.
<mgrwt>
<rscale>  1 0.12924256E+03</rscale>
<asrwt>0</asrwt>
<pdfrwt beam="2">  1        4 0.18141103E-02 0.12924256E+03</pdfrwt>
<pdfrwt beam="1">  1       -4 0.15048600E+00 0.12924256E+03</pdfrwt>
<totfact> 0.61478558E+02</totfact>
</mgrwt>
</event>
<event>
 6    4  0.2220150E-003  0.1282837E+03  0.7818608E-02  0.1230025E+00
         -4   -1    0    0    0  501 -0.00000000000E+00  0.00000000000E+00  0.10721317109E+02  0.10796274383E+02  0.12700000000E+01 0.  1.
          4   -1    0    0  502    0  0.00000000000E+00 -0.00000000000E+00 -0.57362373162E+03  0.57362513751E+03  0.12700000000E+01 0.  1.
         25    2    1    2    0    0  0.21111261859E+02  0.19654368810E+02 -0.46006959982E+03  0.47761987928E+03  0.12499893125E+03 0.  0.
    9000005    1    3    3    0    0 -0.27016718826E+02 -0.46811957696E+01 -0.38051537656E+03  0.38150330076E+03  0.10000000000E+01 0.  0.
    9000005    1    3    3    0    0  0.48127980685E+02  0.24335564580E+02 -0.79554223260E+02  0.96116578521E+02  0.10000000000E+01 0.  0.
         21    1    1    2  502  501 -0.21111261859E+02 -0.19654368810E+02 -0.10283281469E+03  0.10680153261E+03  0.00000000000E+00 0. -1.
<mgrwt>
<rscale>  1 0.12828372E+03</rscale>
<asrwt>0</asrwt>
<pdfrwt beam="2">  1        4 0.88255655E-01 0.12828372E+03</pdfrwt>
<pdfrwt beam="1">  1       -4 0.16553079E-02 0.12828372E+03</pdfrwt>
<totfact> 0.25206213E+03</totfact>
</mgrwt>
</event>
<event>
 6    4  0.2220150E-003  0.1268273E+03  0.7818608E-02  0.1232241E+00
         -4   -1    0    0    0  501 -0.00000000000E+00  0.00000000000E+00  0.22437307303E+04  0.22437310897E+04  0.12700000000E+01 0. -1.
          4   -1    0    0  502    0  0.00000000000E+00 -0.00000000000E+00 -0.28562254867E+01  0.31258477300E+01  0.12700000000E+01 0. -1.
         25    2    1    2    0    0 -0.11972120754E+02 -0.17828391115E+02  0.14066243611E+04  0.14123304337E+04  0.12499590982E+03 0.  0.
    9000005    1    3    3    0    0 -0.23523406538E+02  0.24784639824E+01  0.48156815746E+02  0.53661646840E+02  0.10000000000E+01 0.  0.
    9000005    1    3    3    0    0  0.11551285784E+02 -0.20306855097E+02  0.13584675454E+04  0.13586687868E+04  0.10000000000E+01 0.  0.
         21    1    1    2  502  501  0.11972120754E+02  0.17828391115E+02  0.83425014373E+03  0.83452650378E+03  0.00000000000E+00 0. -1.
<mgrwt>
<rscale>  1 0.12682729E+03</rscale>
<asrwt>0</asrwt>
<pdfrwt beam="2">  1        4 0.46018474E-03 0.12682729E+03</pdfrwt>
<pdfrwt beam="1">  1       -4 0.34521190E+00 0.12682729E+03</pdfrwt>
<totfact> 0.31682596E+02</totfact>
</mgrwt>
</event>
<event>
 6    4  0.2220150E-003  0.1274343E+03  0.7818608E-02  0.1231313E+00
          4   -1    0    0  502    0  0.00000000000E+00  0.00000000000E+00  0.19321377904E+03  0.19321795287E+03  0.12700000000E+01 0. -1.
         -4   -1    0    0    0  501 -0.00000000000E+00 -0.00000000000E+00 -0.86235447450E+02  0.86244798665E+02  0.12700000000E+01 0. -1.
         25    2    1    2    0    0  0.11980753455E+02  0.21548726387E+02  0.16961248664E+03  0.21215061711E+03  0.12502640783E+03 0.  0.
    9000005    1    3    3    0    0 -0.72873171588E+01 -0.16050643424E+02  0.16896494494E+03  0.16988490447E+03  0.10000000000E+01 0.  0.
    9000005    1    3    3    0    0  0.19268070614E+02  0.37599369811E+02  0.64754169668E+00  0.42265712648E+02  0.10000000000E+01 0.  0.
         21    1    1    2  502  501 -0.11980753455E+02 -0.21548726387E+02 -0.62634155047E+02  0.67312134424E+02  0.00000000000E+00 0. -1.
<mgrwt>
<rscale>  1 0.12743425E+03</rscale>
<asrwt>0</asrwt>
<pdfrwt beam="1">  1        4 0.29726237E-01 0.12743425E+03</pdfrwt>
<pdfrwt beam="2">  1       -4 0.13268033E-01 0.12743425E+03</pdfrwt>
<totfact> 0.82440967E+02</totfact>
</mgrwt>
</event>
<event>
 6    4  0.2220150E-003  0.1269006E+03  0.7818608E-02  0.1232129E+00
          4   -1    0    0  502    0  0.00000000000E+00  0.00000000000E+00  0.82809884144E+03  0.82809981530E+03  0.12700000000E+01 0.  1.
         -4   -1    0    0    0  501 -0.00000000000E+00 -0.00000000000E+00 -0.77449348142E+01  0.78483702306E+01  0.12700000000E+01 0.  1.
         25    2    1    2    0    0 -0.11860720586E+02  0.18387365533E+02  0.77794514127E+03  0.78822737997E+03  0.12499995122E+03 0.  0.
    9000005    1    3    3    0    0 -0.11640765069E+02  0.58299323733E+02  0.67800970051E+03  0.68061183691E+03  0.10000000000E+01 0.  0.
    9000005    1    3    3    0    0 -0.21995551758E+00 -0.39911958200E+02  0.99935440760E+02  0.10761554306E+03  0.10000000000E+01 0.  0.
         21    1    1    2  502  501  0.11860720586E+02 -0.18387365533E+02  0.42408765361E+02  0.47720805562E+02  0.00000000000E+00 0. -1.
<mgrwt>
<rscale>  1 0.12690059E+03</rscale>
<asrwt>0</asrwt>
<pdfrwt beam="1">  1        4 0.12740779E+00 0.12690059E+03</pdfrwt>
<pdfrwt beam="2">  1       -4 0.11995605E-02 0.12690059E+03</pdfrwt>
<totfact> 0.17388914E+03</totfact>
</mgrwt>
</event>
<event>
 6    4  0.2220150E-003  0.1347045E+03  0.7818608E-02  0.1220637E+00
          4   -1    0    0  502    0  0.00000000000E+00  0.00000000000E+00  0.24691777468E+02  0.24724416566E+02  0.12700000000E+01 0.  1.
         -4   -1    0    0    0  501 -0.00000000000E+00 -0.00000000000E+00 -0.38433055816E+03  0.38433265648E+03  0.12700000000E+01 0.  1.
         25    2    1    2    0    0 -0.50166159471E+02  0.20006274285E+01 -0.19552061011E+03  0.23743125919E+03  0.12499859118E+03 0.  0.
    9000005    1    3    3    0    0 -0.29664769911E+02  0.42450416087E+01 -0.21005275674E+03  0.21218194920E+03  0.10000000000E+01 0.  0.
    9000005    1    3    3    0    0 -0.20501389560E+02 -0.22444141801E+01  0.14532146635E+02  0.25249309985E+02  0.10000000000E+01 0.  0.
         21    1    1    2  502  501  0.50166159471E+02 -0.20006274285E+01 -0.16411817059E+03  0.17162581386E+03  0.00000000000E+00 0. -1.
<mgrwt>
<rscale>  1 0.13470447E+03</rscale>
<asrwt>0</asrwt>
<pdfrwt beam="1">  1        4 0.38014074E-02 0.13470447E+03</pdfrwt>
<pdfrwt beam="2">  1       -4 0.59130446E-01 0.13470447E+03</pdfrwt>
<totfact> 0.16690879E+03</totfact>
</mgrwt>
</event>
<event>
 6    4  0.2220150E-003  0.1332087E+03  0.7818608E-02  0.1222771E+00
          4   -1    0    0  502    0  0.00000000000E+00  0.00000000000E+00  0.15823184100E+02  0.15874068636E+02  0.12700000000E+01 0. -1.
         -4   -1    0    0    0  501 -0.00000000000E+00 -0.00000000000E+00 -0.50827898516E+03  0.50828057179E+03  0.12700000000E+01 0. -1.
         25    2    1    2    0    0  0.45159163457E+02  0.89755948198E+01 -0.35321382208E+03  0.37749776176E+03  0.12499857873E+03 0.  0.
    9000005    1    3    3    0    0  0.49439359166E+02  0.59394753919E+02 -0.15885434310E+03  0.17665698217E+03  0.10000000000E+01 0.  0.
    9000005    1    3    3    0    0 -0.42801957082E+01 -0.50419159100E+02 -0.19435947897E+03  0.20084077959E+03  0.10000000000E+01 0.  0.
         21    1    1    2  502  501 -0.45159163457E+02 -0.89755948198E+01 -0.13924197898E+03  0.14665687866E+03  0.00000000000E+00 0.  1.
<mgrwt>
<rscale>  1 0.13320869E+03</rscale>
<asrwt>0</asrwt>
<pdfrwt beam="1">  1        4 0.24383727E-02 0.13320869E+03</pdfrwt>
<pdfrwt beam="2">  1       -4 0.78200791E-01 0.13320869E+03</pdfrwt>
<totfact> 0.18327669E+03</totfact>
</mgrwt>
</event>
<event>
 6    4  0.2220150E-003  0.1286110E+03  0.7818608E-02  0.1229531E+00
         -4   -1    0    0    0  501 -0.00000000000E+00  0.00000000000E+00  0.41051318409E+02  0.41070958634E+02  0.12700000000E+01 0. -1.
          4   -1    0    0  502    0  0.00000000000E+00 -0.00000000000E+00 -0.17353749362E+03  0.17354214068E+03  0.12700000000E+01 0. -1.
         25    2    1    2    0    0  0.20603092642E+01 -0.30267712708E+02 -0.13196577510E+03  0.18427088246E+03  0.12498165073E+03 0.  0.
    9000005    1    3    3    0    0 -0.46273007566E+02  0.23498345734E+02 -0.79466402655E+02  0.94917188288E+02  0.10000000000E+01 0.  0.
    9000005    1    3    3    0    0  0.48333316830E+02 -0.53766058442E+02 -0.52499372443E+02  0.89353694177E+02  0.10000000000E+01 0.  0.
         21    1    1    2  502  501 -0.20603092642E+01  0.30267712708E+02 -0.52040010914E+00  0.30342216846E+02  0.00000000000E+00 0. -1.
<mgrwt>
<rscale>  1 0.12861101E+03</rscale>
<asrwt>0</asrwt>
<pdfrwt beam="2">  1        4 0.26699944E-01 0.12861101E+03</pdfrwt>
<pdfrwt beam="1">  1       -4 0.63174558E-02 0.12861101E+03</pdfrwt>
<totfact> 0.34950953E+03</totfact>
</mgrwt>
</event>
<event>
 6    4  0.2220150E-003  0.1271216E+03  0.7818608E-02  0.1231790E+00
         -4   -1    0    0    0  501 -0.00000000000E+00  0.00000000000E+00  0.51719631918E+02  0.51735222293E+02  0.12700000000E+01 0.  1.
          4   -1    0    0  502    0  0.00000000000E+00 -0.00000000000E+00 -0.11262043088E+03  0.11262759143E+03  0.12700000000E+01 0.  1.
         25    2    1    2    0    0 -0.13803313999E+02 -0.18552350451E+02 -0.61530922257E+02  0.14123019087E+03  0.12500076494E+03 0.  0.
    9000005    1    3    3    0    0  0.38836969909E+02 -0.39855452485E+02  0.24061845662E+01  0.55709577710E+02  0.10000000000E+01 0.  0.
    9000005    1    3    3    0    0 -0.52640283908E+02  0.21303102034E+02 -0.63937106823E+02  0.85520613159E+02  0.10000000000E+01 0.  0.
         21    1    1    2  502  501  0.13803313999E+02  0.18552350451E+02  0.63012329845E+00  0.23132622851E+02  0.00000000000E+00 0. -1.
<mgrwt>
<rscale>  1 0.12712164E+03</rscale>
<asrwt>0</asrwt>
<pdfrwt beam="2">  1        4 0.17327970E-01 0.12712164E+03</pdfrwt>
<pdfrwt beam="1">  1       -4 0.79586165E-02 0.12712164E+03</pdfrwt>
<totfact> 0.52226034E+03</totfact>
</mgrwt>
</event>
<event>
 6    4  0.2220150E-003  0.1281269E+03  0.7818608E-02  0.1230262E+00
          4   -1    0    0  502    0  0.00000000000E+00  0.00000000000E+00  0.67185579600E+02  0.67197581847E+02  0.12700000000E+01 0.  1.
         -4   -1    0    0    0  501 -0.00000000000E+00 -0.00000000000E+00 -0.47920909491E+03  0.47921077779E+03  0.12700000000E+01 0.  1.
         25    2    1    2    0    0 -0.27495190291E+02  0.59917088516E+01  0.52043636761E+01  0.12823257235E+03  0.12499848458E+03 0.  0.
    9000005    1    3    3    0    0 -0.15589547646E+02 -0.35383219100E+02  0.51888808820E+02  0.64718271535E+02  0.10000000000E+01 0.  0.
    9000005    1    3    3    0    0 -0.11905642644E+02  0.41374927952E+02 -0.46684445144E+02  0.63514300816E+02  0.10000000000E+01 0.  0.
         21    1    1    2  502  501  0.27495190291E+02 -0.59917088516E+01 -0.41722787899E+03  0.41817578728E+03  0.00000000000E+00 0.  1.
<mgrwt>
<rscale>  1 0.12812692E+03</rscale>
<asrwt>0</asrwt>
<pdfrwt beam="1">  1        4 0.10337296E-01 0.12812692E+03</pdfrwt>
<pdfrwt beam="2">  1       -4 0.73725527E-01 0.12812692E+03</pdfrwt>
<totfact> 0.20185936E+02</totfact>
</mgrwt>
</event>
<event>
 6    4  0.2220150E-003  0.1312651E+03  0.7818608E-02  0.1225591E+00
          4   -1    0    0  502    0  0.00000000000E+00  0.00000000000E+00  0.12354041030E+02  0.12419147707E+02  0.12700000000E+01 0.  1.
         -4   -1    0    0    0  501 -0.00000000000E+00 -0.00000000000E+00 -0.83499906537E+03  0.83500003118E+03  0.12700000000E+01 0.  1.
         25    2    1    2    0    0  0.99143457105E+01  0.38822978306E+02 -0.36252729671E+03  0.38556006489E+03  0.12500001955E+03 0.  0.
    9000005    1    3    3    0    0  0.58194954807E+02  0.53737233584E+02 -0.19198804950E+03  0.20768908057E+03  0.10000000000E+01 0.  0.
    9000005    1    3    3    0    0 -0.48280609096E+02 -0.14914255277E+02 -0.17053924720E+03  0.17787098432E+03  0.10000000000E+01 0.  0.
         21    1    1    2  502  501 -0.99143457105E+01 -0.38822978306E+02 -0.46011772764E+03  0.46185911400E+03  0.00000000000E+00 0.  1.
<mgrwt>
<rscale>  1 0.13126509E+03</rscale>
<asrwt>0</asrwt>
<pdfrwt beam="1">  1        4 0.19057049E-02 0.13126509E+03</pdfrwt>
<pdfrwt beam="2">  1       -4 0.12846643E+00 0.13126509E+03</pdfrwt>
<totfact> 0.84791386E+02</totfact>
</mgrwt>
</event>
<event>
 6    4  0.2220150E-003  0.1277733E+03  0.7818608E-02  0.1230798E+00
          4   -1    0    0  502    0  0.00000000000E+00  0.00000000000E+00  0.56230591246E+02  0.56244931255E+02  0.12700000000E+01 0. -1.
         -4   -1    0    0    0  501 -0.00000000000E+00 -0.00000000000E+00 -0.20221771176E+03  0.20222169975E+03  0.12700000000E+01 0. -1.
         25    2    1    2    0    0  0.22571230199E+01 -0.26322728302E+02 -0.19503444530E+02  0.12925323805E+03  0.12501213768E+03 0.  0.
    9000005    1    3    3    0    0 -0.31539384774E+02 -0.67351394312E+02 -0.75380488029E+01  0.74758044968E+02  0.10000000000E+01 0.  0.
    9000005    1    3    3    0    0  0.33796507793E+02  0.41028666010E+02 -0.11965395728E+02  0.54495193077E+02  0.10000000000E+01 0.  0.
         21    1    1    2  502  501 -0.22571230199E+01  0.26322728302E+02 -0.12648367598E+03  0.12921339296E+03  0.00000000000E+00 0. -1.
<mgrwt>
<rscale>  1 0.12777330E+03</rscale>
<asrwt>0</asrwt>
<pdfrwt beam="1">  1        4 0.86522702E-02 0.12777330E+03</pdfrwt>
<pdfrwt beam="2">  1       -4 0.31111827E-01 0.12777330E+03</pdfrwt>
<totfact> 0.15605254E+03</totfact>
</mgrwt>
</event>
<event>
 6    4  0.2220150E-003  0.1282848E+03  0.7818608E-02  0.1230023E+00
         -4   -1    0    0    0  501 -0.00000000000E+00  0.00000000000E+00  0.43648858345E+02  0.43667330292E+02  0.12700000000E+01 0.  1.
          4   -1    0    0  502    0  0.00000000000E+00 -0.00000000000E+00 -0.25071454533E+03  0.25071776192E+03  0.12700000000E+01 0.  1.
         25    2    1    2    0    0  0.56318627869E+01  0.28284654586E+02 -0.22600987753E+03  0.25987970250E+03  0.12500102186E+03 0.  0.
    9000005    1    3    3    0    0 -0.18883146437E+01  0.23238205099E+02  0.87650632418E+01  0.24928021222E+02  0.10000000000E+01 0.  0.
    9000005    1    3    3    0    0  0.75201774305E+01  0.50464494870E+01 -0.23477494077E+03  0.23495168128E+03  0.10000000000E+01 0.  0.
         21    1    1    2  502  501 -0.56318627869E+01 -0.28284654586E+02  0.18944190544E+02  0.34505389708E+02  0.00000000000E+00 0.  1.
<mgrwt>
<rscale>  1 0.12828482E+03</rscale>
<asrwt>0</asrwt>
<pdfrwt beam="2">  1        4 0.38573136E-01 0.12828482E+03</pdfrwt>
<pdfrwt beam="1">  1       -4 0.67168775E-02 0.12828482E+03</pdfrwt>
<totfact> 0.15677793E+03</totfact>
</mgrwt>
</event>
<event>
 6    4  0.2220150E-003  0.1290208E+03  0.7818608E-02  0.1228916E+00
         -4   -1    0    0    0  501 -0.00000000000E+00  0.00000000000E+00  0.74265534378E+02  0.74276392592E+02  0.12700000000E+01 0. -1.
          4   -1    0    0  502    0  0.00000000000E+00 -0.00000000000E+00 -0.88426813573E+02  0.88435933074E+02  0.12700000000E+01 0. -1.
         25    2    1    2    0    0 -0.31763354809E+02 -0.30858742889E+01 -0.35088627443E+01  0.12906849555E+03  0.12501172383E+03 0.  0.
    9000005    1    3    3    0    0 -0.78748678755E+02  0.75699166787E+00 -0.15827119600E+02  0.80333213286E+02  0.10000000000E+01 0.  0.
    9000005    1    3    3    0    0  0.46985323946E+02 -0.38428659567E+01  0.12318256855E+02  0.48735282260E+02  0.10000000000E+01 0.  0.
         21    1    1    2  502  501  0.31763354809E+02  0.30858742889E+01 -0.10652416451E+02  0.33643830119E+02  0.00000000000E+00 0. -1.
<mgrwt>
<rscale>  1 0.12902079E+03</rscale>
<asrwt>0</asrwt>
<pdfrwt beam="2">  1        4 0.13605662E-01 0.12902079E+03</pdfrwt>
<pdfrwt beam="1">  1       -4 0.11427004E-01 0.12902079E+03</pdfrwt>
<totfact> 0.43618083E+03</totfact>
</mgrwt>
</event>
<event>
 6    4  0.2220150E-003  0.1272763E+03  0.7818608E-02  0.1231554E+00
          4   -1    0    0  502    0  0.00000000000E+00  0.00000000000E+00  0.14009667222E+03  0.14010242848E+03  0.12700000000E+01 0.  1.
         -4   -1    0    0    0  501 -0.00000000000E+00 -0.00000000000E+00 -0.78367822092E+02  0.78378111992E+02  0.12700000000E+01 0.  1.
         25    2    1    2    0    0  0.42616591880E+01  0.23582575422E+02  0.10764068495E+03  0.16669061694E+03  0.12499978047E+03 0.  0.
    9000005    1    3    3    0    0 -0.56000392972E+02 -0.98177274427E+01  0.36059639918E+02  0.67332974212E+02  0.10000000000E+01 0.  0.
    9000005    1    3    3    0    0  0.60262052160E+02  0.33400302865E+02  0.71581045029E+02  0.99357642733E+02  0.10000000000E+01 0.  0.
         21    1    1    2  502  501 -0.42616591880E+01 -0.23582575422E+02 -0.45911834821E+02  0.51789923530E+02  0.00000000000E+00 0.  1.
<mgrwt>
<rscale>  1 0.12727625E+03</rscale>
<asrwt>0</asrwt>
<pdfrwt beam="1">  1        4 0.21554568E-01 0.12727625E+03</pdfrwt>
<pdfrwt beam="2">  1       -4 0.12057823E-01 0.12727625E+03</pdfrwt>
<totfact> 0.17586197E+03</totfact>
</mgrwt>
</event>
<event>
 6    4  0.2220150E-003  0.1306688E+03  0.7818608E-02  0.1226467E+00
         -4   -1    0    0    0  501 -0.00000000000E+00  0.00000000000E+00  0.19027195311E+02  0.19069532281E+02  0.12700000000E+01 0.  1.
          4   -1    0    0  502    0  0.00000000000E+00 -0.00000000000E+00 -0.57371335772E+03  0.57371476339E+03  0.12700000000E+01 0.  1.
         25    2    1    2    0    0  0.99226220804E+01  0.36764208782E+02 -0.53337309132E+03  0.54914586678E+03  0.12499705190E+03 0.  0.
    9000005    1    3    3    0    0 -0.23519654035E+01  0.50513504583E+01  0.62607811494E+01  0.84406909263E+01  0.10000000000E+01 0.  0.
    9000005    1    3    3    0    0  0.12274587484E+02  0.31712858324E+02 -0.53963387247E+03  0.54070517585E+03  0.10000000000E+01 0.  0.
         21    1    1    2  502  501 -0.99226220804E+01 -0.36764208782E+02 -0.21313071092E+02  0.43638428887E+02  0.00000000000E+00 0.  1.
<mgrwt>
<rscale>  1 0.13066877E+03</rscale>
<asrwt>0</asrwt>
<pdfrwt beam="2">  1        4 0.88266945E-01 0.13066877E+03</pdfrwt>
<pdfrwt beam="1">  1       -4 0.29306261E-02 0.13066877E+03</pdfrwt>
<totfact> 0.10468737E+03</totfact>
</mgrwt>
</event>
<event>
 6    4  0.2220150E-003  0.1281068E+03  0.7818608E-02  0.1230292E+00
         -4   -1    0    0    0  501 -0.00000000000E+00  0.00000000000E+00  0.10331755597E+03  0.10332536122E+03  0.12700000000E+01 0.  1.
          4   -1    0    0  502    0  0.00000000000E+00 -0.00000000000E+00 -0.79577591755E+02  0.79587725244E+02  0.12700000000E+01 0.  1.
         25    2    1    2    0    0 -0.13359734945E+02 -0.24646315513E+02 -0.21295622521E+02  0.12986473627E+03  0.12500169119E+03 0.  0.
    9000005    1    3    3    0    0 -0.23819324287E+02 -0.60055709500E+02 -0.51120160142E+02  0.82391256976E+02  0.10000000000E+01 0.  0.
    9000005    1    3    3    0    0  0.10459589342E+02  0.35409393987E+02  0.29824537621E+02  0.47473479292E+02  0.10000000000E+01 0.  0.
         21    1    1    2  502  501  0.13359734945E+02  0.24646315513E+02  0.45035586735E+02  0.53048350198E+02  0.00000000000E+00 0. -1.
<mgrwt>
<rscale>  1 0.12810678E+03</rscale>
<asrwt>0</asrwt>
<pdfrwt beam="2">  1        4 0.12244086E-01 0.12810678E+03</pdfrwt>
<pdfrwt beam="1">  1       -4 0.15896388E-01 0.12810678E+03</pdfrwt>
<totfact> 0.29517947E+03</totfact>
</mgrwt>
</event>
<event>
 6    4  0.2220150E-003  0.1336426E+03  0.7818608E-02  0.1222149E+00
          4   -1    0    0  502    0  0.00000000000E+00  0.00000000000E+00  0.16678483961E+03  0.16678967482E+03  0.12700000000E+01 0.  1.
         -4   -1    0    0    0  501 -0.00000000000E+00 -0.00000000000E+00 -0.50985713241E+02  0.51001527964E+02  0.12700000000E+01 0.  1.
         25    2    1    2    0    0 -0.21104644645E+02 -0.42311057701E+02  0.10322295219E+03  0.16886481127E+03  0.12499885998E+03 0.  0.
    9000005    1    3    3    0    0  0.33240440544E+02  0.24481756878E+02  0.59119179373E+02  0.72113526312E+02  0.10000000000E+01 0.  0.
    9000005    1    3    3    0    0 -0.54345085190E+02 -0.66792814579E+02  0.44103772816E+02  0.96751284954E+02  0.10000000000E+01 0.  0.
         21    1    1    2  502  501  0.21104644645E+02  0.42311057701E+02  0.12576174184E+02  0.48926391513E+02  0.00000000000E+00 0.  1.
<mgrwt>
<rscale>  1 0.13364261E+03</rscale>
<asrwt>0</asrwt>
<pdfrwt beam="1">  1        4 0.25660795E-01 0.13364261E+03</pdfrwt>
<pdfrwt beam="2">  1       -4 0.78455442E-02 0.13364261E+03</pdfrwt>
<totfact> 0.26608634E+03</totfact>
</mgrwt>
</event>
<event>
 6    4  0.2220150E-003  0.1266968E+03  0.7818608E-02  0.1232441E+00
         -4   -1    0    0    0  501 -0.00000000000E+00  0.00000000000E+00  0.37643200309E+02  0.37664617740E+02  0.12700000000E+01 0. -1.
          4   -1    0    0  502    0  0.00000000000E+00 -0.00000000000E+00 -0.16123077356E+03  0.16123577532E+03  0.12700000000E+01 0. -1.
         25    2    1    2    0    0 -0.19182794783E+02  0.76800507713E+01 -0.12526829750E+03  0.17816907305E+03  0.12500043774E+03 0.  0.
    9000005    1    3    3    0    0  0.25348267432E+02 -0.32871761894E+02 -0.27133000292E+01  0.41610688397E+02  0.10000000000E+01 0.  0.
    9000005    1    3    3    0    0 -0.44531062215E+02  0.40551812665E+02 -0.12255499747E+03  0.13655838465E+03  0.10000000000E+01 0.  0.
         21    1    1    2  502  501  0.19182794783E+02 -0.76800507713E+01  0.16807242494E+01  0.20731320014E+02  0.00000000000E+00 0. -1.
<mgrwt>
<rscale>  1 0.12669677E+03</rscale>
<asrwt>0</asrwt>
<pdfrwt beam="2">  1        4 0.24806766E-01 0.12669677E+03</pdfrwt>
<pdfrwt beam="1">  1       -4 0.57932939E-02 0.12669677E+03</pdfrwt>
<totfact> 0.45923337E+03</totfact>
</mgrwt>
</event>
<event>
 6    4  0.2220150E-003  0.1390167E+03  0.7818608E-02  0.1214658E+00
          4   -1    0    0  502    0  0.00000000000E+00  0.00000000000E+00  0.27686084004E+03  0.27686375286E+03  0.12700000000E+01 0.  1.
         -4   -1    0    0    0  501 -0.00000000000E+00 -0.00000000000E+00 -0.37394619473E+02  0.37416179194E+02  0.12700000000E+01 0.  1.
         25    2    1    2    0    0 -0.50780964336E+02 -0.33490366568E+02  0.19239864137E+03  0.23736655218E+03  0.12500132760E+03 0.  0.
    9000005    1    3    3    0    0 -0.68667235653E+02  0.20616219910E+02  0.15024221411E+03  0.16647504521E+03  0.10000000000E+01 0.  0.
    9000005    1    3    3    0    0  0.17886271317E+02 -0.54106586477E+02  0.42156427262E+02  0.70891506976E+02  0.10000000000E+01 0.  0.
         21    1    1    2  502  501  0.50780964336E+02  0.33490366568E+02  0.47067579190E+02  0.76913379867E+02  0.00000000000E+00 0.  1.
<mgrwt>
<rscale>  1 0.13901670E+03</rscale>
<asrwt>0</asrwt>
<pdfrwt beam="1">  1        4 0.42595858E-01 0.13901670E+03</pdfrwt>
<pdfrwt beam="2">  1       -4 0.57549008E-02 0.13901670E+03</pdfrwt>
<totfact> 0.16880336E+03</totfact>
</mgrwt>
</event>
<event>
 6    4  0.2220150E-003  0.1308294E+03  0.7818608E-02  0.1226230E+00
          4   -1    0    0  502    0  0.00000000000E+00  0.00000000000E+00  0.16734949589E+03  0.16735431477E+03  0.12700000000E+01 0. -1.
         -4   -1    0    0    0  501 -0.00000000000E+00 -0.00000000000E+00 -0.87400038207E+02  0.87409264832E+02  0.12700000000E+01 0. -1.
         25    2    1    2    0    0  0.38574972647E+02  0.24351103482E+01  0.13467833937E+03  0.18776202165E+03  0.12498945317E+03 0.  0.
    9000005    1    3    3    0    0 -0.14778184278E+02  0.42546266762E+02  0.97167482018E+01  0.46086817437E+02  0.10000000000E+01 0.  0.
    9000005    1    3    3    0    0  0.53353156925E+02 -0.40111156413E+02  0.12496159117E+03  0.14167520422E+03  0.10000000000E+01 0.  0.
         21    1    1    2  502  501 -0.38574972647E+02 -0.24351103482E+01 -0.54728881689E+02  0.67001557953E+02  0.00000000000E+00 0. -1.
<mgrwt>
<rscale>  1 0.13082936E+03</rscale>
<asrwt>0</asrwt>
<pdfrwt beam="1">  1        4 0.25747156E-01 0.13082936E+03</pdfrwt>
<pdfrwt beam="2">  1       -4 0.13447240E-01 0.13082936E+03</pdfrwt>
<totfact> 0.10596052E+03</totfact>
</mgrwt>
</event>
<event>
 6    4  0.2220150E-003  0.1327284E+03  0.7818608E-02  0.1223463E+00
         -4   -1    0    0    0  501 -0.00000000000E+00  0.00000000000E+00  0.29124452185E+02  0.29152128826E+02  0.12700000000E+01 0. -1.
          4   -1    0    0  502    0  0.00000000000E+00 -0.00000000000E+00 -0.29631510273E+03  0.29631782431E+03  0.12700000000E+01 0. -1.
         25    2    1    2    0    0 -0.10589054140E+02  0.43359880125E+02 -0.23683498334E+03  0.27149149629E+03  0.12499846380E+03 0.  0.
    9000005    1    3    3    0    0  0.48133467720E+02  0.71576428943E+01 -0.16441633548E+03  0.17146951315E+03  0.10000000000E+01 0.  0.
    9000005    1    3    3    0    0 -0.58722521860E+02  0.36202237230E+02 -0.72418647862E+02  0.10002198314E+03  0.10000000000E+01 0.  0.
         21    1    1    2  502  501  0.10589054140E+02 -0.43359880125E+02 -0.30355667199E+02  0.53978456843E+02  0.00000000000E+00 0. -1.
<mgrwt>
<rscale>  1 0.13272838E+03</rscale>
<asrwt>0</asrwt>
<pdfrwt beam="2">  1        4 0.45589275E-01 0.13272838E+03</pdfrwt>
<pdfrwt beam="1">  1       -4 0.44830235E-02 0.13272838E+03</pdfrwt>
<totfact> 0.21808360E+03</totfact>
</mgrwt>
</event>
<event>
 6    4  0.2220150E-003  0.1284147E+03  0.7818608E-02  0.1229827E+00
          4   -1    0    0  502    0  0.00000000000E+00  0.00000000000E+00  0.20214146989E+02  0.20254003024E+02  0.12700000000E+01 0.  1.
         -4   -1    0    0    0  501 -0.00000000000E+00 -0.00000000000E+00 -0.31455830662E+03  0.31456087036E+03  0.12700000000E+01 0.  1.
         25    2    1    2    0    0 -0.52740963881E+01 -0.28929274028E+02 -0.21810310987E+03  0.25309941183E+03  0.12500250696E+03 0.  0.
    9000005    1    3    3    0    0  0.54334889033E+02 -0.36316873756E+02 -0.14051724656E+03  0.15497513371E+03  0.10000000000E+01 0.  0.
    9000005    1    3    3    0    0 -0.59608985421E+02  0.73875997285E+01 -0.77585863306E+02  0.98124278125E+02  0.10000000000E+01 0.  0.
         21    1    1    2  502  501  0.52740963881E+01  0.28929274028E+02 -0.76241049760E+02  0.81715461555E+02  0.00000000000E+00 0.  1.
<mgrwt>
<rscale>  1 0.12841474E+03</rscale>
<asrwt>0</asrwt>
<pdfrwt beam="1">  1        4 0.31131321E-02 0.12841474E+03</pdfrwt>
<pdfrwt beam="2">  1       -4 0.48396845E-01 0.12841474E+03</pdfrwt>
<totfact> 0.34152157E+03</totfact>
</mgrwt>
</event>
<event>
 6    4  0.2220150E-003  0.1271090E+03  0.7818608E-02  0.1231810E+00
          4   -1    0    0  502    0  0.00000000000E+00  0.00000000000E+00  0.65893812617E+02  0.65906050111E+02  0.12700000000E+01 0. -1.
         -4   -1    0    0    0  501 -0.00000000000E+00 -0.00000000000E+00 -0.16897797263E+03  0.16898274508E+03  0.12700000000E+01 0. -1.
         25    2    1    2    0    0 -0.22376425486E+02 -0.53373837723E+01  0.21927042413E+01  0.12712790140E+03  0.12501001272E+03 0.  0.
    9000005    1    3    3    0    0 -0.32657911483E+02  0.80358841998E+01  0.58967494641E+02  0.67891678736E+02  0.10000000000E+01 0.  0.
    9000005    1    3    3    0    0  0.10281485997E+02 -0.13373267972E+02 -0.56774790400E+02  0.59236222664E+02  0.10000000000E+01 0.  0.
         21    1    1    2  502  501  0.22376425486E+02  0.53373837723E+01 -0.10527686425E+03  0.10776089379E+03  0.00000000000E+00 0. -1.
<mgrwt>
<rscale>  1 0.12710899E+03</rscale>
<asrwt>0</asrwt>
<pdfrwt beam="1">  1        4 0.10138818E-01 0.12710899E+03</pdfrwt>
<pdfrwt beam="2">  1       -4 0.25997919E-01 0.12710899E+03</pdfrwt>
<totfact> 0.16735887E+03</totfact>
</mgrwt>
</event>
<event>
 6    4  0.2220150E-003  0.1307379E+03  0.7818608E-02  0.1226365E+00
          4   -1    0    0  502    0  0.00000000000E+00  0.00000000000E+00  0.32619923550E+02  0.32644636809E+02  0.12700000000E+01 0. -1.
         -4   -1    0    0    0  501 -0.00000000000E+00 -0.00000000000E+00 -0.36449778831E+03  0.36450000080E+03  0.12700000000E+01 0. -1.
         25    2    1    2    0    0 -0.35953180499E+02  0.13204996340E+02 -0.10675547438E+03  0.16878725593E+03  0.12500161334E+03 0.  0.
    9000005    1    3    3    0    0  0.54187234754E+01  0.57703128078E+02 -0.87656388070E+02  0.10508880018E+03  0.10000000000E+01 0.  0.
    9000005    1    3    3    0    0 -0.41371903974E+02 -0.44498131738E+02 -0.19099086306E+02  0.63698455746E+02  0.10000000000E+01 0.  0.
         21    1    1    2  502  501  0.35953180499E+02 -0.13204996340E+02 -0.22512239039E+03  0.22835738168E+03  0.00000000000E+00 0. -1.
<mgrwt>
<rscale>  1 0.13073793E+03</rscale>
<asrwt>0</asrwt>
<pdfrwt beam="1">  1        4 0.50205212E-02 0.13073793E+03</pdfrwt>
<pdfrwt beam="2">  1       -4 0.56078651E-01 0.13073793E+03</pdfrwt>
<totfact> 0.11882674E+03</totfact>
</mgrwt>
</event>
<event>
 6    4  0.2220150E-003  0.1375889E+03  0.7818608E-02  0.1216611E+00
         -4   -1    0    0    0  501 -0.00000000000E+00  0.00000000000E+00  0.43504483034E+03  0.43504668405E+03  0.12700000000E+01 0.  1.
          4   -1    0    0  502    0  0.00000000000E+00 -0.00000000000E+00 -0.21988426088E+02  0.22025071664E+02  0.12700000000E+01 0.  1.
         25    2    1    2    0    0  0.56244911941E+02  0.11926020014E+02  0.27424072854E+03  0.30682026023E+03  0.12499989930E+03 0.  0.
    9000005    1    3    3    0    0  0.13937947042E+02  0.66231848972E+02  0.15490267460E+03  0.16904662902E+03  0.10000000000E+01 0.  0.
    9000005    1    3    3    0    0  0.42306964899E+02 -0.54305828959E+02  0.11933805394E+03  0.13777363121E+03  0.10000000000E+01 0.  0.
         21    1    1    2  502  501 -0.56244911941E+02 -0.11926020014E+02  0.13881567572E+03  0.15025149549E+03  0.00000000000E+00 0.  1.
<mgrwt>
<rscale>  1 0.13758886E+03</rscale>
<asrwt>0</asrwt>
<pdfrwt beam="2">  1        4 0.33857963E-02 0.13758886E+03</pdfrwt>
<pdfrwt beam="1">  1       -4 0.66932936E-01 0.13758886E+03</pdfrwt>
<totfact> 0.15485377E+03</totfact>
</mgrwt>
</event>
<event>
 6    4  0.2220150E-003  0.1284473E+03  0.7818608E-02  0.1229778E+00
          4   -1    0    0  502    0  0.00000000000E+00  0.00000000000E+00  0.75424489827E+02  0.75435181219E+02  0.12700000000E+01 0.  1.
         -4   -1    0    0    0  501 -0.00000000000E+00 -0.00000000000E+00 -0.23765097964E+03  0.23765437304E+03  0.12700000000E+01 0.  1.
         25    2    1    2    0    0 -0.28077451084E+02  0.92668415006E+01  0.18666086775E+02  0.12979650508E+03  0.12499796929E+03 0.  0.
    9000005    1    3    3    0    0 -0.23996432334E+01  0.80943382316E+01  0.70986763963E+02  0.71494036513E+02  0.10000000000E+01 0.  0.
    9000005    1    3    3    0    0 -0.25677807850E+02  0.11725032690E+01 -0.52320677188E+02  0.58302468570E+02  0.10000000000E+01 0.  0.
         21    1    1    2  502  501  0.28077451084E+02 -0.92668415006E+01 -0.18089257659E+03  0.18329304918E+03  0.00000000000E+00 0.  1.
<mgrwt>
<rscale>  1 0.12844730E+03</rscale>
<asrwt>0</asrwt>
<pdfrwt beam="1">  1        4 0.11604851E-01 0.12844730E+03</pdfrwt>
<pdfrwt beam="2">  1       -4 0.36562772E-01 0.12844730E+03</pdfrwt>
<totfact> 0.69928808E+02</totfact>
</mgrwt>
</event>
<event>
 6    4  0.2220150E-003  0.1270264E+03  0.7818608E-02  0.1231936E+00
          4   -1    0    0  502    0  0.00000000000E+00  0.00000000000E+00  0.20995379999E+02  0.21033755758E+02  0.12700000000E+01 0.  1.
         -4   -1    0    0    0  501 -0.00000000000E+00 -0.00000000000E+00 -0.37126290233E+03  0.37126507450E+03  0.12700000000E+01 0.  1.
         25    2    1    2    0    0  0.16747328811E+02 -0.15238193775E+02 -0.17872074420E+03  0.21926423066E+03  0.12499209122E+03 0.  0.
    9000005    1    3    3    0    0  0.44448043606E+02  0.26462670042E+02 -0.24745898102E+02  0.57352078943E+02  0.10000000000E+01 0.  0.
    9000005    1    3    3    0    0 -0.27700714795E+02 -0.41700863818E+02 -0.15397484610E+03  0.16191215172E+03  0.10000000000E+01 0.  0.
         21    1    1    2  502  501 -0.16747328811E+02  0.15238193775E+02 -0.17154677813E+03  0.17303459960E+03  0.00000000000E+00 0.  1.
<mgrwt>
<rscale>  1 0.12702637E+03</rscale>
<asrwt>0</asrwt>
<pdfrwt beam="1">  1        4 0.32331778E-02 0.12702637E+03</pdfrwt>
<pdfrwt beam="2">  1       -4 0.57120484E-01 0.12702637E+03</pdfrwt>
<totfact> 0.22849255E+03</totfact>
</mgrwt>
</event>
<event>
 6    4  0.2220150E-003  0.1371933E+03  0.7818608E-02  0.1217156E+00
         -4   -1    0    0    0  501 -0.00000000000E+00  0.00000000000E+00  0.61926952864E+03  0.61927083090E+03  0.12700000000E+01 0. -1.
          4   -1    0    0  502    0  0.00000000000E+00 -0.00000000000E+00 -0.15292804026E+02  0.15345447370E+02  0.12700000000E+01 0. -1.
         25    2    1    2    0    0 -0.64202733525E+01 -0.56123516651E+02  0.45735931922E+03  0.47749297447E+03  0.12502369680E+03 0.  0.
    9000005    1    3    3    0    0  0.49509855819E+02  0.99433539952E+01  0.17813414611E+03  0.18515633968E+03  0.10000000000E+01 0.  0.
    9000005    1    3    3    0    0 -0.55930129172E+02 -0.66066870646E+02  0.27922517311E+03  0.29233663479E+03  0.10000000000E+01 0.  0.
         21    1    1    2  502  501  0.64202733525E+01  0.56123516651E+02  0.14661740539E+03  0.15712330380E+03  0.00000000000E+00 0. -1.
<mgrwt>
<rscale>  1 0.13719327E+03</rscale>
<asrwt>0</asrwt>
<pdfrwt beam="2">  1        4 0.23568894E-02 0.13719327E+03</pdfrwt>
<pdfrwt beam="1">  1       -4 0.95276358E-01 0.13719327E+03</pdfrwt>
<totfact> 0.12485786E+03</totfact>
</mgrwt>
</event>
<event>
 6    4  0.2220150E-003  0.1268059E+03  0.7818608E-02  0.1232274E+00
         -4   -1    0    0    0  501 -0.00000000000E+00  0.00000000000E+00  0.37830824940E+02  0.37852136209E+02  0.12700000000E+01 0.  1.
          4   -1    0    0  502    0  0.00000000000E+00 -0.00000000000E+00 -0.14510706970E+03  0.14511262721E+03  0.12700000000E+01 0.  1.
         25    2    1    2    0    0  0.18105443597E+02  0.11239521310E+02 -0.89436982930E+02  0.15517316056E+03  0.12500240764E+03 0.  0.
    9000005    1    3    3    0    0 -0.40376172214E+02  0.43190598320E+02 -0.51918157989E+02  0.78690267472E+02  0.10000000000E+01 0.  0.
    9000005    1    3    3    0    0  0.58481615811E+02 -0.31951077010E+02 -0.37518824942E+02  0.76482893087E+02  0.10000000000E+01 0.  0.
         21    1    1    2  502  501 -0.18105443597E+02 -0.11239521310E+02 -0.17839261831E+02  0.27791602865E+02  0.00000000000E+00 0. -1.
<mgrwt>
<rscale>  1 0.12680590E+03</rscale>
<asrwt>0</asrwt>
<pdfrwt beam="2">  1        4 0.22326231E-01 0.12680590E+03</pdfrwt>
<pdfrwt beam="1">  1       -4 0.58221938E-02 0.12680590E+03</pdfrwt>
<totfact> 0.55254517E+03</totfact>
</mgrwt>
</event>
<event>
 6    4  0.2220150E-003  0.1483394E+03  0.7818608E-02  0.1202529E+00
         -4   -1    0    0    0  501 -0.00000000000E+00  0.00000000000E+00  0.48617474226E+03  0.48617640103E+03  0.12700000000E+01 0. -1.
          4   -1    0    0  502    0  0.00000000000E+00 -0.00000000000E+00 -0.28016799895E+02  0.28045569639E+02  0.12700000000E+01 0. -1.
         25    2    1    2    0    0 -0.75252282897E+02  0.26779093006E+02  0.24279828909E+03  0.28452694207E+03  0.12499818268E+03 0.  0.
    9000005    1    3    3    0    0 -0.20811400203E+01  0.61204999205E+02  0.65609224630E+02  0.89754963250E+02  0.10000000000E+01 0.  0.
    9000005    1    3    3    0    0 -0.73171142877E+02 -0.34425906199E+02  0.17718906446E+03  0.19477197882E+03  0.10000000000E+01 0.  0.
         21    1    1    2  502  501  0.75252282897E+02 -0.26779093006E+02  0.21535965328E+03  0.22969502860E+03  0.00000000000E+00 0. -1.
<mgrwt>
<rscale>  1 0.14833938E+03</rscale>
<asrwt>0</asrwt>
<pdfrwt beam="2">  1        4 0.43126178E-02 0.14833938E+03</pdfrwt>
<pdfrwt beam="1">  1       -4 0.74798450E-01 0.14833938E+03</pdfrwt>
<totfact> 0.84245054E+02</totfact>
</mgrwt>
</event>
<event>
 6    4  0.2220150E-003  0.1271185E+03  0.7818608E-02  0.1231795E+00
          4   -1    0    0  502    0  0.00000000000E+00  0.00000000000E+00  0.10665101484E+03  0.10665857615E+03  0.12700000000E+01 0. -1.
         -4   -1    0    0    0  501 -0.00000000000E+00 -0.00000000000E+00 -0.65088464484E+02  0.65100853365E+02  0.12700000000E+01 0. -1.
         25    2    1    2    0    0  0.88088141940E+01 -0.21381500116E+02  0.61511475096E+02  0.14121890966E+03  0.12499742046E+03 0.  0.
    9000005    1    3    3    0    0 -0.18105818842E+02 -0.66357541051E+02  0.13439398797E+02  0.70091093373E+02  0.10000000000E+01 0.  0.
    9000005    1    3    3    0    0  0.26914633036E+02  0.44976040935E+02  0.48072076300E+02  0.71127816285E+02  0.10000000000E+01 0.  0.
         21    1    1    2  502  501 -0.88088141940E+01  0.21381500116E+02 -0.19948924742E+02  0.30540519856E+02  0.00000000000E+00 0. -1.
<mgrwt>
<rscale>  1 0.12711852E+03</rscale>
<asrwt>0</asrwt>
<pdfrwt beam="1">  1        4 0.16409383E-01 0.12711852E+03</pdfrwt>
<pdfrwt beam="2">  1       -4 0.10015145E-01 0.12711852E+03</pdfrwt>
<totfact> 0.39184555E+03</totfact>
</mgrwt>
</event>
<event>
 6    4  0.2220150E-003  0.1382140E+03  0.7818608E-02  0.1215752E+00
          4   -1    0    0  502    0  0.00000000000E+00  0.00000000000E+00  0.35859498838E+03  0.35859723729E+03  0.12700000000E+01 0. -1.
         -4   -1    0    0    0  501 -0.00000000000E+00 -0.00000000000E+00 -0.40517690236E+02  0.40537589002E+02  0.12700000000E+01 0. -1.
         25    2    1    2    0    0  0.10081323043E+02 -0.58102731169E+02  0.31025330152E+03  0.33964721946E+03  0.12500224854E+03 0.  0.
    9000005    1    3    3    0    0 -0.21358148055E+02  0.27483394911E+01 -0.36992077633E+00  0.21560628462E+02  0.10000000000E+01 0.  0.
    9000005    1    3    3    0    0  0.31439471098E+02 -0.60851070660E+02  0.31062322230E+03  0.31808659100E+03  0.10000000000E+01 0.  0.
         21    1    1    2  502  501 -0.10081323043E+02  0.58102731169E+02  0.78239966286E+01  0.59487606834E+02  0.00000000000E+00 0. -1.
<mgrwt>
<rscale>  1 0.13821405E+03</rscale>
<asrwt>0</asrwt>
<pdfrwt beam="1">  1        4 0.55170163E-01 0.13821405E+03</pdfrwt>
<pdfrwt beam="2">  1       -4 0.62351945E-02 0.13821405E+03</pdfrwt>
<totfact> 0.87580283E+02</totfact>
</mgrwt>
</event>
<event>
 6    4  0.2220150E-003  0.1286463E+03  0.7818608E-02  0.1229478E+00
         -4   -1    0    0    0  501 -0.00000000000E+00  0.00000000000E+00  0.88409676763E+02  0.88418798031E+02  0.12700000000E+01 0. -1.
          4   -1    0    0  502    0  0.00000000000E+00 -0.00000000000E+00 -0.78167043435E+02  0.78177359762E+02  0.12700000000E+01 0. -1.
         25    2    1    2    0    0  0.24367569776E+02 -0.18211485713E+02 -0.11566558984E+02  0.12916518749E+03  0.12499769479E+03 0.  0.
    9000005    1    3    3    0    0  0.20885493389E+02 -0.16379761176E+02 -0.67783527566E+02  0.72801833903E+02  0.10000000000E+01 0.  0.
    9000005    1    3    3    0    0  0.34820763873E+01 -0.18317245365E+01  0.56216968583E+02  0.56363353585E+02  0.10000000000E+01 0.  0.
         21    1    1    2  502  501 -0.24367569776E+02  0.18211485713E+02  0.21809192312E+02  0.37430970305E+02  0.00000000000E+00 0. -1.
<mgrwt>
<rscale>  1 0.12864626E+03</rscale>
<asrwt>0</asrwt>
<pdfrwt beam="2">  1        4 0.12027194E-01 0.12864626E+03</pdfrwt>
<pdfrwt beam="1">  1       -4 0.13602984E-01 0.12864626E+03</pdfrwt>
<totfact> 0.39957005E+03</totfact>
</mgrwt>
</event>
<event>
 6    4  0.2220150E-003  0.1274118E+03  0.7818608E-02  0.1231347E+00
         -4   -1    0    0    0  501 -0.00000000000E+00  0.00000000000E+00  0.73186709729E+02  0.73197727977E+02  0.12700000000E+01 0. -1.
          4   -1    0    0  502    0  0.00000000000E+00 -0.00000000000E+00 -0.79521745505E+02  0.79531886110E+02  0.12700000000E+01 0. -1.
         25    2    1    2    0    0 -0.22241278721E+01  0.24507899355E+02 -0.38702446653E+00  0.12741237265E+03  0.12501271551E+03 0.  0.
    9000005    1    3    3    0    0 -0.55712692898E+01  0.69065532360E+02 -0.28150696207E+02  0.74796714491E+02  0.10000000000E+01 0.  0.
    9000005    1    3    3    0    0  0.33471414176E+01 -0.44557633005E+02  0.27763671740E+02  0.52615658156E+02  0.10000000000E+01 0.  0.
         21    1    1    2  502  501  0.22241278721E+01 -0.24507899355E+02 -0.59480113095E+01  0.25317241440E+02  0.00000000000E+00 0. -1.
<mgrwt>
<rscale>  1 0.12741178E+03</rscale>
<asrwt>0</asrwt>
<pdfrwt beam="2">  1        4 0.12235742E-01 0.12741178E+03</pdfrwt>
<pdfrwt beam="1">  1       -4 0.11261121E-01 0.12741178E+03</pdfrwt>
<totfact> 0.53499116E+03</totfact>
</mgrwt>
</event>
<event>
 6    4  0.2220150E-003  0.1269006E+03  0.7818608E-02  0.1232128E+00
         -4   -1    0    0    0  501 -0.00000000000E+00  0.00000000000E+00  0.38803290872E+03  0.38803498701E+03  0.12700000000E+01 0. -1.
          4   -1    0    0  502    0  0.00000000000E+00 -0.00000000000E+00 -0.14240314655E+02  0.14296833967E+02  0.12700000000E+01 0. -1.
         25    2    1    2    0    0  0.21023432338E+02  0.60680910194E+01  0.32229696743E+03  0.34638000244E+03  0.12499985776E+03 0.  0.
    9000005    1    3    3    0    0 -0.27082270255E+01 -0.50239792075E+02  0.23167365020E+03  0.23707604560E+03  0.10000000000E+01 0.  0.
    9000005    1    3    3    0    0  0.23731659363E+02  0.56307883094E+02  0.90623317226E+02  0.10930395683E+03  0.10000000000E+01 0.  0.
         21    1    1    2  502  501 -0.21023432338E+02 -0.60680910194E+01  0.51495626636E+02  0.55951818545E+02  0.00000000000E+00 0. -1.
<mgrwt>
<rscale>  1 0.12690063E+03</rscale>
<asrwt>0</asrwt>
<pdfrwt beam="2">  1        4 0.21953250E-02 0.12690063E+03</pdfrwt>
<pdfrwt beam="1">  1       -4 0.59701882E-01 0.12690063E+03</pdfrwt>
<totfact> 0.38051621E+03</totfact>
</mgrwt>
</event>
<event>
 6    4  0.2220150E-003  0.1332855E+03  0.7818608E-02  0.1222660E+00
         -4   -1    0    0    0  501 -0.00000000000E+00  0.00000000000E+00  0.15824755110E+02  0.15875634610E+02  0.12700000000E+01 0. -1.
          4   -1    0    0  502    0  0.00000000000E+00 -0.00000000000E+00 -0.51307973173E+03  0.51308130351E+03  0.12700000000E+01 0. -1.
         25    2    1    2    0    0  0.45186709788E+02  0.99426071449E+01 -0.39004131132E+03  0.41218594770E+03  0.12499734702E+03 0.  0.
    9000005    1    3    3    0    0  0.44480276255E+02 -0.14851282360E+02 -0.38371132071E+03  0.38656750149E+03  0.10000000000E+01 0.  0.
    9000005    1    3    3    0    0  0.70643353338E+00  0.24793889505E+02 -0.63299906136E+01  0.25618446211E+02  0.10000000000E+01 0.  0.
         21    1    1    2  502  501 -0.45186709788E+02 -0.99426071449E+01 -0.10721366529E+03  0.11677099042E+03  0.00000000000E+00 0. -1.
<mgrwt>
<rscale>  1 0.13328552E+03</rscale>
<asrwt>0</asrwt>
<pdfrwt beam="2">  1        4 0.78939365E-01 0.13328552E+03</pdfrwt>
<pdfrwt beam="1">  1       -4 0.24386128E-02 0.13328552E+03</pdfrwt>
<totfact> 0.17951601E+03</totfact>
</mgrwt>
</event>
<event>
 6    4  0.2220150E-003  0.1266588E+03  0.7818608E-02  0.1232499E+00
         -4   -1    0    0    0  501 -0.00000000000E+00  0.00000000000E+00  0.38987909756E+02  0.39008588890E+02  0.12700000000E+01 0. -1.
          4   -1    0    0  502    0  0.00000000000E+00 -0.00000000000E+00 -0.14064588134E+03  0.14065161512E+03  0.12700000000E+01 0. -1.
         25    2    1    2    0    0  0.17856345283E+02 -0.99454618134E+01 -0.79632016089E+02  0.14961184311E+03  0.12499873734E+03 0.  0.
    9000005    1    3    3    0    0  0.71566250925E+02 -0.59929353205E+01 -0.36268352845E+02  0.80461400455E+02  0.10000000000E+01 0.  0.
    9000005    1    3    3    0    0 -0.53709905641E+02 -0.39525264929E+01 -0.43363663245E+02  0.69150442657E+02  0.10000000000E+01 0.  0.
         21    1    1    2  502  501 -0.17856345283E+02  0.99454618134E+01 -0.22025955490E+02  0.30048360900E+02  0.00000000000E+00 0.  1.
<mgrwt>
<rscale>  1 0.12665878E+03</rscale>
<asrwt>0</asrwt>
<pdfrwt beam="2">  1        4 0.21639860E-01 0.12665878E+03</pdfrwt>
<pdfrwt beam="1">  1       -4 0.60001718E-02 0.12665878E+03</pdfrwt>
<totfact> 0.55675038E+03</totfact>
</mgrwt>
</event>
<event>
 6    4  0.2220150E-003  0.1269800E+03  0.7818608E-02  0.1232007E+00
          4   -1    0    0  502    0  0.00000000000E+00  0.00000000000E+00  0.13378128797E+02  0.13438274819E+02  0.12700000000E+01 0.  1.
         -4   -1    0    0    0  501 -0.00000000000E+00 -0.00000000000E+00 -0.42373993743E+03  0.42374184060E+03  0.12700000000E+01 0.  1.
         25    2    1    2    0    0 -0.15029127678E+02  0.16532501260E+02 -0.32452142731E+03  0.34847966817E+03  0.12499889626E+03 0.  0.
    9000005    1    3    3    0    0 -0.17730075407E+01  0.68124360619E+02 -0.12985057196E+03  0.14665007025E+03  0.10000000000E+01 0.  0.
    9000005    1    3    3    0    0 -0.13256120138E+02 -0.51591859358E+02 -0.19467085535E+03  0.20182959792E+03  0.10000000000E+01 0.  0.
         21    1    1    2  502  501  0.15029127678E+02 -0.16532501260E+02 -0.85840381324E+02  0.88700447251E+02  0.00000000000E+00 0.  1.
<mgrwt>
<rscale>  1 0.12698001E+03</rscale>
<asrwt>0</asrwt>
<pdfrwt beam="1">  1        4 0.20629470E-02 0.12698001E+03</pdfrwt>
<pdfrwt beam="2">  1       -4 0.65195522E-01 0.12698001E+03</pdfrwt>
<totfact> 0.34784569E+03</totfact>
</mgrwt>
</event>
<event>
 6    4  0.2220150E-003  0.1282948E+03  0.7818608E-02  0.1230008E+00
         -4   -1    0    0    0  501 -0.00000000000E+00  0.00000000000E+00  0.42484902612E+03  0.42485092432E+03  0.12700000000E+01 0.  1.
          4   -1    0    0  502    0  0.00000000000E+00 -0.00000000000E+00 -0.15734673243E+02  0.15785843090E+02  0.12700000000E+01 0.  1.
         25    2    1    2    0    0 -0.28031645355E+02  0.70822854081E+01  0.27518340934E+03  0.30362060214E+03  0.12499451732E+03 0.  0.
    9000005    1    3    3    0    0 -0.38177660353E+02 -0.45919843980E+02  0.21331163673E+03  0.22151528206E+03  0.10000000000E+01 0.  0.
    9000005    1    3    3    0    0  0.10146014997E+02  0.53002129389E+02  0.61871772614E+02  0.82105320086E+02  0.10000000000E+01 0.  0.
         21    1    1    2  502  501  0.28031645355E+02 -0.70822854081E+01  0.13393094354E+03  0.13701616527E+03  0.00000000000E+00 0.  1.
<mgrwt>
<rscale>  1 0.12829482E+03</rscale>
<asrwt>0</asrwt>
<pdfrwt beam="2">  1        4 0.24248014E-02 0.12829482E+03</pdfrwt>
<pdfrwt beam="1">  1       -4 0.65365462E-01 0.12829482E+03</pdfrwt>
<totfact> 0.27014695E+03</totfact>
</mgrwt>
</event>
<event>
 6    4  0.2220150E-003  0.1278216E+03  0.7818608E-02  0.1230724E+00
         -4   -1    0    0    0  501 -0.00000000000E+00  0.00000000000E+00  0.18119085022E+03  0.18119530100E+03  0.12700000000E+01 0. -1.
          4   -1    0    0  502    0  0.00000000000E+00 -0.00000000000E+00 -0.33185736645E+02  0.33210028857E+02  0.12700000000E+01 0. -1.
         25    2    1    2    0    0 -0.22964956669E+02 -0.13593373214E+02  0.11480766735E+03  0.17181143985E+03  0.12500480531E+03 0.  0.
    9000005    1    3    3    0    0  0.24075204495E+02  0.36372652587E+02  0.87825494285E+02  0.98065808384E+02  0.10000000000E+01 0.  0.
    9000005    1    3    3    0    0 -0.47040161165E+02 -0.49966025801E+02  0.26982173070E+02  0.73745631466E+02  0.10000000000E+01 0.  0.
         21    1    1    2  502  501  0.22964956669E+02  0.13593373214E+02  0.33197446220E+02  0.42593890004E+02  0.00000000000E+00 0.  1.
<mgrwt>
<rscale>  1 0.12782164E+03</rscale>
<asrwt>0</asrwt>
<pdfrwt beam="2">  1        4 0.51077088E-02 0.12782164E+03</pdfrwt>
<pdfrwt beam="1">  1       -4 0.27877727E-01 0.12782164E+03</pdfrwt>
<totfact> 0.45415351E+03</totfact>
</mgrwt>
</event>
<event>
 6    4  0.2220150E-003  0.1324591E+03  0.7818608E-02  0.1223852E+00
          4   -1    0    0  502    0  0.00000000000E+00  0.00000000000E+00  0.52997312351E+03  0.52997464518E+03  0.12700000000E+01 0.  1.
         -4   -1    0    0    0  501 -0.00000000000E+00 -0.00000000000E+00 -0.14853092362E+02  0.14907288577E+02  0.12700000000E+01 0.  1.
         25    2    1    2    0    0 -0.36831713658E+02  0.23729395247E+02  0.41411497028E+03  0.43478342492E+03  0.12500303453E+03 0.  0.
    9000005    1    3    3    0    0 -0.40898667818E+02 -0.45289763308E+02  0.15449401014E+03  0.16611219961E+03  0.10000000000E+01 0.  0.
    9000005    1    3    3    0    0  0.40669541594E+01  0.69019158555E+02  0.25962096014E+03  0.26867122531E+03  0.10000000000E+01 0.  0.
         21    1    1    2  502  501  0.36831713658E+02 -0.23729395247E+02  0.10100506086E+03  0.11009850884E+03  0.00000000000E+00 0.  1.
<mgrwt>
<rscale>  1 0.13245912E+03</rscale>
<asrwt>0</asrwt>
<pdfrwt beam="1">  1        4 0.81538616E-01 0.13245912E+03</pdfrwt>
<pdfrwt beam="2">  1       -4 0.22893770E-02 0.13245912E+03</pdfrwt>
<totfact> 0.18403747E+03</totfact>
</mgrwt>
</event>
<event>
 6    4  0.2220150E-003  0.1282059E+03  0.7818608E-02  0.1230142E+00
          4   -1    0    0  502    0  0.00000000000E+00  0.00000000000E+00  0.82392333402E+03  0.82392431281E+03  0.12700000000E+01 0.  1.
         -4   -1    0    0    0  501 -0.00000000000E+00 -0.00000000000E+00 -0.75405226796E+01  0.76467236305E+01  0.12700000000E+01 0.  1.
         25    2    1    2    0    0 -0.21944903650E+02 -0.18194805139E+02  0.70726651503E+03  0.71879251078E+03  0.12499648211E+03 0.  0.
    9000005    1    3    3    0    0  0.36017172007E+01 -0.10242034603E+02  0.68165064165E+03  0.68173783004E+03  0.10000000000E+01 0.  0.
    9000005    1    3    3    0    0 -0.25546620850E+02 -0.79527705368E+01  0.25615873383E+02  0.37054680747E+02  0.10000000000E+01 0.  0.
         21    1    1    2  502  501  0.21944903650E+02  0.18194805139E+02  0.10911629631E+03  0.11277852566E+03  0.00000000000E+00 0.  1.
<mgrwt>
<rscale>  1 0.12820589E+03</rscale>
<asrwt>0</asrwt>
<pdfrwt beam="1">  1        4 0.12676570E+00 0.12820589E+03</pdfrwt>
<pdfrwt beam="2">  1       -4 0.11683248E-02 0.12820589E+03</pdfrwt>
<totfact> 0.18362087E+03</totfact>
</mgrwt>
</event>
<event>
 6    4  0.2220150E-003  0.1329290E+03  0.7818608E-02  0.1223173E+00
          4   -1    0    0  502    0  0.00000000000E+00  0.00000000000E+00  0.65059905546E+03  0.65060029501E+03  0.12700000000E+01 0.  1.
         -4   -1    0    0    0  501 -0.00000000000E+00 -0.00000000000E+00 -0.12394053570E+02  0.12458951156E+02  0.12700000000E+01 0.  1.
         25    2    1    2    0    0 -0.44069006043E+02  0.10159178193E+02  0.51279040611E+03  0.52973967885E+03  0.12499936220E+03 0.  0.
    9000005    1    3    3    0    0 -0.59669956052E+02  0.18749049333E+02  0.50720541662E+03  0.51104830022E+03  0.10000000000E+01 0.  0.
    9000005    1    3    3    0    0  0.15600950009E+02 -0.85898711403E+01  0.55849894870E+01  0.18691378627E+02  0.10000000000E+01 0.  0.
         21    1    1    2  502  501  0.44069006043E+02 -0.10159178193E+02  0.12541459578E+03  0.13331956732E+03  0.00000000000E+00 0.  1.
<mgrwt>
<rscale>  1 0.13292903E+03</rscale>
<asrwt>0</asrwt>
<pdfrwt beam="1">  1        4 0.10009726E+00 0.13292903E+03</pdfrwt>
<pdfrwt beam="2">  1       -4 0.19118648E-02 0.13292903E+03</pdfrwt>
<totfact> 0.15296161E+03</totfact>
</mgrwt>
</event>
<event>
 6    4  0.2220150E-003  0.1355470E+03  0.7818608E-02  0.1219450E+00
         -4   -1    0    0    0  501 -0.00000000000E+00  0.00000000000E+00  0.83908703627E+02  0.83918314117E+02  0.12700000000E+01 0. -1.
          4   -1    0    0  502    0  0.00000000000E+00 -0.00000000000E+00 -0.13399336076E+03  0.13399937920E+03  0.12700000000E+01 0. -1.
         25    2    1    2    0    0 -0.87544102551E+01  0.51693577639E+02 -0.80158689495E+02  0.15747505034E+03  0.12499644119E+03 0.  0.
    9000005    1    3    3    0    0  0.47020125840E+02 -0.12308275691E+02 -0.16423878299E+02  0.51314029883E+02  0.10000000000E+01 0.  0.
    9000005    1    3    3    0    0 -0.55774536095E+02  0.64001853330E+02 -0.63734811196E+02  0.10616102046E+03  0.10000000000E+01 0.  0.
         21    1    1    2  502  501  0.87544102551E+01 -0.51693577639E+02  0.30074032364E+02  0.60442642982E+02  0.00000000000E+00 0. -1.
<mgrwt>
<rscale>  1 0.13554695E+03</rscale>
<asrwt>0</asrwt>
<pdfrwt beam="2">  1        4 0.20615565E-01 0.13554695E+03</pdfrwt>
<pdfrwt beam="1">  1       -4 0.12910234E-01 0.13554695E+03</pdfrwt>
<totfact> 0.17196069E+03</totfact>
</mgrwt>
</event>
<event>
 6    4  0.2220150E-003  0.1266840E+03  0.7818608E-02  0.1232461E+00
          4   -1    0    0  502    0  0.00000000000E+00  0.00000000000E+00  0.10867169656E+03  0.10867911728E+03  0.12700000000E+01 0.  1.
         -4   -1    0    0    0  501 -0.00000000000E+00 -0.00000000000E+00 -0.65693406190E+02  0.65705681008E+02  0.12700000000E+01 0.  1.
         25    2    1    2    0    0 -0.15907287746E+02 -0.13053651716E+02  0.66545316744E+02  0.14309830986E+03  0.12500162990E+03 0.  0.
    9000005    1    3    3    0    0 -0.65703960114E+01  0.13531617849E+02  0.98980288442E+02  0.10012178727E+03  0.10000000000E+01 0.  0.
    9000005    1    3    3    0    0 -0.93368917342E+01 -0.26585269566E+02 -0.32434971697E+02  0.42976522592E+02  0.10000000000E+01 0.  0.
         21    1    1    2  502  501  0.15907287746E+02  0.13053651716E+02 -0.23567026372E+02  0.31286488434E+02  0.00000000000E+00 0.  1.
<mgrwt>
<rscale>  1 0.12668404E+03</rscale>
<asrwt>0</asrwt>
<pdfrwt beam="1">  1        4 0.16720237E-01 0.12668404E+03</pdfrwt>
<pdfrwt beam="2">  1       -4 0.10108193E-01 0.12668404E+03</pdfrwt>
<totfact> 0.37293918E+03</totfact>
</mgrwt>
</event>
<event>
 6    4  0.2220150E-003  0.1312927E+03  0.7818608E-02  0.1225550E+00
          4   -1    0    0  502    0  0.00000000000E+00  0.00000000000E+00  0.60005745991E+02  0.60019184032E+02  0.12700000000E+01 0.  1.
         -4   -1    0    0    0  501 -0.00000000000E+00 -0.00000000000E+00 -0.12257710829E+03  0.12258368724E+03  0.12700000000E+01 0.  1.
         25    2    1    2    0    0 -0.39190368029E+02 -0.88957789900E+01 -0.50068773320E+02  0.14051564564E+03  0.12499097878E+03 0.  0.
    9000005    1    3    3    0    0 -0.43918234587E+02  0.35361512004E+02  0.17985742938E+02  0.59192354316E+02  0.10000000000E+01 0.  0.
    9000005    1    3    3    0    0  0.47278665581E+01 -0.44257290994E+02 -0.68054516258E+02  0.81323291322E+02  0.10000000000E+01 0.  0.
         21    1    1    2  502  501  0.39190368029E+02  0.88957789900E+01 -0.12502588976E+02  0.42087225630E+02  0.00000000000E+00 0. -1.
<mgrwt>
<rscale>  1 0.13129267E+03</rscale>
<asrwt>0</asrwt>
<pdfrwt beam="1">  1        4 0.92331930E-02 0.13129267E+03</pdfrwt>
<pdfrwt beam="2">  1       -4 0.18859556E-01 0.13129267E+03</pdfrwt>
<totfact> 0.35374724E+03</totfact>
</mgrwt>
</event>
<event>
 6    4  0.2220150E-003  0.1295106E+03  0.7818608E-02  0.1228184E+00
          4   -1    0    0  502    0  0.00000000000E+00  0.00000000000E+00  0.72229314355E+03  0.72229426006E+03  0.12700000000E+01 0.  1.
         -4   -1    0    0    0  501 -0.00000000000E+00 -0.00000000000E+00 -0.31406085367E+02  0.31431753022E+02  0.12700000000E+01 0.  1.
         25    2    1    2    0    0 -0.31433754036E+02  0.12670883330E+02  0.70515803088E+03  0.71695247860E+03  0.12499750345E+03 0.  0.
    9000005    1    3    3    0    0 -0.11944684003E+02 -0.56040540547E+02  0.27547457637E+03  0.28137245758E+03  0.10000000000E+01 0.  0.
    9000005    1    3    3    0    0 -0.19489070033E+02  0.68711423876E+02  0.42968345451E+03  0.43558002101E+03  0.10000000000E+01 0.  0.
         21    1    1    2  502  501  0.31433754036E+02 -0.12670883330E+02 -0.14270972699E+02  0.36773534490E+02  0.00000000000E+00 0.  1.
<mgrwt>
<rscale>  1 0.12951065E+03</rscale>
<asrwt>0</asrwt>
<pdfrwt beam="1">  1        4 0.11112408E+00 0.12951065E+03</pdfrwt>
<pdfrwt beam="2">  1       -4 0.48337659E-02 0.12951065E+03</pdfrwt>
<totfact> 0.27841012E+02</totfact>
</mgrwt>
</event>
<event>
 6    4  0.2220150E-003  0.1354784E+03  0.7818608E-02  0.1219546E+00
          4   -1    0    0  502    0  0.00000000000E+00  0.00000000000E+00  0.23513881192E+02  0.23548152978E+02  0.12700000000E+01 0. -1.
         -4   -1    0    0    0  501 -0.00000000000E+00 -0.00000000000E+00 -0.87561066999E+03  0.87561159100E+03  0.12700000000E+01 0. -1.
         25    2    1    2    0    0  0.57645828805E+00  0.52238510844E+02 -0.18127786186E+03  0.22630966628E+03  0.12500083013E+03 0.  0.
    9000005    1    3    3    0    0  0.41820921096E+02  0.48730982775E+02 -0.32698140690E+02  0.72068484986E+02  0.10000000000E+01 0.  0.
    9000005    1    3    3    0    0 -0.41244462808E+02  0.35075280691E+01 -0.14857972117E+03  0.15424118130E+03  0.10000000000E+01 0.  0.
         21    1    1    2  502  501 -0.57645828805E+00 -0.52238510844E+02 -0.67081892694E+03  0.67285007770E+03  0.00000000000E+00 0. -1.
<mgrwt>
<rscale>  1 0.13547842E+03</rscale>
<asrwt>0</asrwt>
<pdfrwt beam="1">  1        4 0.36202280E-02 0.13547842E+03</pdfrwt>
<pdfrwt beam="2">  1       -4 0.13471202E+00 0.13547842E+03</pdfrwt>
<totfact> 0.27950825E+02</totfact>
</mgrwt>
</event>
<event>
 6    4  0.2220150E-003  0.1310091E+03  0.7818608E-02  0.1225966E+00
         -4   -1    0    0    0  501 -0.00000000000E+00  0.00000000000E+00  0.13636483853E+03  0.13637075232E+03  0.12700000000E+01 0.  1.
          4   -1    0    0  502    0  0.00000000000E+00 -0.00000000000E+00 -0.54007020865E+02  0.54021951119E+02  0.12700000000E+01 0.  1.
         25    2    1    2    0    0  0.11397896733E+02 -0.37539720180E+02  0.73330023717E+02  0.15013548415E+03  0.12499691429E+03 0.  0.
    9000005    1    3    3    0    0  0.29141637603E+02 -0.76009543931E+02  0.23523845077E+02  0.84741118107E+02  0.10000000000E+01 0.  0.
    9000005    1    3    3    0    0 -0.17743740870E+02  0.38469823751E+02  0.49806178641E+02  0.65394366044E+02  0.10000000000E+01 0.  0.
         21    1    1    2  502  501 -0.11397896733E+02  0.37539720180E+02  0.90277939487E+01  0.40257219287E+02  0.00000000000E+00 0.  1.
<mgrwt>
<rscale>  1 0.13100905E+03</rscale>
<asrwt>0</asrwt>
<pdfrwt beam="2">  1        4 0.83103759E-02 0.13100905E+03</pdfrwt>
<pdfrwt beam="1">  1       -4 0.20980809E-01 0.13100905E+03</pdfrwt>
<totfact> 0.34793908E+03</totfact>
</mgrwt>
</event>
<event>
 6    4  0.2220150E-003  0.1313463E+03  0.7818608E-02  0.1225472E+00
          4   -1    0    0  502    0  0.00000000000E+00  0.00000000000E+00  0.11805398616E+02  0.11873514074E+02  0.12700000000E+01 0. -1.
         -4   -1    0    0    0  501 -0.00000000000E+00 -0.00000000000E+00 -0.62533228885E+03  0.62533357848E+03  0.12700000000E+01 0. -1.
         25    2    1    2    0    0  0.24821447361E+02 -0.31796983908E+02 -0.44986166283E+03  0.46864416930E+03  0.12499875720E+03 0.  0.
    9000005    1    3    3    0    0  0.37857201703E+02 -0.46677694533E+02 -0.44391015503E+03  0.44796115973E+03  0.10000000000E+01 0.  0.
    9000005    1    3    3    0    0 -0.13035754342E+02  0.14880710625E+02 -0.59515078018E+01  0.20683009575E+02  0.10000000000E+01 0.  0.
         21    1    1    2  502  501 -0.24821447361E+02  0.31796983908E+02 -0.16366522740E+03  0.16856292325E+03  0.00000000000E+00 0. -1.
<mgrwt>
<rscale>  1 0.13134627E+03</rscale>
<asrwt>0</asrwt>
<pdfrwt beam="1">  1        4 0.18215545E-02 0.13134627E+03</pdfrwt>
<pdfrwt beam="2">  1       -4 0.96210281E-01 0.13134627E+03</pdfrwt>
<totfact> 0.17998261E+03</totfact>
</mgrwt>
</event>
<event>
 6    4  0.2220150E-003  0.1287216E+03  0.7818608E-02  0.1229365E+00
          4   -1    0    0  502    0  0.00000000000E+00  0.00000000000E+00  0.10569802648E+02  0.10645826789E+02  0.12700000000E+01 0. -1.
         -4   -1    0    0    0  501 -0.00000000000E+00 -0.00000000000E+00 -0.68043423281E+03  0.68043541801E+03  0.12700000000E+01 0. -1.
         25    2    1    2    0    0  0.22034162908E+02  0.21405817786E+02 -0.41855776109E+03  0.43790392494E+03  0.12500213894E+03 0.  0.
    9000005    1    3    3    0    0  0.61966481730E+02  0.14442940706E+02 -0.36616728030E+03  0.37165564782E+03  0.10000000000E+01 0.  0.
    9000005    1    3    3    0    0 -0.39932318822E+02  0.69628770796E+01 -0.52390480784E+02  0.66248277113E+02  0.10000000000E+01 0.  0.
         21    1    1    2  502  501 -0.22034162908E+02 -0.21405817786E+02 -0.25130666907E+03  0.25317731986E+03  0.00000000000E+00 0. -1.
<mgrwt>
<rscale>  1 0.12872159E+03</rscale>
<asrwt>0</asrwt>
<pdfrwt beam="1">  1        4 0.16320632E-02 0.12872159E+03</pdfrwt>
<pdfrwt beam="2">  1       -4 0.10468810E+00 0.12872159E+03</pdfrwt>
<totfact> 0.17435965E+03</totfact>
</mgrwt>
</event>
<event>
 6    4  0.2220150E-003  0.1272500E+03  0.7818608E-02  0.1231594E+00
         -4   -1    0    0    0  501 -0.00000000000E+00  0.00000000000E+00  0.17451929998E+03  0.17452392090E+03  0.12700000000E+01 0. -1.
          4   -1    0    0  502    0  0.00000000000E+00 -0.00000000000E+00 -0.33770507793E+02  0.33794379660E+02  0.12700000000E+01 0. -1.
         25    2    1    2    0    0 -0.21072054023E+02  0.11108332788E+02  0.10313795325E+03  0.16379862262E+03  0.12500049941E+03 0.  0.
    9000005    1    3    3    0    0  0.52780720940E+02  0.20493807625E+01  0.41977265028E+02  0.67476627389E+02  0.10000000000E+01 0.  0.
    9000005    1    3    3    0    0 -0.73852774963E+02  0.90589520253E+01  0.61160688218E+02  0.96321995229E+02  0.10000000000E+01 0.  0.
         21    1    1    2  502  501  0.21072054023E+02 -0.11108332788E+02  0.37610838940E+02  0.44519677939E+02  0.00000000000E+00 0.  1.
<mgrwt>
<rscale>  1 0.12724996E+03</rscale>
<asrwt>0</asrwt>
<pdfrwt beam="2">  1        4 0.51976544E-02 0.12724996E+03</pdfrwt>
<pdfrwt beam="1">  1       -4 0.26851315E-01 0.12724996E+03</pdfrwt>
<totfact> 0.47304586E+03</totfact>
</mgrwt>
</event>
<event>
 6    4  0.2220150E-003  0.1267010E+03  0.7818608E-02  0.1232435E+00
          4   -1    0    0  502    0  0.00000000000E+00  0.00000000000E+00  0.56716771730E+02  0.56730988846E+02  0.12700000000E+01 0.  1.
         -4   -1    0    0    0  501 -0.00000000000E+00 -0.00000000000E+00 -0.14480799078E+03  0.14481355977E+03  0.12700000000E+01 0.  1.
         25    2    1    2    0    0  0.26207731243E+01 -0.20511957797E+02 -0.17399081548E+02  0.12789003641E+03  0.12500209802E+03 0.  0.
    9000005    1    3    3    0    0  0.10791538470E+02  0.37539277984E+02 -0.47887322651E+02  0.61804938029E+02  0.10000000000E+01 0.  0.
    9000005    1    3    3    0    0 -0.81707653460E+01 -0.58051235780E+02  0.30488241103E+02  0.66085098377E+02  0.10000000000E+01 0.  0.
         21    1    1    2  502  501 -0.26207731243E+01  0.20511957797E+02 -0.70692137498E+02  0.73654512207E+02  0.00000000000E+00 0.  1.
<mgrwt>
<rscale>  1 0.12670096E+03</rscale>
<asrwt>0</asrwt>
<pdfrwt beam="1">  1        4 0.87271792E-02 0.12670096E+03</pdfrwt>
<pdfrwt beam="2">  1       -4 0.22279674E-01 0.12670096E+03</pdfrwt>
<totfact> 0.28534468E+03</totfact>
</mgrwt>
</event>
<event>
 6    4  0.2220150E-003  0.1396212E+03  0.7818608E-02  0.1213840E+00
          4   -1    0    0  502    0  0.00000000000E+00  0.00000000000E+00  0.85897369348E+03  0.85897463234E+03  0.12700000000E+01 0.  1.
         -4   -1    0    0    0  501 -0.00000000000E+00 -0.00000000000E+00 -0.12079282000E+02  0.12145861584E+02  0.12700000000E+01 0.  1.
         25    2    1    2    0    0 -0.29671129974E+02  0.54696372087E+02  0.64093385148E+03  0.65596515155E+03  0.12498803544E+03 0.  0.
    9000005    1    3    3    0    0 -0.23305112294E+02  0.88771815666E+02  0.31235797019E+03  0.32556422571E+03  0.10000000000E+01 0.  0.
    9000005    1    3    3    0    0 -0.63660176796E+01 -0.34075443579E+02  0.32857588128E+03  0.33040092584E+03  0.10000000000E+01 0.  0.
         21    1    1    2  502  501  0.29671129974E+02 -0.54696372087E+02  0.20596056001E+03  0.21515534237E+03  0.00000000000E+00 0.  1.
<mgrwt>
<rscale>  1 0.13962119E+03</rscale>
<asrwt>0</asrwt>
<pdfrwt beam="1">  1        4 0.13215498E+00 0.13962119E+03</pdfrwt>
<pdfrwt beam="2">  1       -4 0.18635450E-02 0.13962119E+03</pdfrwt>
<totfact> 0.82891190E+02</totfact>
</mgrwt>
</event>
<event>
 6    4  0.2220150E-003  0.1281554E+03  0.7818608E-02  0.1230219E+00
         -4   -1    0    0    0  501 -0.00000000000E+00  0.00000000000E+00  0.78812503752E+02  0.78822735601E+02  0.12700000000E+01 0.  1.
          4   -1    0    0  502    0  0.00000000000E+00 -0.00000000000E+00 -0.87606152170E+02  0.87615357090E+02  0.12700000000E+01 0.  1.
         25    2    1    2    0    0 -0.27789160803E+02 -0.51709824196E+01 -0.29367593488E+02  0.13147720407E+03  0.12499929250E+03 0.  0.
    9000005    1    3    3    0    0 -0.10046340854E+02  0.42116779598E+02 -0.58787057768E+02  0.73018287088E+02  0.10000000000E+01 0.  0.
    9000005    1    3    3    0    0 -0.17742819949E+02 -0.47287762017E+02  0.29419464280E+02  0.58458916983E+02  0.10000000000E+01 0.  0.
         21    1    1    2  502  501  0.27789160803E+02  0.51709824196E+01  0.20573945070E+02  0.34960888620E+02  0.00000000000E+00 0.  1.
<mgrwt>
<rscale>  1 0.12815537E+03</rscale>
<asrwt>0</asrwt>
<pdfrwt beam="2">  1        4 0.13479365E-01 0.12815537E+03</pdfrwt>
<pdfrwt beam="1">  1       -4 0.12126496E-01 0.12815537E+03</pdfrwt>
<totfact> 0.39987746E+03</totfact>
</mgrwt>
</event>
<event>
 6    4  0.2220150E-003  0.1306346E+03  0.7818608E-02  0.1226517E+00
          4   -1    0    0  502    0  0.00000000000E+00  0.00000000000E+00  0.10475267395E+03  0.10476037228E+03  0.12700000000E+01 0.  1.
         -4   -1    0    0    0  501 -0.00000000000E+00 -0.00000000000E+00 -0.81170541780E+02  0.81180476427E+02  0.12700000000E+01 0.  1.
         25    2    1    2    0    0  0.37854963080E+02 -0.29807415603E+01  0.49791283122E+02  0.13980189939E+03  0.12499406446E+03 0.  0.
    9000005    1    3    3    0    0 -0.38503647269E+02 -0.26935459442E+02  0.34540913462E+02  0.58327733807E+02  0.10000000000E+01 0.  0.
    9000005    1    3    3    0    0  0.76358610349E+02  0.23954717882E+02  0.15250369661E+02  0.81474165587E+02  0.10000000000E+01 0.  0.
         21    1    1    2  502  501 -0.37854963080E+02  0.29807415603E+01 -0.26209150950E+02  0.46138949312E+02  0.00000000000E+00 0.  1.
<mgrwt>
<rscale>  1 0.13063460E+03</rscale>
<asrwt>0</asrwt>
<pdfrwt beam="1">  1        4 0.16117152E-01 0.13063460E+03</pdfrwt>
<pdfrwt beam="2">  1       -4 0.12489132E-01 0.13063460E+03</pdfrwt>
<totfact> 0.27981136E+03</totfact>
</mgrwt>
</event>
<event>
 6    4  0.2220150E-003  0.1314573E+03  0.7818608E-02  0.1225309E+00
         -4   -1    0    0    0  501 -0.00000000000E+00  0.00000000000E+00  0.51422402910E+03  0.51422559738E+03  0.12700000000E+01 0. -1.
          4   -1    0    0  502    0  0.00000000000E+00 -0.00000000000E+00 -0.15022382955E+02  0.15075970604E+02  0.12700000000E+01 0. -1.
         25    2    1    2    0    0 -0.31787580692E+02  0.25409457569E+02  0.32873711195E+03  0.35404675853E+03  0.12499971052E+03 0.  0.
    9000005    1    3    3    0    0 -0.39771512391E+01 -0.42043360369E+02  0.47812648922E+02  0.63800558619E+02  0.10000000000E+01 0.  0.
    9000005    1    3    3    0    0 -0.27810429453E+02  0.67452817938E+02  0.28092446303E+03  0.29024619991E+03  0.10000000000E+01 0.  0.
         21    1    1    2  502  501  0.31787580692E+02 -0.25409457569E+02  0.17046453419E+03  0.17525480945E+03  0.00000000000E+00 0. -1.
<mgrwt>
<rscale>  1 0.13145729E+03</rscale>
<asrwt>0</asrwt>
<pdfrwt beam="2">  1        4 0.23153787E-02 0.13145729E+03</pdfrwt>
<pdfrwt beam="1">  1       -4 0.79115627E-01 0.13145729E+03</pdfrwt>
<totfact> 0.19298709E+03</totfact>
</mgrwt>
</event>
<event>
 6    4  0.2220150E-003  0.1295369E+03  0.7818608E-02  0.1228145E+00
         -4   -1    0    0    0  501 -0.00000000000E+00  0.00000000000E+00  0.35737646455E+03  0.35737872113E+03  0.12700000000E+01 0. -1.
          4   -1    0    0  502    0  0.00000000000E+00 -0.00000000000E+00 -0.19474509764E+02  0.19515876372E+02  0.12700000000E+01 0. -1.
         25    2    1    2    0    0 -0.20877682108E+02 -0.26800606499E+02  0.23246856195E+03  0.26612298361E+03  0.12500263994E+03 0.  0.
    9000005    1    3    3    0    0 -0.39379797277E+02 -0.44943974868E+00  0.90855036922E+01  0.40429157881E+02  0.10000000000E+01 0.  0.
    9000005    1    3    3    0    0  0.18502115168E+02 -0.26351166750E+02  0.22338305826E+03  0.22569382573E+03  0.10000000000E+01 0.  0.
         21    1    1    2  502  501  0.20877682108E+02  0.26800606499E+02  0.10543339283E+03  0.11077161389E+03  0.00000000000E+00 0. -1.
<mgrwt>
<rscale>  1 0.12953691E+03</rscale>
<asrwt>0</asrwt>
<pdfrwt beam="2">  1        4 0.29994340E-02 0.12953691E+03</pdfrwt>
<pdfrwt beam="1">  1       -4 0.54984351E-01 0.12953691E+03</pdfrwt>
<totfact> 0.27943782E+03</totfact>
</mgrwt>
</event>
<event>
 6    4  0.2220150E-003  0.1275207E+03  0.7818608E-02  0.1231182E+00
         -4   -1    0    0    0  501 -0.00000000000E+00  0.00000000000E+00  0.13598833762E+03  0.13599426778E+03  0.12700000000E+01 0. -1.
          4   -1    0    0  502    0  0.00000000000E+00 -0.00000000000E+00 -0.42867018246E+02  0.42885826951E+02  0.12700000000E+01 0. -1.
         25    2    1    2    0    0 -0.24772140647E+02  0.46743265522E+01  0.77644042502E+02  0.14929877663E+03  0.12500407628E+03 0.  0.
    9000005    1    3    3    0    0 -0.81970409534E+01 -0.34967743849E+01 -0.34495646472E+02  0.35642229686E+02  0.10000000000E+01 0.  0.
    9000005    1    3    3    0    0 -0.16575099694E+02  0.81711009370E+01  0.11213968897E+03  0.11365654695E+03  0.10000000000E+01 0.  0.
         21    1    1    2  502  501  0.24772140647E+02 -0.46743265522E+01  0.15477276870E+02  0.29581318096E+02  0.00000000000E+00 0. -1.
<mgrwt>
<rscale>  1 0.12752069E+03</rscale>
<asrwt>0</asrwt>
<pdfrwt beam="2">  1        4 0.65968288E-02 0.12752069E+03</pdfrwt>
<pdfrwt beam="1">  1       -4 0.20923186E-01 0.12752069E+03</pdfrwt>
<totfact> 0.50797596E+03</totfact>
</mgrwt>
</event>
<event>
 6    4  0.2220150E-003  0.1271881E+03  0.7818608E-02  0.1231689E+00
         -4   -1    0    0    0  501 -0.00000000000E+00  0.00000000000E+00  0.93742358901E+03  0.93742444929E+03  0.12700000000E+01 0.  1.
          4   -1    0    0  502    0  0.00000000000E+00 -0.00000000000E+00 -0.67610532053E+01  0.68792979616E+01  0.12700000000E+01 0.  1.
         25    2    1    2    0    0 -0.23037978074E+01  0.23219440547E+02  0.62841838046E+03  0.64116025096E+03  0.12502942298E+03 0.  0.
    9000005    1    3    3    0    0 -0.92205954673E+01 -0.15110012519E+02  0.57377709127E+03  0.57405094053E+03  0.10000000000E+01 0.  0.
    9000005    1    3    3    0    0  0.69167976599E+01  0.38329453066E+02  0.54641289188E+02  0.67109310429E+02  0.10000000000E+01 0.  0.
         21    1    1    2  502  501  0.23037978074E+01 -0.23219440547E+02  0.30224415534E+03  0.30314349629E+03  0.00000000000E+00 0. -1.
<mgrwt>
<rscale>  1 0.12718808E+03</rscale>
<asrwt>0</asrwt>
<pdfrwt beam="2">  1        4 0.10493238E-02 0.12718808E+03</pdfrwt>
<pdfrwt beam="1">  1       -4 0.14422820E+00 0.12718808E+03</pdfrwt>
<totfact> 0.15670773E+03</totfact>
</mgrwt>
</event>
<event>
 6    4  0.2220150E-003  0.1278338E+03  0.7818608E-02  0.1230706E+00
          4   -1    0    0  502    0  0.00000000000E+00  0.00000000000E+00  0.12517707361E+03  0.12518351591E+03  0.12700000000E+01 0. -1.
         -4   -1    0    0    0  501 -0.00000000000E+00 -0.00000000000E+00 -0.56008648661E+02  0.56023045480E+02  0.12700000000E+01 0. -1.
         25    2    1    2    0    0  0.16611492297E+02  0.21021139106E+02  0.81613517646E+02  0.15166489086E+03  0.12499457144E+03 0.  0.
    9000005    1    3    3    0    0  0.41698994063E+02 -0.36448085165E+02  0.67614572299E+02  0.87407090132E+02  0.10000000000E+01 0.  0.
    9000005    1    3    3    0    0 -0.25087501766E+02  0.57469224272E+02  0.13998945347E+02  0.64257800725E+02  0.10000000000E+01 0.  0.
         21    1    1    2  502  501 -0.16611492297E+02 -0.21021139106E+02 -0.12445092702E+02  0.29541670535E+02  0.00000000000E+00 0. -1.
<mgrwt>
<rscale>  1 0.12783377E+03</rscale>
<asrwt>0</asrwt>
<pdfrwt beam="1">  1        4 0.19259614E-01 0.12783377E+03</pdfrwt>
<pdfrwt beam="2">  1       -4 0.86183181E-02 0.12783377E+03</pdfrwt>
<totfact> 0.37974036E+03</totfact>
</mgrwt>
</event>
<event>
 6    4  0.2220150E-003  0.1830514E+03  0.7818608E-02  0.1164882E+00
         -4   -1    0    0    0  501 -0.00000000000E+00  0.00000000000E+00  0.15233841795E+03  0.15234371167E+03  0.12700000000E+01 0.  1.
          4   -1    0    0  502    0  0.00000000000E+00 -0.00000000000E+00 -0.16508255095E+03  0.16508743601E+03  0.12700000000E+01 0.  1.
         25    2    1    2    0    0 -0.13185695259E+03  0.22265578792E+02  0.51132757157E+00  0.18305213451E+03  0.12500324214E+03 0.  0.
    9000005    1    3    3    0    0 -0.87007514811E+02  0.11711750953E+02 -0.60475996324E+02  0.10661059457E+03  0.10000000000E+01 0.  0.
    9000005    1    3    3    0    0 -0.44849437780E+02  0.10553827839E+02  0.60987323896E+02  0.76441539932E+02  0.10000000000E+01 0.  0.
         21    1    1    2  502  501  0.13185695259E+03 -0.22265578792E+02 -0.13255460571E+02  0.13437901317E+03  0.00000000000E+00 0.  1.
<mgrwt>
<rscale>  1 0.18305142E+03</rscale>
<asrwt>0</asrwt>
<pdfrwt beam="2">  1        4 0.25398098E-01 0.18305142E+03</pdfrwt>
<pdfrwt beam="1">  1       -4 0.23437463E-01 0.18305142E+03</pdfrwt>
<totfact> 0.43051397E+02</totfact>
</mgrwt>
</event>
<event>
 6    4  0.2220150E-003  0.1523261E+03  0.7818608E-02  0.1197643E+00
          4   -1    0    0  502    0  0.00000000000E+00  0.00000000000E+00  0.31836798301E+03  0.31837051607E+03  0.12700000000E+01 0. -1.
         -4   -1    0    0    0  501 -0.00000000000E+00 -0.00000000000E+00 -0.45246251649E+02  0.45264071715E+02  0.12700000000E+01 0. -1.
         25    2    1    2    0    0 -0.10347469046E+02 -0.86437308526E+02  0.18685383998E+03  0.24107591815E+03  0.12499904950E+03 0.  0.
    9000005    1    3    3    0    0  0.55348588601E+01  0.87295919518E+01  0.12722762865E+03  0.12765073416E+03  0.10000000000E+01 0.  0.
    9000005    1    3    3    0    0 -0.15882327907E+02 -0.95166900478E+02  0.59626211329E+02  0.11342518399E+03  0.10000000000E+01 0.  0.
         21    1    1    2  502  501  0.10347469046E+02  0.86437308526E+02  0.86267891378E+02  0.12255866964E+03  0.00000000000E+00 0. -1.
<mgrwt>
<rscale>  1 0.15232610E+03</rscale>
<asrwt>0</asrwt>
<pdfrwt beam="1">  1        4 0.48981255E-01 0.15232610E+03</pdfrwt>
<pdfrwt beam="2">  1       -4 0.69625274E-02 0.15232610E+03</pdfrwt>
<totfact> 0.95181997E+02</totfact>
</mgrwt>
</event>
<event>
 6    4  0.2220150E-003  0.1266371E+03  0.7818608E-02  0.1232533E+00
          4   -1    0    0  502    0  0.00000000000E+00  0.00000000000E+00  0.21264241405E+02  0.21302132816E+02  0.12700000000E+01 0. -1.
         -4   -1    0    0    0  501 -0.00000000000E+00 -0.00000000000E+00 -0.44451036977E+03  0.44451218401E+03  0.12700000000E+01 0. -1.
         25    2    1    2    0    0 -0.89978936289E+01 -0.18181748238E+02 -0.17116808882E+03  0.21292130371E+03  0.12500171554E+03 0.  0.
    9000005    1    3    3    0    0 -0.53748952013E+02  0.27531240510E+02 -0.10322196785E+03  0.11959386980E+03  0.10000000000E+01 0.  0.
    9000005    1    3    3    0    0  0.44751058384E+02 -0.45712988748E+02 -0.67946120971E+02  0.93327433919E+02  0.10000000000E+01 0.  0.
         21    1    1    2  502  501  0.89978936289E+01  0.18181748238E+02 -0.25207803955E+03  0.25289301311E+03  0.00000000000E+00 0.  1.
<mgrwt>
<rscale>  1 0.12663715E+03</rscale>
<asrwt>0</asrwt>
<pdfrwt beam="1">  1        4 0.32744764E-02 0.12663715E+03</pdfrwt>
<pdfrwt beam="2">  1       -4 0.68389258E-01 0.12663715E+03</pdfrwt>
<totfact> 0.15302699E+03</totfact>
</mgrwt>
</event>
<event>
 6    4  0.2220150E-003  0.1291694E+03  0.7818608E-02  0.1228693E+00
         -4   -1    0    0    0  501 -0.00000000000E+00  0.00000000000E+00  0.13394455407E+02  0.13454528444E+02  0.12700000000E+01 0. -1.
          4   -1    0    0  502    0  0.00000000000E+00 -0.00000000000E+00 -0.48858261473E+03  0.48858426531E+03  0.12700000000E+01 0. -1.
         25    2    1    2    0    0 -0.10598871621E+01 -0.32514322773E+02 -0.36716436028E+03  0.38922281216E+03  0.12500570186E+03 0.  0.
    9000005    1    3    3    0    0 -0.48328811917E+01 -0.81468696520E+01 -0.36424853774E+03  0.36437305810E+03  0.10000000000E+01 0.  0.
    9000005    1    3    3    0    0  0.37729940296E+01 -0.24367453121E+02 -0.29158225434E+01  0.24849754056E+02  0.10000000000E+01 0.  0.
         21    1    1    2  502  501  0.10598871621E+01  0.32514322773E+02 -0.10802379904E+03  0.11281598160E+03  0.00000000000E+00 0.  1.
<mgrwt>
<rscale>  1 0.12916939E+03</rscale>
<asrwt>0</asrwt>
<pdfrwt beam="2">  1        4 0.75171290E-01 0.12916939E+03</pdfrwt>
<pdfrwt beam="1">  1       -4 0.20654338E-02 0.12916939E+03</pdfrwt>
<totfact> 0.25651254E+03</totfact>
</mgrwt>
</event>
<event>
 6    4  0.2220150E-003  0.1332962E+03  0.7818608E-02  0.1222645E+00
         -4   -1    0    0    0  501 -0.00000000000E+00  0.00000000000E+00  0.11452905740E+03  0.11453609863E+03  0.12700000000E+01 0.  1.
          4   -1    0    0  502    0  0.00000000000E+00 -0.00000000000E+00 -0.85763252103E+02  0.85772654799E+02  0.12700000000E+01 0.  1.
         25    2    1    2    0    0  0.36646533993E+02  0.28271385521E+02 -0.18006477098E+02  0.13450688344E+03  0.12500251511E+03 0.  0.
    9000005    1    3    3    0    0 -0.31704447198E+02  0.50409769607E+02 -0.19401030969E+02  0.62639578915E+02  0.10000000000E+01 0.  0.
    9000005    1    3    3    0    0  0.68350981190E+02 -0.22138384086E+02  0.13945538709E+01  0.71867304528E+02  0.10000000000E+01 0.  0.
         21    1    1    2  502  501 -0.36646533993E+02 -0.28271385521E+02  0.46772282398E+02  0.65801869986E+02  0.00000000000E+00 0.  1.
<mgrwt>
<rscale>  1 0.13329617E+03</rscale>
<asrwt>0</asrwt>
<pdfrwt beam="2">  1        4 0.13195611E-01 0.13329617E+03</pdfrwt>
<pdfrwt beam="1">  1       -4 0.17621120E-01 0.13329617E+03</pdfrwt>
<totfact> 0.21848407E+03</totfact>
</mgrwt>
</event>
<event>
 6    4  0.2220150E-003  0.1266535E+03  0.7818608E-02  0.1232508E+00
          4   -1    0    0  502    0  0.00000000000E+00  0.00000000000E+00  0.36632388445E+02  0.36654396505E+02  0.12700000000E+01 0.  1.
         -4   -1    0    0    0  501 -0.00000000000E+00 -0.00000000000E+00 -0.23529698424E+03  0.23530041158E+03  0.12700000000E+01 0.  1.
         25    2    1    2    0    0 -0.20364661776E+02  0.78618703544E-01 -0.76201396101E+02  0.14780988911E+03  0.12500553956E+03 0.  0.
    9000005    1    3    3    0    0 -0.13454776325E+02 -0.46697976130E+02 -0.86670219643E+02  0.99370312235E+02  0.10000000000E+01 0.  0.
    9000005    1    3    3    0    0 -0.69098854508E+01  0.46776594834E+02  0.10468823542E+02  0.48439576872E+02  0.10000000000E+01 0.  0.
         21    1    1    2  502  501  0.20364661776E+02 -0.78618703544E-01 -0.12246319969E+03  0.12414491898E+03  0.00000000000E+00 0.  1.
<mgrwt>
<rscale>  1 0.12665351E+03</rscale>
<asrwt>0</asrwt>
<pdfrwt beam="1">  1        4 0.56377088E-02 0.12665351E+03</pdfrwt>
<pdfrwt beam="2">  1       -4 0.36201492E-01 0.12665351E+03</pdfrwt>
<totfact> 0.23511076E+03</totfact>
</mgrwt>
</event>
<event>
 6    4  0.2220150E-003  0.1301264E+03  0.7818608E-02  0.1227268E+00
         -4   -1    0    0    0  501 -0.00000000000E+00  0.00000000000E+00  0.56728900976E+02  0.56743115053E+02  0.12700000000E+01 0.  1.
          4   -1    0    0  502    0  0.00000000000E+00 -0.00000000000E+00 -0.14660985032E+03  0.14661535087E+03  0.12700000000E+01 0.  1.
         25    2    1    2    0    0 -0.14793587759E+02  0.32976237678E+02 -0.10189237381E+03  0.16527228985E+03  0.12500636568E+03 0.  0.
    9000005    1    3    3    0    0 -0.47249431619E+02 -0.16657747823E+02 -0.33052393023E+01  0.50218661449E+02  0.10000000000E+01 0.  0.
    9000005    1    3    3    0    0  0.32455843861E+02  0.49633985501E+02 -0.98587134505E+02  0.11505362840E+03  0.10000000000E+01 0.  0.
         21    1    1    2  502  501  0.14793587759E+02 -0.32976237678E+02  0.12011424467E+02  0.38086176073E+02  0.00000000000E+00 0.  1.
<mgrwt>
<rscale>  1 0.13012638E+03</rscale>
<asrwt>0</asrwt>
<pdfrwt beam="2">  1        4 0.22556878E-01 0.13012638E+03</pdfrwt>
<pdfrwt beam="1">  1       -4 0.87290398E-02 0.13012638E+03</pdfrwt>
<totfact> 0.28068522E+03</totfact>
</mgrwt>
</event>
<event>
 6    4  0.2220150E-003  0.1434107E+03  0.7818608E-02  0.1208812E+00
          4   -1    0    0  502    0  0.00000000000E+00  0.00000000000E+00  0.17571675063E+03  0.17572134006E+03  0.12700000000E+01 0. -1.
         -4   -1    0    0    0  501 -0.00000000000E+00 -0.00000000000E+00 -0.65637433560E+02  0.65649718845E+02  0.12700000000E+01 0. -1.
         25    2    1    2    0    0  0.23890573909E+02 -0.66108173955E+02  0.85172762799E+02  0.16679635387E+03  0.12500229580E+03 0.  0.
    9000005    1    3    3    0    0  0.65831646976E+02 -0.10054445772E+02  0.66977886680E+02  0.94455994662E+02  0.10000000000E+01 0.  0.
    9000005    1    3    3    0    0 -0.41941073067E+02 -0.56053728183E+02  0.18194876118E+02  0.72340359207E+02  0.10000000000E+01 0.  0.
         21    1    1    2  502  501 -0.23890573909E+02  0.66108173955E+02  0.24906554272E+02  0.74574705035E+02  0.00000000000E+00 0. -1.
<mgrwt>
<rscale>  1 0.14341068E+03</rscale>
<asrwt>0</asrwt>
<pdfrwt beam="1">  1        4 0.27034644E-01 0.14341068E+03</pdfrwt>
<pdfrwt beam="2">  1       -4 0.10099365E-01 0.14341068E+03</pdfrwt>
<totfact> 0.16086081E+03</totfact>
</mgrwt>
</event>
<event>
 6    4  0.2220150E-003  0.1665774E+03  0.7818608E-02  0.1181465E+00
         -4   -1    0    0    0  501 -0.00000000000E+00  0.00000000000E+00  0.57151073586E+03  0.57151214695E+03  0.12700000000E+01 0.  1.
          4   -1    0    0  502    0  0.00000000000E+00 -0.00000000000E+00 -0.36766589830E+02  0.36788517607E+02  0.12700000000E+01 0.  1.
         25    2    1    2    0    0 -0.50079713301E+02 -0.98055175959E+02  0.22780602178E+03  0.28221201505E+03  0.12500097064E+03 0.  0.
    9000005    1    3    3    0    0 -0.64174469094E+02 -0.11075727722E+03  0.22986013533E+03  0.26310115689E+03  0.10000000000E+01 0.  0.
    9000005    1    3    3    0    0  0.14094755794E+02  0.12702101261E+02 -0.20541135474E+01  0.19110858165E+02  0.10000000000E+01 0.  0.
         21    1    1    2  502  501  0.50079713301E+02  0.98055175959E+02  0.30693812425E+03  0.32608864950E+03  0.00000000000E+00 0.  1.
<mgrwt>
<rscale>  1 0.16657742E+03</rscale>
<asrwt>0</asrwt>
<pdfrwt beam="2">  1        4 0.56581941E-02 0.16657742E+03</pdfrwt>
<pdfrwt beam="1">  1       -4 0.87926518E-01 0.16657742E+03</pdfrwt>
<totfact> 0.38786895E+02</totfact>
</mgrwt>
</event>
<event>
 6    4  0.2220150E-003  0.1413991E+03  0.7818608E-02  0.1211459E+00
         -4   -1    0    0    0  501 -0.00000000000E+00  0.00000000000E+00  0.79964206879E+02  0.79974291380E+02  0.12700000000E+01 0.  1.
          4   -1    0    0  502    0  0.00000000000E+00 -0.00000000000E+00 -0.16350603029E+03  0.16351096245E+03  0.12700000000E+01 0.  1.
         25    2    1    2    0    0  0.59693257209E+02  0.28383796613E+02 -0.10259261602E+03  0.17469675504E+03  0.12499914598E+03 0.  0.
    9000005    1    3    3    0    0  0.95329901812E+02  0.20847788060E+02 -0.47223996976E+02  0.10841368150E+03  0.10000000000E+01 0.  0.
    9000005    1    3    3    0    0 -0.35636644603E+02  0.75360085531E+01 -0.55368619042E+02  0.66283073542E+02  0.10000000000E+01 0.  0.
         21    1    1    2  502  501 -0.59693257209E+02 -0.28383796613E+02  0.19050792607E+02  0.68788498787E+02  0.00000000000E+00 0.  1.
<mgrwt>
<rscale>  1 0.14139912E+03</rscale>
<asrwt>0</asrwt>
<pdfrwt beam="2">  1        4 0.25155929E-01 0.14139912E+03</pdfrwt>
<pdfrwt beam="1">  1       -4 0.12303341E-01 0.14139912E+03</pdfrwt>
<totfact> 0.13103132E+03</totfact>
</mgrwt>
</event>
<event>
 6    4  0.2220150E-003  0.1483753E+03  0.7818608E-02  0.1202484E+00
          4   -1    0    0  502    0  0.00000000000E+00  0.00000000000E+00  0.95797587166E+02  0.95806005066E+02  0.12700000000E+01 0.  1.
         -4   -1    0    0    0  501 -0.00000000000E+00 -0.00000000000E+00 -0.22265047545E+03  0.22265409747E+03  0.12700000000E+01 0.  1.
         25    2    1    2    0    0  0.79909176986E+02  0.22356287967E+01  0.21514652360E+02  0.14992701463E+03  0.12499901938E+03 0.  0.
    9000005    1    3    3    0    0  0.25612163926E+02 -0.48822796758E+01 -0.52043164527E+02  0.58217785682E+02  0.10000000000E+01 0.  0.
    9000005    1    3    3    0    0  0.54297013060E+02  0.71179084725E+01  0.73557816886E+02  0.91709228943E+02  0.10000000000E+01 0.  0.
         21    1    1    2  502  501 -0.79909176986E+02 -0.22356287967E+01 -0.14836754065E+03  0.16853308791E+03  0.00000000000E+00 0.  1.
<mgrwt>
<rscale>  1 0.14837530E+03</rscale>
<asrwt>0</asrwt>
<pdfrwt beam="1">  1        4 0.14739017E-01 0.14837530E+03</pdfrwt>
<pdfrwt beam="2">  1       -4 0.34254845E-01 0.14837530E+03</pdfrwt>
<totfact> 0.54039222E+02</totfact>
</mgrwt>
</event>
<event>
 6    4  0.2220150E-003  0.1270582E+03  0.7818608E-02  0.1231887E+00
          4   -1    0    0  502    0  0.00000000000E+00  0.00000000000E+00  0.17775988505E+03  0.17776442173E+03  0.12700000000E+01 0.  1.
         -4   -1    0    0    0  501 -0.00000000000E+00 -0.00000000000E+00 -0.48608268271E+02  0.48624856239E+02  0.12700000000E+01 0.  1.
         25    2    1    2    0    0  0.13327730107E+02  0.18494109800E+02  0.14924286874E+03  0.19600311513E+03  0.12499650709E+03 0.  0.
    9000005    1    3    3    0    0  0.42012107486E+01 -0.30057735540E+02  0.14301098923E+03  0.14619938672E+03  0.10000000000E+01 0.  0.
    9000005    1    3    3    0    0  0.91265193583E+01  0.48551845340E+02  0.62318795119E+01  0.49803728412E+02  0.10000000000E+01 0.  0.
         21    1    1    2  502  501 -0.13327730107E+02 -0.18494109800E+02 -0.20091251955E+02  0.30386162841E+02  0.00000000000E+00 0.  1.
<mgrwt>
<rscale>  1 0.12705820E+03</rscale>
<asrwt>0</asrwt>
<pdfrwt beam="1">  1        4 0.27349300E-01 0.12705820E+03</pdfrwt>
<pdfrwt beam="2">  1       -4 0.74798201E-02 0.12705820E+03</pdfrwt>
<totfact> 0.25272143E+03</totfact>
</mgrwt>
</event>
<event>
 6    4  0.2220150E-003  0.1342329E+03  0.7818608E-02  0.1221307E+00
         -4   -1    0    0    0  501 -0.00000000000E+00  0.00000000000E+00  0.24265763153E+03  0.24266095491E+03  0.12700000000E+01 0. -1.
          4   -1    0    0  502    0  0.00000000000E+00 -0.00000000000E+00 -0.48421721923E+02  0.48438373775E+02  0.12700000000E+01 0. -1.
         25    2    1    2    0    0  0.25816620331E+02 -0.41567000636E+02  0.57788996253E+02  0.14614390937E+03  0.12499664287E+03 0.  0.
    9000005    1    3    3    0    0  0.10966163384E+02  0.44775381278E+02  0.26030571925E+02  0.52949808146E+02  0.10000000000E+01 0.  0.
    9000005    1    3    3    0    0  0.14850456947E+02 -0.86342381915E+02  0.31758424327E+02  0.93194101219E+02  0.10000000000E+01 0.  0.
         21    1    1    2  502  501 -0.25816620331E+02  0.41567000636E+02  0.13644691335E+03  0.14495541932E+03  0.00000000000E+00 0. -1.
<mgrwt>
<rscale>  1 0.13423291E+03</rscale>
<asrwt>0</asrwt>
<pdfrwt beam="2">  1        4 0.74510323E-02 0.13423291E+03</pdfrwt>
<pdfrwt beam="1">  1       -4 0.37333479E-01 0.13423291E+03</pdfrwt>
<totfact> 0.14236235E+03</totfact>
</mgrwt>
</event>
<event>
 6    4  0.2220150E-003  0.1269159E+03  0.7818608E-02  0.1232105E+00
          4   -1    0    0  502    0  0.00000000000E+00  0.00000000000E+00  0.35229146189E+03  0.35229375104E+03  0.12700000000E+01 0.  1.
         -4   -1    0    0    0  501 -0.00000000000E+00 -0.00000000000E+00 -0.15939769946E+02  0.15990283485E+02  0.12700000000E+01 0.  1.
         25    2    1    2    0    0  0.21690296014E+01 -0.21872690827E+02  0.30090935770E+03  0.32657937830E+03  0.12499811795E+03 0.  0.
    9000005    1    3    3    0    0  0.66214825365E+01 -0.60053596499E+02  0.69925571962E+02  0.92416795539E+02  0.10000000000E+01 0.  0.
    9000005    1    3    3    0    0 -0.44524529351E+01  0.38180905672E+02  0.23098378573E+03  0.23416258276E+03  0.10000000000E+01 0.  0.
         21    1    1    2  502  501 -0.21690296014E+01  0.21872690827E+02  0.35442334247E+02  0.41704656218E+02  0.00000000000E+00 0. -1.
<mgrwt>
<rscale>  1 0.12691591E+03</rscale>
<asrwt>0</asrwt>
<pdfrwt beam="1">  1        4 0.54202739E-01 0.12691591E+03</pdfrwt>
<pdfrwt beam="2">  1       -4 0.24563345E-02 0.12691591E+03</pdfrwt>
<totfact> 0.39092873E+03</totfact>
</mgrwt>
</event>
<event>
 6    4  0.2220150E-003  0.1406598E+03  0.7818608E-02  0.1212444E+00
         -4   -1    0    0    0  501 -0.00000000000E+00  0.00000000000E+00  0.22870750504E+03  0.22871103113E+03  0.12700000000E+01 0. -1.
          4   -1    0    0  502    0  0.00000000000E+00 -0.00000000000E+00 -0.54530828132E+02  0.54545615009E+02  0.12700000000E+01 0. -1.
         25    2    1    2    0    0  0.24104347837E+02  0.59826496803E+02  0.61697068282E+02  0.15359596721E+03  0.12499985441E+03 0.  0.
    9000005    1    3    3    0    0 -0.34128505919E+02 -0.19153038530E+02  0.30318808074E+01  0.39265584198E+02  0.10000000000E+01 0.  0.
    9000005    1    3    3    0    0  0.58232853756E+02  0.78979535333E+02  0.58665187475E+02  0.11433038301E+03  0.10000000000E+01 0.  0.
         21    1    1    2  502  501 -0.24104347837E+02 -0.59826496803E+02  0.11247960862E+03  0.12966067893E+03  0.00000000000E+00 0.  1.
<mgrwt>
<rscale>  1 0.14065985E+03</rscale>
<asrwt>0</asrwt>
<pdfrwt beam="2">  1        4 0.83907668E-02 0.14065985E+03</pdfrwt>
<pdfrwt beam="1">  1       -4 0.35187179E-01 0.14065985E+03</pdfrwt>
<totfact> 0.13248818E+03</totfact>
</mgrwt>
</event>
<event>
 6    4  0.2220150E-003  0.1308831E+03  0.7818608E-02  0.1226151E+00
         -4   -1    0    0    0  501 -0.00000000000E+00  0.00000000000E+00  0.54243747983E+02  0.54258613097E+02  0.12700000000E+01 0. -1.
          4   -1    0    0  502    0  0.00000000000E+00 -0.00000000000E+00 -0.13653331170E+03  0.13653921819E+03  0.12700000000E+01 0. -1.
         25    2    1    2    0    0 -0.30511298201E+02  0.23968921011E+02 -0.76409833446E+02  0.15155474628E+03  0.12499971993E+03 0.  0.
    9000005    1    3    3    0    0 -0.60858510725E+02  0.49421122459E+02 -0.17130170974E+02  0.80253650574E+02  0.10000000000E+01 0.  0.
    9000005    1    3    3    0    0  0.30347212525E+02 -0.25452201448E+02 -0.59279662472E+02  0.71301095709E+02  0.10000000000E+01 0.  0.
         21    1    1    2  502  501  0.30511298201E+02 -0.23968921011E+02 -0.58797302696E+01  0.39243085001E+02  0.00000000000E+00 0. -1.
<mgrwt>
<rscale>  1 0.13088307E+03</rscale>
<asrwt>0</asrwt>
<pdfrwt beam="2">  1        4 0.21006723E-01 0.13088307E+03</pdfrwt>
<pdfrwt beam="1">  1       -4 0.83467898E-02 0.13088307E+03</pdfrwt>
<totfact> 0.34457228E+03</totfact>
</mgrwt>
</event>
<event>
 6    4  0.2220150E-003  0.1272880E+03  0.7818608E-02  0.1231536E+00
          4   -1    0    0  502    0  0.00000000000E+00  0.00000000000E+00  0.28181823794E+02  0.28210425242E+02  0.12700000000E+01 0. -1.
         -4   -1    0    0    0  501 -0.00000000000E+00 -0.00000000000E+00 -0.23013644528E+03  0.23013994948E+03  0.12700000000E+01 0. -1.
         25    2    1    2    0    0 -0.14704452396E+02 -0.18997880477E+02 -0.12769078137E+03  0.18029745465E+03  0.12500038449E+03 0.  0.
    9000005    1    3    3    0    0  0.18411137871E+02 -0.65756448675E+02 -0.54699873471E+02  0.87498323972E+02  0.10000000000E+01 0.  0.
    9000005    1    3    3    0    0 -0.33115590267E+02  0.46758568199E+02 -0.72990907903E+02  0.92799130682E+02  0.10000000000E+01 0.  0.
         21    1    1    2  502  501  0.14704452396E+02  0.18997880477E+02 -0.74263840113E+02  0.78052920068E+02  0.00000000000E+00 0. -1.
<mgrwt>
<rscale>  1 0.12728801E+03</rscale>
<asrwt>0</asrwt>
<pdfrwt beam="1">  1        4 0.43381350E-02 0.12728801E+03</pdfrwt>
<pdfrwt beam="2">  1       -4 0.35408075E-01 0.12728801E+03</pdfrwt>
<totfact> 0.37411465E+03</totfact>
</mgrwt>
</event>
<event>
 6    4  0.2220150E-003  0.1284241E+03  0.7818608E-02  0.1229813E+00
          4   -1    0    0  502    0  0.00000000000E+00  0.00000000000E+00  0.10117377853E+02  0.10196775698E+02  0.12700000000E+01 0. -1.
         -4   -1    0    0    0  501 -0.00000000000E+00 -0.00000000000E+00 -0.64142029801E+03  0.64142155529E+03  0.12700000000E+01 0. -1.
         25    2    1    2    0    0  0.25442958321E+02  0.14845683553E+02 -0.45113419948E+03  0.46905736485E+03  0.12500002854E+03 0.  0.
    9000005    1    3    3    0    0 -0.42268619878E+01  0.66472808058E+02 -0.19405361267E+03  0.20516896735E+03  0.10000000000E+01 0.  0.
    9000005    1    3    3    0    0  0.29669820309E+02 -0.51627124505E+02 -0.25708058680E+03  0.26388839750E+03  0.10000000000E+01 0.  0.
         21    1    1    2  502  501 -0.25442958321E+02 -0.14845683553E+02 -0.18016872068E+03  0.18256096614E+03  0.00000000000E+00 0. -1.
<mgrwt>
<rscale>  1 0.12842408E+03</rscale>
<asrwt>0</asrwt>
<pdfrwt beam="1">  1        4 0.15627244E-02 0.12842408E+03</pdfrwt>
<pdfrwt beam="2">  1       -4 0.98686218E-01 0.12842408E+03</pdfrwt>
<totfact> 0.21354435E+03</totfact>
</mgrwt>
</event>
<event>
 6    4  0.2220150E-003  0.1568686E+03  0.7818608E-02  0.1192278E+00
         -4   -1    0    0    0  501 -0.00000000000E+00  0.00000000000E+00  0.11333788322E+04  0.11333795437E+04  0.12700000000E+01 0. -1.
          4   -1    0    0  502    0  0.00000000000E+00 -0.00000000000E+00 -0.17363973579E+02  0.17410355495E+02  0.12700000000E+01 0. -1.
         25    2    1    2    0    0  0.73997259783E+02  0.59230222628E+02  0.91743447100E+03  0.93074903013E+03  0.12499573908E+03 0.  0.
    9000005    1    3    3    0    0  0.11556740139E+02 -0.37185743968E+02  0.32083120936E+03  0.32318725640E+03  0.10000000000E+01 0.  0.
    9000005    1    3    3    0    0  0.62440519644E+02  0.96415966596E+02  0.59660326163E+03  0.60756177373E+03  0.10000000000E+01 0.  0.
         21    1    1    2  502  501 -0.73997259783E+02 -0.59230222628E+02  0.19858038759E+03  0.22004086907E+03  0.00000000000E+00 0. -1.
<mgrwt>
<rscale>  1 0.15686857E+03</rscale>
<asrwt>0</asrwt>
<pdfrwt beam="2">  1        4 0.26750025E-02 0.15686857E+03</pdfrwt>
<pdfrwt beam="1">  1       -4 0.17436964E+00 0.15686857E+03</pdfrwt>
<totfact> 0.23701573E+02</totfact>
</mgrwt>
</event>
<event>
 6    4  0.2220150E-003  0.1277989E+03  0.7818608E-02  0.1230759E+00
         -4   -1    0    0    0  501 -0.00000000000E+00  0.00000000000E+00  0.55923967089E+02  0.55938385702E+02  0.12700000000E+01 0.  1.
          4   -1    0    0  502    0  0.00000000000E+00 -0.00000000000E+00 -0.25550348878E+03  0.25550664507E+03  0.12700000000E+01 0.  1.
         25    2    1    2    0    0  0.67578230671E+01 -0.25728356788E+02 -0.23478865824E+03  0.26731681064E+03  0.12499978677E+03 0.  0.
    9000005    1    3    3    0    0 -0.29035678199E+02 -0.62224750690E+02 -0.86404304989E+02  0.11037071227E+03  0.10000000000E+01 0.  0.
    9000005    1    3    3    0    0  0.35793501266E+02  0.36496393901E+02 -0.14838435325E+03  0.15694609836E+03  0.10000000000E+01 0.  0.
         21    1    1    2  502  501 -0.67578230671E+01  0.25728356788E+02  0.35209136557E+02  0.44128220140E+02  0.00000000000E+00 0.  1.
<mgrwt>
<rscale>  1 0.12779892E+03</rscale>
<asrwt>0</asrwt>
<pdfrwt beam="2">  1        4 0.39309580E-01 0.12779892E+03</pdfrwt>
<pdfrwt beam="1">  1       -4 0.86050393E-02 0.12779892E+03</pdfrwt>
<totfact> 0.10033368E+03</totfact>
</mgrwt>
</event>
<event>
 6    4  0.2220150E-003  0.1271778E+03  0.7818608E-02  0.1231705E+00
         -4   -1    0    0    0  501 -0.00000000000E+00  0.00000000000E+00  0.48406045323E+02  0.48422702566E+02  0.12700000000E+01 0.  1.
          4   -1    0    0  502    0  0.00000000000E+00 -0.00000000000E+00 -0.12548285413E+03  0.12548928074E+03  0.12700000000E+01 0.  1.
         25    2    1    2    0    0 -0.11128441488E+02 -0.20616507370E+02 -0.80083574897E+02  0.15029158474E+03  0.12500119555E+03 0.  0.
    9000005    1    3    3    0    0  0.55624288998E+01 -0.56454576191E+02  0.45047041433E+01  0.56915306795E+02  0.10000000000E+01 0.  0.
    9000005    1    3    3    0    0 -0.16690870388E+02  0.35838068821E+02 -0.84588279041E+02  0.93376277942E+02  0.10000000000E+01 0.  0.
         21    1    1    2  502  501  0.11128441488E+02  0.20616507370E+02  0.30067660940E+01  0.23620398566E+02  0.00000000000E+00 0.  1.
<mgrwt>
<rscale>  1 0.12717776E+03</rscale>
<asrwt>0</asrwt>
<pdfrwt beam="2">  1        4 0.19306830E-01 0.12717776E+03</pdfrwt>
<pdfrwt beam="1">  1       -4 0.74488596E-02 0.12717776E+03</pdfrwt>
<totfact> 0.48064228E+03</totfact>
</mgrwt>
</event>
<event>
 6    4  0.2220150E-003  0.1296503E+03  0.7818608E-02  0.1227976E+00
         -4   -1    0    0    0  501 -0.00000000000E+00  0.00000000000E+00  0.59030679829E+02  0.59044339788E+02  0.12700000000E+01 0. -1.
          4   -1    0    0  502    0  0.00000000000E+00 -0.00000000000E+00 -0.11645279748E+03  0.11645972240E+03  0.12700000000E+01 0. -1.
         25    2    1    2    0    0  0.33706238296E+02 -0.69101911395E+01 -0.55538841112E+02  0.14104527561E+03  0.12500138262E+03 0.  0.
    9000005    1    3    3    0    0 -0.33960055959E+02 -0.40521429203E+02 -0.32419745310E+02  0.62026699988E+02  0.10000000000E+01 0.  0.
    9000005    1    3    3    0    0  0.67666294256E+02  0.33611238064E+02 -0.23119095802E+02  0.79018575621E+02  0.10000000000E+01 0.  0.
         21    1    1    2  502  501 -0.33706238296E+02  0.69101911395E+01 -0.18832765370E+01  0.34458786575E+02  0.00000000000E+00 0.  1.
<mgrwt>
<rscale>  1 0.12965033E+03</rscale>
<asrwt>0</asrwt>
<pdfrwt beam="2">  1        4 0.17917398E-01 0.12965033E+03</pdfrwt>
<pdfrwt beam="1">  1       -4 0.90832265E-02 0.12965033E+03</pdfrwt>
<totfact> 0.39707881E+03</totfact>
</mgrwt>
</event>
<event>
 6    4  0.2220150E-003  0.1267731E+03  0.7818608E-02  0.1232324E+00
          4   -1    0    0  502    0  0.00000000000E+00  0.00000000000E+00  0.80552246977E+02  0.80562257869E+02  0.12700000000E+01 0.  1.
         -4   -1    0    0    0  501 -0.00000000000E+00 -0.00000000000E+00 -0.67870784188E+02  0.67882665286E+02  0.12700000000E+01 0.  1.
         25    2    1    2    0    0 -0.18890984289E+02  0.94338675776E+01  0.11573032517E+02  0.12730028406E+03  0.12500224036E+03 0.  0.
    9000005    1    3    3    0    0 -0.19567669921E+02  0.37445150444E+02 -0.46486569852E+02  0.62825426179E+02  0.10000000000E+01 0.  0.
    9000005    1    3    3    0    0  0.67668563288E+00 -0.28011282866E+02  0.58059602370E+02  0.64474857879E+02  0.10000000000E+01 0.  0.
         21    1    1    2  502  501  0.18890984289E+02 -0.94338675776E+01  0.11084302716E+01  0.21144639097E+02  0.00000000000E+00 0.  1.
<mgrwt>
<rscale>  1 0.12677313E+03</rscale>
<asrwt>0</asrwt>
<pdfrwt beam="1">  1        4 0.12394337E-01 0.12677313E+03</pdfrwt>
<pdfrwt beam="2">  1       -4 0.10443343E-01 0.12677313E+03</pdfrwt>
<totfact> 0.59383783E+03</totfact>
</mgrwt>
</event>
<event>
 6    4  0.2220150E-003  0.1300102E+03  0.7818608E-02  0.1227441E+00
         -4   -1    0    0    0  501 -0.00000000000E+00  0.00000000000E+00  0.19828616958E+02  0.19869246349E+02  0.12700000000E+01 0. -1.
          4   -1    0    0  502    0  0.00000000000E+00 -0.00000000000E+00 -0.36014974484E+03  0.36015198404E+03  0.12700000000E+01 0. -1.
         25    2    1    2    0    0  0.35073779295E+01 -0.35567888142E+02 -0.23185385512E+03  0.26581735293E+03  0.12500111446E+03 0.  0.
    9000005    1    3    3    0    0  0.56514132523E+02  0.83500154617E+01 -0.73110158363E+02  0.92788281528E+02  0.10000000000E+01 0.  0.
    9000005    1    3    3    0    0 -0.53006754594E+02 -0.43917903604E+02 -0.15874369676E+03  0.17302907140E+03  0.10000000000E+01 0.  0.
         21    1    1    2  502  501 -0.35073779295E+01  0.35567888142E+02 -0.10846727275E+03  0.11420387745E+03  0.00000000000E+00 0. -1.
<mgrwt>
<rscale>  1 0.13001021E+03</rscale>
<asrwt>0</asrwt>
<pdfrwt beam="2">  1        4 0.55410946E-01 0.13001021E+03</pdfrwt>
<pdfrwt beam="1">  1       -4 0.30538543E-02 0.13001021E+03</pdfrwt>
<totfact> 0.26760441E+03</totfact>
</mgrwt>
</event>
<event>
 6    4  0.2220150E-003  0.1292081E+03  0.7818608E-02  0.1228636E+00
          4   -1    0    0  502    0  0.00000000000E+00  0.00000000000E+00  0.91330105432E+03  0.91330193732E+03  0.12700000000E+01 0.  1.
         -4   -1    0    0    0  501 -0.00000000000E+00 -0.00000000000E+00 -0.71204384725E+01  0.72328102450E+01  0.12700000000E+01 0.  1.
         25    2    1    2    0    0  0.38120340525E+01 -0.32486955563E+02  0.72734698814E+03  0.73873430674E+03  0.12499920368E+03 0.  0.
    9000005    1    3    3    0    0  0.31782980366E+02  0.39308314856E+02  0.34655307735E+03  0.35022183952E+03  0.10000000000E+01 0.  0.
    9000005    1    3    3    0    0 -0.27970946314E+02 -0.71795270419E+02  0.38079391079E+03  0.38851246722E+03  0.10000000000E+01 0.  0.
         21    1    1    2  502  501 -0.38120340525E+01  0.32486955563E+02  0.17883362771E+03  0.18180044083E+03  0.00000000000E+00 0.  1.
<mgrwt>
<rscale>  1 0.12920811E+03</rscale>
<asrwt>0</asrwt>
<pdfrwt beam="1">  1        4 0.14051649E+00 0.12920811E+03</pdfrwt>
<pdfrwt beam="2">  1       -4 0.11041646E-02 0.12920811E+03</pdfrwt>
<totfact> 0.15546662E+03</totfact>
</mgrwt>
</event>
<event>
 6    4  0.2220150E-003  0.1276806E+03  0.7818608E-02  0.1230939E+00
         -4   -1    0    0    0  501 -0.00000000000E+00  0.00000000000E+00  0.64795203177E+02  0.64807648119E+02  0.12700000000E+01 0.  1.
          4   -1    0    0  502    0  0.00000000000E+00 -0.00000000000E+00 -0.91246101782E+02  0.91254939539E+02  0.12700000000E+01 0.  1.
         25    2    1    2    0    0  0.25498160116E+02  0.52628663372E+01 -0.19974373697E+02  0.12923351190E+03  0.12499788423E+03 0.  0.
    9000005    1    3    3    0    0 -0.44115180711E+02  0.28951739203E+02  0.91332565651E+00  0.52784339873E+02  0.10000000000E+01 0.  0.
    9000005    1    3    3    0    0  0.69613340827E+02 -0.23688872866E+02 -0.20887699353E+02  0.76449172023E+02  0.10000000000E+01 0.  0.
         21    1    1    2  502  501 -0.25498160116E+02 -0.52628663372E+01 -0.64765249074E+01  0.26829075763E+02  0.00000000000E+00 0.  1.
<mgrwt>
<rscale>  1 0.12768056E+03</rscale>
<asrwt>0</asrwt>
<pdfrwt beam="2">  1        4 0.14039499E-01 0.12768056E+03</pdfrwt>
<pdfrwt beam="1">  1       -4 0.99701299E-02 0.12768056E+03</pdfrwt>
<totfact> 0.51897401E+03</totfact>
</mgrwt>
</event>
<event>
 6    4  0.2220150E-003  0.1298623E+03  0.7818608E-02  0.1227660E+00
          4   -1    0    0  502    0  0.00000000000E+00  0.00000000000E+00  0.80565760757E+03  0.80565860855E+03  0.12700000000E+01 0. -1.
         -4   -1    0    0    0  501 -0.00000000000E+00 -0.00000000000E+00 -0.10501028500E+02  0.10577546953E+02  0.12700000000E+01 0. -1.
         25    2    1    2    0    0 -0.20865005878E+02  0.28357595999E+02  0.73621349304E+03  0.74757911572E+03  0.12499890083E+03 0.  0.
    9000005    1    3    3    0    0 -0.95998387178E+01  0.10246924657E+02  0.34353047272E+01  0.14489916732E+02  0.10000000000E+01 0.  0.
    9000005    1    3    3    0    0 -0.11265167160E+02  0.18110671341E+02  0.73277818831E+03  0.73308919899E+03  0.10000000000E+01 0.  0.
         21    1    1    2  502  501  0.20865005878E+02 -0.28357595999E+02  0.58943086026E+02  0.68657039780E+02  0.00000000000E+00 0. -1.
<mgrwt>
<rscale>  1 0.12986234E+03</rscale>
<asrwt>0</asrwt>
<pdfrwt beam="1">  1        4 0.12395328E+00 0.12986234E+03</pdfrwt>
<pdfrwt beam="2">  1       -4 0.16215060E-02 0.12986234E+03</pdfrwt>
<totfact> 0.11818542E+03</totfact>
</mgrwt>
</event>
<event>
 6    4  0.2220150E-003  0.1278673E+03  0.7818608E-02  0.1230655E+00
          4   -1    0    0  502    0  0.00000000000E+00  0.00000000000E+00  0.28391259198E+02  0.28419649872E+02  0.12700000000E+01 0.  1.
         -4   -1    0    0    0  501 -0.00000000000E+00 -0.00000000000E+00 -0.25242406637E+03  0.25242726117E+03  0.12700000000E+01 0.  1.
         25    2    1    2    0    0  0.13716070097E+02  0.23182916137E+02 -0.12728940093E+03  0.18042348334E+03  0.12499785427E+03 0.  0.
    9000005    1    3    3    0    0 -0.29213869570E+02  0.82067293246E+01 -0.13130397092E+03  0.13476844349E+03  0.10000000000E+01 0.  0.
    9000005    1    3    3    0    0  0.42929939667E+02  0.14976186813E+02  0.40145699965E+01  0.45655039848E+02  0.10000000000E+01 0.  0.
         21    1    1    2  502  501 -0.13716070097E+02 -0.23182916137E+02 -0.96743406242E+02  0.10042342770E+03  0.00000000000E+00 0.  1.
<mgrwt>
<rscale>  1 0.12786728E+03</rscale>
<asrwt>0</asrwt>
<pdfrwt beam="1">  1        4 0.43703159E-02 0.12786728E+03</pdfrwt>
<pdfrwt beam="2">  1       -4 0.38836900E-01 0.12786728E+03</pdfrwt>
<totfact> 0.30928376E+03</totfact>
</mgrwt>
</event>
<event>
 6    4  0.2220150E-003  0.1477208E+03  0.7818608E-02  0.1203302E+00
          4   -1    0    0  502    0  0.00000000000E+00  0.00000000000E+00  0.53392142860E+03  0.53392293903E+03  0.12700000000E+01 0. -1.
         -4   -1    0    0    0  501 -0.00000000000E+00 -0.00000000000E+00 -0.24389728428E+02  0.24422771194E+02  0.12700000000E+01 0. -1.
         25    2    1    2    0    0  0.77945535378E+02 -0.10924134634E+02  0.29700426949E+03  0.33171219109E+03  0.12500639350E+03 0.  0.
    9000005    1    3    3    0    0  0.61449170696E+02 -0.38682861735E+02  0.64969388833E+02  0.97439139244E+02  0.10000000000E+01 0.  0.
    9000005    1    3    3    0    0  0.16496364683E+02  0.27758727101E+02  0.23203488066E+03  0.23427305184E+03  0.10000000000E+01 0.  0.
         21    1    1    2  502  501 -0.77945535378E+02  0.10924134634E+02  0.21252743068E+03  0.22663351913E+03  0.00000000000E+00 0. -1.
<mgrwt>
<rscale>  1 0.14772082E+03</rscale>
<asrwt>0</asrwt>
<pdfrwt beam="1">  1        4 0.82144406E-01 0.14772082E+03</pdfrwt>
<pdfrwt beam="2">  1       -4 0.37549243E-02 0.14772082E+03</pdfrwt>
<totfact> 0.85332304E+02</totfact>
</mgrwt>
</event>
<event>
 6    4  0.2220150E-003  0.1279126E+03  0.7818608E-02  0.1230586E+00
         -4   -1    0    0    0  501 -0.00000000000E+00  0.00000000000E+00  0.49367359600E+02  0.49383692590E+02  0.12700000000E+01 0. -1.
          4   -1    0    0  502    0  0.00000000000E+00 -0.00000000000E+00 -0.12290254822E+03  0.12290910975E+03  0.12700000000E+01 0. -1.
         25    2    1    2    0    0 -0.10140086875E+02  0.25169295768E+02 -0.66931449417E+02  0.14436567963E+03  0.12500126289E+03 0.  0.
    9000005    1    3    3    0    0 -0.61961080544E+02  0.20150049621E+02 -0.78857589457E+01  0.65638290624E+02  0.10000000000E+01 0.  0.
    9000005    1    3    3    0    0  0.51820993669E+02  0.50192461467E+01 -0.59045690472E+02  0.78727389008E+02  0.10000000000E+01 0.  0.
         21    1    1    2  502  501  0.10140086875E+02 -0.25169295768E+02 -0.66037392053E+01  0.27927122708E+02  0.00000000000E+00 0. -1.
<mgrwt>
<rscale>  1 0.12791259E+03</rscale>
<asrwt>0</asrwt>
<pdfrwt beam="2">  1        4 0.18909845E-01 0.12791259E+03</pdfrwt>
<pdfrwt beam="1">  1       -4 0.75967396E-02 0.12791259E+03</pdfrwt>
<totfact> 0.48363483E+03</totfact>
</mgrwt>
</event>
<event>
 6    4  0.2220150E-003  0.1268475E+03  0.7818608E-02  0.1232210E+00
         -4   -1    0    0    0  501 -0.00000000000E+00  0.00000000000E+00  0.30355947758E+03  0.30356213421E+03  0.12700000000E+01 0.  1.
          4   -1    0    0  502    0  0.00000000000E+00 -0.00000000000E+00 -0.19809573362E+02  0.19850241732E+02  0.12700000000E+01 0.  1.
         25    2    1    2    0    0  0.18764583890E+02  0.10650888979E+02  0.19924715725E+03  0.23619847057E+03  0.12499894714E+03 0.  0.
    9000005    1    3    3    0    0 -0.36849012892E+02 -0.16056519492E+02  0.16757778294E+02  0.43560127441E+02  0.10000000000E+01 0.  0.
    9000005    1    3    3    0    0  0.55613596782E+02  0.26707408471E+02  0.18248937895E+03  0.19263834313E+03  0.10000000000E+01 0.  0.
         21    1    1    2  502  501 -0.18764583890E+02 -0.10650888979E+02  0.84502746968E+02  0.87213905369E+02  0.00000000000E+00 0.  1.
<mgrwt>
<rscale>  1 0.12684750E+03</rscale>
<asrwt>0</asrwt>
<pdfrwt beam="2">  1        4 0.30509596E-02 0.12684750E+03</pdfrwt>
<pdfrwt beam="1">  1       -4 0.46704787E-01 0.12684750E+03</pdfrwt>
<totfact> 0.37759542E+03</totfact>
</mgrwt>
</event>
<event>
 6    4  0.2220150E-003  0.1267369E+03  0.7818608E-02  0.1232380E+00
         -4   -1    0    0    0  501 -0.00000000000E+00  0.00000000000E+00  0.10133579742E+03  0.10134375530E+03  0.12700000000E+01 0. -1.
          4   -1    0    0  502    0  0.00000000000E+00 -0.00000000000E+00 -0.53981529979E+02  0.53996467282E+02  0.12700000000E+01 0. -1.
         25    2    1    2    0    0  0.42452241480E+01  0.20465597616E+02  0.44081678283E+02  0.13418431434E+03  0.12500149295E+03 0.  0.
    9000005    1    3    3    0    0  0.39367813966E+02  0.49398320145E+02 -0.94947326927E+01  0.63884025848E+02  0.10000000000E+01 0.  0.
    9000005    1    3    3    0    0 -0.35122589818E+02 -0.28932722529E+02  0.53576410975E+02  0.70300288488E+02  0.10000000000E+01 0.  0.
         21    1    1    2  502  501 -0.42452241480E+01 -0.20465597616E+02  0.32725891531E+01  0.21155908243E+02  0.00000000000E+00 0.  1.
<mgrwt>
<rscale>  1 0.12673688E+03</rscale>
<asrwt>0</asrwt>
<pdfrwt beam="2">  1        4 0.83066120E-02 0.12673688E+03</pdfrwt>
<pdfrwt beam="1">  1       -4 0.15591884E-01 0.12673688E+03</pdfrwt>
<totfact> 0.58537161E+03</totfact>
</mgrwt>
</event>
<event>
 6    4  0.2220150E-003  0.1299360E+03  0.7818608E-02  0.1227551E+00
          4   -1    0    0  502    0  0.00000000000E+00  0.00000000000E+00  0.12175441865E+02  0.12241498463E+02  0.12700000000E+01 0. -1.
         -4   -1    0    0    0  501 -0.00000000000E+00 -0.00000000000E+00 -0.56095095457E+03  0.56095239222E+03  0.12700000000E+01 0. -1.
         25    2    1    2    0    0  0.12618236203E+02  0.33149544845E+02 -0.43959426912E+03  0.45839556247E+03  0.12500103217E+03 0.  0.
    9000005    1    3    3    0    0  0.29796083501E+02  0.18280076846E+02 -0.24547981827E+02  0.42726703749E+02  0.10000000000E+01 0.  0.
    9000005    1    3    3    0    0 -0.17177847298E+02  0.14869467998E+02 -0.41504628729E+03  0.41566885872E+03  0.10000000000E+01 0.  0.
         21    1    1    2  502  501 -0.12618236203E+02 -0.33149544845E+02 -0.10918124358E+03  0.11479832820E+03  0.00000000000E+00 0.  1.
<mgrwt>
<rscale>  1 0.12993602E+03</rscale>
<asrwt>0</asrwt>
<pdfrwt beam="1">  1        4 0.18783372E-02 0.12993602E+03</pdfrwt>
<pdfrwt beam="2">  1       -4 0.86305319E-01 0.12993602E+03</pdfrwt>
<totfact> 0.21902678E+03</totfact>
</mgrwt>
</event>
<event>
 6    4  0.2220150E-003  0.1282184E+03  0.7818608E-02  0.1230123E+00
          4   -1    0    0  502    0  0.00000000000E+00  0.00000000000E+00  0.13565994805E+02  0.13625311558E+02  0.12700000000E+01 0. -1.
         -4   -1    0    0    0  501 -0.00000000000E+00 -0.00000000000E+00 -0.54412172052E+03  0.54412320263E+03  0.12700000000E+01 0. -1.
         25    2    1    2    0    0 -0.23645008816E+02 -0.15921239666E+02 -0.31165709463E+03  0.33700163878E+03  0.12500954999E+03 0.  0.
    9000005    1    3    3    0    0 -0.58582398596E+02  0.30975359013E+02 -0.20381691879E+03  0.21432150307E+03  0.10000000000E+01 0.  0.
    9000005    1    3    3    0    0  0.34937389781E+02 -0.46896598680E+02 -0.10784017584E+03  0.12268013571E+03  0.10000000000E+01 0.  0.
         21    1    1    2  502  501  0.23645008816E+02  0.15921239666E+02 -0.21889863108E+03  0.22074687541E+03  0.00000000000E+00 0. -1.
<mgrwt>
<rscale>  1 0.12821841E+03</rscale>
<asrwt>0</asrwt>
<pdfrwt beam="1">  1        4 0.20917534E-02 0.12821841E+03</pdfrwt>
<pdfrwt beam="2">  1       -4 0.83715694E-01 0.12821841E+03</pdfrwt>
<totfact> 0.19806075E+03</totfact>
</mgrwt>
</event>
<event>
 6    4  0.2220150E-003  0.1358580E+03  0.7818608E-02  0.1219014E+00
         -4   -1    0    0    0  501 -0.00000000000E+00  0.00000000000E+00  0.77118456737E+02  0.77128913318E+02  0.12700000000E+01 0.  1.
          4   -1    0    0  502    0  0.00000000000E+00 -0.00000000000E+00 -0.15526501677E+03  0.15527021071E+03  0.12700000000E+01 0.  1.
         25    2    1    2    0    0  0.52124604994E+02  0.10733271460E+02 -0.10601374883E+03  0.17232618691E+03  0.12500088877E+03 0.  0.
    9000005    1    3    3    0    0  0.72969776420E+02 -0.18744144914E+02 -0.18399246565E+02  0.77559419244E+02  0.10000000000E+01 0.  0.
    9000005    1    3    3    0    0 -0.20845171425E+02  0.29477416374E+02 -0.87614502261E+02  0.94766767668E+02  0.10000000000E+01 0.  0.
         21    1    1    2  502  501 -0.52124604994E+02 -0.10733271460E+02  0.27867188793E+02  0.60072937112E+02  0.00000000000E+00 0.  1.
<mgrwt>
<rscale>  1 0.13585801E+03</rscale>
<asrwt>0</asrwt>
<pdfrwt beam="2">  1        4 0.23888129E-01 0.13585801E+03</pdfrwt>
<pdfrwt beam="1">  1       -4 0.11865582E-01 0.13585801E+03</pdfrwt>
<totfact> 0.15205880E+03</totfact>
</mgrwt>
</event>
<event>
 6    4  0.2220150E-003  0.1278596E+03  0.7818608E-02  0.1230667E+00
          4   -1    0    0  502    0  0.00000000000E+00  0.00000000000E+00  0.13037996117E+03  0.13038614641E+03  0.12700000000E+01 0.  1.
         -4   -1    0    0    0  501 -0.00000000000E+00 -0.00000000000E+00 -0.46008600278E+02  0.46026125184E+02  0.12700000000E+01 0.  1.
         25    2    1    2    0    0 -0.29824116827E+01  0.26870068529E+02  0.71028271729E+02  0.14626374940E+03  0.12496869064E+03 0.  0.
    9000005    1    3    3    0    0  0.28282092670E+02  0.55041468831E+02  0.82025077709E+02  0.10275482193E+03  0.10000000000E+01 0.  0.
    9000005    1    3    3    0    0 -0.31264504353E+02 -0.28171400302E+02 -0.10996805980E+02  0.43508927465E+02  0.10000000000E+01 0.  0.
         21    1    1    2  502  501  0.29824116827E+01 -0.26870068529E+02  0.13343089167E+02  0.30148522198E+02  0.00000000000E+00 0.  1.
<mgrwt>
<rscale>  1 0.12785957E+03</rscale>
<asrwt>0</asrwt>
<pdfrwt beam="1">  1        4 0.20060279E-01 0.12785957E+03</pdfrwt>
<pdfrwt beam="2">  1       -4 0.70800703E-02 0.12785957E+03</pdfrwt>
<totfact> 0.48846016E+03</totfact>
</mgrwt>
</event>
<event>
 6    4  0.2220150E-003  0.1284397E+03  0.7818608E-02  0.1229789E+00
          4   -1    0    0  502    0  0.00000000000E+00  0.00000000000E+00  0.70055122013E+02  0.70066632717E+02  0.12700000000E+01 0. -1.
         -4   -1    0    0    0  501 -0.00000000000E+00 -0.00000000000E+00 -0.90661137354E+02  0.90670032129E+02  0.12700000000E+01 0. -1.
         25    2    1    2    0    0  0.75742604471E+01 -0.28528820046E+02 -0.25129352459E+02  0.13087492389E+03  0.12500199339E+03 0.  0.
    9000005    1    3    3    0    0 -0.39514094442E+02 -0.40432380373E+02  0.24323073671E+02  0.61552846848E+02  0.10000000000E+01 0.  0.
    9000005    1    3    3    0    0  0.47088354889E+02  0.11903560328E+02 -0.49452426130E+02  0.69322077038E+02  0.10000000000E+01 0.  0.
         21    1    1    2  502  501 -0.75742604471E+01  0.28528820046E+02  0.45233371180E+01  0.29861740961E+02  0.00000000000E+00 0. -1.
<mgrwt>
<rscale>  1 0.12843972E+03</rscale>
<asrwt>0</asrwt>
<pdfrwt beam="1">  1        4 0.10779281E-01 0.12843972E+03</pdfrwt>
<pdfrwt beam="2">  1       -4 0.13949437E-01 0.12843972E+03</pdfrwt>
<totfact> 0.46072401E+03</totfact>
</mgrwt>
</event>
<event>
 6    4  0.2220150E-003  0.1283431E+03  0.7818608E-02  0.1229935E+00
          4   -1    0    0  502    0  0.00000000000E+00  0.00000000000E+00  0.10292958674E+04  0.10292966509E+04  0.12700000000E+01 0. -1.
         -4   -1    0    0    0  501 -0.00000000000E+00 -0.00000000000E+00 -0.71494930953E+01  0.72614152560E+01  0.12700000000E+01 0. -1.
         25    2    1    2    0    0 -0.25329072748E+02  0.14335697851E+02  0.60842532992E+03  0.62181455900E+03  0.12499955814E+03 0.  0.
    9000005    1    3    3    0    0 -0.84120579616E+01  0.18559192130E+02  0.92763585661E+01  0.22411094572E+02  0.10000000000E+01 0.  0.
    9000005    1    3    3    0    0 -0.16917014787E+02 -0.42234942783E+01  0.59914897135E+03  0.59940346443E+03  0.10000000000E+01 0.  0.
         21    1    1    2  502  501  0.25329072748E+02 -0.14335697851E+02  0.41372104443E+03  0.41474350720E+03  0.00000000000E+00 0. -1.
<mgrwt>
<rscale>  1 0.12834315E+03</rscale>
<asrwt>0</asrwt>
<pdfrwt beam="1">  1        4 0.15836184E+00 0.12834315E+03</pdfrwt>
<pdfrwt beam="2">  1       -4 0.11085920E-02 0.12834315E+03</pdfrwt>
<totfact> 0.11388639E+03</totfact>
</mgrwt>
</event>
<event>
 6    4  0.2220150E-003  0.1338177E+03  0.7818608E-02  0.1221898E+00
         -4   -1    0    0    0  501 -0.00000000000E+00  0.00000000000E+00  0.81178379677E+03  0.81178479020E+03  0.12700000000E+01 0.  1.
          4   -1    0    0  502    0  0.00000000000E+00 -0.00000000000E+00 -0.10188566691E+02  0.10267414047E+02  0.12700000000E+01 0.  1.
         25    2    1    2    0    0 -0.27275016134E+02  0.39219909727E+02  0.55852681664E+03  0.57433385322E+03  0.12500016889E+03 0.  0.
    9000005    1    3    3    0    0  0.40511867111E+02  0.50784730280E+02  0.26188214778E+03  0.26982134744E+03  0.10000000000E+01 0.  0.
    9000005    1    3    3    0    0 -0.67786883246E+02 -0.11564820553E+02  0.29664466885E+03  0.30451250578E+03  0.10000000000E+01 0.  0.
         21    1    1    2  502  501  0.27275016134E+02 -0.39219909727E+02  0.24306841344E+03  0.24771835103E+03  0.00000000000E+00 0.  1.
<mgrwt>
<rscale>  1 0.13381767E+03</rscale>
<asrwt>0</asrwt>
<pdfrwt beam="2">  1        4 0.15736131E-02 0.13381767E+03</pdfrwt>
<pdfrwt beam="1">  1       -4 0.12489598E+00 0.13381767E+03</pdfrwt>
<totfact> 0.12224596E+03</totfact>
</mgrwt>
</event>
<event>
 6    4  0.2220150E-003  0.1292519E+03  0.7818608E-02  0.1228570E+00
          4   -1    0    0  502    0  0.00000000000E+00  0.00000000000E+00  0.93493217725E+01  0.94351850859E+01  0.12700000000E+01 0. -1.
         -4   -1    0    0    0  501 -0.00000000000E+00 -0.00000000000E+00 -0.24383878850E+04  0.24383882157E+04  0.12700000000E+01 0. -1.
         25    2    1    2    0    0  0.11344275170E+01 -0.32860257667E+02 -0.44194540789E+03  0.46045823773E+03  0.12499984672E+03 0.  0.
    9000005    1    3    3    0    0  0.45629612588E+02 -0.25694405858E+02 -0.38136911067E+03  0.38494890909E+03  0.10000000000E+01 0.  0.
    9000005    1    3    3    0    0 -0.44495185071E+02 -0.71658518093E+01 -0.60576297221E+02  0.75509328640E+02  0.10000000000E+01 0.  0.
         21    1    1    2  502  501 -0.11344275170E+01  0.32860257667E+02 -0.19870931553E+04  0.19873651631E+04  0.00000000000E+00 0. -1.
<mgrwt>
<rscale>  1 0.12925187E+03</rscale>
<asrwt>0</asrwt>
<pdfrwt beam="1">  1        4 0.14449894E-02 0.12925187E+03</pdfrwt>
<pdfrwt beam="2">  1       -4 0.37514272E+00 0.12925187E+03</pdfrwt>
<totfact> 0.37476483E+01</totfact>
</mgrwt>
</event>
<event>
 6    4  0.2220150E-003  0.1286439E+03  0.7818608E-02  0.1229482E+00
          4   -1    0    0  502    0  0.00000000000E+00  0.00000000000E+00  0.26285759031E+03  0.26286065830E+03  0.12700000000E+01 0.  1.
         -4   -1    0    0    0  501 -0.00000000000E+00 -0.00000000000E+00 -0.30281861471E+02  0.30308481225E+02  0.12700000000E+01 0.  1.
         25    2    1    2    0    0 -0.42066486907E+01  0.30116831368E+02  0.11779101615E+03  0.17442466727E+03  0.12499808655E+03 0.  0.
    9000005    1    3    3    0    0  0.27797905073E+00 -0.43891546986E+02  0.12509112058E+02  0.45651101341E+02  0.10000000000E+01 0.  0.
    9000005    1    3    3    0    0 -0.44846277415E+01  0.74008378355E+02  0.10528190409E+03  0.12877356593E+03  0.10000000000E+01 0.  0.
         21    1    1    2  502  501  0.42066486907E+01 -0.30116831368E+02  0.11478471268E+03  0.11874447225E+03  0.00000000000E+00 0.  1.
<mgrwt>
<rscale>  1 0.12864385E+03</rscale>
<asrwt>0</asrwt>
<pdfrwt beam="1">  1        4 0.40441912E-01 0.12864385E+03</pdfrwt>
<pdfrwt beam="2">  1       -4 0.46610317E-02 0.12864385E+03</pdfrwt>
<totfact> 0.25811272E+03</totfact>
</mgrwt>
</event>
<event>
 6    4  0.2220150E-003  0.1271980E+03  0.7818608E-02  0.1231674E+00
          4   -1    0    0  502    0  0.00000000000E+00  0.00000000000E+00  0.28360142616E+03  0.28360426975E+03  0.12700000000E+01 0. -1.
         -4   -1    0    0    0  501 -0.00000000000E+00 -0.00000000000E+00 -0.62715235895E+02  0.62728093493E+02  0.12700000000E+01 0. -1.
         25    2    1    2    0    0  0.14186313856E+02 -0.18799695352E+02  0.26633137994E+03  0.29514696189E+03  0.12499858051E+03 0.  0.
    9000005    1    3    3    0    0 -0.23497039730E+02 -0.10494415737E+02  0.25300243482E+03  0.25430980253E+03  0.10000000000E+01 0.  0.
    9000005    1    3    3    0    0  0.37683353586E+02 -0.83052796149E+01  0.13328945120E+02  0.40837159365E+02  0.10000000000E+01 0.  0.
         21    1    1    2  502  501 -0.14186313856E+02  0.18799695352E+02 -0.45445189677E+02  0.51185401346E+02  0.00000000000E+00 0. -1.
<mgrwt>
<rscale>  1 0.12719798E+03</rscale>
<asrwt>0</asrwt>
<pdfrwt beam="1">  1        4 0.43632197E-01 0.12719798E+03</pdfrwt>
<pdfrwt beam="2">  1       -4 0.96497055E-02 0.12719798E+03</pdfrwt>
<totfact> 0.67355158E+02</totfact>
</mgrwt>
</event>
<event>
 6    4  0.2220150E-003  0.1315431E+03  0.7818608E-02  0.1225184E+00
         -4   -1    0    0    0  501 -0.00000000000E+00  0.00000000000E+00  0.23474619993E+03  0.23474963532E+03  0.12700000000E+01 0. -1.
          4   -1    0    0  502    0  0.00000000000E+00 -0.00000000000E+00 -0.70146940805E+02  0.70158436444E+02  0.12700000000E+01 0. -1.
         25    2    1    2    0    0 -0.39986585876E+02 -0.89494267284E+01 -0.37972774730E+01  0.13159790810E+03  0.12499828324E+03 0.  0.
    9000005    1    3    3    0    0  0.24708751651E+02 -0.13633045332E+02  0.43115955095E+02  0.51539964270E+02  0.10000000000E+01 0.  0.
    9000005    1    3    3    0    0 -0.64695337528E+02  0.46836186031E+01 -0.46913232568E+02  0.80057943835E+02  0.10000000000E+01 0.  0.
         21    1    1    2  502  501  0.39986585876E+02  0.89494267284E+01  0.16839653660E+03  0.17331016366E+03  0.00000000000E+00 0. -1.
<mgrwt>
<rscale>  1 0.13154311E+03</rscale>
<asrwt>0</asrwt>
<pdfrwt beam="2">  1        4 0.10792985E-01 0.13154311E+03</pdfrwt>
<pdfrwt beam="1">  1       -4 0.36115949E-01 0.13154311E+03</pdfrwt>
<totfact> 0.81414788E+02</totfact>
</mgrwt>
</event>
<event>
 6    4  0.2220150E-003  0.1275449E+03  0.7818608E-02  0.1231145E+00
          4   -1    0    0  502    0  0.00000000000E+00  0.00000000000E+00  0.94270766370E+02  0.94279320596E+02  0.12700000000E+01 0. -1.
         -4   -1    0    0    0  501 -0.00000000000E+00 -0.00000000000E+00 -0.68400918568E+02  0.68412707598E+02  0.12700000000E+01 0. -1.
         25    2    1    2    0    0 -0.50716302151E+01  0.24852078104E+02  0.39983843771E+02  0.13366528016E+03  0.12499740853E+03 0.  0.
    9000005    1    3    3    0    0  0.12983554198E+01  0.18352835793E+02 -0.44772562019E+02  0.48415850898E+02  0.10000000000E+01 0.  0.
    9000005    1    3    3    0    0 -0.63699856349E+01  0.64992423104E+01  0.84756405789E+02  0.85249429265E+02  0.10000000000E+01 0.  0.
         21    1    1    2  502  501  0.50716302151E+01 -0.24852078104E+02 -0.14113995968E+02  0.29026748032E+02  0.00000000000E+00 0. -1.
<mgrwt>
<rscale>  1 0.12754489E+03</rscale>
<asrwt>0</asrwt>
<pdfrwt beam="1">  1        4 0.14504760E-01 0.12754489E+03</pdfrwt>
<pdfrwt beam="2">  1       -4 0.10524783E-01 0.12754489E+03</pdfrwt>
<totfact> 0.44752267E+03</totfact>
</mgrwt>
</event>
<event>
 6    4  0.2220150E-003  0.1275594E+03  0.7818608E-02  0.1231123E+00
         -4   -1    0    0    0  501 -0.00000000000E+00  0.00000000000E+00  0.57662630815E+01  0.59044635594E+01  0.12700000000E+01 0. -1.
          4   -1    0    0  502    0  0.00000000000E+00 -0.00000000000E+00 -0.15785354150E+04  0.15785359259E+04  0.12700000000E+01 0. -1.
         25    2    1    2    0    0 -0.23511554547E+02  0.96561846513E+01 -0.15250393879E+04  0.15303648360E+04  0.12500144697E+03 0.  0.
    9000005    1    3    3    0    0 -0.16375577268E+02  0.62128861579E+02 -0.52401639882E+03  0.52794160776E+03  0.10000000000E+01 0.  0.
    9000005    1    3    3    0    0 -0.71359772786E+01 -0.52472676928E+02 -0.10010229890E+04  0.10024232283E+04  0.10000000000E+01 0.  0.
         21    1    1    2  502  501  0.23511554547E+02 -0.96561846513E+01 -0.47729764031E+02  0.54075553383E+02  0.00000000000E+00 0. -1.
<mgrwt>
<rscale>  1 0.12755939E+03</rscale>
<asrwt>0</asrwt>
<pdfrwt beam="2">  1        4 0.24286193E+00 0.12755939E+03</pdfrwt>
<pdfrwt beam="1">  1       -4 0.89778876E-03 0.12755939E+03</pdfrwt>
<totfact> 0.46113776E+02</totfact>
</mgrwt>
</event>
<event>
 6    4  0.2220150E-003  0.1293270E+03  0.7818608E-02  0.1228458E+00
         -4   -1    0    0    0  501 -0.00000000000E+00  0.00000000000E+00  0.26892076025E+03  0.26892375907E+03  0.12700000000E+01 0. -1.
          4   -1    0    0  502    0  0.00000000000E+00 -0.00000000000E+00 -0.66918972975E+02  0.66931023031E+02  0.12700000000E+01 0. -1.
         25    2    1    2    0    0 -0.31347982485E+02 -0.10847095044E+02 -0.18314810912E+01  0.12933999627E+03  0.12500049934E+03 0.  0.
    9000005    1    3    3    0    0 -0.72242030993E+02 -0.24886351423E+02  0.22575439714E+02  0.79679934785E+02  0.10000000000E+01 0.  0.
    9000005    1    3    3    0    0  0.40894048508E+02  0.14039256378E+02 -0.24406920805E+02  0.49660061480E+02  0.10000000000E+01 0.  0.
         21    1    1    2  502  501  0.31347982485E+02  0.10847095044E+02  0.20383326836E+03  0.20651478584E+03  0.00000000000E+00 0. -1.
<mgrwt>
<rscale>  1 0.12932703E+03</rscale>
<asrwt>0</asrwt>
<pdfrwt beam="2">  1        4 0.10296384E-01 0.12932703E+03</pdfrwt>
<pdfrwt beam="1">  1       -4 0.41373583E-01 0.12932703E+03</pdfrwt>
<totfact> 0.67338957E+02</totfact>
</mgrwt>
</event>
<event>
 6    4  0.2220150E-003  0.1283722E+03  0.7818608E-02  0.1229891E+00
         -4   -1    0    0    0  501 -0.00000000000E+00  0.00000000000E+00  0.52483397304E+01  0.53998120268E+01  0.12700000000E+01 0.  1.
          4   -1    0    0  502    0  0.00000000000E+00 -0.00000000000E+00 -0.15541492044E+04  0.15541497233E+04  0.12700000000E+01 0.  1.
         25    2    1    2    0    0  0.23972032122E+02 -0.16723431797E+02 -0.14666916600E+04  0.14722988343E+04  0.12500040201E+03 0.  0.
    9000005    1    3    3    0    0  0.20314010236E+02 -0.17983976113E+02 -0.14678788971E+04  0.14681299462E+04  0.10000000000E+01 0.  0.
    9000005    1    3    3    0    0  0.36580218864E+01  0.12605443156E+01  0.11872370964E+01  0.41688881030E+01  0.10000000000E+01 0.  0.
         21    1    1    2  502  501 -0.23972032122E+02  0.16723431797E+02 -0.82209204610E+02  0.87250700959E+02  0.00000000000E+00 0.  1.
<mgrwt>
<rscale>  1 0.12837224E+03</rscale>
<asrwt>0</asrwt>
<pdfrwt beam="2">  1        4 0.23911121E+00 0.12837224E+03</pdfrwt>
<pdfrwt beam="1">  1       -4 0.81912975E-03 0.12837224E+03</pdfrwt>
<totfact> 0.55674544E+02</totfact>
</mgrwt>
</event>
<event>
 6    4  0.2220150E-003  0.1267427E+03  0.7818608E-02  0.1232371E+00
         -4   -1    0    0    0  501 -0.00000000000E+00  0.00000000000E+00  0.22088499618E+03  0.22088864715E+03  0.12700000000E+01 0.  1.
          4   -1    0    0  502    0  0.00000000000E+00 -0.00000000000E+00 -0.24746024470E+02  0.24778592112E+02  0.12700000000E+01 0.  1.
         25    2    1    2    0    0  0.12064382375E+02  0.16862427130E+02  0.16146798369E+03  0.20526961332E+03  0.12503524953E+03 0.  0.
    9000005    1    3    3    0    0  0.36603566933E+02  0.11327693011E+02  0.17327446798E+03  0.17746317644E+03  0.10000000000E+01 0.  0.
    9000005    1    3    3    0    0 -0.24539184558E+02  0.55347341198E+01 -0.11806484288E+02  0.27806436877E+02  0.10000000000E+01 0.  0.
         21    1    1    2  502  501 -0.12064382375E+02 -0.16862427130E+02  0.34670988028E+02  0.40397625941E+02  0.00000000000E+00 0.  1.
<mgrwt>
<rscale>  1 0.12674267E+03</rscale>
<asrwt>0</asrwt>
<pdfrwt beam="2">  1        4 0.38098669E-02 0.12674267E+03</pdfrwt>
<pdfrwt beam="1">  1       -4 0.33985092E-01 0.12674267E+03</pdfrwt>
<totfact> 0.49699121E+03</totfact>
</mgrwt>
</event>
<event>
 6    4  0.2220150E-003  0.1283635E+03  0.7818608E-02  0.1229904E+00
         -4   -1    0    0    0  501 -0.00000000000E+00  0.00000000000E+00  0.49764306768E+01  0.51359285705E+01  0.12700000000E+01 0. -1.
          4   -1    0    0  502    0  0.00000000000E+00 -0.00000000000E+00 -0.12677568881E+04  0.12677575242E+04  0.12700000000E+01 0. -1.
         25    2    1    2    0    0  0.28695541502E+02 -0.53868773776E+01 -0.11053569257E+04  0.11127852991E+04  0.12499894429E+03 0.  0.
    9000005    1    3    3    0    0  0.78433041481E+02 -0.49231208737E+01 -0.68642631573E+03  0.69091104061E+03  0.10000000000E+01 0.  0.
    9000005    1    3    3    0    0 -0.49737499980E+02 -0.46375650393E+00 -0.41893060997E+03  0.42187425845E+03  0.10000000000E+01 0.  0.
         21    1    1    2  502  501 -0.28695541502E+02  0.53868773776E+01 -0.15742353169E+03  0.16010815369E+03  0.00000000000E+00 0. -1.
<mgrwt>
<rscale>  1 0.12836350E+03</rscale>
<asrwt>0</asrwt>
<pdfrwt beam="2">  1        4 0.19505159E+00 0.12836350E+03</pdfrwt>
<pdfrwt beam="1">  1       -4 0.77792373E-03 0.12836350E+03</pdfrwt>
<totfact> 0.11052864E+03</totfact>
</mgrwt>
</event>
<event>
 6    4  0.2220150E-003  0.1275811E+03  0.7818608E-02  0.1231090E+00
          4   -1    0    0  502    0  0.00000000000E+00  0.00000000000E+00  0.30131430448E+01  0.32698518328E+01  0.12700000000E+01 0. -1.
         -4   -1    0    0    0  501 -0.00000000000E+00 -0.00000000000E+00 -0.18810738807E+04  0.18810743094E+04  0.12700000000E+01 0. -1.
         25    2    1    2    0    0 -0.12903555706E+02 -0.22035152910E+02 -0.14954660888E+04  0.15008983175E+04  0.12499954872E+03 0.  0.
    9000005    1    3    3    0    0 -0.24596207908E+01 -0.37890979825E+02 -0.14613381660E+04  0.14618317316E+04  0.10000000000E+01 0.  0.
    9000005    1    3    3    0    0 -0.10443934915E+02  0.15855826915E+02 -0.34127922753E+02  0.39066585916E+02  0.10000000000E+01 0.  0.
         21    1    1    2  502  501  0.12903555706E+02  0.22035152910E+02 -0.38259464887E+03  0.38344584371E+03  0.00000000000E+00 0.  1.
<mgrwt>
<rscale>  1 0.12758110E+03</rscale>
<asrwt>0</asrwt>
<pdfrwt beam="1">  1        4 0.48334178E-03 0.12758110E+03</pdfrwt>
<pdfrwt beam="2">  1       -4 0.28941486E+00 0.12758110E+03</pdfrwt>
<totfact> 0.62616077E+02</totfact>
</mgrwt>
</event>
<event>
 6    4  0.2220150E-003  0.1267725E+03  0.7818608E-02  0.1232325E+00
         -4   -1    0    0    0  501 -0.00000000000E+00  0.00000000000E+00  0.12871380501E+02  0.12933883253E+02  0.12700000000E+01 0. -1.
          4   -1    0    0  502    0  0.00000000000E+00 -0.00000000000E+00 -0.48038962138E+03  0.48039130012E+03  0.12700000000E+01 0. -1.
         25    2    1    2    0    0 -0.11957718572E+02 -0.17438732449E+02 -0.44379419285E+03  0.46154583665E+03  0.12499670917E+03 0.  0.
    9000005    1    3    3    0    0 -0.11885292267E+02 -0.52868422216E+02 -0.40649467070E+03  0.41009175504E+03  0.10000000000E+01 0.  0.
    9000005    1    3    3    0    0 -0.72426305187E-01  0.35429689767E+02 -0.37299522147E+02  0.51454081616E+02  0.10000000000E+01 0.  0.
         21    1    1    2  502  501  0.11957718572E+02  0.17438732449E+02 -0.23724048028E+02  0.31779346716E+02  0.00000000000E+00 0. -1.
<mgrwt>
<rscale>  1 0.12677253E+03</rscale>
<asrwt>0</asrwt>
<pdfrwt beam="2">  1        4 0.73911019E-01 0.12677253E+03</pdfrwt>
<pdfrwt beam="1">  1       -4 0.19851498E-02 0.12677253E+03</pdfrwt>
<totfact> 0.28163274E+03</totfact>
</mgrwt>
</event>
<event>
 6    4  0.2220150E-003  0.1304423E+03  0.7818608E-02  0.1226801E+00
          4   -1    0    0  502    0  0.00000000000E+00  0.00000000000E+00  0.60464530480E+02  0.60477866580E+02  0.12700000000E+01 0.  1.
         -4   -1    0    0    0  501 -0.00000000000E+00 -0.00000000000E+00 -0.11865863630E+03  0.11866543249E+03  0.12700000000E+01 0.  1.
         25    2    1    2    0    0 -0.34834786233E+02  0.13345229871E+02 -0.55450234482E+02  0.14173893673E+03  0.12499456064E+03 0.  0.
    9000005    1    3    3    0    0 -0.22740603425E+02 -0.17646025845E+02  0.35019196192E+02  0.45341607538E+02  0.10000000000E+01 0.  0.
    9000005    1    3    3    0    0 -0.12094182808E+02  0.30991255716E+02 -0.90469430674E+02  0.96397329191E+02  0.10000000000E+01 0.  0.
         21    1    1    2  502  501  0.34834786233E+02 -0.13345229871E+02 -0.27438713352E+01  0.37404362341E+02  0.00000000000E+00 0.  1.
<mgrwt>
<rscale>  1 0.13044232E+03</rscale>
<asrwt>0</asrwt>
<pdfrwt beam="1">  1        4 0.93037841E-02 0.13044232E+03</pdfrwt>
<pdfrwt beam="2">  1       -4 0.18256723E-01 0.13044232E+03</pdfrwt>
<totfact> 0.36950279E+03</totfact>
</mgrwt>
</event>
<event>
 6    4  0.2220150E-003  0.1754037E+03  0.7818608E-02  0.1172327E+00
         -4   -1    0    0    0  501 -0.00000000000E+00  0.00000000000E+00  0.11006797253E+03  0.11007529912E+03  0.12700000000E+01 0. -1.
          4   -1    0    0  502    0  0.00000000000E+00 -0.00000000000E+00 -0.33477732406E+03  0.33477973297E+03  0.12700000000E+01 0. -1.
         25    2    1    2    0    0 -0.40651799003E+02  0.11613598368E+03 -0.26287939466E+03  0.31602534739E+03  0.12500523427E+03 0.  0.
    9000005    1    3    3    0    0 -0.34859681008E+02  0.71286032048E+02 -0.40507787657E+02  0.89099812491E+02  0.10000000000E+01 0.  0.
    9000005    1    3    3    0    0 -0.57921179951E+01  0.44849951629E+02 -0.22237160700E+03  0.22692553490E+03  0.10000000000E+01 0.  0.
         21    1    1    2  502  501  0.40651799003E+02 -0.11613598368E+03  0.38170043119E+02  0.12882968469E+03  0.00000000000E+00 0. -1.
<mgrwt>
<rscale>  1 0.17540366E+03</rscale>
<asrwt>0</asrwt>
<pdfrwt beam="2">  1        4 0.51504952E-01 0.17540366E+03</pdfrwt>
<pdfrwt beam="1">  1       -4 0.16934283E-01 0.17540366E+03</pdfrwt>
<totfact> 0.19342320E+02</totfact>
</mgrwt>
</event>
<event>
 6    4  0.2220150E-003  0.1280633E+03  0.7818608E-02  0.1230358E+00
         -4   -1    0    0    0  501 -0.00000000000E+00  0.00000000000E+00  0.28918288249E+02  0.28946162013E+02  0.12700000000E+01 0. -1.
          4   -1    0    0  502    0  0.00000000000E+00 -0.00000000000E+00 -0.27983478198E+03  0.27983766384E+03  0.12700000000E+01 0. -1.
         25    2    1    2    0    0 -0.48702685720E+00 -0.27824508842E+02 -0.25005613041E+03  0.28094175854E+03  0.12500305134E+03 0.  0.
    9000005    1    3    3    0    0 -0.53587171900E+02 -0.26339086421E+02 -0.19701548687E+03  0.20586751694E+03  0.10000000000E+01 0.  0.
    9000005    1    3    3    0    0  0.53100145043E+02 -0.14854224207E+01 -0.53040643542E+02  0.75074241593E+02  0.10000000000E+01 0.  0.
         21    1    1    2  502  501  0.48702685720E+00  0.27824508842E+02 -0.86036331425E+00  0.27842067317E+02  0.00000000000E+00 0.  1.
<mgrwt>
<rscale>  1 0.12806328E+03</rscale>
<asrwt>0</asrwt>
<pdfrwt beam="2">  1        4 0.43053869E-01 0.12806328E+03</pdfrwt>
<pdfrwt beam="1">  1       -4 0.44513334E-02 0.12806328E+03</pdfrwt>
<totfact> 0.24519904E+03</totfact>
</mgrwt>
</event>
<event>
 6    4  0.2220150E-003  0.1494941E+03  0.7818608E-02  0.1201096E+00
          4   -1    0    0  502    0  0.00000000000E+00  0.00000000000E+00  0.44822555744E+03  0.44822735664E+03  0.12700000000E+01 0.  1.
         -4   -1    0    0    0  501 -0.00000000000E+00 -0.00000000000E+00 -0.30493245573E+02  0.30519680955E+02  0.12700000000E+01 0.  1.
         25    2    1    2    0    0  0.79497543860E+02 -0.20047773600E+02  0.30126150353E+03  0.33631381850E+03  0.12500687302E+03 0.  0.
    9000005    1    3    3    0    0  0.15330634088E+02 -0.32903982887E+02  0.25146662572E+03  0.25407511543E+03  0.10000000000E+01 0.  0.
    9000005    1    3    3    0    0  0.64166909772E+02  0.12856209287E+02  0.49794877810E+02  0.82238703073E+02  0.10000000000E+01 0.  0.
         21    1    1    2  502  501 -0.79497543860E+02  0.20047773600E+02  0.11647080834E+03  0.14243321909E+03  0.00000000000E+00 0.  1.
<mgrwt>
<rscale>  1 0.14949412E+03</rscale>
<asrwt>0</asrwt>
<pdfrwt beam="1">  1        4 0.68959945E-01 0.14949412E+03</pdfrwt>
<pdfrwt beam="2">  1       -4 0.46934408E-02 0.14949412E+03</pdfrwt>
<totfact> 0.87907422E+02</totfact>
</mgrwt>
</event>
<event>
 6    4  0.2220150E-003  0.1323537E+03  0.7818608E-02  0.1224004E+00
         -4   -1    0    0    0  501 -0.00000000000E+00  0.00000000000E+00  0.34504040874E+03  0.34504274599E+03  0.12700000000E+01 0. -1.
          4   -1    0    0  502    0  0.00000000000E+00 -0.00000000000E+00 -0.22563838240E+02  0.22599550795E+02  0.12700000000E+01 0. -1.
         25    2    1    2    0    0  0.72659192891E+01  0.42889715427E+02  0.22798640532E+03  0.26361964259E+03  0.12500077469E+03 0.  0.
    9000005    1    3    3    0    0 -0.51755874560E+02  0.14718455559E+01  0.14341536078E+03  0.15247885948E+03  0.10000000000E+01 0.  0.
    9000005    1    3    3    0    0  0.59021793849E+02  0.41417869871E+02  0.84571044541E+02  0.11114078310E+03  0.10000000000E+01 0.  0.
         21    1    1    2  502  501 -0.72659192891E+01 -0.42889715427E+02  0.94490165170E+02  0.10402265420E+03  0.00000000000E+00 0. -1.
<mgrwt>
<rscale>  1 0.13235375E+03</rscale>
<asrwt>0</asrwt>
<pdfrwt beam="2">  1        4 0.34742868E-02 0.13235375E+03</pdfrwt>
<pdfrwt beam="1">  1       -4 0.53086064E-01 0.13235375E+03</pdfrwt>
<totfact> 0.23971860E+03</totfact>
</mgrwt>
</event>
<event>
 6    4  0.2220150E-003  0.1288335E+03  0.7818608E-02  0.1229197E+00
          4   -1    0    0  502    0  0.00000000000E+00  0.00000000000E+00  0.23941013645E+03  0.23941350491E+03  0.12700000000E+01 0.  1.
         -4   -1    0    0    0  501 -0.00000000000E+00 -0.00000000000E+00 -0.33285031852E+02  0.33309251648E+02  0.12700000000E+01 0.  1.
         25    2    1    2    0    0  0.11917930791E+02  0.28826368067E+02  0.20423243350E+03  0.24147249617E+03  0.12500033178E+03 0.  0.
    9000005    1    3    3    0    0  0.11246537724E+02  0.25099685010E+02 -0.84219282344E+01  0.28782072086E+02  0.10000000000E+01 0.  0.
    9000005    1    3    3    0    0  0.67139306667E+00  0.37266830562E+01  0.21265436173E+03  0.21269042409E+03  0.10000000000E+01 0.  0.
         21    1    1    2  502  501 -0.11917930791E+02 -0.28826368067E+02  0.18926710987E+01  0.31250260385E+02  0.00000000000E+00 0.  1.
<mgrwt>
<rscale>  1 0.12883353E+03</rscale>
<asrwt>0</asrwt>
<pdfrwt beam="1">  1        4 0.36834451E-01 0.12883353E+03</pdfrwt>
<pdfrwt beam="2">  1       -4 0.51228963E-02 0.12883353E+03</pdfrwt>
<totfact> 0.26637041E+03</totfact>
</mgrwt>
</event>
<event>
 6    4  0.2220150E-003  0.1293197E+03  0.7818608E-02  0.1228469E+00
          4   -1    0    0  502    0  0.00000000000E+00  0.00000000000E+00  0.56004316200E+02  0.56018714132E+02  0.12700000000E+01 0.  1.
         -4   -1    0    0    0  501 -0.00000000000E+00 -0.00000000000E+00 -0.15659541199E+03  0.15660056180E+03  0.12700000000E+01 0.  1.
         25    2    1    2    0    0  0.24778540674E+02 -0.22001108577E+02 -0.27277914033E+02  0.13216526748E+03  0.12500219389E+03 0.  0.
    9000005    1    3    3    0    0 -0.37494407470E+02  0.15371142015E+02  0.20302114339E+02  0.45335178891E+02  0.10000000000E+01 0.  0.
    9000005    1    3    3    0    0  0.62272948144E+02 -0.37372250593E+02 -0.47580028372E+02  0.86830088592E+02  0.10000000000E+01 0.  0.
         21    1    1    2  502  501 -0.24778540674E+02  0.22001108577E+02 -0.73313181760E+02  0.80454008454E+02  0.00000000000E+00 0.  1.
<mgrwt>
<rscale>  1 0.12931966E+03</rscale>
<asrwt>0</asrwt>
<pdfrwt beam="1">  1        4 0.86175524E-02 0.12931966E+03</pdfrwt>
<pdfrwt beam="2">  1       -4 0.24093105E-01 0.12931966E+03</pdfrwt>
<totfact> 0.25382490E+03</totfact>
</mgrwt>
</event>
<event>
 6    4  0.2220150E-003  0.1309668E+03  0.7818608E-02  0.1226028E+00
         -4   -1    0    0    0  501 -0.00000000000E+00  0.00000000000E+00  0.26319740201E+02  0.26350362886E+02  0.12700000000E+01 0. -1.
          4   -1    0    0  502    0  0.00000000000E+00 -0.00000000000E+00 -0.36519383137E+03  0.36519603965E+03  0.12700000000E+01 0. -1.
         25    2    1    2    0    0 -0.37851128465E+02 -0.97156169277E+01 -0.32445924839E+03  0.34989440581E+03  0.12500076086E+03 0.  0.
    9000005    1    3    3    0    0 -0.20933380394E+02  0.57731249533E+02 -0.15051207608E+03  0.16256072291E+03  0.10000000000E+01 0.  0.
    9000005    1    3    3    0    0 -0.16917748071E+02 -0.67446866461E+02 -0.17394717231E+03  0.18733368290E+03  0.10000000000E+01 0.  0.
         21    1    1    2  502  501  0.37851128465E+02  0.97156169277E+01 -0.14414842785E+02  0.41651996721E+02  0.00000000000E+00 0. -1.
<mgrwt>
<rscale>  1 0.13096676E+03</rscale>
<asrwt>0</asrwt>
<pdfrwt beam="2">  1        4 0.56186188E-01 0.13096676E+03</pdfrwt>
<pdfrwt beam="1">  1       -4 0.40517165E-02 0.13096676E+03</pdfrwt>
<totfact> 0.16675894E+03</totfact>
</mgrwt>
</event>
<event>
 6    4  0.2220150E-003  0.1269825E+03  0.7818608E-02  0.1232003E+00
         -4   -1    0    0    0  501 -0.00000000000E+00  0.00000000000E+00  0.77424037935E+03  0.77424142095E+03  0.12700000000E+01 0. -1.
          4   -1    0    0  502    0  0.00000000000E+00 -0.00000000000E+00 -0.76317028329E+01  0.77366522559E+01  0.12700000000E+01 0. -1.
         25    2    1    2    0    0 -0.64207175653E+01  0.21407713076E+02  0.56279371772E+03  0.57694136131E+03  0.12500019960E+03 0.  0.
    9000005    1    3    3    0    0  0.60789560286E+01  0.41135172491E+01 -0.48768796327E+01  0.88689731936E+01  0.10000000000E+01 0.  0.
    9000005    1    3    3    0    0 -0.12499673594E+02  0.17294195827E+02  0.56767059735E+03  0.56807238812E+03  0.10000000000E+01 0.  0.
         21    1    1    2  502  501  0.64207175653E+01 -0.21407713076E+02  0.20381495880E+03  0.20503671189E+03  0.00000000000E+00 0. -1.
<mgrwt>
<rscale>  1 0.12698254E+03</rscale>
<asrwt>0</asrwt>
<pdfrwt beam="2">  1        4 0.11822611E-02 0.12698254E+03</pdfrwt>
<pdfrwt beam="1">  1       -4 0.11912208E+00 0.12698254E+03</pdfrwt>
<totfact> 0.20915940E+03</totfact>
</mgrwt>
</event>
<event>
 6    4  0.2220150E-003  0.1304030E+03  0.7818608E-02  0.1226859E+00
          4   -1    0    0  502    0  0.00000000000E+00  0.00000000000E+00  0.15790176679E+02  0.15841167241E+02  0.12700000000E+01 0. -1.
         -4   -1    0    0    0  501 -0.00000000000E+00 -0.00000000000E+00 -0.45518102520E+03  0.45518279691E+03  0.12700000000E+01 0. -1.
         25    2    1    2    0    0  0.28867754576E+02  0.23171180067E+02 -0.30681377450E+03  0.33337611129E+03  0.12503874807E+03 0.  0.
    9000005    1    3    3    0    0 -0.14046845741E+01 -0.47651839000E+02 -0.72931935140E+02  0.87136318846E+02  0.10000000000E+01 0.  0.
    9000005    1    3    3    0    0  0.30272439150E+02  0.70823019067E+02 -0.23388183936E+03  0.24623979245E+03  0.10000000000E+01 0.  0.
         21    1    1    2  502  501 -0.28867754576E+02 -0.23171180067E+02 -0.13257707402E+03  0.13764785286E+03  0.00000000000E+00 0. -1.
<mgrwt>
<rscale>  1 0.13040299E+03</rscale>
<asrwt>0</asrwt>
<pdfrwt beam="1">  1        4 0.24333169E-02 0.13040299E+03</pdfrwt>
<pdfrwt beam="2">  1       -4 0.70031899E-01 0.13040299E+03</pdfrwt>
<totfact> 0.23267768E+03</totfact>
</mgrwt>
</event>
<event>
 6    4  0.2220150E-003  0.1271292E+03  0.7818608E-02  0.1231779E+00
         -4   -1    0    0    0  501 -0.00000000000E+00  0.00000000000E+00  0.19775576929E+03  0.19775984726E+03  0.12700000000E+01 0.  1.
          4   -1    0    0  502    0  0.00000000000E+00 -0.00000000000E+00 -0.29775356494E+02  0.29802428665E+02  0.12700000000E+01 0.  1.
         25    2    1    2    0    0 -0.10879654506E+02  0.20456873761E+02  0.12262654998E+03  0.17663268297E+03  0.12499993347E+03 0.  0.
    9000005    1    3    3    0    0 -0.38613071052E+01  0.57479325326E+02  0.10796341875E+02  0.58620333762E+02  0.10000000000E+01 0.  0.
    9000005    1    3    3    0    0 -0.70183474011E+01 -0.37022451565E+02  0.11183020811E+03  0.11801234921E+03  0.10000000000E+01 0.  0.
         21    1    1    2  502  501  0.10879654506E+02 -0.20456873761E+02  0.45353862819E+02  0.50929592958E+02  0.00000000000E+00 0.  1.
<mgrwt>
<rscale>  1 0.12712920E+03</rscale>
<asrwt>0</asrwt>
<pdfrwt beam="2">  1        4 0.45832203E-02 0.12712920E+03</pdfrwt>
<pdfrwt beam="1">  1       -4 0.30426360E-01 0.12712920E+03</pdfrwt>
<totfact> 0.45771523E+03</totfact>
</mgrwt>
</event>
<event>
 6    4  0.2220150E-003  0.1270476E+03  0.7818608E-02  0.1231903E+00
         -4   -1    0    0    0  501 -0.00000000000E+00  0.00000000000E+00  0.12689761280E+04  0.12689767635E+04  0.12700000000E+01 0.  1.
          4   -1    0    0  502    0  0.00000000000E+00 -0.00000000000E+00 -0.27990841784E+02  0.28019638181E+02  0.12700000000E+01 0.  1.
         25    2    1    2    0    0 -0.12613170285E+02 -0.18901889151E+02  0.11679084495E+03  0.17257232010E+03  0.12499892289E+03 0.  0.
    9000005    1    3    3    0    0  0.52196340567E+02 -0.26261391976E+02  0.35627460443E+02  0.68442929619E+02  0.10000000000E+01 0.  0.
    9000005    1    3    3    0    0 -0.64809510852E+02  0.73595028257E+01  0.81163384504E+02  0.10412939049E+03  0.10000000000E+01 0.  0.
         21    1    1    2  502  501  0.12613170285E+02  0.18901889151E+02  0.11241944413E+04  0.11244240816E+04  0.00000000000E+00 0.  1.
<mgrwt>
<rscale>  1 0.12704765E+03</rscale>
<asrwt>0</asrwt>
<pdfrwt beam="2">  1        4 0.43085475E-02 0.12704765E+03</pdfrwt>
<pdfrwt beam="1">  1       -4 0.19522935E+00 0.12704765E+03</pdfrwt>
<totfact> 0.79303555E+01</totfact>
</mgrwt>
</event>
<event>
 6    4  0.2220150E-003  0.1578766E+03  0.7818608E-02  0.1191115E+00
          4   -1    0    0  502    0  0.00000000000E+00  0.00000000000E+00  0.49743513529E+03  0.49743675651E+03  0.12700000000E+01 0.  1.
         -4   -1    0    0    0  501 -0.00000000000E+00 -0.00000000000E+00 -0.33640898811E+02  0.33664862584E+02  0.12700000000E+01 0.  1.
         25    2    1    2    0    0 -0.23506842470E+02  0.93523015821E+02  0.23829689280E+03  0.28585036397E+03  0.12500358128E+03 0.  0.
    9000005    1    3    3    0    0 -0.32869677804E+02  0.23239763990E+02  0.33173769478E+01  0.40404298522E+02  0.10000000000E+01 0.  0.
    9000005    1    3    3    0    0  0.93628353336E+01  0.70283251831E+02  0.23497951585E+03  0.24544606544E+03  0.10000000000E+01 0.  0.
         21    1    1    2  502  501  0.23506842470E+02 -0.93523015821E+02  0.22549734368E+03  0.24525125512E+03  0.00000000000E+00 0.  1.
<mgrwt>
<rscale>  1 0.15787660E+03</rscale>
<asrwt>0</asrwt>
<pdfrwt beam="1">  1        4 0.76530449E-01 0.15787660E+03</pdfrwt>
<pdfrwt beam="2">  1       -4 0.51774911E-02 0.15787660E+03</pdfrwt>
<totfact> 0.60459372E+02</totfact>
</mgrwt>
</event>
<event>
 6    4  0.2220150E-003  0.1387500E+03  0.7818608E-02  0.1215021E+00
         -4   -1    0    0    0  501 -0.00000000000E+00  0.00000000000E+00  0.75220697251E+03  0.75220804462E+03  0.12700000000E+01 0.  1.
          4   -1    0    0  502    0  0.00000000000E+00 -0.00000000000E+00 -0.14475476409E+02  0.14531081077E+02  0.12700000000E+01 0.  1.
         25    2    1    2    0    0 -0.29910274278E+02 -0.52264603919E+02  0.39267547433E+03  0.41646798573E+03  0.12500136668E+03 0.  0.
    9000005    1    3    3    0    0 -0.28958639240E+02 -0.42139863509E+02  0.43488037152E+02  0.67131067759E+02  0.10000000000E+01 0.  0.
    9000005    1    3    3    0    0 -0.95163503850E+00 -0.10124740410E+02  0.34918743718E+03  0.34933691798E+03  0.10000000000E+01 0.  0.
         21    1    1    2  502  501  0.29910274278E+02  0.52264603919E+02  0.34505602177E+03  0.35027113996E+03  0.00000000000E+00 0.  1.
<mgrwt>
<rscale>  1 0.13874997E+03</rscale>
<asrwt>0</asrwt>
<pdfrwt beam="2">  1        4 0.22313559E-02 0.13874997E+03</pdfrwt>
<pdfrwt beam="1">  1       -4 0.11572852E+00 0.13874997E+03</pdfrwt>
<totfact> 0.86485420E+02</totfact>
</mgrwt>
</event>
<event>
 6    4  0.2220150E-003  0.1314031E+03  0.7818608E-02  0.1225389E+00
         -4   -1    0    0    0  501 -0.00000000000E+00  0.00000000000E+00  0.81304412157E+02  0.81314330448E+02  0.12700000000E+01 0.  1.
          4   -1    0    0  502    0  0.00000000000E+00 -0.00000000000E+00 -0.97155021115E+02  0.97163321412E+02  0.12700000000E+01 0.  1.
         25    2    1    2    0    0 -0.28829806870E+02 -0.28463572985E+02 -0.31366292906E+02  0.13509483038E+03  0.12500174444E+03 0.  0.
    9000005    1    3    3    0    0  0.10324626986E+02 -0.70685184735E+02 -0.46072195552E+01  0.71590639999E+02  0.10000000000E+01 0.  0.
    9000005    1    3    3    0    0 -0.39154433856E+02  0.42221611750E+02 -0.26759073351E+02  0.63504190381E+02  0.10000000000E+01 0.  0.
         21    1    1    2  502  501  0.28829806870E+02  0.28463572985E+02  0.15515683948E+02  0.43382821480E+02  0.00000000000E+00 0.  1.
<mgrwt>
<rscale>  1 0.13140308E+03</rscale>
<asrwt>0</asrwt>
<pdfrwt beam="2">  1        4 0.14948328E-01 0.13140308E+03</pdfrwt>
<pdfrwt beam="1">  1       -4 0.12509773E-01 0.13140308E+03</pdfrwt>
<totfact> 0.31877361E+03</totfact>
</mgrwt>
</event>
<event>
 6    4  0.2220150E-003  0.1268504E+03  0.7818608E-02  0.1232205E+00
          4   -1    0    0  502    0  0.00000000000E+00  0.00000000000E+00  0.30277994787E+03  0.30278261134E+03  0.12700000000E+01 0.  1.
         -4   -1    0    0    0  501 -0.00000000000E+00 -0.00000000000E+00 -0.31519702784E+02  0.31545277992E+02  0.12700000000E+01 0.  1.
         25    2    1    2    0    0  0.17218278494E+02 -0.13060341455E+02  0.28271477929E+03  0.30986878087E+03  0.12499589312E+03 0.  0.
    9000005    1    3    3    0    0  0.31095339067E+02  0.39521018604E+02  0.50145430334E+02  0.71023905880E+02  0.10000000000E+01 0.  0.
    9000005    1    3    3    0    0 -0.13877060573E+02 -0.52581360059E+02  0.23256934895E+03  0.23884487499E+03  0.10000000000E+01 0.  0.
         21    1    1    2  502  501 -0.17218278494E+02  0.13060341455E+02 -0.11454534201E+02  0.24459108466E+02  0.00000000000E+00 0.  1.
<mgrwt>
<rscale>  1 0.12685036E+03</rscale>
<asrwt>0</asrwt>
<pdfrwt beam="1">  1        4 0.46583703E-01 0.12685036E+03</pdfrwt>
<pdfrwt beam="2">  1       -4 0.48513572E-02 0.12685036E+03</pdfrwt>
<totfact> 0.18212644E+03</totfact>
</mgrwt>
</event>
<event>
 6    4  0.2220150E-003  0.1297154E+03  0.7818608E-02  0.1227879E+00
         -4   -1    0    0    0  501 -0.00000000000E+00  0.00000000000E+00  0.13229548681E+02  0.13290367125E+02  0.12700000000E+01 0.  1.
          4   -1    0    0  502    0  0.00000000000E+00 -0.00000000000E+00 -0.51257502592E+03  0.51257659925E+03  0.12700000000E+01 0.  1.
         25    2    1    2    0    0 -0.30147878592E+02 -0.17091090108E+02 -0.41025679565E+03  0.43027516164E+03  0.12500030562E+03 0.  0.
    9000005    1    3    3    0    0 -0.25283397267E+02 -0.13120701601E+02 -0.10358892734E+02  0.30326715064E+02  0.10000000000E+01 0.  0.
    9000005    1    3    3    0    0 -0.48644813248E+01 -0.39703885065E+01 -0.39989790292E+03  0.39994844658E+03  0.10000000000E+01 0.  0.
         21    1    1    2  502  501  0.30147878592E+02  0.17091090108E+02 -0.89088681588E+02  0.95591804731E+02  0.00000000000E+00 0.  1.
<mgrwt>
<rscale>  1 0.12971537E+03</rscale>
<asrwt>0</asrwt>
<pdfrwt beam="2">  1        4 0.78862480E-01 0.12971537E+03</pdfrwt>
<pdfrwt beam="1">  1       -4 0.20401149E-02 0.12971537E+03</pdfrwt>
<totfact> 0.23557881E+03</totfact>
</mgrwt>
</event>
<event>
 6    4  0.2220150E-003  0.1286860E+03  0.7818608E-02  0.1229419E+00
          4   -1    0    0  502    0  0.00000000000E+00  0.00000000000E+00  0.24921534467E+03  0.24921858061E+03  0.12700000000E+01 0. -1.
         -4   -1    0    0    0  501 -0.00000000000E+00 -0.00000000000E+00 -0.29028630213E+02  0.29056398126E+02  0.12700000000E+01 0. -1.
         25    2    1    2    0    0  0.13975512764E+02 -0.27199890015E+02  0.20952813808E+03  0.24589050368E+03  0.12499980072E+03 0.  0.
    9000005    1    3    3    0    0  0.42037195157E+00  0.34619028631E+02  0.16476446912E+03  0.16836562636E+03  0.10000000000E+01 0.  0.
    9000005    1    3    3    0    0  0.13555140812E+02 -0.61818918646E+02  0.44763668963E+02  0.77524877324E+02  0.10000000000E+01 0.  0.
         21    1    1    2  502  501 -0.13975512764E+02  0.27199890015E+02  0.10658576379E+02  0.32384475050E+02  0.00000000000E+00 0. -1.
<mgrwt>
<rscale>  1 0.12868605E+03</rscale>
<asrwt>0</asrwt>
<pdfrwt beam="1">  1        4 0.38343207E-01 0.12868605E+03</pdfrwt>
<pdfrwt beam="2">  1       -4 0.44683280E-02 0.12868605E+03</pdfrwt>
<totfact> 0.30656697E+03</totfact>
</mgrwt>
</event>
<event>
 6    4  0.2220150E-003  0.1283353E+03  0.7818608E-02  0.1229947E+00
         -4   -1    0    0    0  501 -0.00000000000E+00  0.00000000000E+00  0.23642672344E+02  0.23676757709E+02  0.12700000000E+01 0. -1.
          4   -1    0    0  502    0  0.00000000000E+00 -0.00000000000E+00 -0.39205733018E+03  0.39205938714E+03  0.12700000000E+01 0. -1.
         25    2    1    2    0    0 -0.26869846790E+02 -0.11100257915E+02 -0.36446131348E+03  0.38639618364E+03  0.12499902926E+03 0.  0.
    9000005    1    3    3    0    0 -0.75083030954E+02  0.98162851032E+01 -0.21999504229E+03  0.23266422076E+03  0.10000000000E+01 0.  0.
    9000005    1    3    3    0    0  0.48213184165E+02 -0.20916543018E+02 -0.14446627118E+03  0.15373196287E+03  0.10000000000E+01 0.  0.
         21    1    1    2  502  501  0.26869846790E+02  0.11100257915E+02 -0.39533443549E+01  0.29339961211E+02  0.00000000000E+00 0.  1.
<mgrwt>
<rscale>  1 0.12833535E+03</rscale>
<asrwt>0</asrwt>
<pdfrwt beam="2">  1        4 0.60319288E-01 0.12833535E+03</pdfrwt>
<pdfrwt beam="1">  1       -4 0.36401147E-02 0.12833535E+03</pdfrwt>
<totfact> 0.16959380E+03</totfact>
</mgrwt>
</event>
<event>
 6    4  0.2220150E-003  0.1279851E+03  0.7818608E-02  0.1230477E+00
         -4   -1    0    0    0  501 -0.00000000000E+00  0.00000000000E+00  0.31983369516E+02  0.32008574251E+02  0.12700000000E+01 0.  1.
          4   -1    0    0  502    0  0.00000000000E+00 -0.00000000000E+00 -0.18891707575E+03  0.18892134451E+03  0.12700000000E+01 0.  1.
         25    2    1    2    0    0 -0.20111942074E+02 -0.18729229115E+02 -0.13102603080E+03  0.18316112365E+03  0.12499960893E+03 0.  0.
    9000005    1    3    3    0    0 -0.64617974997E+02  0.22961189329E+01 -0.11400670204E+03  0.13106976373E+03  0.10000000000E+01 0.  0.
    9000005    1    3    3    0    0  0.44506032923E+02 -0.21025348048E+02 -0.17019328761E+02  0.52091359922E+02  0.10000000000E+01 0.  0.
         21    1    1    2  502  501  0.20111942074E+02  0.18729229115E+02 -0.25907675437E+02  0.37768795106E+02  0.00000000000E+00 0.  1.
<mgrwt>
<rscale>  1 0.12798506E+03</rscale>
<asrwt>0</asrwt>
<pdfrwt beam="2">  1        4 0.29066432E-01 0.12798506E+03</pdfrwt>
<pdfrwt beam="1">  1       -4 0.49227857E-02 0.12798506E+03</pdfrwt>
<totfact> 0.44572358E+03</totfact>
</mgrwt>
</event>
<event>
 6    4  0.2220150E-003  0.1272609E+03  0.7818608E-02  0.1231578E+00
         -4   -1    0    0    0  501 -0.00000000000E+00  0.00000000000E+00  0.80176584484E+02  0.80186642276E+02  0.12700000000E+01 0.  1.
          4   -1    0    0  502    0  0.00000000000E+00 -0.00000000000E+00 -0.12590592217E+03  0.12591232719E+03  0.12700000000E+01 0.  1.
         25    2    1    2    0    0  0.10724151969E+02  0.21333082138E+02 -0.89952154994E+02  0.15584197593E+03  0.12500089378E+03 0.  0.
    9000005    1    3    3    0    0 -0.45892390010E+01  0.13925251418E+00  0.31375172899E+02  0.31725100162E+02  0.10000000000E+01 0.  0.
    9000005    1    3    3    0    0  0.15313390970E+02  0.21193829624E+02 -0.12132732789E+03  0.12411687577E+03  0.10000000000E+01 0.  0.
         21    1    1    2  502  501 -0.10724151969E+02 -0.21333082138E+02  0.44222817303E+02  0.50256993536E+02  0.00000000000E+00 0.  1.
<mgrwt>
<rscale>  1 0.12726088E+03</rscale>
<asrwt>0</asrwt>
<pdfrwt beam="2">  1        4 0.19371408E-01 0.12726088E+03</pdfrwt>
<pdfrwt beam="1">  1       -4 0.12336126E-01 0.12726088E+03</pdfrwt>
<totfact> 0.20498995E+03</totfact>
</mgrwt>
</event>
<event>
 6    4  0.2220150E-003  0.1296874E+03  0.7818608E-02  0.1227920E+00
          4   -1    0    0  502    0  0.00000000000E+00  0.00000000000E+00  0.81924961160E+02  0.81934804333E+02  0.12700000000E+01 0.  1.
         -4   -1    0    0    0  501 -0.00000000000E+00 -0.00000000000E+00 -0.82938512536E+02  0.82948235435E+02  0.12700000000E+01 0.  1.
         25    2    1    2    0    0  0.24939865094E+02  0.23889005558E+02  0.52077546209E+01  0.12979192828E+03  0.12500456984E+03 0.  0.
    9000005    1    3    3    0    0  0.91394607507E+00  0.54141979401E+02  0.47831641926E+02  0.72256869571E+02  0.10000000000E+01 0.  0.
    9000005    1    3    3    0    0  0.24025919019E+02 -0.30252973843E+02 -0.42623887305E+02  0.57535058704E+02  0.10000000000E+01 0.  0.
         21    1    1    2  502  501 -0.24939865094E+02 -0.23889005558E+02 -0.62213059976E+01  0.35091111492E+02  0.00000000000E+00 0.  1.
<mgrwt>
<rscale>  1 0.12968741E+03</rscale>
<asrwt>0</asrwt>
<pdfrwt beam="1">  1        4 0.12605345E-01 0.12968741E+03</pdfrwt>
<pdfrwt beam="2">  1       -4 0.12761276E-01 0.12968741E+03</pdfrwt>
<totfact> 0.41242307E+03</totfact>
</mgrwt>
</event>
<event>
 6    4  0.2220150E-003  0.1277963E+03  0.7818608E-02  0.1230763E+00
          4   -1    0    0  502    0  0.00000000000E+00  0.00000000000E+00  0.32000785198E+02  0.32025976227E+02  0.12700000000E+01 0.  1.
         -4   -1    0    0    0  501 -0.00000000000E+00 -0.00000000000E+00 -0.20869195131E+03  0.20869581558E+03  0.12700000000E+01 0.  1.
         25    2    1    2    0    0  0.19826012383E+02 -0.17623767609E+02 -0.17119055480E+03  0.21363074759E+03  0.12501288859E+03 0.  0.
    9000005    1    3    3    0    0 -0.33888589982E+02  0.35539457322E+02 -0.45431309078E+02  0.66906602083E+02  0.10000000000E+01 0.  0.
    9000005    1    3    3    0    0  0.53714602365E+02 -0.53163224931E+02 -0.12575924572E+03  0.14672414551E+03  0.10000000000E+01 0.  0.
         21    1    1    2  502  501 -0.19826012383E+02  0.17623767609E+02 -0.55006113129E+01  0.27091044213E+02  0.00000000000E+00 0.  1.
<mgrwt>
<rscale>  1 0.12779628E+03</rscale>
<asrwt>0</asrwt>
<pdfrwt beam="1">  1        4 0.49254329E-02 0.12779628E+03</pdfrwt>
<pdfrwt beam="2">  1       -4 0.32108688E-01 0.12779628E+03</pdfrwt>
<totfact> 0.36875149E+03</totfact>
</mgrwt>
</event>
<event>
 6    4  0.2220150E-003  0.1360658E+03  0.7818608E-02  0.1218723E+00
          4   -1    0    0  502    0  0.00000000000E+00  0.00000000000E+00  0.40945938652E+03  0.40946135606E+03  0.12700000000E+01 0.  1.
         -4   -1    0    0    0  501 -0.00000000000E+00 -0.00000000000E+00 -0.26984565703E+02  0.27014434774E+02  0.12700000000E+01 0.  1.
         25    2    1    2    0    0  0.53233238572E+02 -0.74688921065E+01  0.34523742314E+03  0.37108323909E+03  0.12499731981E+03 0.  0.
    9000005    1    3    3    0    0  0.40918298129E+02 -0.40468373619E+02  0.58071928412E+02  0.81763960610E+02  0.10000000000E+01 0.  0.
    9000005    1    3    3    0    0  0.12314940443E+02  0.32999481512E+02  0.28716549473E+03  0.28931927848E+03  0.10000000000E+01 0.  0.
         21    1    1    2  502  501 -0.53233238572E+02  0.74688921065E+01  0.37237397675E+02  0.65392551745E+02  0.00000000000E+00 0.  1.
<mgrwt>
<rscale>  1 0.13606576E+03</rscale>
<asrwt>0</asrwt>
<pdfrwt beam="1">  1        4 0.62996197E-01 0.13606576E+03</pdfrwt>
<pdfrwt beam="2">  1       -4 0.41539210E-02 0.13606576E+03</pdfrwt>
<totfact> 0.12715896E+03</totfact>
</mgrwt>
</event>
<event>
 6    4  0.2220150E-003  0.1267522E+03  0.7818608E-02  0.1232356E+00
          4   -1    0    0  502    0  0.00000000000E+00  0.00000000000E+00  0.15751279574E+02  0.15802395648E+02  0.12700000000E+01 0.  1.
         -4   -1    0    0    0  501 -0.00000000000E+00 -0.00000000000E+00 -0.35787624888E+03  0.35787850231E+03  0.12700000000E+01 0.  1.
         25    2    1    2    0    0  0.99125911490E+01 -0.18666739517E+02 -0.26566583660E+03  0.29435432232E+03  0.12497769283E+03 0.  0.
    9000005    1    3    3    0    0  0.27227337219E+02 -0.65225758247E+02 -0.10826654389E+03  0.12929954353E+03  0.10000000000E+01 0.  0.
    9000005    1    3    3    0    0 -0.17314746070E+02  0.46559018730E+02 -0.15739929271E+03  0.16505477879E+03  0.10000000000E+01 0.  0.
         21    1    1    2  502  501 -0.99125911490E+01  0.18666739517E+02 -0.76459132705E+02  0.79326575632E+02  0.00000000000E+00 0.  1.
<mgrwt>
<rscale>  1 0.12675224E+03</rscale>
<asrwt>0</asrwt>
<pdfrwt beam="1">  1        4 0.24273794E-02 0.12675224E+03</pdfrwt>
<pdfrwt beam="2">  1       -4 0.55061984E-01 0.12675224E+03</pdfrwt>
<totfact> 0.38534247E+03</totfact>
</mgrwt>
</event>
<event>
 6    4  0.2220150E-003  0.1294733E+03  0.7818608E-02  0.1228239E+00
          4   -1    0    0  502    0  0.00000000000E+00  0.00000000000E+00  0.11170628957E+02  0.11242590951E+02  0.12700000000E+01 0. -1.
         -4   -1    0    0    0  501 -0.00000000000E+00 -0.00000000000E+00 -0.91483849541E+03  0.91483937693E+03  0.12700000000E+01 0. -1.
         25    2    1    2    0    0 -0.16021551811E+02 -0.29695060894E+02 -0.38241641490E+03  0.40373958734E+03  0.12499941295E+03 0.  0.
    9000005    1    3    3    0    0 -0.45328663776E+02  0.30577620170E+02 -0.10555831198E+03  0.11888328665E+03  0.10000000000E+01 0.  0.
    9000005    1    3    3    0    0  0.29307111966E+02 -0.60272681065E+02 -0.27685810292E+03  0.28485630070E+03  0.10000000000E+01 0.  0.
         21    1    1    2  502  501  0.16021551811E+02  0.29695060894E+02 -0.52125145155E+03  0.52234238053E+03  0.00000000000E+00 0. -1.
<mgrwt>
<rscale>  1 0.12947332E+03</rscale>
<asrwt>0</asrwt>
<pdfrwt beam="1">  1        4 0.17241624E-02 0.12947332E+03</pdfrwt>
<pdfrwt beam="2">  1       -4 0.14074993E+00 0.12947332E+03</pdfrwt>
<totfact> 0.78701683E+02</totfact>
</mgrwt>
</event>
<event>
 6    4  0.2220150E-003  0.1279778E+03  0.7818608E-02  0.1230487E+00
         -4   -1    0    0    0  501 -0.00000000000E+00  0.00000000000E+00  0.94986324349E+02  0.94994814139E+02  0.12700000000E+01 0. -1.
          4   -1    0    0  502    0  0.00000000000E+00 -0.00000000000E+00 -0.10752816051E+03  0.10753566014E+03  0.12700000000E+01 0. -1.
         25    2    1    2    0    0 -0.20479357265E+02 -0.18270261184E+02 -0.64841800265E+02  0.14346701042E+03  0.12500046999E+03 0.  0.
    9000005    1    3    3    0    0  0.20075111922E+02 -0.64399332448E+01 -0.91235344084E+02  0.93644919077E+02  0.10000000000E+01 0.  0.
    9000005    1    3    3    0    0 -0.40554469187E+02 -0.11830327939E+02  0.26393543818E+02  0.49822091340E+02  0.10000000000E+01 0.  0.
         21    1    1    2  502  501  0.20479357265E+02  0.18270261184E+02  0.52299964108E+02  0.59063463863E+02  0.00000000000E+00 0. -1.
<mgrwt>
<rscale>  1 0.12797783E+03</rscale>
<asrwt>0</asrwt>
<pdfrwt beam="2">  1        4 0.16544024E-01 0.12797783E+03</pdfrwt>
<pdfrwt beam="1">  1       -4 0.14614511E-01 0.12797783E+03</pdfrwt>
<totfact> 0.20272449E+03</totfact>
</mgrwt>
</event>
<event>
 6    4  0.2220150E-003  0.1312546E+03  0.7818608E-02  0.1225606E+00
         -4   -1    0    0    0  501 -0.00000000000E+00  0.00000000000E+00  0.92425655465E+03  0.92425742719E+03  0.12700000000E+01 0. -1.
          4   -1    0    0  502    0  0.00000000000E+00 -0.00000000000E+00 -0.98111896927E+01  0.98930451928E+01  0.12700000000E+01 0. -1.
         25    2    1    2    0    0  0.32297364472E+02 -0.23665640672E+02  0.47239724668E+03  0.49029270105E+03  0.12499836691E+03 0.  0.
    9000005    1    3    3    0    0 -0.36351015290E+02 -0.40071935295E+01  0.50304886890E+02  0.62201571987E+02  0.10000000000E+01 0.  0.
    9000005    1    3    3    0    0  0.68648379762E+02 -0.19658447143E+02  0.42209235979E+03  0.42809112906E+03  0.10000000000E+01 0.  0.
         21    1    1    2  502  501 -0.32297364472E+02  0.23665640672E+02  0.44204811828E+03  0.44385777133E+03  0.00000000000E+00 0. -1.
<mgrwt>
<rscale>  1 0.13125462E+03</rscale>
<asrwt>0</asrwt>
<pdfrwt beam="2">  1        4 0.15157772E-02 0.13125462E+03</pdfrwt>
<pdfrwt beam="1">  1       -4 0.14219971E+00 0.13125462E+03</pdfrwt>
<totfact> 0.93648721E+02</totfact>
</mgrwt>
</event>
<event>
 6    4  0.2220150E-003  0.1388107E+03  0.7818608E-02  0.1214938E+00
         -4   -1    0    0    0  501 -0.00000000000E+00  0.00000000000E+00  0.22574318897E+02  0.22610014898E+02  0.12700000000E+01 0. -1.
          4   -1    0    0  502    0  0.00000000000E+00 -0.00000000000E+00 -0.61487722306E+03  0.61487853462E+03  0.12700000000E+01 0. -1.
         25    2    1    2    0    0  0.50943589028E+01 -0.60149132301E+02 -0.54019483732E+03  0.55774445106E+03  0.12499815924E+03 0.  0.
    9000005    1    3    3    0    0 -0.49755986858E+02 -0.62579274910E+02 -0.25253266909E+03  0.26488784954E+03  0.10000000000E+01 0.  0.
    9000005    1    3    3    0    0  0.54850345761E+02  0.24301426091E+01 -0.28766216823E+03  0.29285660152E+03  0.10000000000E+01 0.  0.
         21    1    1    2  502  501 -0.50943589028E+01  0.60149132301E+02 -0.52108066849E+02  0.79744098464E+02  0.00000000000E+00 0. -1.
<mgrwt>
<rscale>  1 0.13881070E+03</rscale>
<asrwt>0</asrwt>
<pdfrwt beam="2">  1        4 0.94599330E-01 0.13881070E+03</pdfrwt>
<pdfrwt beam="1">  1       -4 0.34758193E-02 0.13881070E+03</pdfrwt>
<totfact> 0.69288214E+02</totfact>
</mgrwt>
</event>
<event>
 6    4  0.2220150E-003  0.1534574E+03  0.7818608E-02  0.1196288E+00
          4   -1    0    0  502    0  0.00000000000E+00  0.00000000000E+00  0.18177284580E+04  0.18177289017E+04  0.12700000000E+01 0. -1.
         -4   -1    0    0    0  501 -0.00000000000E+00 -0.00000000000E+00 -0.80604194711E+01  0.81598567420E+01  0.12700000000E+01 0. -1.
         25    2    1    2    0    0  0.76857609306E+02 -0.44893848465E+02  0.10957688002E+04  0.11064621310E+04  0.12500653618E+03 0.  0.
    9000005    1    3    3    0    0  0.81340159268E+02 -0.40185018631E+02  0.38067596779E+03  0.39133904697E+03  0.10000000000E+01 0.  0.
    9000005    1    3    3    0    0 -0.44825499628E+01 -0.47088298343E+01  0.71509283243E+03  0.71512308404E+03  0.10000000000E+01 0.  0.
         21    1    1    2  502  501 -0.76857609306E+02  0.44893848465E+02  0.71389923831E+03  0.71942662739E+03  0.00000000000E+00 0. -1.
<mgrwt>
<rscale>  1 0.15345743E+03</rscale>
<asrwt>0</asrwt>
<pdfrwt beam="1">  1        4 0.27965820E+00 0.15345743E+03</pdfrwt>
<pdfrwt beam="2">  1       -4 0.12477477E-02 0.15345743E+03</pdfrwt>
<totfact> 0.17687874E+02</totfact>
</mgrwt>
</event>
<event>
 6    4  0.2220150E-003  0.1321034E+03  0.7818608E-02  0.1224368E+00
          4   -1    0    0  502    0  0.00000000000E+00  0.00000000000E+00  0.37276755230E+03  0.37276971571E+03  0.12700000000E+01 0.  1.
         -4   -1    0    0    0  501 -0.00000000000E+00 -0.00000000000E+00 -0.41815445139E+02  0.41834726630E+02  0.12700000000E+01 0.  1.
         25    2    1    2    0    0  0.99315110535E+01 -0.41562011013E+02  0.34515665370E+03  0.36957328853E+03  0.12500105731E+03 0.  0.
    9000005    1    3    3    0    0 -0.52123759726E+02 -0.71899025164E+01  0.21488857591E+03  0.22123896827E+03  0.10000000000E+01 0.  0.
    9000005    1    3    3    0    0  0.62055270780E+02 -0.34372108496E+02  0.13026807779E+03  0.14833432026E+03  0.10000000000E+01 0.  0.
         21    1    1    2  502  501 -0.99315110535E+01  0.41562011013E+02 -0.14204546538E+02  0.45031153811E+02  0.00000000000E+00 0.  1.
<mgrwt>
<rscale>  1 0.13210337E+03</rscale>
<asrwt>0</asrwt>
<pdfrwt beam="1">  1        4 0.57350504E-01 0.13210337E+03</pdfrwt>
<pdfrwt beam="2">  1       -4 0.64347950E-02 0.13210337E+03</pdfrwt>
<totfact> 0.76060311E+02</totfact>
</mgrwt>
</event>
<event>
 6    4  0.2220150E-003  0.1282591E+03  0.7818608E-02  0.1230062E+00
         -4   -1    0    0    0  501 -0.00000000000E+00  0.00000000000E+00  0.51929259916E+02  0.51944787375E+02  0.12700000000E+01 0.  1.
          4   -1    0    0  502    0  0.00000000000E+00 -0.00000000000E+00 -0.12641296371E+03  0.12641934304E+03  0.12700000000E+01 0.  1.
         25    2    1    2    0    0  0.26680566788E+02  0.10623930626E+02 -0.76897877319E+02  0.14954488720E+03  0.12500267679E+03 0.  0.
    9000005    1    3    3    0    0  0.48719233465E+02 -0.30037959604E+02  0.28891468221E+01  0.57316576101E+02  0.10000000000E+01 0.  0.
    9000005    1    3    3    0    0 -0.22038666678E+02  0.40661890230E+02 -0.79787024141E+02  0.92228311094E+02  0.10000000000E+01 0.  0.
         21    1    1    2  502  501 -0.26680566788E+02 -0.10623930626E+02  0.24141735205E+01  0.28819243221E+02  0.00000000000E+00 0. -1.
<mgrwt>
<rscale>  1 0.12825907E+03</rscale>
<asrwt>0</asrwt>
<pdfrwt beam="2">  1        4 0.19449833E-01 0.12825907E+03</pdfrwt>
<pdfrwt beam="1">  1       -4 0.79908021E-02 0.12825907E+03</pdfrwt>
<totfact> 0.42331866E+03</totfact>
</mgrwt>
</event>
<event>
 6    4  0.2220150E-003  0.1293935E+03  0.7818608E-02  0.1228358E+00
          4   -1    0    0  502    0  0.00000000000E+00  0.00000000000E+00  0.37548118717E+03  0.37548333494E+03  0.12700000000E+01 0.  1.
         -4   -1    0    0    0  501 -0.00000000000E+00 -0.00000000000E+00 -0.27428769874E+02  0.27458155742E+02  0.12700000000E+01 0.  1.
         25    2    1    2    0    0  0.29665167384E+02  0.15420524293E+02  0.34604757948E+03  0.36944769872E+03  0.12499944041E+03 0.  0.
    9000005    1    3    3    0    0  0.48214554265E+02 -0.42769662113E+02  0.13268226381E+03  0.14751091610E+03  0.10000000000E+01 0.  0.
    9000005    1    3    3    0    0 -0.18549386882E+02  0.58190186406E+02  0.21336531567E+03  0.22193678262E+03  0.10000000000E+01 0.  0.
         21    1    1    2  502  501 -0.29665167384E+02 -0.15420524293E+02  0.20048378176E+01  0.33493791963E+02  0.00000000000E+00 0.  1.
<mgrwt>
<rscale>  1 0.12939349E+03</rscale>
<asrwt>0</asrwt>
<pdfrwt beam="1">  1        4 0.57768764E-01 0.12939349E+03</pdfrwt>
<pdfrwt beam="2">  1       -4 0.42222363E-02 0.12939349E+03</pdfrwt>
<totfact> 0.14701295E+03</totfact>
</mgrwt>
</event>
<event>
 6    4  0.2220150E-003  0.1350886E+03  0.7818608E-02  0.1220095E+00
          4   -1    0    0  502    0  0.00000000000E+00  0.00000000000E+00  0.10182248135E+02  0.10261144043E+02  0.12700000000E+01 0.  1.
         -4   -1    0    0    0  501 -0.00000000000E+00 -0.00000000000E+00 -0.11340733405E+04  0.11340740516E+04  0.12700000000E+01 0.  1.
         25    2    1    2    0    0  0.45324035254E+02 -0.23866551115E+02 -0.48704171794E+03  0.50542909447E+03  0.12500021632E+03 0.  0.
    9000005    1    3    3    0    0  0.46212195294E+02  0.43444803647E+02 -0.17329836301E+03  0.18454360076E+03  0.10000000000E+01 0.  0.
    9000005    1    3    3    0    0 -0.88816004021E+00 -0.67311354762E+02 -0.31374335493E+03  0.32088549371E+03  0.10000000000E+01 0.  0.
         21    1    1    2  502  501 -0.45324035254E+02  0.23866551115E+02 -0.63684937445E+03  0.63890610122E+03  0.00000000000E+00 0.  1.
<mgrwt>
<rscale>  1 0.13508862E+03</rscale>
<asrwt>0</asrwt>
<pdfrwt beam="1">  1        4 0.15726242E-02 0.13508862E+03</pdfrwt>
<pdfrwt beam="2">  1       -4 0.17447885E+00 0.13508862E+03</pdfrwt>
<totfact> 0.52406875E+02</totfact>
</mgrwt>
</event>
<event>
 6    4  0.2220150E-003  0.1802638E+03  0.7818608E-02  0.1167548E+00
         -4   -1    0    0    0  501 -0.00000000000E+00  0.00000000000E+00  0.13053792026E+02  0.13115425508E+02  0.12700000000E+01 0.  1.
          4   -1    0    0  502    0  0.00000000000E+00 -0.00000000000E+00 -0.18390738776E+04  0.18390743161E+04  0.12700000000E+01 0.  1.
         25    2    1    2    0    0 -0.66252089821E+02 -0.11171549929E+03 -0.10372489265E+04  0.10527964507E+04  0.12500135552E+03 0.  0.
    9000005    1    3    3    0    0 -0.88528088246E+02 -0.87135233139E+02 -0.52590062592E+03  0.54037231573E+03  0.10000000000E+01 0.  0.
    9000005    1    3    3    0    0  0.22275998425E+02 -0.24580266147E+02 -0.51134830053E+03  0.51242413492E+03  0.10000000000E+01 0.  0.
         21    1    1    2  502  501  0.66252089821E+02  0.11171549929E+03 -0.78877115909E+03  0.79939329094E+03  0.00000000000E+00 0.  1.
<mgrwt>
<rscale>  1 0.18026378E+03</rscale>
<asrwt>0</asrwt>
<pdfrwt beam="2">  1        4 0.28293901E+00 0.18026378E+03</pdfrwt>
<pdfrwt beam="1">  1       -4 0.20130519E-02 0.18026378E+03</pdfrwt>
<totfact> 0.82735307E+01</totfact>
</mgrwt>
</event>
<event>
 6    4  0.2220150E-003  0.1341894E+03  0.7818608E-02  0.1221368E+00
          4   -1    0    0  502    0  0.00000000000E+00  0.00000000000E+00  0.13409983491E+03  0.13410584858E+03  0.12700000000E+01 0. -1.
         -4   -1    0    0    0  501 -0.00000000000E+00 -0.00000000000E+00 -0.95670244842E+02  0.95678673946E+02  0.12700000000E+01 0. -1.
         25    2    1    2    0    0  0.43938570865E+02  0.21257653702E+02  0.87798306451E+02  0.16036005992E+03  0.12499728138E+03 0.  0.
    9000005    1    3    3    0    0 -0.14028719194E+02  0.55973439512E+01 -0.26914084398E+02  0.30878846490E+02  0.10000000000E+01 0.  0.
    9000005    1    3    3    0    0  0.57967290058E+02  0.15660309750E+02  0.11471239085E+03  0.12948121343E+03  0.10000000000E+01 0.  0.
         21    1    1    2  502  501 -0.43938570865E+02 -0.21257653702E+02 -0.49368716381E+02  0.69424462602E+02  0.00000000000E+00 0. -1.
<mgrwt>
<rscale>  1 0.13418944E+03</rscale>
<asrwt>0</asrwt>
<pdfrwt beam="1">  1        4 0.20631855E-01 0.13418944E+03</pdfrwt>
<pdfrwt beam="2">  1       -4 0.14719610E-01 0.13418944E+03</pdfrwt>
<totfact> 0.13652424E+03</totfact>
</mgrwt>
</event>
<event>
 6    4  0.2220150E-003  0.1301714E+03  0.7818608E-02  0.1227202E+00
         -4   -1    0    0    0  501 -0.00000000000E+00  0.00000000000E+00  0.49155201661E+02  0.49171605122E+02  0.12700000000E+01 0. -1.
          4   -1    0    0  502    0  0.00000000000E+00 -0.00000000000E+00 -0.18716122923E+03  0.18716553804E+03  0.12700000000E+01 0. -1.
         25    2    1    2    0    0  0.34382843627E+02  0.11655172655E+02 -0.14952581131E+03  0.19824871443E+03  0.12500624600E+03 0.  0.
    9000005    1    3    3    0    0 -0.14064571359E+02 -0.49872305538E+02 -0.57622702057E+02  0.77501192375E+02  0.10000000000E+01 0.  0.
    9000005    1    3    3    0    0  0.48447414986E+02  0.61527478192E+02 -0.91903109258E+02  0.12074752206E+03  0.10000000000E+01 0.  0.
         21    1    1    2  502  501 -0.34382843627E+02 -0.11655172655E+02  0.11519783742E+02  0.38088428727E+02  0.00000000000E+00 0. -1.
<mgrwt>
<rscale>  1 0.13017137E+03</rscale>
<asrwt>0</asrwt>
<pdfrwt beam="2">  1        4 0.28795628E-01 0.13017137E+03</pdfrwt>
<pdfrwt beam="1">  1       -4 0.75639320E-02 0.13017137E+03</pdfrwt>
<totfact> 0.22658998E+03</totfact>
</mgrwt>
</event>
<event>
 6    4  0.2220150E-003  0.1269847E+03  0.7818608E-02  0.1232000E+00
          4   -1    0    0  502    0  0.00000000000E+00  0.00000000000E+00  0.87007527434E+03  0.87007620121E+03  0.12700000000E+01 0.  1.
         -4   -1    0    0    0  501 -0.00000000000E+00 -0.00000000000E+00 -0.66132628211E+01  0.67341031430E+01  0.12700000000E+01 0.  1.
         25    2    1    2    0    0  0.72809292579E+01  0.21106076669E+02  0.65818931601E+03  0.67032699287E+03  0.12500649283E+03 0.  0.
    9000005    1    3    3    0    0  0.17858502491E+02  0.56500002909E+02  0.58822540490E+03  0.59120326742E+03  0.10000000000E+01 0.  0.
    9000005    1    3    3    0    0 -0.10577573233E+02 -0.35393926241E+02  0.69963911115E+02  0.79123725448E+02  0.10000000000E+01 0.  0.
         21    1    1    2  502  501 -0.72809292579E+01 -0.21106076669E+02  0.20527269551E+03  0.20648331149E+03  0.00000000000E+00 0.  1.
<mgrwt>
<rscale>  1 0.12698465E+03</rscale>
<asrwt>0</asrwt>
<pdfrwt beam="1">  1        4 0.13386715E+00 0.12698465E+03</pdfrwt>
<pdfrwt beam="2">  1       -4 0.10267914E-02 0.12698465E+03</pdfrwt>
<totfact> 0.19484886E+03</totfact>
</mgrwt>
</event>
<event>
 6    4  0.2220150E-003  0.1278449E+03  0.7818608E-02  0.1230689E+00
         -4   -1    0    0    0  501 -0.00000000000E+00  0.00000000000E+00  0.30420739678E+03  0.30421004775E+03  0.12700000000E+01 0.  1.
          4   -1    0    0  502    0  0.00000000000E+00 -0.00000000000E+00 -0.20752075132E+02  0.20790899988E+02  0.12700000000E+01 0.  1.
         25    2    1    2    0    0  0.13169180423E+02 -0.23387471073E+02  0.20031068957E+03  0.23763143956E+03  0.12499571031E+03 0.  0.
    9000005    1    3    3    0    0 -0.25270521241E+02 -0.25371165078E+02  0.22836399963E+01  0.35895825285E+02  0.10000000000E+01 0.  0.
    9000005    1    3    3    0    0  0.38439701664E+02  0.19836940049E+01  0.19802704957E+03  0.20173561428E+03  0.10000000000E+01 0.  0.
         21    1    1    2  502  501 -0.13169180423E+02  0.23387471073E+02  0.83144632076E+02  0.87369508178E+02  0.00000000000E+00 0.  1.
<mgrwt>
<rscale>  1 0.12784494E+03</rscale>
<asrwt>0</asrwt>
<pdfrwt beam="2">  1        4 0.31958176E-02 0.12784494E+03</pdfrwt>
<pdfrwt beam="1">  1       -4 0.46804325E-01 0.12784494E+03</pdfrwt>
<totfact> 0.35028772E+03</totfact>
</mgrwt>
</event>
<event>
 6    4  0.2220150E-003  0.1405656E+03  0.7818608E-02  0.1212570E+00
         -4   -1    0    0    0  501 -0.00000000000E+00  0.00000000000E+00  0.96278965255E+01  0.97112971072E+01  0.12700000000E+01 0.  1.
          4   -1    0    0  502    0  0.00000000000E+00 -0.00000000000E+00 -0.13247697243E+04  0.13247703330E+04  0.12700000000E+01 0.  1.
         25    2    1    2    0    0  0.63535753527E+02  0.93773268288E+01 -0.59052727941E+03  0.60702649756E+03  0.12503589396E+03 0.  0.
    9000005    1    3    3    0    0  0.30853623673E+02 -0.55698530857E+02 -0.34883586558E+03  0.35460080872E+03  0.10000000000E+01 0.  0.
    9000005    1    3    3    0    0  0.32682129853E+02  0.65075857686E+02 -0.24169141383E+03  0.25242568884E+03  0.10000000000E+01 0.  0.
         21    1    1    2  502  501 -0.63535753527E+02 -0.93773268288E+01 -0.72461454836E+03  0.72745513259E+03  0.00000000000E+00 0.  1.
<mgrwt>
<rscale>  1 0.14056565E+03</rscale>
<asrwt>0</asrwt>
<pdfrwt beam="2">  1        4 0.20381705E+00 0.14056565E+03</pdfrwt>
<pdfrwt beam="1">  1       -4 0.14876782E-02 0.14056565E+03</pdfrwt>
<totfact> 0.37260532E+02</totfact>
</mgrwt>
</event>
<event>
 6    4  0.2220150E-003  0.1519002E+03  0.7818608E-02  0.1198157E+00
          4   -1    0    0  502    0  0.00000000000E+00  0.00000000000E+00  0.34175081861E+03  0.34175317837E+03  0.12700000000E+01 0.  1.
         -4   -1    0    0    0  501 -0.00000000000E+00 -0.00000000000E+00 -0.51640104279E+02  0.51655718657E+02  0.12700000000E+01 0.  1.
         25    2    1    2    0    0  0.21110126790E+02  0.83696901411E+02  0.26160165218E+03  0.30250468709E+03  0.12499140982E+03 0.  0.
    9000005    1    3    3    0    0  0.47350811164E+02  0.42590028240E+01  0.29927943699E+02  0.56186477350E+02  0.10000000000E+01 0.  0.
    9000005    1    3    3    0    0 -0.26240684373E+02  0.79437898587E+02  0.23167370848E+03  0.24631820974E+03  0.10000000000E+01 0.  0.
         21    1    1    2  502  501 -0.21110126790E+02 -0.83696901411E+02  0.28509062158E+02  0.90904209936E+02  0.00000000000E+00 0.  1.
<mgrwt>
<rscale>  1 0.15190017E+03</rscale>
<asrwt>0</asrwt>
<pdfrwt beam="1">  1        4 0.52578431E-01 0.15190017E+03</pdfrwt>
<pdfrwt beam="2">  1       -4 0.79460142E-02 0.15190017E+03</pdfrwt>
<totfact> 0.66146482E+02</totfact>
</mgrwt>
</event>
<event>
 6    4  0.2220150E-003  0.1276471E+03  0.7818608E-02  0.1230989E+00
          4   -1    0    0  502    0  0.00000000000E+00  0.00000000000E+00  0.16140001984E+03  0.16140501636E+03  0.12700000000E+01 0. -1.
         -4   -1    0    0    0  501 -0.00000000000E+00 -0.00000000000E+00 -0.49883226016E+02  0.49899390154E+02  0.12700000000E+01 0. -1.
         25    2    1    2    0    0  0.24500341780E+02 -0.82379036151E+01  0.12790183867E+03  0.18070049340E+03  0.12500263267E+03 0.  0.
    9000005    1    3    3    0    0 -0.29953568256E+02 -0.49604194300E+02  0.71596893978E+02  0.92113558018E+02  0.10000000000E+01 0.  0.
    9000005    1    3    3    0    0  0.54453910036E+02  0.41366290685E+02  0.56304944691E+02  0.88586935379E+02  0.10000000000E+01 0.  0.
         21    1    1    2  502  501 -0.24500341780E+02  0.82379036151E+01 -0.16385044844E+02  0.30603913113E+02  0.00000000000E+00 0. -1.
<mgrwt>
<rscale>  1 0.12764712E+03</rscale>
<asrwt>0</asrwt>
<pdfrwt beam="1">  1        4 0.24832400E-01 0.12764712E+03</pdfrwt>
<pdfrwt beam="2">  1       -4 0.76759701E-02 0.12764712E+03</pdfrwt>
<totfact> 0.28992911E+03</totfact>
</mgrwt>
</event>
<event>
 6    4  0.2220150E-003  0.1273870E+03  0.7818608E-02  0.1231385E+00
          4   -1    0    0  502    0  0.00000000000E+00  0.00000000000E+00  0.18022126326E+03  0.18022573798E+03  0.12700000000E+01 0. -1.
         -4   -1    0    0    0  501 -0.00000000000E+00 -0.00000000000E+00 -0.64697612116E+02  0.64710075827E+02  0.12700000000E+01 0. -1.
         25    2    1    2    0    0 -0.13347199175E+02 -0.20622873872E+02  0.15364495210E+03  0.19958513311E+03  0.12499601355E+03 0.  0.
    9000005    1    3    3    0    0  0.38346321122E+02 -0.97925091958E+01  0.27204699217E+01  0.39682925000E+02  0.10000000000E+01 0.  0.
    9000005    1    3    3    0    0 -0.51693520297E+02 -0.10830364676E+02  0.15092448218E+03  0.15990220811E+03  0.10000000000E+01 0.  0.
         21    1    1    2  502  501  0.13347199175E+02  0.20622873872E+02 -0.38121300957E+02  0.45350680692E+02  0.00000000000E+00 0. -1.
<mgrwt>
<rscale>  1 0.12738702E+03</rscale>
<asrwt>0</asrwt>
<pdfrwt beam="1">  1        4 0.27727651E-01 0.12738702E+03</pdfrwt>
<pdfrwt beam="2">  1       -4 0.99547818E-02 0.12738702E+03</pdfrwt>
<totfact> 0.15318638E+03</totfact>
</mgrwt>
</event>
<event>
 6    4  0.2220150E-003  0.1295082E+03  0.7818608E-02  0.1228187E+00
         -4   -1    0    0    0  501 -0.00000000000E+00  0.00000000000E+00  0.38394939965E+03  0.38395150005E+03  0.12700000000E+01 0.  1.
          4   -1    0    0  502    0  0.00000000000E+00 -0.00000000000E+00 -0.23789263697E+02  0.23823139324E+02  0.12700000000E+01 0.  1.
         25    2    1    2    0    0  0.18425758195E+02  0.28424985537E+02  0.16529779751E+03  0.20998985910E+03  0.12499956277E+03 0.  0.
    9000005    1    3    3    0    0 -0.50293283069E+02  0.27884438626E+02  0.99012146748E+02  0.11450485336E+03  0.10000000000E+01 0.  0.
    9000005    1    3    3    0    0  0.68719041264E+02  0.54054691026E+00  0.66285650764E+02  0.95485005736E+02  0.10000000000E+01 0.  0.
         21    1    1    2  502  501 -0.18425758195E+02 -0.28424985537E+02  0.19486233844E+03  0.19778478028E+03  0.00000000000E+00 0.  1.
<mgrwt>
<rscale>  1 0.12950822E+03</rscale>
<asrwt>0</asrwt>
<pdfrwt beam="2">  1        4 0.36626542E-02 0.12950822E+03</pdfrwt>
<pdfrwt beam="1">  1       -4 0.59071905E-01 0.12950822E+03</pdfrwt>
<totfact> 0.17583250E+03</totfact>
</mgrwt>
</event>
<event>
 6    4  0.2220150E-003  0.1271196E+03  0.7818608E-02  0.1231793E+00
         -4   -1    0    0    0  501 -0.00000000000E+00  0.00000000000E+00  0.13994848922E+02  0.14052355545E+02  0.12700000000E+01 0.  1.
          4   -1    0    0  502    0  0.00000000000E+00 -0.00000000000E+00 -0.48081369930E+03  0.48081537656E+03  0.12700000000E+01 0.  1.
         25    2    1    2    0    0 -0.10894576005E+01 -0.23195308397E+02 -0.44572031125E+03  0.46349325836E+03  0.12498078026E+03 0.  0.
    9000005    1    3    3    0    0  0.12053123129E+02  0.41817190896E+01 -0.42825594340E+03  0.42844710013E+03  0.10000000000E+01 0.  0.
    9000005    1    3    3    0    0 -0.13142580729E+02 -0.27377027487E+02 -0.17464367850E+02  0.35046158229E+02  0.10000000000E+01 0.  0.
         21    1    1    2  502  501  0.10894576005E+01  0.23195308397E+02 -0.21098539131E+02  0.31374473748E+02  0.00000000000E+00 0.  1.
<mgrwt>
<rscale>  1 0.12711965E+03</rscale>
<asrwt>0</asrwt>
<pdfrwt beam="2">  1        4 0.73975878E-01 0.12711965E+03</pdfrwt>
<pdfrwt beam="1">  1       -4 0.21576067E-02 0.12711965E+03</pdfrwt>
<totfact> 0.24740358E+03</totfact>
</mgrwt>
</event>
<event>
 6    4  0.2220150E-003  0.1320359E+03  0.7818608E-02  0.1224466E+00
         -4   -1    0    0    0  501 -0.00000000000E+00  0.00000000000E+00  0.67105829577E+03  0.67105949752E+03  0.12700000000E+01 0. -1.
          4   -1    0    0  502    0  0.00000000000E+00 -0.00000000000E+00 -0.11756996812E+02  0.11825391073E+02  0.12700000000E+01 0. -1.
         25    2    1    2    0    0  0.14154498843E+02 -0.39926601504E+02  0.55086823736E+03  0.56647091954E+03  0.12505600508E+03 0.  0.
    9000005    1    3    3    0    0  0.20000777954E+02 -0.48784719529E+01  0.74883077811E+01  0.21929554505E+02  0.10000000000E+01 0.  0.
    9000005    1    3    3    0    0 -0.58462791111E+01 -0.35048129551E+02  0.54337992958E+03  0.54454136503E+03  0.10000000000E+01 0.  0.
         21    1    1    2  502  501 -0.14154498843E+02  0.39926601504E+02  0.10843306159E+03  0.11641396906E+03  0.00000000000E+00 0. -1.
<mgrwt>
<rscale>  1 0.13203593E+03</rscale>
<asrwt>0</asrwt>
<pdfrwt beam="2">  1        4 0.18141219E-02 0.13203593E+03</pdfrwt>
<pdfrwt beam="1">  1       -4 0.10324511E+00 0.13203593E+03</pdfrwt>
<totfact> 0.15405630E+03</totfact>
</mgrwt>
</event>
<event>
 6    4  0.2220150E-003  0.1274799E+03  0.7818608E-02  0.1231244E+00
          4   -1    0    0  502    0  0.00000000000E+00  0.00000000000E+00  0.84794573236E+03  0.84794668342E+03  0.12700000000E+01 0. -1.
         -4   -1    0    0    0  501 -0.00000000000E+00 -0.00000000000E+00 -0.68980398574E+01  0.70139756111E+01  0.12700000000E+01 0. -1.
         25    2    1    2    0    0  0.21639372035E+02 -0.12601988291E+02  0.73685180253E+03  0.74779790423E+03  0.12499621651E+03 0.  0.
    9000005    1    3    3    0    0 -0.36497986222E+02 -0.38415114221E+02  0.18983979872E+03  0.19709889188E+03  0.10000000000E+01 0.  0.
    9000005    1    3    3    0    0  0.58137358257E+02  0.25813125930E+02  0.54701200381E+03  0.55069901235E+03  0.10000000000E+01 0.  0.
         21    1    1    2  502  501 -0.21639372035E+02  0.12601988291E+02  0.10419588997E+03  0.10716275480E+03  0.00000000000E+00 0.  1.
<mgrwt>
<rscale>  1 0.12747991E+03</rscale>
<asrwt>0</asrwt>
<pdfrwt beam="1">  1        4 0.13046215E+00 0.12747991E+03</pdfrwt>
<pdfrwt beam="2">  1       -4 0.10702285E-02 0.12747991E+03</pdfrwt>
<totfact> 0.19516461E+03</totfact>
</mgrwt>
</event>
<event>
 6    4  0.2220150E-003  0.1268344E+03  0.7818608E-02  0.1232230E+00
         -4   -1    0    0    0  501 -0.00000000000E+00  0.00000000000E+00  0.10551845024E+02  0.10627997620E+02  0.12700000000E+01 0.  1.
          4   -1    0    0  502    0  0.00000000000E+00 -0.00000000000E+00 -0.10075387819E+04  0.10075395823E+04  0.12700000000E+01 0.  1.
         25    2    1    2    0    0 -0.18007175591E+02  0.11747043921E+02 -0.98581019141E+03  0.99393596725E+03  0.12499888832E+03 0.  0.
    9000005    1    3    3    0    0  0.42053262641E+02  0.11286696791E+02 -0.15633061227E+03  0.16228409274E+03  0.10000000000E+01 0.  0.
    9000005    1    3    3    0    0 -0.60060438232E+02  0.46034712919E+00 -0.82947957914E+03  0.83165187451E+03  0.10000000000E+01 0.  0.
         21    1    1    2  502  501  0.18007175591E+02 -0.11747043921E+02 -0.11176745437E+02  0.24231612662E+02  0.00000000000E+00 0.  1.
<mgrwt>
<rscale>  1 0.12683443E+03</rscale>
<asrwt>0</asrwt>
<pdfrwt beam="2">  1        4 0.15501181E+00 0.12683443E+03</pdfrwt>
<pdfrwt beam="1">  1       -4 0.16292810E-02 0.12683443E+03</pdfrwt>
<totfact> 0.66935285E+02</totfact>
</mgrwt>
</event>
<event>
 6    4  0.2220150E-003  0.1267385E+03  0.7818608E-02  0.1232377E+00
          4   -1    0    0  502    0  0.00000000000E+00  0.00000000000E+00  0.45561269292E+03  0.45561446295E+03  0.12700000000E+01 0.  1.
         -4   -1    0    0    0  501 -0.00000000000E+00 -0.00000000000E+00 -0.12037462949E+02  0.12104272561E+02  0.12700000000E+01 0.  1.
         25    2    1    2    0    0  0.57642122483E+01  0.20121932247E+02  0.39473770007E+03  0.41458472920E+03  0.12499811009E+03 0.  0.
    9000005    1    3    3    0    0 -0.52070503366E+00 -0.49627610876E+02  0.10004600652E+03  0.11168426172E+03  0.10000000000E+01 0.  0.
    9000005    1    3    3    0    0  0.62849172820E+01  0.69749543123E+02  0.29469169356E+03  0.30290046748E+03  0.10000000000E+01 0.  0.
         21    1    1    2  502  501 -0.57642122483E+01 -0.20121932247E+02  0.48837529895E+02  0.53134006309E+02  0.00000000000E+00 0.  1.
<mgrwt>
<rscale>  1 0.12673849E+03</rscale>
<asrwt>0</asrwt>
<pdfrwt beam="1">  1        4 0.70099532E-01 0.12673849E+03</pdfrwt>
<pdfrwt beam="2">  1       -4 0.18571928E-02 0.12673849E+03</pdfrwt>
<totfact> 0.34985114E+03</totfact>
</mgrwt>
</event>
<event>
 6    4  0.2220150E-003  0.1272651E+03  0.7818608E-02  0.1231571E+00
         -4   -1    0    0    0  501 -0.00000000000E+00  0.00000000000E+00  0.31420158475E+03  0.31420415140E+03  0.12700000000E+01 0. -1.
          4   -1    0    0  502    0  0.00000000000E+00 -0.00000000000E+00 -0.25042693506E+03  0.25043015534E+03  0.12700000000E+01 0. -1.
         25    2    1    2    0    0 -0.19662516070E+02  0.13695515964E+02 -0.23374837456E+03  0.26614790562E+03  0.12498889296E+03 0.  0.
    9000005    1    3    3    0    0 -0.55054735925E+02  0.32470540899E+02 -0.21011099021E+03  0.21962009967E+03  0.10000000000E+01 0.  0.
    9000005    1    3    3    0    0  0.35392219854E+02 -0.18775024935E+02 -0.23637384346E+02  0.46527805947E+02  0.10000000000E+01 0.  0.
         21    1    1    2  502  501  0.19662516070E+02 -0.13695515964E+02  0.29752302425E+03  0.29848640112E+03  0.00000000000E+00 0. -1.
<mgrwt>
<rscale>  1 0.12726510E+03</rscale>
<asrwt>0</asrwt>
<pdfrwt beam="2">  1        4 0.38527666E-01 0.12726510E+03</pdfrwt>
<pdfrwt beam="1">  1       -4 0.48339150E-01 0.12726510E+03</pdfrwt>
<totfact> 0.45497142E+01</totfact>
</mgrwt>
</event>
<event>
 6    4  0.2220150E-003  0.1302892E+03  0.7818608E-02  0.1227027E+00
         -4   -1    0    0    0  501 -0.00000000000E+00  0.00000000000E+00  0.23295974967E+04  0.23295978428E+04  0.12700000000E+01 0. -1.
          4   -1    0    0  502    0  0.00000000000E+00 -0.00000000000E+00 -0.28612767816E+01  0.31304639945E+01  0.12700000000E+01 0. -1.
         25    2    1    2    0    0  0.33138876697E+02 -0.15884451055E+02  0.17898167351E+04  0.17945526532E+04  0.12499911693E+03 0.  0.
    9000005    1    3    3    0    0 -0.32319559390E+02 -0.46509007991E+02  0.65986722205E+03  0.66229403778E+03  0.10000000000E+01 0.  0.
    9000005    1    3    3    0    0  0.65458436087E+02  0.30624556936E+02  0.11299495130E+04  0.11322586155E+04  0.10000000000E+01 0.  0.
         21    1    1    2  502  501 -0.33138876697E+02  0.15884451055E+02  0.53691948481E+03  0.53817565358E+03  0.00000000000E+00 0. -1.
<mgrwt>
<rscale>  1 0.13028922E+03</rscale>
<asrwt>0</asrwt>
<pdfrwt beam="2">  1        4 0.46093196E-03 0.13028922E+03</pdfrwt>
<pdfrwt beam="1">  1       -4 0.35841864E+00 0.13028922E+03</pdfrwt>
<totfact> 0.26351510E+02</totfact>
</mgrwt>
</event>
<event>
 6    4  0.2220150E-003  0.1266145E+03  0.7818608E-02  0.1232567E+00
         -4   -1    0    0    0  501 -0.00000000000E+00  0.00000000000E+00  0.14000972795E+02  0.14058454367E+02  0.12700000000E+01 0.  1.
          4   -1    0    0  502    0  0.00000000000E+00 -0.00000000000E+00 -0.39437499663E+03  0.39437704151E+03  0.12700000000E+01 0.  1.
         25    2    1    2    0    0 -0.17127148023E+02 -0.10809066793E+02 -0.30158743391E+03  0.32708746654E+03  0.12498422041E+03 0.  0.
    9000005    1    3    3    0    0  0.72275214916E+01  0.34293071694E+02 -0.25628499188E+03  0.25867208759E+03  0.10000000000E+01 0.  0.
    9000005    1    3    3    0    0 -0.24354669515E+02 -0.45102138488E+02 -0.45302442025E+02  0.68415378949E+02  0.10000000000E+01 0.  0.
         21    1    1    2  502  501  0.17127148023E+02  0.10809066793E+02 -0.78786589931E+02  0.81348029339E+02  0.00000000000E+00 0. -1.
<mgrwt>
<rscale>  1 0.12661450E+03</rscale>
<asrwt>0</asrwt>
<pdfrwt beam="2">  1        4 0.60677647E-01 0.12661450E+03</pdfrwt>
<pdfrwt beam="1">  1       -4 0.21585751E-02 0.12661450E+03</pdfrwt>
<totfact> 0.37729150E+03</totfact>
</mgrwt>
</event>
<event>
 6    4  0.2220150E-003  0.1445377E+03  0.7818608E-02  0.1207350E+00
         -4   -1    0    0    0  501 -0.00000000000E+00  0.00000000000E+00  0.57235259997E+02  0.57249348354E+02  0.12700000000E+01 0. -1.
          4   -1    0    0  502    0  0.00000000000E+00 -0.00000000000E+00 -0.20613809135E+03  0.20614200350E+03  0.12700000000E+01 0. -1.
         25    2    1    2    0    0  0.22463258599E+02  0.69006905313E+02 -0.10376846929E+03  0.17792988915E+03  0.12499839706E+03 0.  0.
    9000005    1    3    3    0    0  0.28536506943E+01  0.83181255515E+02 -0.12194939920E+03  0.14764796157E+03  0.10000000000E+01 0.  0.
    9000005    1    3    3    0    0  0.19609607905E+02 -0.14174350202E+02  0.18180929907E+02  0.30281927583E+02  0.10000000000E+01 0.  0.
         21    1    1    2  502  501 -0.22463258599E+02 -0.69006905313E+02 -0.45134362068E+02  0.85461462702E+02  0.00000000000E+00 0. -1.
<mgrwt>
<rscale>  1 0.14453771E+03</rscale>
<asrwt>0</asrwt>
<pdfrwt beam="2">  1        4 0.31714937E-01 0.14453771E+03</pdfrwt>
<pdfrwt beam="1">  1       -4 0.88068093E-02 0.14453771E+03</pdfrwt>
<totfact> 0.15005584E+03</totfact>
</mgrwt>
</event>
<event>
 6    4  0.2220150E-003  0.1344089E+03  0.7818608E-02  0.1221056E+00
         -4   -1    0    0    0  501 -0.00000000000E+00  0.00000000000E+00  0.67398577563E+03  0.67398697217E+03  0.12700000000E+01 0.  1.
          4   -1    0    0  502    0  0.00000000000E+00 -0.00000000000E+00 -0.12619349757E+02  0.12683094586E+02  0.12700000000E+01 0.  1.
         25    2    1    2    0    0  0.32011393737E+02 -0.37636715315E+02  0.51173371388E+03  0.52909087978E+03  0.12499805389E+03 0.  0.
    9000005    1    3    3    0    0 -0.13013151865E+02  0.18583287296E+02  0.15123887481E+02  0.27283926783E+02  0.10000000000E+01 0.  0.
    9000005    1    3    3    0    0  0.45024545602E+02 -0.56220002611E+02  0.49660982640E+03  0.50180695300E+03  0.10000000000E+01 0.  0.
         21    1    1    2  502  501 -0.32011393737E+02  0.37636715315E+02  0.14963271199E+03  0.15757918697E+03  0.00000000000E+00 0.  1.
<mgrwt>
<rscale>  1 0.13440895E+03</rscale>
<asrwt>0</asrwt>
<pdfrwt beam="2">  1        4 0.19464342E-02 0.13440895E+03</pdfrwt>
<pdfrwt beam="1">  1       -4 0.10369510E+00 0.13440895E+03</pdfrwt>
<totfact> 0.13739337E+03</totfact>
</mgrwt>
</event>
<event>
 6    4  0.2220150E-003  0.1884301E+03  0.7818608E-02  0.1159885E+00
         -4   -1    0    0    0  501 -0.00000000000E+00  0.00000000000E+00  0.19947044192E+03  0.19947448483E+03  0.12700000000E+01 0. -1.
          4   -1    0    0  502    0  0.00000000000E+00 -0.00000000000E+00 -0.14973432902E+03  0.14973971480E+03  0.12700000000E+01 0. -1.
         25    2    1    2    0    0 -0.31359979552E+02  0.13744260374E+03 -0.24283667075E+02  0.18998843078E+03  0.12502795569E+03 0.  0.
    9000005    1    3    3    0    0 -0.68910519282E+02  0.12348752417E+03 -0.39966995245E+02  0.14695641872E+03  0.10000000000E+01 0.  0.
    9000005    1    3    3    0    0  0.37550539730E+02  0.13955079569E+02  0.15683328170E+02  0.43032012064E+02  0.10000000000E+01 0.  0.
         21    1    1    2  502  501  0.31359979552E+02 -0.13744260374E+03  0.74019779971E+02  0.15922576885E+03  0.00000000000E+00 0. -1.
<mgrwt>
<rscale>  1 0.18843011E+03</rscale>
<asrwt>0</asrwt>
<pdfrwt beam="2">  1        4 0.23036776E-01 0.18843011E+03</pdfrwt>
<pdfrwt beam="1">  1       -4 0.30688486E-01 0.18843011E+03</pdfrwt>
<totfact> 0.31264681E+02</totfact>
</mgrwt>
</event>
<event>
 6    4  0.2220150E-003  0.1284560E+03  0.7818608E-02  0.1229765E+00
         -4   -1    0    0    0  501 -0.00000000000E+00  0.00000000000E+00  0.29153945371E+02  0.29181594039E+02  0.12700000000E+01 0. -1.
          4   -1    0    0  502    0  0.00000000000E+00 -0.00000000000E+00 -0.36431544403E+03  0.36431765763E+03  0.12700000000E+01 0. -1.
         25    2    1    2    0    0 -0.11798365012E+01  0.29561299192E+02 -0.34005869018E+03  0.36351183916E+03  0.12500272804E+03 0.  0.
    9000005    1    3    3    0    0 -0.36292591443E+02  0.36436410992E+02 -0.31651973463E+03  0.32067196112E+03  0.10000000000E+01 0.  0.
    9000005    1    3    3    0    0  0.35112754942E+02 -0.68751117996E+01 -0.23538955556E+02  0.42839878041E+02  0.10000000000E+01 0.  0.
         21    1    1    2  502  501  0.11798365012E+01 -0.29561299192E+02  0.48971915222E+01  0.29987412508E+02  0.00000000000E+00 0. -1.
<mgrwt>
<rscale>  1 0.12845600E+03</rscale>
<asrwt>0</asrwt>
<pdfrwt beam="2">  1        4 0.56050824E-01 0.12845600E+03</pdfrwt>
<pdfrwt beam="1">  1       -4 0.44875197E-02 0.12845600E+03</pdfrwt>
<totfact> 0.14181414E+03</totfact>
</mgrwt>
</event>
