<event>
 5    1  0.3296424E-002  0.1249999E+03  0.7818608E-02  0.1235069E+00
         -4   -1    0    0    0  501 -0.00000000000E+00  0.00000000000E+00  0.17681770849E+02  0.17727321296E+02  0.12700000000E+01 0. -1.
          4   -1    0    0  501    0  0.00000000000E+00 -0.00000000000E+00 -0.22058775207E+03  0.22059140795E+03  0.12700000000E+01 0. -1.
         25    2    1    2    0    0  0.00000000000E+00  0.00000000000E+00 -0.20290598122E+03  0.23831872925E+03  0.12499991798E+03 0.  0.
    9000005    1    3    3    0    0 -0.25815556409E+02 -0.18918726340E+02  0.87897371209E+00  0.32033322553E+02  0.10000000000E+01 0.  0.
    9000005    1    3    3    0    0  0.25815556409E+02  0.18918726340E+02 -0.20378495493E+03  0.20628540670E+03  0.10000000000E+01 0.  0.
<mgrwt>
<rscale>  0 0.12499992E+03</rscale>
<asrwt>0</asrwt>
<pdfrwt beam="2">  1        4 0.33940360E-01 0.12499992E+03</pdfrwt>
<pdfrwt beam="1">  1       -4 0.27240577E-02 0.12499992E+03</pdfrwt>
<totfact> 0.84048556E+03</totfact>
</mgrwt>
</event>
<event>
 5    1  0.3296424E-002  0.1249657E+03  0.7818608E-02  0.1235123E+00
         -4   -1    0    0    0  501 -0.00000000000E+00  0.00000000000E+00  0.93835531307E+02  0.93844125206E+02  0.12700000000E+01 0.  1.
          4   -1    0    0  501    0  0.00000000000E+00 -0.00000000000E+00 -0.41585649236E+02  0.41605037224E+02  0.12700000000E+01 0.  1.
         25    2    1    2    0    0  0.00000000000E+00  0.00000000000E+00  0.52249882071E+02  0.13544916243E+03  0.12496569700E+03 0.  0.
    9000005    1    3    3    0    0  0.15119274609E+02  0.55193093863E+02  0.53292274596E+02  0.78204453879E+02  0.10000000000E+01 0.  0.
    9000005    1    3    3    0    0 -0.15119274609E+02 -0.55193093863E+02 -0.10423925255E+01  0.57244708550E+02  0.10000000000E+01 0.  0.
<mgrwt>
<rscale>  0 0.12496570E+03</rscale>
<asrwt>0</asrwt>
<pdfrwt beam="2">  1        4 0.63999446E-02 0.12496570E+03</pdfrwt>
<pdfrwt beam="1">  1       -4 0.14438388E-01 0.12496570E+03</pdfrwt>
<totfact> 0.10236529E+04</totfact>
</mgrwt>
</event>
<event>
 5    1  0.3296424E-002  0.1250034E+03  0.7818608E-02  0.1235064E+00
          4   -1    0    0  501    0  0.00000000000E+00  0.00000000000E+00  0.86381801841E+02  0.86391137215E+02  0.12700000000E+01 0. -1.
         -4   -1    0    0    0  501 -0.00000000000E+00 -0.00000000000E+00 -0.45202504186E+02  0.45220341492E+02  0.12700000000E+01 0. -1.
         25    2    1    2    0    0  0.00000000000E+00  0.00000000000E+00  0.41179297655E+02  0.13161147871E+03  0.12500338704E+03 0.  0.
    9000005    1    3    3    0    0 -0.18641549096E+02  0.33157207582E+02 -0.31615321979E+02  0.49471571141E+02  0.10000000000E+01 0.  0.
    9000005    1    3    3    0    0  0.18641549096E+02 -0.33157207582E+02  0.72794619634E+02  0.82139907566E+02  0.10000000000E+01 0.  0.
<mgrwt>
<rscale>  0 0.12500339E+03</rscale>
<asrwt>0</asrwt>
<pdfrwt beam="1">  1        4 0.13291598E-01 0.12500339E+03</pdfrwt>
<pdfrwt beam="2">  1       -4 0.69563217E-02 0.12500339E+03</pdfrwt>
<totfact> 0.10309210E+04</totfact>
</mgrwt>
</event>
<event>
 5    1  0.3296424E-002  0.1249944E+03  0.7818608E-02  0.1235078E+00
          4   -1    0    0  501    0  0.00000000000E+00  0.00000000000E+00  0.20667014641E+02  0.20705998990E+02  0.12700000000E+01 0.  1.
         -4   -1    0    0    0  501 -0.00000000000E+00 -0.00000000000E+00 -0.18877264188E+03  0.18877691390E+03  0.12700000000E+01 0.  1.
         25    2    1    2    0    0  0.00000000000E+00  0.00000000000E+00 -0.16810562724E+03  0.20948291289E+03  0.12499435541E+03 0.  0.
    9000005    1    3    3    0    0  0.38075120172E+01 -0.61460006721E+02 -0.66232006067E+02  0.90440633575E+02  0.10000000000E+01 0.  0.
    9000005    1    3    3    0    0 -0.38075120172E+01  0.61460006721E+02 -0.10187362117E+03  0.11904227931E+03  0.10000000000E+01 0.  0.
<mgrwt>
<rscale>  0 0.12499436E+03</rscale>
<asrwt>0</asrwt>
<pdfrwt beam="1">  1        4 0.31828683E-02 0.12499436E+03</pdfrwt>
<pdfrwt beam="2">  1       -4 0.29045271E-01 0.12499436E+03</pdfrwt>
<totfact> 0.88571575E+03</totfact>
</mgrwt>
</event>
<event>
 5    1  0.3296424E-002  0.1250026E+03  0.7818608E-02  0.1235065E+00
         -4   -1    0    0    0  501 -0.00000000000E+00  0.00000000000E+00  0.40353592269E+03  0.40353792115E+03  0.12700000000E+01 0.  1.
          4   -1    0    0  501    0  0.00000000000E+00 -0.00000000000E+00 -0.96367734055E+01  0.97200978220E+01  0.12700000000E+01 0.  1.
         25    2    1    2    0    0  0.00000000000E+00  0.00000000000E+00  0.39389914929E+03  0.41325801897E+03  0.12500260170E+03 0.  0.
    9000005    1    3    3    0    0  0.55125229260E+02 -0.63676574020E+00  0.99649001749E+02  0.11388643432E+03  0.10000000000E+01 0.  0.
    9000005    1    3    3    0    0 -0.55125229260E+02  0.63676574020E+00  0.29425014754E+03  0.29937158465E+03  0.10000000000E+01 0.  0.
<mgrwt>
<rscale>  0 0.12500260E+03</rscale>
<asrwt>0</asrwt>
<pdfrwt beam="2">  1        4 0.14891439E-02 0.12500260E+03</pdfrwt>
<pdfrwt beam="1">  1       -4 0.62089008E-01 0.12500260E+03</pdfrwt>
<totfact> 0.63279806E+03</totfact>
</mgrwt>
</event>
<event>
 5    1  0.3296424E-002  0.1250082E+03  0.7818608E-02  0.1235056E+00
         -4   -1    0    0    0  501 -0.00000000000E+00  0.00000000000E+00  0.85941062015E+03  0.85941155852E+03  0.12700000000E+01 0.  1.
          4   -1    0    0  501    0  0.00000000000E+00 -0.00000000000E+00 -0.44562003760E+01  0.46336402311E+01  0.12700000000E+01 0.  1.
         25    2    1    2    0    0  0.00000000000E+00  0.00000000000E+00  0.85495441977E+03  0.86404519875E+03  0.12500818214E+03 0.  0.
    9000005    1    3    3    0    0  0.37238871372E+02  0.99498695944E+01  0.76750014577E+03  0.76846809120E+03  0.10000000000E+01 0.  0.
    9000005    1    3    3    0    0 -0.37238871372E+02 -0.99498695944E+01  0.87454274005E+02  0.95577107551E+02  0.10000000000E+01 0.  0.
<mgrwt>
<rscale>  0 0.12500818E+03</rscale>
<asrwt>0</asrwt>
<pdfrwt beam="2">  1        4 0.69929059E-03 0.12500818E+03</pdfrwt>
<pdfrwt beam="1">  1       -4 0.13223076E+00 0.12500818E+03</pdfrwt>
<totfact> 0.35553019E+03</totfact>
</mgrwt>
</event>
<event>
 5    1  0.3296424E-002  0.1250061E+03  0.7818608E-02  0.1235060E+00
          4   -1    0    0  501    0  0.00000000000E+00  0.00000000000E+00  0.34707161225E+01  0.36957773746E+01  0.12700000000E+01 0. -1.
         -4   -1    0    0    0  501 -0.00000000000E+00 -0.00000000000E+00 -0.10900238323E+04  0.10900245721E+04  0.12700000000E+01 0. -1.
         25    2    1    2    0    0  0.00000000000E+00  0.00000000000E+00 -0.10865531161E+04  0.10937203495E+04  0.12500611457E+03 0.  0.
    9000005    1    3    3    0    0  0.12846278053E+02  0.15789155678E+02 -0.10602510437E+04  0.10604468869E+04  0.10000000000E+01 0.  0.
    9000005    1    3    3    0    0 -0.12846278053E+02 -0.15789155678E+02 -0.26302072445E+02  0.33273462575E+02  0.10000000000E+01 0.  0.
<mgrwt>
<rscale>  0 0.12500611E+03</rscale>
<asrwt>0</asrwt>
<pdfrwt beam="1">  1        4 0.55132651E-03 0.12500611E+03</pdfrwt>
<pdfrwt beam="2">  1       -4 0.16771308E+00 0.12500611E+03</pdfrwt>
<totfact> 0.27664264E+03</totfact>
</mgrwt>
</event>
<event>
 5    1  0.3296424E-002  0.1249996E+03  0.7818608E-02  0.1235070E+00
          4   -1    0    0  501    0  0.00000000000E+00  0.00000000000E+00  0.19060504350E+04  0.19060508581E+04  0.12700000000E+01 0. -1.
         -4   -1    0    0    0  501 -0.00000000000E+00 -0.00000000000E+00 -0.18521647128E+01  0.22457546891E+01  0.12700000000E+01 0. -1.
         25    2    1    2    0    0  0.00000000000E+00  0.00000000000E+00  0.19041982703E+04  0.19082966128E+04  0.12499963927E+03 0.  0.
    9000005    1    3    3    0    0  0.91342882491E+01 -0.60513311171E+02  0.75903393742E+03  0.76149774406E+03  0.10000000000E+01 0.  0.
    9000005    1    3    3    0    0 -0.91342882491E+01  0.60513311171E+02  0.11451643328E+04  0.11467988687E+04  0.10000000000E+01 0.  0.
<mgrwt>
<rscale>  0 0.12499964E+03</rscale>
<asrwt>0</asrwt>
<pdfrwt beam="1">  1        4 0.29326800E+00 0.12499964E+03</pdfrwt>
<pdfrwt beam="2">  1       -4 0.31525801E-03 0.12499964E+03</pdfrwt>
<totfact> 0.11106202E+03</totfact>
</mgrwt>
</event>
<event>
 5    1  0.3296424E-002  0.1249988E+03  0.7818608E-02  0.1235071E+00
         -4   -1    0    0    0  501 -0.00000000000E+00  0.00000000000E+00  0.10354299312E+02  0.10431894087E+02  0.12700000000E+01 0.  1.
          4   -1    0    0  501    0  0.00000000000E+00 -0.00000000000E+00 -0.37576466783E+03  0.37576681398E+03  0.12700000000E+01 0.  1.
         25    2    1    2    0    0  0.00000000000E+00  0.00000000000E+00 -0.36541036852E+03  0.38619870807E+03  0.12499881877E+03 0.  0.
    9000005    1    3    3    0    0 -0.53668829025E+02  0.13408571769E+02 -0.27251924965E+03  0.27807889966E+03  0.10000000000E+01 0.  0.
    9000005    1    3    3    0    0  0.53668829025E+02 -0.13408571769E+02 -0.92891118868E+02  0.10811980841E+03  0.10000000000E+01 0.  0.
<mgrwt>
<rscale>  0 0.12499882E+03</rscale>
<asrwt>0</asrwt>
<pdfrwt beam="2">  1        4 0.57816072E-01 0.12499882E+03</pdfrwt>
<pdfrwt beam="1">  1       -4 0.15991033E-02 0.12499882E+03</pdfrwt>
<totfact> 0.65919315E+03</totfact>
</mgrwt>
</event>
<event>
 5    1  0.3296424E-002  0.1250023E+03  0.7818608E-02  0.1235066E+00
         -4   -1    0    0    0  501 -0.00000000000E+00  0.00000000000E+00  0.89564489945E+02  0.89573493619E+02  0.12700000000E+01 0. -1.
          4   -1    0    0  501    0  0.00000000000E+00 -0.00000000000E+00 -0.43594978641E+02  0.43613473408E+02  0.12700000000E+01 0. -1.
         25    2    1    2    0    0  0.00000000000E+00  0.00000000000E+00  0.45969511304E+02  0.13318696703E+03  0.12500228884E+03 0.  0.
    9000005    1    3    3    0    0  0.58011159591E+02 -0.28016456117E+01 -0.15963420038E+01  0.58109312189E+02  0.10000000000E+01 0.  0.
    9000005    1    3    3    0    0 -0.58011159591E+02  0.28016456117E+01  0.47565853308E+02  0.75077654839E+02  0.10000000000E+01 0.  0.
<mgrwt>
<rscale>  0 0.12500229E+03</rscale>
<asrwt>0</asrwt>
<pdfrwt beam="2">  1        4 0.67090351E-02 0.12500229E+03</pdfrwt>
<pdfrwt beam="1">  1       -4 0.13781267E-01 0.12500229E+03</pdfrwt>
<totfact> 0.10275897E+04</totfact>
</mgrwt>
</event>
<event>
 5    1  0.3296424E-002  0.1250136E+03  0.7818608E-02  0.1235048E+00
         -4   -1    0    0    0  501 -0.00000000000E+00  0.00000000000E+00  0.15340937161E+02  0.15393415897E+02  0.12700000000E+01 0. -1.
          4   -1    0    0  501    0  0.00000000000E+00 -0.00000000000E+00 -0.25419581752E+03  0.25419899006E+03  0.12700000000E+01 0. -1.
         25    2    1    2    0    0  0.00000000000E+00  0.00000000000E+00 -0.23885488036E+03  0.26959240595E+03  0.12501364516E+03 0.  0.
    9000005    1    3    3    0    0  0.49704202516E+02 -0.30054979064E+01 -0.37976598325E+02  0.62631962973E+02  0.10000000000E+01 0.  0.
    9000005    1    3    3    0    0 -0.49704202516E+02  0.30054979064E+01 -0.20087828204E+03  0.20696044298E+03  0.10000000000E+01 0.  0.
<mgrwt>
<rscale>  0 0.12501365E+03</rscale>
<asrwt>0</asrwt>
<pdfrwt beam="2">  1        4 0.39111327E-01 0.12501365E+03</pdfrwt>
<pdfrwt beam="1">  1       -4 0.23644252E-02 0.12501365E+03</pdfrwt>
<totfact> 0.79554320E+03</totfact>
</mgrwt>
</event>
<event>
 4    1  0.3296424E-002  0.1249180E+03  0.7818608E-02  0.1235198E+00
          4   -1    0    0  501    0  0.00000000000E+00  0.00000000000E+00  0.34327072495E+02  0.34350557581E+02  0.12700000000E+01 0. -1.
         -4   -1    0    0    0  501 -0.00000000000E+00 -0.00000000000E+00 -0.11357979446E+03  0.11358689453E+03  0.12700000000E+01 0. -1.
    9000005    1    1    2    0    0 -0.12663493336E+02  0.34523920378E+02 -0.99404300755E+02  0.10599283066E+03  0.10000000000E+01 0.  0.
    9000005    1    1    2    0    0  0.12663493336E+02 -0.34523920378E+02  0.20151578788E+02  0.41944621460E+02  0.10000000000E+01 0.  0.
<mgrwt>
<rscale>  0 0.12491796E+03</rscale>
<asrwt>0</asrwt>
<pdfrwt beam="1">  1        4 0.52834408E-02 0.12491796E+03</pdfrwt>
<pdfrwt beam="2">  1       -4 0.17476167E-01 0.12491796E+03</pdfrwt>
<totfact> 0.99900822E+03</totfact>
</mgrwt>
</event>
<event>
 5    1  0.3296424E-002  0.1249990E+03  0.7818608E-02  0.1235071E+00
         -4   -1    0    0    0  501 -0.00000000000E+00  0.00000000000E+00  0.60284476307E+01  0.61607695003E+01  0.12700000000E+01 0. -1.
          4   -1    0    0  501    0  0.00000000000E+00 -0.00000000000E+00 -0.64079180011E+03  0.64079305863E+03  0.12700000000E+01 0. -1.
         25    2    1    2    0    0  0.00000000000E+00  0.00000000000E+00 -0.63476335248E+03  0.64695382813E+03  0.12499896832E+03 0.  0.
    9000005    1    3    3    0    0  0.20429981172E+02 -0.42411581997E+02 -0.10467100328E+03  0.11477432355E+03  0.10000000000E+01 0.  0.
    9000005    1    3    3    0    0 -0.20429981172E+02  0.42411581997E+02 -0.53009234920E+03  0.53217950458E+03  0.10000000000E+01 0.  0.
<mgrwt>
<rscale>  0 0.12499897E+03</rscale>
<asrwt>0</asrwt>
<pdfrwt beam="2">  1        4 0.98593576E-01 0.12499897E+03</pdfrwt>
<pdfrwt beam="1">  1       -4 0.93772941E-03 0.12499897E+03</pdfrwt>
<totfact> 0.46032745E+03</totfact>
</mgrwt>
</event>
<event>
 5    1  0.3296424E-002  0.1249995E+03  0.7818608E-02  0.1235070E+00
         -4   -1    0    0    0  501 -0.00000000000E+00  0.00000000000E+00  0.25529339350E+03  0.25529655239E+03  0.12700000000E+01 0.  1.
          4   -1    0    0  501    0  0.00000000000E+00 -0.00000000000E+00 -0.15271280355E+02  0.15323997640E+02  0.12700000000E+01 0.  1.
         25    2    1    2    0    0  0.00000000000E+00  0.00000000000E+00  0.24002211314E+03  0.27062055003E+03  0.12499946921E+03 0.  0.
    9000005    1    3    3    0    0 -0.81059559308E+01 -0.52927814978E+00  0.25415611481E+03  0.25428786317E+03  0.10000000000E+01 0.  0.
    9000005    1    3    3    0    0  0.81059559308E+01  0.52927814978E+00 -0.14134001672E+02  0.16332686864E+02  0.10000000000E+01 0.  0.
<mgrwt>
<rscale>  0 0.12499947E+03</rscale>
<asrwt>0</asrwt>
<pdfrwt beam="2">  1        4 0.23537259E-02 0.12499947E+03</pdfrwt>
<pdfrwt beam="1">  1       -4 0.39280204E-01 0.12499947E+03</pdfrwt>
<totfact> 0.79439277E+03</totfact>
</mgrwt>
</event>
<event>
 5    1  0.3296424E-002  0.1250033E+03  0.7818608E-02  0.1235064E+00
         -4   -1    0    0    0  501 -0.00000000000E+00  0.00000000000E+00  0.27055059002E+03  0.27055357078E+03  0.12700000000E+01 0. -1.
          4   -1    0    0  501    0  0.00000000000E+00 -0.00000000000E+00 -0.14407918656E+02  0.14463783046E+02  0.12700000000E+01 0. -1.
         25    2    1    2    0    0  0.00000000000E+00  0.00000000000E+00  0.25614267137E+03  0.28501735383E+03  0.12500329551E+03 0.  0.
    9000005    1    3    3    0    0  0.62317465983E+02 -0.36919869702E+01  0.13466334157E+03  0.14843285653E+03  0.10000000000E+01 0.  0.
    9000005    1    3    3    0    0 -0.62317465983E+02  0.36919869702E+01  0.12147932979E+03  0.13658449729E+03  0.10000000000E+01 0.  0.
<mgrwt>
<rscale>  0 0.12500330E+03</rscale>
<asrwt>0</asrwt>
<pdfrwt beam="2">  1        4 0.22211298E-02 0.12500330E+03</pdfrwt>
<pdfrwt beam="1">  1       -4 0.41627688E-01 0.12500330E+03</pdfrwt>
<totfact> 0.77511837E+03</totfact>
</mgrwt>
</event>
<event>
 5    1  0.3296424E-002  0.1250198E+03  0.7818608E-02  0.1235038E+00
         -4   -1    0    0    0  501 -0.00000000000E+00  0.00000000000E+00  0.12364179977E+03  0.12364832206E+03  0.12700000000E+01 0.  1.
          4   -1    0    0  501    0  0.00000000000E+00 -0.00000000000E+00 -0.31583161921E+02  0.31608685783E+02  0.12700000000E+01 0.  1.
         25    2    1    2    0    0  0.00000000000E+00  0.00000000000E+00  0.92058637845E+02  0.15525700785E+03  0.12501978117E+03 0.  0.
    9000005    1    3    3    0    0 -0.19182238772E+02  0.42381034634E+01 -0.27655625600E+02  0.33937493022E+02  0.10000000000E+01 0.  0.
    9000005    1    3    3    0    0  0.19182238772E+02 -0.42381034634E+01  0.11971426344E+03  0.12131951483E+03  0.10000000000E+01 0.  0.
<mgrwt>
<rscale>  0 0.12501978E+03</rscale>
<asrwt>0</asrwt>
<pdfrwt beam="2">  1        4 0.48614130E-02 0.12501978E+03</pdfrwt>
<pdfrwt beam="1">  1       -4 0.19024281E-01 0.12501978E+03</pdfrwt>
<totfact> 0.98221367E+03</totfact>
</mgrwt>
</event>
<event>
 5    1  0.3296424E-002  0.1249939E+03  0.7818608E-02  0.1235079E+00
          4   -1    0    0  501    0  0.00000000000E+00  0.00000000000E+00  0.93740066510E+02  0.93748669160E+02  0.12700000000E+01 0. -1.
         -4   -1    0    0    0  501 -0.00000000000E+00 -0.00000000000E+00 -0.41646850450E+02  0.41666209959E+02  0.12700000000E+01 0. -1.
         25    2    1    2    0    0  0.00000000000E+00  0.00000000000E+00  0.52093216060E+02  0.13541487912E+03  0.12499394516E+03 0.  0.
    9000005    1    3    3    0    0  0.20000809424E+02  0.46434566983E+02 -0.13739393063E+02  0.52402025822E+02  0.10000000000E+01 0.  0.
    9000005    1    3    3    0    0 -0.20000809424E+02 -0.46434566983E+02  0.65832609123E+02  0.83012853297E+02  0.10000000000E+01 0.  0.
<mgrwt>
<rscale>  0 0.12499395E+03</rscale>
<asrwt>0</asrwt>
<pdfrwt beam="1">  1        4 0.14423699E-01 0.12499395E+03</pdfrwt>
<pdfrwt beam="2">  1       -4 0.64093588E-02 0.12499395E+03</pdfrwt>
<totfact> 0.10230731E+04</totfact>
</mgrwt>
</event>
<event>
 5    1  0.3296424E-002  0.1250037E+03  0.7818608E-02  0.1235063E+00
         -4   -1    0    0    0  501 -0.00000000000E+00  0.00000000000E+00  0.59231676133E+02  0.59245289750E+02  0.12700000000E+01 0. -1.
          4   -1    0    0  501    0  0.00000000000E+00 -0.00000000000E+00 -0.65925263413E+02  0.65937495070E+02  0.12700000000E+01 0. -1.
         25    2    1    2    0    0  0.00000000000E+00  0.00000000000E+00 -0.66935872795E+01  0.12518278482E+03  0.12500370196E+03 0.  0.
    9000005    1    3    3    0    0 -0.45912361183E+01 -0.52653554130E+02 -0.36741308300E+02  0.64377014122E+02  0.10000000000E+01 0.  0.
    9000005    1    3    3    0    0  0.45912361183E+01  0.52653554130E+02  0.30047721021E+02  0.60805770698E+02  0.10000000000E+01 0.  0.
<mgrwt>
<rscale>  0 0.12500370E+03</rscale>
<asrwt>0</asrwt>
<pdfrwt beam="2">  1        4 0.10144336E-01 0.12500370E+03</pdfrwt>
<pdfrwt beam="1">  1       -4 0.91145537E-02 0.12500370E+03</pdfrwt>
<totfact> 0.10448020E+04</totfact>
</mgrwt>
</event>
<event>
 5    1  0.3296424E-002  0.1249637E+03  0.7818608E-02  0.1235126E+00
          4   -1    0    0  501    0  0.00000000000E+00  0.00000000000E+00  0.17672582289E+03  0.17673038611E+03  0.12700000000E+01 0. -1.
         -4   -1    0    0    0  501 -0.00000000000E+00 -0.00000000000E+00 -0.22067489161E+02  0.22104003661E+02  0.12700000000E+01 0. -1.
         25    2    1    2    0    0  0.00000000000E+00  0.00000000000E+00  0.15465833372E+03  0.19883438977E+03  0.12496365218E+03 0.  0.
    9000005    1    3    3    0    0  0.67961961559E+01  0.53939987142E+02  0.12630076158E+03  0.13750851927E+03  0.10000000000E+01 0.  0.
    9000005    1    3    3    0    0 -0.67961961559E+01 -0.53939987142E+02  0.28357572142E+02  0.61325870502E+02  0.10000000000E+01 0.  0.
<mgrwt>
<rscale>  0 0.12496365E+03</rscale>
<asrwt>0</asrwt>
<pdfrwt beam="1">  1        4 0.27191747E-01 0.12496365E+03</pdfrwt>
<pdfrwt beam="2">  1       -4 0.33981582E-02 0.12496365E+03</pdfrwt>
<totfact> 0.90405990E+03</totfact>
</mgrwt>
</event>
<event>
 5    1  0.3296424E-002  0.1249992E+03  0.7818608E-02  0.1235070E+00
          4   -1    0    0  501    0  0.00000000000E+00  0.00000000000E+00  0.10466311038E+03  0.10467081529E+03  0.12700000000E+01 0. -1.
         -4   -1    0    0    0  501 -0.00000000000E+00 -0.00000000000E+00 -0.37301777919E+02  0.37323391270E+02  0.12700000000E+01 0. -1.
         25    2    1    2    0    0  0.00000000000E+00  0.00000000000E+00  0.67361332459E+02  0.14199420656E+03  0.12499922234E+03 0.  0.
    9000005    1    3    3    0    0 -0.22661276386E+02  0.17492284609E+02 -0.29420780276E+02  0.41062096639E+02  0.10000000000E+01 0.  0.
    9000005    1    3    3    0    0  0.22661276386E+02 -0.17492284609E+02  0.96782112735E+02  0.10093210992E+03  0.10000000000E+01 0.  0.
<mgrwt>
<rscale>  0 0.12499922E+03</rscale>
<asrwt>0</asrwt>
<pdfrwt beam="1">  1        4 0.16104272E-01 0.12499922E+03</pdfrwt>
<pdfrwt beam="2">  1       -4 0.57409904E-02 0.12499922E+03</pdfrwt>
<totfact> 0.10092598E+04</totfact>
</mgrwt>
</event>
<event>
 5    1  0.3296424E-002  0.1250047E+03  0.7818608E-02  0.1235062E+00
         -4   -1    0    0    0  501 -0.00000000000E+00  0.00000000000E+00  0.17511747778E+03  0.17512208292E+03  0.12700000000E+01 0. -1.
          4   -1    0    0  501    0  0.00000000000E+00 -0.00000000000E+00 -0.22285150746E+02  0.22321309186E+02  0.12700000000E+01 0. -1.
         25    2    1    2    0    0  0.00000000000E+00  0.00000000000E+00  0.15283232704E+03  0.19744339210E+03  0.12500469150E+03 0.  0.
    9000005    1    3    3    0    0 -0.60058371410E+02 -0.84471136105E+01  0.52609266621E+02  0.80293814452E+02  0.10000000000E+01 0.  0.
    9000005    1    3    3    0    0  0.60058371410E+02  0.84471136105E+01  0.10022306042E+03  0.11714957765E+03  0.10000000000E+01 0.  0.
<mgrwt>
<rscale>  0 0.12500469E+03</rscale>
<asrwt>0</asrwt>
<pdfrwt beam="2">  1        4 0.34316206E-02 0.12500469E+03</pdfrwt>
<pdfrwt beam="1">  1       -4 0.26944285E-01 0.12500469E+03</pdfrwt>
<totfact> 0.90558566E+03</totfact>
</mgrwt>
</event>
<event>
 5    1  0.3296424E-002  0.1249936E+03  0.7818608E-02  0.1235079E+00
         -4   -1    0    0    0  501 -0.00000000000E+00  0.00000000000E+00  0.45358762959E+01  0.47103156765E+01  0.12700000000E+01 0.  1.
          4   -1    0    0  501    0  0.00000000000E+00 -0.00000000000E+00 -0.84468088861E+03  0.84468184335E+03  0.12700000000E+01 0.  1.
         25    2    1    2    0    0  0.00000000000E+00  0.00000000000E+00 -0.84014501232E+03  0.84939215903E+03  0.12499359222E+03 0.  0.
    9000005    1    3    3    0    0  0.57726819216E+02 -0.66757473287E+01 -0.26393917867E+03  0.27026254142E+03  0.10000000000E+01 0.  0.
    9000005    1    3    3    0    0 -0.57726819216E+02  0.66757473287E+01 -0.57620583365E+03  0.57912961760E+03  0.10000000000E+01 0.  0.
<mgrwt>
<rscale>  0 0.12499359E+03</rscale>
<asrwt>0</asrwt>
<pdfrwt beam="2">  1        4 0.12996427E+00 0.12499359E+03</pdfrwt>
<pdfrwt beam="1">  1       -4 0.71131965E-03 0.12499359E+03</pdfrwt>
<totfact> 0.36157299E+03</totfact>
</mgrwt>
</event>
<event>
 5    1  0.3296424E-002  0.1250017E+03  0.7818608E-02  0.1235067E+00
          4   -1    0    0  501    0  0.00000000000E+00  0.00000000000E+00  0.42934661227E+02  0.42953440313E+02  0.12700000000E+01 0.  1.
         -4   -1    0    0    0  501 -0.00000000000E+00 -0.00000000000E+00 -0.90940614637E+02  0.90949482080E+02  0.12700000000E+01 0.  1.
         25    2    1    2    0    0  0.00000000000E+00  0.00000000000E+00 -0.48005953410E+02  0.13390292239E+03  0.12500168424E+03 0.  0.
    9000005    1    3    3    0    0 -0.16275143021E+02 -0.51593455839E+02  0.95070399835E+01  0.54937680831E+02  0.10000000000E+01 0.  0.
    9000005    1    3    3    0    0  0.16275143021E+02  0.51593455839E+02 -0.57512993394E+02  0.78965241562E+02  0.10000000000E+01 0.  0.
<mgrwt>
<rscale>  0 0.12500168E+03</rscale>
<asrwt>0</asrwt>
<pdfrwt beam="1">  1        4 0.66074592E-02 0.12500168E+03</pdfrwt>
<pdfrwt beam="2">  1       -4 0.13992990E-01 0.12500168E+03</pdfrwt>
<totfact> 0.10260857E+04</totfact>
</mgrwt>
</event>
<event>
 5    1  0.3296424E-002  0.1250010E+03  0.7818608E-02  0.1235068E+00
         -4   -1    0    0    0  501 -0.00000000000E+00  0.00000000000E+00  0.23155355812E+03  0.23155704088E+03  0.12700000000E+01 0.  1.
          4   -1    0    0  501    0  0.00000000000E+00 -0.00000000000E+00 -0.16842498829E+02  0.16890312810E+02  0.12700000000E+01 0.  1.
         25    2    1    2    0    0  0.00000000000E+00  0.00000000000E+00  0.21471105929E+03  0.24844735369E+03  0.12500099428E+03 0.  0.
    9000005    1    3    3    0    0  0.38160068663E+02  0.42209576139E+02  0.15870521113E+03  0.16860066192E+03  0.10000000000E+01 0.  0.
    9000005    1    3    3    0    0 -0.38160068663E+02 -0.42209576139E+02  0.56005848162E+02  0.79846691770E+02  0.10000000000E+01 0.  0.
<mgrwt>
<rscale>  0 0.12500099E+03</rscale>
<asrwt>0</asrwt>
<pdfrwt beam="2">  1        4 0.25950997E-02 0.12500099E+03</pdfrwt>
<pdfrwt beam="1">  1       -4 0.35627568E-01 0.12500099E+03</pdfrwt>
<totfact> 0.82553325E+03</totfact>
</mgrwt>
</event>
<event>
 5    1  0.3296424E-002  0.1250159E+03  0.7818608E-02  0.1235044E+00
          4   -1    0    0  501    0  0.00000000000E+00  0.00000000000E+00  0.57887739385E+03  0.57887878697E+03  0.12700000000E+01 0.  1.
         -4   -1    0    0    0  501 -0.00000000000E+00 -0.00000000000E+00 -0.66885389407E+01  0.68080432696E+01  0.12700000000E+01 0.  1.
         25    2    1    2    0    0  0.00000000000E+00  0.00000000000E+00  0.57218885490E+03  0.58568683024E+03  0.12501590875E+03 0.  0.
    9000005    1    3    3    0    0 -0.36042056711E+02 -0.49168468514E+02  0.35061624765E+03  0.35587823938E+03  0.10000000000E+01 0.  0.
    9000005    1    3    3    0    0  0.36042056711E+02  0.49168468514E+02  0.22157260726E+03  0.22980859086E+03  0.10000000000E+01 0.  0.
<mgrwt>
<rscale>  0 0.12501591E+03</rscale>
<asrwt>0</asrwt>
<pdfrwt beam="1">  1        4 0.89067358E-01 0.12501591E+03</pdfrwt>
<pdfrwt beam="2">  1       -4 0.10383058E-02 0.12501591E+03</pdfrwt>
<totfact> 0.49766377E+03</totfact>
</mgrwt>
</event>
<event>
 5    1  0.3296424E-002  0.1250001E+03  0.7818608E-02  0.1235069E+00
          4   -1    0    0  501    0  0.00000000000E+00  0.00000000000E+00  0.21533045454E+02  0.21570464680E+02  0.12700000000E+01 0. -1.
         -4   -1    0    0    0  501 -0.00000000000E+00 -0.00000000000E+00 -0.18121029296E+03  0.18121474326E+03  0.12700000000E+01 0. -1.
         25    2    1    2    0    0  0.00000000000E+00  0.00000000000E+00 -0.15967724750E+03  0.20278520794E+03  0.12500006875E+03 0.  0.
    9000005    1    3    3    0    0 -0.53743012151E+02 -0.27409441471E+02 -0.10628057911E+03  0.12221354398E+03  0.10000000000E+01 0.  0.
    9000005    1    3    3    0    0  0.53743012151E+02  0.27409441471E+02 -0.53396668392E+02  0.80571663953E+02  0.10000000000E+01 0.  0.
<mgrwt>
<rscale>  0 0.12500007E+03</rscale>
<asrwt>0</asrwt>
<pdfrwt beam="1">  1        4 0.33159971E-02 0.12500007E+03</pdfrwt>
<pdfrwt beam="2">  1       -4 0.27881726E-01 0.12500007E+03</pdfrwt>
<totfact> 0.89667738E+03</totfact>
</mgrwt>
</event>
<event>
 5    1  0.3296424E-002  0.1250030E+03  0.7818608E-02  0.1235065E+00
          4   -1    0    0  501    0  0.00000000000E+00  0.00000000000E+00  0.39757122550E+02  0.39777401794E+02  0.12700000000E+01 0. -1.
         -4   -1    0    0    0  501 -0.00000000000E+00 -0.00000000000E+00 -0.98208049496E+02  0.98216260801E+02  0.12700000000E+01 0. -1.
         25    2    1    2    0    0  0.00000000000E+00  0.00000000000E+00 -0.58450926946E+02  0.13799366259E+03  0.12500296019E+03 0.  0.
    9000005    1    3    3    0    0 -0.62281308485E+02 -0.46692467113E+01 -0.31611511690E+02  0.70007506189E+02  0.10000000000E+01 0.  0.
    9000005    1    3    3    0    0  0.62281308485E+02  0.46692467113E+01 -0.26839415256E+02  0.67986156405E+02  0.10000000000E+01 0.  0.
<mgrwt>
<rscale>  0 0.12500296E+03</rscale>
<asrwt>0</asrwt>
<pdfrwt beam="1">  1        4 0.61186720E-02 0.12500296E+03</pdfrwt>
<pdfrwt beam="2">  1       -4 0.15111122E-01 0.12500296E+03</pdfrwt>
<totfact> 0.10174660E+04</totfact>
</mgrwt>
</event>
<event>
 5    1  0.3296424E-002  0.1249995E+03  0.7818608E-02  0.1235070E+00
         -4   -1    0    0    0  501 -0.00000000000E+00  0.00000000000E+00  0.20632642019E+02  0.20671691191E+02  0.12700000000E+01 0. -1.
          4   -1    0    0  501    0  0.00000000000E+00 -0.00000000000E+00 -0.18910211599E+03  0.18910638057E+03  0.12700000000E+01 0. -1.
         25    2    1    2    0    0  0.00000000000E+00  0.00000000000E+00 -0.16846947397E+03  0.20977807176E+03  0.12499950292E+03 0.  0.
    9000005    1    3    3    0    0  0.28431895748E+02  0.55493525581E+02 -0.77251428306E+02  0.99280850382E+02  0.10000000000E+01 0.  0.
    9000005    1    3    3    0    0 -0.28431895748E+02 -0.55493525581E+02 -0.91218045666E+02  0.11049722138E+03  0.10000000000E+01 0.  0.
<mgrwt>
<rscale>  0 0.12499950E+03</rscale>
<asrwt>0</asrwt>
<pdfrwt beam="2">  1        4 0.29095964E-01 0.12499950E+03</pdfrwt>
<pdfrwt beam="1">  1       -4 0.31775846E-02 0.12499950E+03</pdfrwt>
<totfact> 0.88513122E+03</totfact>
</mgrwt>
</event>
<event>
 5    1  0.3296424E-002  0.1249974E+03  0.7818608E-02  0.1235073E+00
         -4   -1    0    0    0  501 -0.00000000000E+00  0.00000000000E+00  0.71721521345E+01  0.72837261233E+01  0.12700000000E+01 0.  1.
          4   -1    0    0  501    0  0.00000000000E+00 -0.00000000000E+00 -0.54030276978E+03  0.54030426236E+03  0.12700000000E+01 0.  1.
         25    2    1    2    0    0  0.00000000000E+00  0.00000000000E+00 -0.53313061764E+03  0.54758798849E+03  0.12499739864E+03 0.  0.
    9000005    1    3    3    0    0  0.11681162548E+02  0.26553167062E+02 -0.24090490689E+02  0.37720975347E+02  0.10000000000E+01 0.  0.
    9000005    1    3    3    0    0 -0.11681162548E+02 -0.26553167062E+02 -0.50904012695E+03  0.50986701314E+03  0.10000000000E+01 0.  0.
<mgrwt>
<rscale>  0 0.12499740E+03</rscale>
<asrwt>0</asrwt>
<pdfrwt beam="2">  1        4 0.83132169E-01 0.12499740E+03</pdfrwt>
<pdfrwt beam="1">  1       -4 0.11121059E-02 0.12499740E+03</pdfrwt>
<totfact> 0.52355466E+03</totfact>
</mgrwt>
</event>
<event>
 5    1  0.3296424E-002  0.1250026E+03  0.7818608E-02  0.1235065E+00
          4   -1    0    0  501    0  0.00000000000E+00  0.00000000000E+00  0.37993855614E+03  0.37994067871E+03  0.12700000000E+01 0.  1.
         -4   -1    0    0    0  501 -0.00000000000E+00 -0.00000000000E+00 -0.10240311197E+02  0.10318763172E+02  0.12700000000E+01 0.  1.
         25    2    1    2    0    0  0.00000000000E+00  0.00000000000E+00  0.36969824494E+03  0.39025944189E+03  0.12500255864E+03 0.  0.
    9000005    1    3    3    0    0  0.34976610390E+02  0.12905366215E+02  0.28265434008E+02  0.46795795871E+02  0.10000000000E+01 0.  0.
    9000005    1    3    3    0    0 -0.34976610390E+02 -0.12905366215E+02  0.34143281094E+03  0.34346364602E+03  0.10000000000E+01 0.  0.
<mgrwt>
<rscale>  0 0.12500256E+03</rscale>
<asrwt>0</asrwt>
<pdfrwt beam="1">  1        4 0.58458291E-01 0.12500256E+03</pdfrwt>
<pdfrwt beam="2">  1       -4 0.15816303E-02 0.12500256E+03</pdfrwt>
<totfact> 0.65507590E+03</totfact>
</mgrwt>
</event>
<event>
 5    1  0.3296424E-002  0.1249987E+03  0.7818608E-02  0.1235071E+00
         -4   -1    0    0    0  501 -0.00000000000E+00  0.00000000000E+00  0.79063202591E+02  0.79073402001E+02  0.12700000000E+01 0.  1.
          4   -1    0    0  501    0  0.00000000000E+00 -0.00000000000E+00 -0.49384111777E+02  0.49400439229E+02  0.12700000000E+01 0.  1.
         25    2    1    2    0    0  0.00000000000E+00  0.00000000000E+00  0.29679090814E+02  0.12847384123E+03  0.12499871779E+03 0.  0.
    9000005    1    3    3    0    0  0.16161281816E+02  0.45880883298E+02 -0.25480240222E+02  0.54922537486E+02  0.10000000000E+01 0.  0.
    9000005    1    3    3    0    0 -0.16161281816E+02 -0.45880883298E+02  0.55159331036E+02  0.73551303744E+02  0.10000000000E+01 0.  0.
<mgrwt>
<rscale>  0 0.12499872E+03</rscale>
<asrwt>0</asrwt>
<pdfrwt beam="2">  1        4 0.75995961E-02 0.12499872E+03</pdfrwt>
<pdfrwt beam="1">  1       -4 0.12165610E-01 0.12499872E+03</pdfrwt>
<totfact> 0.10377568E+04</totfact>
</mgrwt>
</event>
<event>
 5    1  0.3296424E-002  0.1249984E+03  0.7818608E-02  0.1235072E+00
          4   -1    0    0  501    0  0.00000000000E+00  0.00000000000E+00  0.16114663455E+02  0.16164630471E+02  0.12700000000E+01 0.  1.
         -4   -1    0    0    0  501 -0.00000000000E+00 -0.00000000000E+00 -0.24197049914E+03  0.24197383196E+03  0.12700000000E+01 0.  1.
         25    2    1    2    0    0  0.00000000000E+00  0.00000000000E+00 -0.22585583569E+03  0.25813846243E+03  0.12499842909E+03 0.  0.
    9000005    1    3    3    0    0 -0.34599336823E+02  0.37942808853E+02 -0.39379552963E+02  0.64718776594E+02  0.10000000000E+01 0.  0.
    9000005    1    3    3    0    0  0.34599336823E+02 -0.37942808853E+02 -0.18647628272E+03  0.19341968584E+03  0.10000000000E+01 0.  0.
<mgrwt>
<rscale>  0 0.12499843E+03</rscale>
<asrwt>0</asrwt>
<pdfrwt beam="1">  1        4 0.24832792E-02 0.12499843E+03</pdfrwt>
<pdfrwt beam="2">  1       -4 0.37230328E-01 0.12499843E+03</pdfrwt>
<totfact> 0.81170853E+03</totfact>
</mgrwt>
</event>
<event>
 5    1  0.3296424E-002  0.1250175E+03  0.7818608E-02  0.1235042E+00
         -4   -1    0    0    0  501 -0.00000000000E+00  0.00000000000E+00  0.11223480588E+02  0.11295105865E+02  0.12700000000E+01 0. -1.
          4   -1    0    0  501    0  0.00000000000E+00 -0.00000000000E+00 -0.34695986727E+03  0.34696219160E+03  0.12700000000E+01 0. -1.
         25    2    1    2    0    0  0.00000000000E+00  0.00000000000E+00 -0.33573638669E+03  0.35825729746E+03  0.12501747814E+03 0.  0.
    9000005    1    3    3    0    0 -0.47553922849E+01 -0.62096340558E+02 -0.15276609743E+03  0.16497590670E+03  0.10000000000E+01 0.  0.
    9000005    1    3    3    0    0  0.47553922849E+01  0.62096340558E+02 -0.18297028926E+03  0.19328139077E+03  0.10000000000E+01 0.  0.
<mgrwt>
<rscale>  0 0.12501748E+03</rscale>
<asrwt>0</asrwt>
<pdfrwt beam="2">  1        4 0.53384121E-01 0.12501748E+03</pdfrwt>
<pdfrwt beam="1">  1       -4 0.17323780E-02 0.12501748E+03</pdfrwt>
<totfact> 0.68799004E+03</totfact>
</mgrwt>
</event>
<event>
 5    1  0.3296424E-002  0.1249998E+03  0.7818608E-02  0.1235070E+00
          4   -1    0    0  501    0  0.00000000000E+00  0.00000000000E+00  0.59662675248E+01  0.60999383749E+01  0.12700000000E+01 0.  1.
         -4   -1    0    0    0  501 -0.00000000000E+00 -0.00000000000E+00 -0.64733281883E+03  0.64733406463E+03  0.12700000000E+01 0.  1.
         25    2    1    2    0    0  0.00000000000E+00  0.00000000000E+00 -0.64136655130E+03  0.65343400301E+03  0.12499977261E+03 0.  0.
    9000005    1    3    3    0    0 -0.88945269623E+01 -0.38148480223E+02 -0.66151802994E+02  0.76886150850E+02  0.10000000000E+01 0.  0.
    9000005    1    3    3    0    0  0.88945269623E+01  0.38148480223E+02 -0.57521474831E+03  0.57654785216E+03  0.10000000000E+01 0.  0.
<mgrwt>
<rscale>  0 0.12499977E+03</rscale>
<asrwt>0</asrwt>
<pdfrwt beam="1">  1        4 0.92826603E-03 0.12499977E+03</pdfrwt>
<pdfrwt beam="2">  1       -4 0.99599988E-01 0.12499977E+03</pdfrwt>
<totfact> 0.45659575E+03</totfact>
</mgrwt>
</event>
<event>
 5    1  0.3296424E-002  0.1249932E+03  0.7818608E-02  0.1235080E+00
         -4   -1    0    0    0  501 -0.00000000000E+00  0.00000000000E+00  0.20645639370E+02  0.20684664005E+02  0.12700000000E+01 0. -1.
          4   -1    0    0  501    0  0.00000000000E+00 -0.00000000000E+00 -0.18896435508E+03  0.18896862277E+03  0.12700000000E+01 0. -1.
         25    2    1    2    0    0  0.00000000000E+00  0.00000000000E+00 -0.16831871571E+03  0.20965328677E+03  0.12499324220E+03 0.  0.
    9000005    1    3    3    0    0  0.41133525906E+02 -0.46952082466E+02 -0.79308851901E+02  0.10093244766E+03  0.10000000000E+01 0.  0.
    9000005    1    3    3    0    0 -0.41133525906E+02  0.46952082466E+02 -0.89009863807E+02  0.10872083911E+03  0.10000000000E+01 0.  0.
<mgrwt>
<rscale>  0 0.12499324E+03</rscale>
<asrwt>0</asrwt>
<pdfrwt beam="2">  1        4 0.29074768E-01 0.12499324E+03</pdfrwt>
<pdfrwt beam="1">  1       -4 0.31795825E-02 0.12499324E+03</pdfrwt>
<totfact> 0.88545913E+03</totfact>
</mgrwt>
</event>
<event>
 5    1  0.3296424E-002  0.1249989E+03  0.7818608E-02  0.1235071E+00
         -4   -1    0    0    0  501 -0.00000000000E+00  0.00000000000E+00  0.20944384584E+02  0.20982853610E+02  0.12700000000E+01 0. -1.
          4   -1    0    0  501    0  0.00000000000E+00 -0.00000000000E+00 -0.18629083783E+03  0.18629516676E+03  0.12700000000E+01 0. -1.
         25    2    1    2    0    0  0.00000000000E+00  0.00000000000E+00 -0.16534645324E+03  0.20727802037E+03  0.12499891251E+03 0.  0.
    9000005    1    3    3    0    0 -0.52006329255E+02 -0.33890486105E+02 -0.70720247508E+02  0.94104073974E+02  0.10000000000E+01 0.  0.
    9000005    1    3    3    0    0  0.52006329255E+02  0.33890486105E+02 -0.94626205736E+02  0.11317394640E+03  0.10000000000E+01 0.  0.
<mgrwt>
<rscale>  0 0.12499891E+03</rscale>
<asrwt>0</asrwt>
<pdfrwt beam="2">  1        4 0.28663420E-01 0.12499891E+03</pdfrwt>
<pdfrwt beam="1">  1       -4 0.32255053E-02 0.12499891E+03</pdfrwt>
<totfact> 0.88924517E+03</totfact>
</mgrwt>
</event>
<event>
 5    1  0.3296424E-002  0.1250033E+03  0.7818608E-02  0.1235064E+00
         -4   -1    0    0    0  501 -0.00000000000E+00  0.00000000000E+00  0.15261800061E+02  0.15314549981E+02  0.12700000000E+01 0. -1.
          4   -1    0    0  501    0  0.00000000000E+00 -0.00000000000E+00 -0.25546696933E+03  0.25547012608E+03  0.12700000000E+01 0. -1.
         25    2    1    2    0    0  0.00000000000E+00  0.00000000000E+00 -0.24020516927E+03  0.27078467606E+03  0.12500326974E+03 0.  0.
    9000005    1    3    3    0    0 -0.14318805040E+02  0.80279021600E+01  0.10518531939E+02  0.19522164455E+02  0.10000000000E+01 0.  0.
    9000005    1    3    3    0    0  0.14318805040E+02 -0.80279021600E+01 -0.25072370121E+03  0.25126251161E+03  0.10000000000E+01 0.  0.
<mgrwt>
<rscale>  0 0.12500327E+03</rscale>
<asrwt>0</asrwt>
<pdfrwt beam="2">  1        4 0.39306908E-01 0.12500327E+03</pdfrwt>
<pdfrwt beam="1">  1       -4 0.23522699E-02 0.12500327E+03</pdfrwt>
<totfact> 0.79410235E+03</totfact>
</mgrwt>
</event>
<event>
 5    1  0.3296424E-002  0.1249967E+03  0.7818608E-02  0.1235074E+00
         -4   -1    0    0    0  501 -0.00000000000E+00  0.00000000000E+00  0.85015147582E+02  0.85024633010E+02  0.12700000000E+01 0. -1.
          4   -1    0    0  501    0  0.00000000000E+00 -0.00000000000E+00 -0.45924445730E+02  0.45942002739E+02  0.12700000000E+01 0. -1.
         25    2    1    2    0    0  0.00000000000E+00  0.00000000000E+00  0.39090701852E+02  0.13096663575E+03  0.12499670679E+03 0.  0.
    9000005    1    3    3    0    0  0.52533032371E+02  0.33061277464E+02  0.27120930209E+02  0.67744464077E+02  0.10000000000E+01 0.  0.
    9000005    1    3    3    0    0 -0.52533032371E+02 -0.33061277464E+02  0.11969771643E+02  0.63222171671E+02  0.10000000000E+01 0.  0.
<mgrwt>
<rscale>  0 0.12499671E+03</rscale>
<asrwt>0</asrwt>
<pdfrwt beam="2">  1        4 0.70673796E-02 0.12499671E+03</pdfrwt>
<pdfrwt beam="1">  1       -4 0.13081334E-01 0.12499671E+03</pdfrwt>
<totfact> 0.10324572E+04</totfact>
</mgrwt>
</event>
<event>
 5    1  0.3296424E-002  0.1249972E+03  0.7818608E-02  0.1235074E+00
          4   -1    0    0  501    0  0.00000000000E+00  0.00000000000E+00  0.58460649908E+03  0.58460787856E+03  0.12700000000E+01 0. -1.
         -4   -1    0    0    0  501 -0.00000000000E+00 -0.00000000000E+00 -0.66198002631E+01  0.67405233864E+01  0.12700000000E+01 0. -1.
         25    2    1    2    0    0  0.00000000000E+00  0.00000000000E+00  0.57798669882E+03  0.59134840194E+03  0.12499723384E+03 0.  0.
    9000005    1    3    3    0    0  0.40785298441E+02 -0.39493732927E+02  0.16545621778E+03  0.17492842968E+03  0.10000000000E+01 0.  0.
    9000005    1    3    3    0    0 -0.40785298441E+02  0.39493732927E+02  0.41253048104E+03  0.41641997226E+03  0.10000000000E+01 0.  0.
<mgrwt>
<rscale>  0 0.12499723E+03</rscale>
<asrwt>0</asrwt>
<pdfrwt beam="1">  1        4 0.89948836E-01 0.12499723E+03</pdfrwt>
<pdfrwt beam="2">  1       -4 0.10278235E-02 0.12499723E+03</pdfrwt>
<totfact> 0.49421323E+03</totfact>
</mgrwt>
</event>
<event>
 5    1  0.3296424E-002  0.1250000E+03  0.7818608E-02  0.1235069E+00
         -4   -1    0    0    0  501 -0.00000000000E+00  0.00000000000E+00  0.62736204738E+03  0.62736333284E+03  0.12700000000E+01 0. -1.
          4   -1    0    0  501    0  0.00000000000E+00 -0.00000000000E+00 -0.61604024702E+01  0.62899490137E+01  0.12700000000E+01 0. -1.
         25    2    1    2    0    0  0.00000000000E+00  0.00000000000E+00  0.62120164491E+03  0.63365328185E+03  0.12499999186E+03 0.  0.
    9000005    1    3    3    0    0  0.45377169796E+02 -0.10561134254E+02  0.52172813951E+03  0.52380518960E+03  0.10000000000E+01 0.  0.
    9000005    1    3    3    0    0 -0.45377169796E+02  0.10561134254E+02  0.99473505402E+02  0.10984809226E+03  0.10000000000E+01 0.  0.
<mgrwt>
<rscale>  0 0.12499999E+03</rscale>
<asrwt>0</asrwt>
<pdfrwt beam="2">  1        4 0.95781834E-03 0.12499999E+03</pdfrwt>
<pdfrwt beam="1">  1       -4 0.96527291E-01 0.12499999E+03</pdfrwt>
<totfact> 0.46809978E+03</totfact>
</mgrwt>
</event>
<event>
 5    1  0.3296424E-002  0.1249986E+03  0.7818608E-02  0.1235071E+00
         -4   -1    0    0    0  501 -0.00000000000E+00  0.00000000000E+00  0.51559546756E+02  0.51575185522E+02  0.12700000000E+01 0. -1.
          4   -1    0    0  501    0  0.00000000000E+00 -0.00000000000E+00 -0.75727801263E+02  0.75738449839E+02  0.12700000000E+01 0. -1.
         25    2    1    2    0    0  0.00000000000E+00  0.00000000000E+00 -0.24168254507E+02  0.12731363536E+03  0.12499862888E+03 0.  0.
    9000005    1    3    3    0    0  0.10487990330E+02  0.61604920620E+02 -0.12095283733E+02  0.63658935542E+02  0.10000000000E+01 0.  0.
    9000005    1    3    3    0    0 -0.10487990330E+02 -0.61604920620E+02 -0.12072970775E+02  0.63654699819E+02  0.10000000000E+01 0.  0.
<mgrwt>
<rscale>  0 0.12499863E+03</rscale>
<asrwt>0</asrwt>
<pdfrwt beam="2">  1        4 0.11652453E-01 0.12499863E+03</pdfrwt>
<pdfrwt beam="1">  1       -4 0.79342601E-02 0.12499863E+03</pdfrwt>
<totfact> 0.10402661E+04</totfact>
</mgrwt>
</event>
<event>
 5    1  0.3296424E-002  0.1249973E+03  0.7818608E-02  0.1235073E+00
         -4   -1    0    0    0  501 -0.00000000000E+00  0.00000000000E+00  0.28850638303E+03  0.28850917828E+03  0.12700000000E+01 0.  1.
          4   -1    0    0  501    0  0.00000000000E+00 -0.00000000000E+00 -0.13506334604E+02  0.13565912223E+02  0.12700000000E+01 0.  1.
         25    2    1    2    0    0  0.00000000000E+00  0.00000000000E+00  0.27500004843E+03  0.30207509050E+03  0.12499733463E+03 0.  0.
    9000005    1    3    3    0    0  0.59986166834E+02 -0.16698130335E+02  0.15026846950E+03  0.16266155260E+03  0.10000000000E+01 0.  0.
    9000005    1    3    3    0    0 -0.59986166834E+02  0.16698130335E+02  0.12473157893E+03  0.13941353790E+03  0.10000000000E+01 0.  0.
<mgrwt>
<rscale>  0 0.12499733E+03</rscale>
<asrwt>0</asrwt>
<pdfrwt beam="2">  1        4 0.20826958E-02 0.12499733E+03</pdfrwt>
<pdfrwt beam="1">  1       -4 0.44390390E-01 0.12499733E+03</pdfrwt>
<totfact> 0.75343738E+03</totfact>
</mgrwt>
</event>
<event>
 5    1  0.3296424E-002  0.1250042E+03  0.7818608E-02  0.1235063E+00
         -4   -1    0    0    0  501 -0.00000000000E+00  0.00000000000E+00  0.80217298260E+02  0.80227350948E+02  0.12700000000E+01 0. -1.
          4   -1    0    0  501    0  0.00000000000E+00 -0.00000000000E+00 -0.48677744645E+02  0.48694308946E+02  0.12700000000E+01 0. -1.
         25    2    1    2    0    0  0.00000000000E+00  0.00000000000E+00  0.31539553615E+02  0.12892165989E+03  0.12500420372E+03 0.  0.
    9000005    1    3    3    0    0  0.29539447456E+02  0.53518065455E+02  0.23722775582E+01  0.61183249235E+02  0.10000000000E+01 0.  0.
    9000005    1    3    3    0    0 -0.29539447456E+02 -0.53518065455E+02  0.29167276057E+02  0.67738410660E+02  0.10000000000E+01 0.  0.
<mgrwt>
<rscale>  0 0.12500420E+03</rscale>
<asrwt>0</asrwt>
<pdfrwt beam="2">  1        4 0.74909314E-02 0.12500420E+03</pdfrwt>
<pdfrwt beam="1">  1       -4 0.12343170E-01 0.12500420E+03</pdfrwt>
<totfact> 0.10366647E+04</totfact>
</mgrwt>
</event>
<event>
 5    1  0.3296424E-002  0.1250003E+03  0.7818608E-02  0.1235069E+00
          4   -1    0    0  501    0  0.00000000000E+00  0.00000000000E+00  0.10026594130E+03  0.10027398409E+03  0.12700000000E+01 0. -1.
         -4   -1    0    0    0  501 -0.00000000000E+00 -0.00000000000E+00 -0.38939147648E+02  0.38959852664E+02  0.12700000000E+01 0. -1.
         25    2    1    2    0    0  0.00000000000E+00  0.00000000000E+00  0.61326793654E+02  0.13923383675E+03  0.12500034271E+03 0.  0.
    9000005    1    3    3    0    0 -0.16012628827E+01 -0.60327383481E+02  0.48738080684E+02  0.77578075184E+02  0.10000000000E+01 0.  0.
    9000005    1    3    3    0    0  0.16012628827E+01  0.60327383481E+02  0.12588712971E+02  0.61655761570E+02  0.10000000000E+01 0.  0.
<mgrwt>
<rscale>  0 0.12500034E+03</rscale>
<asrwt>0</asrwt>
<pdfrwt beam="1">  1        4 0.15427740E-01 0.12500034E+03</pdfrwt>
<pdfrwt beam="2">  1       -4 0.59928496E-02 0.12500034E+03</pdfrwt>
<totfact> 0.10149411E+04</totfact>
</mgrwt>
</event>
<event>
 5    1  0.3296424E-002  0.1250020E+03  0.7818608E-02  0.1235066E+00
          4   -1    0    0  501    0  0.00000000000E+00  0.00000000000E+00  0.54550753699E+01  0.56009594974E+01  0.12700000000E+01 0. -1.
         -4   -1    0    0    0  501 -0.00000000000E+00 -0.00000000000E+00 -0.70650354599E+03  0.70650468745E+03  0.12700000000E+01 0. -1.
         25    2    1    2    0    0  0.00000000000E+00  0.00000000000E+00 -0.70104847062E+03  0.71210564695E+03  0.12500197704E+03 0.  0.
    9000005    1    3    3    0    0 -0.30422676061E+02  0.28894040711E+02 -0.61436265277E+03  0.61579450625E+03  0.10000000000E+01 0.  0.
    9000005    1    3    3    0    0  0.30422676061E+02 -0.28894040711E+02 -0.86685817848E+02  0.96311140703E+02  0.10000000000E+01 0.  0.
<mgrwt>
<rscale>  0 0.12500198E+03</rscale>
<asrwt>0</asrwt>
<pdfrwt beam="1">  1        4 0.85055258E-03 0.12500198E+03</pdfrwt>
<pdfrwt beam="2">  1       -4 0.10870409E+00 0.12500198E+03</pdfrwt>
<totfact> 0.42453503E+03</totfact>
</mgrwt>
</event>
<event>
 5    1  0.3296424E-002  0.1249956E+03  0.7818608E-02  0.1235076E+00
          4   -1    0    0  501    0  0.00000000000E+00  0.00000000000E+00  0.12262254844E+03  0.12262912495E+03  0.12700000000E+01 0. -1.
         -4   -1    0    0    0  501 -0.00000000000E+00 -0.00000000000E+00 -0.31833532300E+02  0.31858855577E+02  0.12700000000E+01 0. -1.
         25    2    1    2    0    0  0.00000000000E+00  0.00000000000E+00  0.90789016145E+02  0.15448798053E+03  0.12499556263E+03 0.  0.
    9000005    1    3    3    0    0  0.49008037228E+02  0.33924535383E+02  0.22195836705E+02  0.63610667194E+02  0.10000000000E+01 0.  0.
    9000005    1    3    3    0    0 -0.49008037228E+02 -0.33924535383E+02  0.68593179440E+02  0.90877313338E+02  0.10000000000E+01 0.  0.
<mgrwt>
<rscale>  0 0.12499556E+03</rscale>
<asrwt>0</asrwt>
<pdfrwt beam="1">  1        4 0.18867461E-01 0.12499556E+03</pdfrwt>
<pdfrwt beam="2">  1       -4 0.48999203E-02 0.12499556E+03</pdfrwt>
<totfact> 0.98425931E+03</totfact>
</mgrwt>
</event>
<event>
 5    1  0.3296424E-002  0.1250056E+03  0.7818608E-02  0.1235060E+00
         -4   -1    0    0    0  501 -0.00000000000E+00  0.00000000000E+00  0.58018856990E+03  0.58018995988E+03  0.12700000000E+01 0.  1.
          4   -1    0    0  501    0  0.00000000000E+00 -0.00000000000E+00 -0.66720365220E+01  0.67918312222E+01  0.12700000000E+01 0.  1.
         25    2    1    2    0    0  0.00000000000E+00  0.00000000000E+00  0.57351653338E+03  0.58698179110E+03  0.12500563597E+03 0.  0.
    9000005    1    3    3    0    0 -0.56717566072E+02 -0.25568099068E+02  0.31453499324E+03  0.32063042894E+03  0.10000000000E+01 0.  0.
    9000005    1    3    3    0    0  0.56717566072E+02  0.25568099068E+02  0.25898154014E+03  0.26635136216E+03  0.10000000000E+01 0.  0.
<mgrwt>
<rscale>  0 0.12500564E+03</rscale>
<asrwt>0</asrwt>
<pdfrwt beam="2">  1        4 0.10357894E-02 0.12500564E+03</pdfrwt>
<pdfrwt beam="1">  1       -4 0.89269072E-01 0.12500564E+03</pdfrwt>
<totfact> 0.49693673E+03</totfact>
</mgrwt>
</event>
<event>
 5    1  0.3296424E-002  0.1249997E+03  0.7818608E-02  0.1235070E+00
          4   -1    0    0  501    0  0.00000000000E+00  0.00000000000E+00  0.67073183610E+02  0.67085205966E+02  0.12700000000E+01 0.  1.
         -4   -1    0    0    0  501 -0.00000000000E+00 -0.00000000000E+00 -0.58214137559E+02  0.58227989075E+02  0.12700000000E+01 0.  1.
         25    2    1    2    0    0  0.00000000000E+00  0.00000000000E+00  0.88590460505E+01  0.12531319504E+03  0.12499965662E+03 0.  0.
    9000005    1    3    3    0    0  0.12473226849E+02 -0.54236317325E+02  0.32927380837E+02  0.64671260339E+02  0.10000000000E+01 0.  0.
    9000005    1    3    3    0    0 -0.12473226849E+02  0.54236317325E+02 -0.24068334787E+02  0.60641934702E+02  0.10000000000E+01 0.  0.
<mgrwt>
<rscale>  0 0.12499966E+03</rscale>
<asrwt>0</asrwt>
<pdfrwt beam="1">  1        4 0.10320942E-01 0.12499966E+03</pdfrwt>
<pdfrwt beam="2">  1       -4 0.89580115E-02 0.12499966E+03</pdfrwt>
<totfact> 0.10446145E+04</totfact>
</mgrwt>
</event>
<event>
 5    1  0.3296424E-002  0.1250009E+03  0.7818608E-02  0.1235068E+00
         -4   -1    0    0    0  501 -0.00000000000E+00  0.00000000000E+00  0.70906503016E+01  0.72034867738E+01  0.12700000000E+01 0. -1.
          4   -1    0    0  501    0  0.00000000000E+00 -0.00000000000E+00 -0.54644682620E+03  0.54644830200E+03  0.12700000000E+01 0. -1.
         25    2    1    2    0    0  0.00000000000E+00  0.00000000000E+00 -0.53935617590E+03  0.55365178878E+03  0.12500087495E+03 0.  0.
    9000005    1    3    3    0    0  0.35556817330E+02  0.42394721568E+02 -0.14102536922E+03  0.15149506408E+03  0.10000000000E+01 0.  0.
    9000005    1    3    3    0    0 -0.35556817330E+02 -0.42394721568E+02 -0.39833080667E+03  0.40215672470E+03  0.10000000000E+01 0.  0.
<mgrwt>
<rscale>  0 0.12500087E+03</rscale>
<asrwt>0</asrwt>
<pdfrwt beam="2">  1        4 0.84077503E-01 0.12500087E+03</pdfrwt>
<pdfrwt beam="1">  1       -4 0.10996630E-02 0.12500087E+03</pdfrwt>
<totfact> 0.51929359E+03</totfact>
</mgrwt>
</event>
<event>
 5    1  0.3296424E-002  0.1249980E+03  0.7818608E-02  0.1235072E+00
         -4   -1    0    0    0  501 -0.00000000000E+00  0.00000000000E+00  0.14142252251E+03  0.14142822481E+03  0.12700000000E+01 0.  1.
          4   -1    0    0  501    0  0.00000000000E+00 -0.00000000000E+00 -0.27599407364E+02  0.27628611743E+02  0.12700000000E+01 0.  1.
         25    2    1    2    0    0  0.00000000000E+00  0.00000000000E+00  0.11382311514E+03  0.16905683655E+03  0.12499804976E+03 0.  0.
    9000005    1    3    3    0    0 -0.48197861962E+02 -0.39726294622E+02  0.59587863807E+02  0.86330330100E+02  0.10000000000E+01 0.  0.
    9000005    1    3    3    0    0  0.48197861962E+02  0.39726294622E+02  0.54235251337E+02  0.82726506451E+02  0.10000000000E+01 0.  0.
<mgrwt>
<rscale>  0 0.12499805E+03</rscale>
<asrwt>0</asrwt>
<pdfrwt beam="2">  1        4 0.42487478E-02 0.12499805E+03</pdfrwt>
<pdfrwt beam="1">  1       -4 0.21759996E-01 0.12499805E+03</pdfrwt>
<totfact> 0.95628748E+03</totfact>
</mgrwt>
</event>
<event>
 5    1  0.3296424E-002  0.1249985E+03  0.7818608E-02  0.1235072E+00
          4   -1    0    0  501    0  0.00000000000E+00  0.00000000000E+00  0.21900383529E+03  0.21900751762E+03  0.12700000000E+01 0. -1.
         -4   -1    0    0    0  501 -0.00000000000E+00 -0.00000000000E+00 -0.17809578199E+02  0.17854802593E+02  0.12700000000E+01 0. -1.
         25    2    1    2    0    0  0.00000000000E+00  0.00000000000E+00  0.20119425709E+03  0.23686232021E+03  0.12499851858E+03 0.  0.
    9000005    1    3    3    0    0 -0.50997050159E+02  0.36046258399E+02  0.10488716548E+03  0.12207517910E+03  0.10000000000E+01 0.  0.
    9000005    1    3    3    0    0  0.50997050159E+02 -0.36046258399E+02  0.96307091613E+02  0.11478714111E+03  0.10000000000E+01 0.  0.
<mgrwt>
<rscale>  0 0.12499852E+03</rscale>
<asrwt>0</asrwt>
<pdfrwt beam="1">  1        4 0.33696658E-01 0.12499852E+03</pdfrwt>
<pdfrwt beam="2">  1       -4 0.27436973E-02 0.12499852E+03</pdfrwt>
<totfact> 0.84269683E+03</totfact>
</mgrwt>
</event>
<event>
 5    1  0.3296424E-002  0.1249965E+03  0.7818608E-02  0.1235075E+00
          4   -1    0    0  501    0  0.00000000000E+00  0.00000000000E+00  0.46485320133E+01  0.48188950890E+01  0.12700000000E+01 0.  1.
         -4   -1    0    0    0  501 -0.00000000000E+00 -0.00000000000E+00 -0.82498094399E+03  0.82498192153E+03  0.12700000000E+01 0.  1.
         25    2    1    2    0    0  0.00000000000E+00  0.00000000000E+00 -0.82033241198E+03  0.82980081662E+03  0.12499651642E+03 0.  0.
    9000005    1    3    3    0    0  0.33599683705E+02 -0.33915639106E+02 -0.67784414158E+03  0.67952401693E+03  0.10000000000E+01 0.  0.
    9000005    1    3    3    0    0 -0.33599683705E+02  0.33915639106E+02 -0.14248827041E+03  0.15027679969E+03  0.10000000000E+01 0.  0.
<mgrwt>
<rscale>  0 0.12499652E+03</rscale>
<asrwt>0</asrwt>
<pdfrwt beam="1">  1        4 0.72833947E-03 0.12499652E+03</pdfrwt>
<pdfrwt beam="2">  1       -4 0.12693321E+00 0.12499652E+03</pdfrwt>
<totfact> 0.36971284E+03</totfact>
</mgrwt>
</event>
<event>
 5    1  0.3296424E-002  0.1249952E+03  0.7818608E-02  0.1235077E+00
          4   -1    0    0  501    0  0.00000000000E+00  0.00000000000E+00  0.87629479980E+01  0.88544992865E+01  0.12700000000E+01 0. -1.
         -4   -1    0    0    0  501 -0.00000000000E+00 -0.00000000000E+00 -0.44332565819E+03  0.44332747728E+03  0.12700000000E+01 0. -1.
         25    2    1    2    0    0  0.00000000000E+00  0.00000000000E+00 -0.43456271020E+03  0.45218197657E+03  0.12499516327E+03 0.  0.
    9000005    1    3    3    0    0 -0.37202662024E+02  0.46604910920E+01 -0.39813182063E+03  0.39989461716E+03  0.10000000000E+01 0.  0.
    9000005    1    3    3    0    0  0.37202662024E+02 -0.46604910920E+01 -0.36430889566E+02  0.52287359404E+02  0.10000000000E+01 0.  0.
<mgrwt>
<rscale>  0 0.12499516E+03</rscale>
<asrwt>0</asrwt>
<pdfrwt beam="1">  1        4 0.13553285E-02 0.12499516E+03</pdfrwt>
<pdfrwt beam="2">  1       -4 0.68211112E-01 0.12499516E+03</pdfrwt>
<totfact> 0.59781611E+03</totfact>
</mgrwt>
</event>
<event>
 5    1  0.3296424E-002  0.1249995E+03  0.7818608E-02  0.1235070E+00
         -4   -1    0    0    0  501 -0.00000000000E+00  0.00000000000E+00  0.23070850006E+02  0.23105778930E+02  0.12700000000E+01 0. -1.
          4   -1    0    0  501    0  0.00000000000E+00 -0.00000000000E+00 -0.16914858154E+03  0.16915334918E+03  0.12700000000E+01 0. -1.
         25    2    1    2    0    0  0.00000000000E+00  0.00000000000E+00 -0.14607773154E+03  0.19225912811E+03  0.12499947476E+03 0.  0.
    9000005    1    3    3    0    0 -0.62742928108E+01 -0.42228595561E+02 -0.14322984638E+03  0.14946039585E+03  0.10000000000E+01 0.  0.
    9000005    1    3    3    0    0  0.62742928108E+01  0.42228595561E+02 -0.28478851599E+01  0.42798732261E+02  0.10000000000E+01 0.  0.
<mgrwt>
<rscale>  0 0.12499947E+03</rscale>
<asrwt>0</asrwt>
<pdfrwt beam="2">  1        4 0.26025912E-01 0.12499947E+03</pdfrwt>
<pdfrwt beam="1">  1       -4 0.35524152E-02 0.12499947E+03</pdfrwt>
<totfact> 0.91456789E+03</totfact>
</mgrwt>
</event>
<event>
 5    1  0.3296424E-002  0.1250021E+03  0.7818608E-02  0.1235066E+00
          4   -1    0    0  501    0  0.00000000000E+00  0.00000000000E+00  0.14932261322E+03  0.14932801384E+03  0.12700000000E+01 0. -1.
         -4   -1    0    0    0  501 -0.00000000000E+00 -0.00000000000E+00 -0.26139398326E+02  0.26170232036E+02  0.12700000000E+01 0. -1.
         25    2    1    2    0    0  0.00000000000E+00  0.00000000000E+00  0.12318321489E+03  0.17549824588E+03  0.12500211948E+03 0.  0.
    9000005    1    3    3    0    0 -0.84081660998E+01  0.61731503667E+02  0.68456202392E+02  0.92567421095E+02  0.10000000000E+01 0.  0.
    9000005    1    3    3    0    0  0.84081660998E+01 -0.61731503667E+02  0.54727012501E+02  0.82930824785E+02  0.10000000000E+01 0.  0.
<mgrwt>
<rscale>  0 0.12500212E+03</rscale>
<asrwt>0</asrwt>
<pdfrwt beam="1">  1        4 0.22975497E-01 0.12500212E+03</pdfrwt>
<pdfrwt beam="2">  1       -4 0.40242332E-02 0.12500212E+03</pdfrwt>
<totfact> 0.94429177E+03</totfact>
</mgrwt>
</event>
<event>
 5    1  0.3296424E-002  0.1250005E+03  0.7818608E-02  0.1235068E+00
         -4   -1    0    0    0  501 -0.00000000000E+00  0.00000000000E+00  0.10293649548E+03  0.10294432963E+03  0.12700000000E+01 0. -1.
          4   -1    0    0  501    0  0.00000000000E+00 -0.00000000000E+00 -0.37928573622E+02  0.37949830000E+02  0.12700000000E+01 0. -1.
         25    2    1    2    0    0  0.00000000000E+00  0.00000000000E+00  0.65007921860E+02  0.14089415963E+03  0.12500053725E+03 0.  0.
    9000005    1    3    3    0    0 -0.25669893557E+02  0.37052071109E+02  0.81291186941E+02  0.92957283108E+02  0.10000000000E+01 0.  0.
    9000005    1    3    3    0    0  0.25669893557E+02 -0.37052071109E+02 -0.16283265080E+02  0.47936876518E+02  0.10000000000E+01 0.  0.
<mgrwt>
<rscale>  0 0.12500054E+03</rscale>
<asrwt>0</asrwt>
<pdfrwt beam="2">  1        4 0.58374030E-02 0.12500054E+03</pdfrwt>
<pdfrwt beam="1">  1       -4 0.15838621E-01 0.12500054E+03</pdfrwt>
<totfact> 0.10114965E+04</totfact>
</mgrwt>
</event>
<event>
 5    1  0.3296424E-002  0.1249998E+03  0.7818608E-02  0.1235070E+00
          4   -1    0    0  501    0  0.00000000000E+00  0.00000000000E+00  0.15064167234E+02  0.15117606770E+02  0.12700000000E+01 0.  1.
         -4   -1    0    0    0  501 -0.00000000000E+00 -0.00000000000E+00 -0.25879243201E+03  0.25879554820E+03  0.12700000000E+01 0.  1.
         25    2    1    2    0    0  0.00000000000E+00  0.00000000000E+00 -0.24372826478E+03  0.27391315497E+03  0.12499979765E+03 0.  0.
    9000005    1    3    3    0    0 -0.37156008051E+02  0.44742621768E+02 -0.17196639477E+03  0.18153763265E+03  0.10000000000E+01 0.  0.
    9000005    1    3    3    0    0  0.37156008051E+02 -0.44742621768E+02 -0.71761870010E+02  0.92375522322E+02  0.10000000000E+01 0.  0.
<mgrwt>
<rscale>  0 0.12499980E+03</rscale>
<asrwt>0</asrwt>
<pdfrwt beam="1">  1        4 0.23219148E-02 0.12499980E+03</pdfrwt>
<pdfrwt beam="2">  1       -4 0.39818568E-01 0.12499980E+03</pdfrwt>
<totfact> 0.78992518E+03</totfact>
</mgrwt>
</event>
<event>
 5    1  0.3296424E-002  0.1250010E+03  0.7818608E-02  0.1235068E+00
         -4   -1    0    0    0  501 -0.00000000000E+00  0.00000000000E+00  0.50664429251E+02  0.50680344231E+02  0.12700000000E+01 0. -1.
          4   -1    0    0  501    0  0.00000000000E+00 -0.00000000000E+00 -0.77068476318E+02  0.77078939678E+02  0.12700000000E+01 0. -1.
         25    2    1    2    0    0  0.00000000000E+00  0.00000000000E+00 -0.26404047067E+02  0.12775928391E+03  0.12500104369E+03 0.  0.
    9000005    1    3    3    0    0  0.18772947089E+02 -0.48444885544E+02  0.22291550945E+02  0.56544174954E+02  0.10000000000E+01 0.  0.
    9000005    1    3    3    0    0 -0.18772947089E+02  0.48444885544E+02 -0.48695598012E+02  0.71215108955E+02  0.10000000000E+01 0.  0.
<mgrwt>
<rscale>  0 0.12500104E+03</rscale>
<asrwt>0</asrwt>
<pdfrwt beam="2">  1        4 0.11858718E-01 0.12500104E+03</pdfrwt>
<pdfrwt beam="1">  1       -4 0.77965567E-02 0.12500104E+03</pdfrwt>
<totfact> 0.10392445E+04</totfact>
</mgrwt>
</event>
<event>
 5    1  0.3296424E-002  0.1250005E+03  0.7818608E-02  0.1235069E+00
          4   -1    0    0  501    0  0.00000000000E+00  0.00000000000E+00  0.18315530191E+03  0.18315970495E+03  0.12700000000E+01 0. -1.
         -4   -1    0    0    0  501 -0.00000000000E+00 -0.00000000000E+00 -0.21304125879E+02  0.21341946478E+02  0.12700000000E+01 0. -1.
         25    2    1    2    0    0  0.00000000000E+00  0.00000000000E+00  0.16185117603E+03  0.20450165142E+03  0.12500048902E+03 0.  0.
    9000005    1    3    3    0    0  0.45970800164E+02  0.92528355338E+01  0.13345413383E+02  0.48765043745E+02  0.10000000000E+01 0.  0.
    9000005    1    3    3    0    0 -0.45970800164E+02 -0.92528355338E+01  0.14850576264E+03  0.15573660768E+03  0.10000000000E+01 0.  0.
<mgrwt>
<rscale>  0 0.12500049E+03</rscale>
<asrwt>0</asrwt>
<pdfrwt beam="1">  1        4 0.28180988E-01 0.12500049E+03</pdfrwt>
<pdfrwt beam="2">  1       -4 0.32808056E-02 0.12500049E+03</pdfrwt>
<totfact> 0.89380801E+03</totfact>
</mgrwt>
</event>
<event>
 5    1  0.3296424E-002  0.1249971E+03  0.7818608E-02  0.1235074E+00
          4   -1    0    0  501    0  0.00000000000E+00  0.00000000000E+00  0.30201273688E+02  0.30227964410E+02  0.12700000000E+01 0.  1.
         -4   -1    0    0    0  501 -0.00000000000E+00 -0.00000000000E+00 -0.12924763864E+03  0.12925387806E+03  0.12700000000E+01 0.  1.
         25    2    1    2    0    0  0.00000000000E+00  0.00000000000E+00 -0.99046364947E+02  0.15948184247E+03  0.12499710264E+03 0.  0.
    9000005    1    3    3    0    0 -0.16180113172E+02 -0.38929910659E+02 -0.10837637923E+03  0.11629176059E+03  0.10000000000E+01 0.  0.
    9000005    1    3    3    0    0  0.16180113172E+02  0.38929910659E+02  0.93300142800E+01  0.43190081879E+02  0.10000000000E+01 0.  0.
<mgrwt>
<rscale>  0 0.12499710E+03</rscale>
<asrwt>0</asrwt>
<pdfrwt beam="1">  1        4 0.46488829E-02 0.12499710E+03</pdfrwt>
<pdfrwt beam="2">  1       -4 0.19886785E-01 0.12499710E+03</pdfrwt>
<totfact> 0.97449121E+03</totfact>
</mgrwt>
</event>
<event>
 5    1  0.3296424E-002  0.1249944E+03  0.7818608E-02  0.1235078E+00
         -4   -1    0    0    0  501 -0.00000000000E+00  0.00000000000E+00  0.65177876297E+03  0.65178000028E+03  0.12700000000E+01 0. -1.
          4   -1    0    0  501    0  0.00000000000E+00 -0.00000000000E+00 -0.59241318535E+01  0.60587323936E+01  0.12700000000E+01 0. -1.
         25    2    1    2    0    0  0.00000000000E+00  0.00000000000E+00  0.64585463112E+03  0.65783873267E+03  0.12499437453E+03 0.  0.
    9000005    1    3    3    0    0  0.26174569361E+02  0.29208643247E+02  0.66894532320E+02  0.77550830916E+02  0.10000000000E+01 0.  0.
    9000005    1    3    3    0    0 -0.26174569361E+02 -0.29208643247E+02  0.57896009880E+03  0.58028790176E+03  0.10000000000E+01 0.  0.
<mgrwt>
<rscale>  0 0.12499437E+03</rscale>
<asrwt>0</asrwt>
<pdfrwt beam="2">  1        4 0.92185475E-03 0.12499437E+03</pdfrwt>
<pdfrwt beam="1">  1       -4 0.10028402E+00 0.12499437E+03</pdfrwt>
<totfact> 0.45413128E+03</totfact>
</mgrwt>
</event>
<event>
 5    1  0.3296424E-002  0.1249953E+03  0.7818608E-02  0.1235077E+00
          4   -1    0    0  501    0  0.00000000000E+00  0.00000000000E+00  0.80033983088E+01  0.81035353080E+01  0.12700000000E+01 0. -1.
         -4   -1    0    0    0  501 -0.00000000000E+00 -0.00000000000E+00 -0.48490220806E+03  0.48490387118E+03  0.12700000000E+01 0. -1.
         25    2    1    2    0    0  0.00000000000E+00  0.00000000000E+00 -0.47689880975E+03  0.49300740649E+03  0.12499531234E+03 0.  0.
    9000005    1    3    3    0    0 -0.59491132130E+02  0.18413984297E+02 -0.21807368764E+03  0.22679374520E+03  0.10000000000E+01 0.  0.
    9000005    1    3    3    0    0  0.59491132130E+02 -0.18413984297E+02 -0.25882512211E+03  0.26621366129E+03  0.10000000000E+01 0.  0.
<mgrwt>
<rscale>  0 0.12499531E+03</rscale>
<asrwt>0</asrwt>
<pdfrwt beam="1">  1        4 0.12391232E-02 0.12499531E+03</pdfrwt>
<pdfrwt beam="2">  1       -4 0.74608147E-01 0.12499531E+03</pdfrwt>
<totfact> 0.56416843E+03</totfact>
</mgrwt>
</event>
<event>
 5    1  0.3296424E-002  0.1250198E+03  0.7818608E-02  0.1235038E+00
          4   -1    0    0  501    0  0.00000000000E+00  0.00000000000E+00  0.90231066765E+03  0.90231156141E+03  0.12700000000E+01 0.  1.
         -4   -1    0    0    0  501 -0.00000000000E+00 -0.00000000000E+00 -0.42365071370E+01  0.44227698021E+01  0.12700000000E+01 0.  1.
         25    2    1    2    0    0  0.00000000000E+00  0.00000000000E+00  0.89807416051E+03  0.90673433121E+03  0.12501979691E+03 0.  0.
    9000005    1    3    3    0    0  0.40023172433E+02 -0.24351905001E+01  0.79676750756E+03  0.79777643835E+03  0.10000000000E+01 0.  0.
    9000005    1    3    3    0    0 -0.40023172433E+02  0.24351905001E+01  0.10130665296E+03  0.10895789286E+03  0.10000000000E+01 0.  0.
<mgrwt>
<rscale>  0 0.12501980E+03</rscale>
<asrwt>0</asrwt>
<pdfrwt beam="1">  1        4 0.13883151E+00 0.12501980E+03</pdfrwt>
<pdfrwt beam="2">  1       -4 0.66616656E-03 0.12501980E+03</pdfrwt>
<totfact> 0.33888696E+03</totfact>
</mgrwt>
</event>
<event>
 5    1  0.3296424E-002  0.1250072E+03  0.7818608E-02  0.1235058E+00
          4   -1    0    0  501    0  0.00000000000E+00  0.00000000000E+00  0.38840941899E+01  0.40864517220E+01  0.12700000000E+01 0.  1.
         -4   -1    0    0    0  501 -0.00000000000E+00 -0.00000000000E+00 -0.98008093584E+03  0.98008175868E+03  0.12700000000E+01 0.  1.
         25    2    1    2    0    0  0.00000000000E+00  0.00000000000E+00 -0.97619684165E+03  0.98416821040E+03  0.12500717067E+03 0.  0.
    9000005    1    3    3    0    0  0.31686593610E+02 -0.53041866240E+02 -0.56204429924E+03  0.56543105158E+03  0.10000000000E+01 0.  0.
    9000005    1    3    3    0    0 -0.31686593610E+02  0.53041866240E+02 -0.41415254241E+03  0.41873715882E+03  0.10000000000E+01 0.  0.
<mgrwt>
<rscale>  0 0.12500717E+03</rscale>
<asrwt>0</asrwt>
<pdfrwt beam="1">  1        4 0.61318299E-03 0.12500717E+03</pdfrwt>
<pdfrwt beam="2">  1       -4 0.15079712E+00 0.12500717E+03</pdfrwt>
<totfact> 0.31128235E+03</totfact>
</mgrwt>
</event>
<event>
 5    1  0.3296424E-002  0.1250076E+03  0.7818608E-02  0.1235057E+00
          4   -1    0    0  501    0  0.00000000000E+00  0.00000000000E+00  0.89070505071E+01  0.89971355851E+01  0.12700000000E+01 0. -1.
         -4   -1    0    0    0  501 -0.00000000000E+00 -0.00000000000E+00 -0.43631259928E+03  0.43631444761E+03  0.12700000000E+01 0. -1.
         25    2    1    2    0    0  0.00000000000E+00  0.00000000000E+00 -0.42740554877E+03  0.44531158319E+03  0.12500761178E+03 0.  0.
    9000005    1    3    3    0    0 -0.56756507298E+02  0.22701785041E+02 -0.26001970032E+03  0.26711030815E+03  0.10000000000E+01 0.  0.
    9000005    1    3    3    0    0  0.56756507298E+02 -0.22701785041E+02 -0.16738584845E+03  0.17820127504E+03  0.10000000000E+01 0.  0.
<mgrwt>
<rscale>  0 0.12500761E+03</rscale>
<asrwt>0</asrwt>
<pdfrwt beam="1">  1        4 0.13773876E-02 0.12500761E+03</pdfrwt>
<pdfrwt beam="2">  1       -4 0.67132071E-01 0.12500761E+03</pdfrwt>
<totfact> 0.60361999E+03</totfact>
</mgrwt>
</event>
<event>
 5    1  0.3296424E-002  0.1249991E+03  0.7818608E-02  0.1235071E+00
         -4   -1    0    0    0  501 -0.00000000000E+00  0.00000000000E+00  0.46374680677E+02  0.46392067295E+02  0.12700000000E+01 0.  1.
          4   -1    0    0  501    0  0.00000000000E+00 -0.00000000000E+00 -0.84193264937E+02  0.84202842950E+02  0.12700000000E+01 0.  1.
         25    2    1    2    0    0  0.00000000000E+00  0.00000000000E+00 -0.37818584260E+02  0.13059491024E+03  0.12499914106E+03 0.  0.
    9000005    1    3    3    0    0 -0.51480967751E+02  0.32883515053E+02 -0.51444904853E+01  0.61311347931E+02  0.10000000000E+01 0.  0.
    9000005    1    3    3    0    0  0.51480967751E+02 -0.32883515053E+02 -0.32674093775E+02  0.69283562313E+02  0.10000000000E+01 0.  0.
<mgrwt>
<rscale>  0 0.12499914E+03</rscale>
<asrwt>0</asrwt>
<pdfrwt beam="2">  1        4 0.12954884E-01 0.12499914E+03</pdfrwt>
<pdfrwt beam="1">  1       -4 0.71366405E-02 0.12499914E+03</pdfrwt>
<totfact> 0.10331982E+04</totfact>
</mgrwt>
</event>
<event>
 5    1  0.3296424E-002  0.1249999E+03  0.7818608E-02  0.1235069E+00
          4   -1    0    0  501    0  0.00000000000E+00  0.00000000000E+00  0.16855364469E+03  0.16855842915E+03  0.12700000000E+01 0.  1.
         -4   -1    0    0    0  501 -0.00000000000E+00 -0.00000000000E+00 -0.23152550991E+02  0.23187356844E+02  0.12700000000E+01 0.  1.
         25    2    1    2    0    0  0.00000000000E+00  0.00000000000E+00  0.14540109370E+03  0.19174578600E+03  0.12499987359E+03 0.  0.
    9000005    1    3    3    0    0 -0.48964715104E+02 -0.43537814988E+01  0.13188752583E+03  0.14075446070E+03  0.10000000000E+01 0.  0.
    9000005    1    3    3    0    0  0.48964715104E+02  0.43537814988E+01  0.13513567870E+02  0.50991325293E+02  0.10000000000E+01 0.  0.
<mgrwt>
<rscale>  0 0.12499987E+03</rscale>
<asrwt>0</asrwt>
<pdfrwt beam="1">  1        4 0.25934376E-01 0.12499987E+03</pdfrwt>
<pdfrwt beam="2">  1       -4 0.35649763E-02 0.12499987E+03</pdfrwt>
<totfact> 0.91544697E+03</totfact>
</mgrwt>
</event>
<event>
 5    1  0.3296424E-002  0.1250144E+03  0.7818608E-02  0.1235047E+00
         -4   -1    0    0    0  501 -0.00000000000E+00  0.00000000000E+00  0.96904817309E+03  0.96904900530E+03  0.12700000000E+01 0. -1.
          4   -1    0    0  501    0  0.00000000000E+00 -0.00000000000E+00 -0.39310829482E+01  0.41311394488E+01  0.12700000000E+01 0. -1.
         25    2    1    2    0    0  0.00000000000E+00  0.00000000000E+00  0.96511709014E+03  0.97318014475E+03  0.12501438496E+03 0.  0.
    9000005    1    3    3    0    0  0.60671600552E+02  0.14990355741E+02  0.48745249649E+03  0.49144347611E+03  0.10000000000E+01 0.  0.
    9000005    1    3    3    0    0 -0.60671600552E+02 -0.14990355741E+02  0.47766459366E+03  0.48173666864E+03  0.10000000000E+01 0.  0.
<mgrwt>
<rscale>  0 0.12501438E+03</rscale>
<asrwt>0</asrwt>
<pdfrwt beam="2">  1        4 0.62023361E-03 0.12501438E+03</pdfrwt>
<pdfrwt beam="1">  1       -4 0.14910012E+00 0.12501438E+03</pdfrwt>
<totfact> 0.31497058E+03</totfact>
</mgrwt>
</event>
<event>
 5    1  0.3296424E-002  0.1250015E+03  0.7818608E-02  0.1235067E+00
          4   -1    0    0  501    0  0.00000000000E+00  0.00000000000E+00  0.81022540194E+03  0.81022639728E+03  0.12700000000E+01 0.  1.
         -4   -1    0    0    0  501 -0.00000000000E+00 -0.00000000000E+00 -0.47366548279E+01  0.49039574793E+01  0.12700000000E+01 0.  1.
         25    2    1    2    0    0  0.00000000000E+00  0.00000000000E+00  0.80548874711E+03  0.81513035476E+03  0.12500149409E+03 0.  0.
    9000005    1    3    3    0    0 -0.36981590940E+01  0.35524056193E+02  0.68344841000E+02  0.77121023336E+02  0.10000000000E+01 0.  0.
    9000005    1    3    3    0    0  0.36981590940E+01 -0.35524056193E+02  0.73714390611E+03  0.73800933142E+03  0.10000000000E+01 0.  0.
<mgrwt>
<rscale>  0 0.12500149E+03</rscale>
<asrwt>0</asrwt>
<pdfrwt beam="1">  1        4 0.12466298E+00 0.12500149E+03</pdfrwt>
<pdfrwt beam="2">  1       -4 0.74166228E-03 0.12500149E+03</pdfrwt>
<totfact> 0.37596910E+03</totfact>
</mgrwt>
</event>
<event>
 5    1  0.3296424E-002  0.1250007E+03  0.7818608E-02  0.1235068E+00
          4   -1    0    0  501    0  0.00000000000E+00  0.00000000000E+00  0.30333703435E+02  0.30360277734E+02  0.12700000000E+01 0.  1.
         -4   -1    0    0    0  501 -0.00000000000E+00 -0.00000000000E+00 -0.12869118767E+03  0.12869745407E+03  0.12700000000E+01 0.  1.
         25    2    1    2    0    0  0.00000000000E+00  0.00000000000E+00 -0.98357484234E+02  0.15905773180E+03  0.12500066936E+03 0.  0.
    9000005    1    3    3    0    0  0.36989016878E+02 -0.38031105532E+02 -0.91203281547E+02  0.10551583257E+03  0.10000000000E+01 0.  0.
    9000005    1    3    3    0    0 -0.36989016878E+02  0.38031105532E+02 -0.71542026868E+01  0.53541899235E+02  0.10000000000E+01 0.  0.
<mgrwt>
<rscale>  0 0.12500067E+03</rscale>
<asrwt>0</asrwt>
<pdfrwt beam="1">  1        4 0.46692499E-02 0.12500067E+03</pdfrwt>
<pdfrwt beam="2">  1       -4 0.19801170E-01 0.12500067E+03</pdfrwt>
<totfact> 0.97523287E+03</totfact>
</mgrwt>
</event>
<event>
 5    1  0.3296424E-002  0.1249990E+03  0.7818608E-02  0.1235071E+00
         -4   -1    0    0    0  501 -0.00000000000E+00  0.00000000000E+00  0.17603655160E+02  0.17649407214E+02  0.12700000000E+01 0.  1.
          4   -1    0    0  501    0  0.00000000000E+00 -0.00000000000E+00 -0.22156083530E+03  0.22156447513E+03  0.12700000000E+01 0.  1.
         25    2    1    2    0    0  0.00000000000E+00  0.00000000000E+00 -0.20395718014E+03  0.23921388234E+03  0.12499900070E+03 0.  0.
    9000005    1    3    3    0    0 -0.53620871217E+02  0.26483277525E+02 -0.13667069228E+03  0.14918592409E+03  0.10000000000E+01 0.  0.
    9000005    1    3    3    0    0  0.53620871217E+02 -0.26483277525E+02 -0.67286487863E+02  0.90027958254E+02  0.10000000000E+01 0.  0.
<mgrwt>
<rscale>  0 0.12499900E+03</rscale>
<asrwt>0</asrwt>
<pdfrwt beam="2">  1        4 0.34090080E-01 0.12499900E+03</pdfrwt>
<pdfrwt beam="1">  1       -4 0.27120542E-02 0.12499900E+03</pdfrwt>
<totfact> 0.83916456E+03</totfact>
</mgrwt>
</event>
<event>
 5    1  0.3296424E-002  0.1250006E+03  0.7818608E-02  0.1235068E+00
         -4   -1    0    0    0  501 -0.00000000000E+00  0.00000000000E+00  0.19723018797E+03  0.19723427680E+03  0.12700000000E+01 0. -1.
          4   -1    0    0  501    0  0.00000000000E+00 -0.00000000000E+00 -0.19781085160E+02  0.19821811978E+02  0.12700000000E+01 0. -1.
         25    2    1    2    0    0  0.00000000000E+00  0.00000000000E+00  0.17744910281E+03  0.21705608878E+03  0.12500064636E+03 0.  0.
    9000005    1    3    3    0    0 -0.90574030773E+01 -0.31648219785E+02 -0.35136500843E+01  0.33120871108E+02  0.10000000000E+01 0.  0.
    9000005    1    3    3    0    0  0.90574030773E+01  0.31648219785E+02  0.18096275289E+03  0.18393521768E+03  0.10000000000E+01 0.  0.
<mgrwt>
<rscale>  0 0.12500065E+03</rscale>
<asrwt>0</asrwt>
<pdfrwt beam="2">  1        4 0.30466911E-02 0.12500065E+03</pdfrwt>
<pdfrwt beam="1">  1       -4 0.30346554E-01 0.12500065E+03</pdfrwt>
<totfact> 0.87335076E+03</totfact>
</mgrwt>
</event>
<event>
 5    1  0.3296424E-002  0.1249589E+03  0.7818608E-02  0.1235133E+00
          4   -1    0    0  501    0  0.00000000000E+00  0.00000000000E+00  0.28910731117E+02  0.28938612159E+02  0.12700000000E+01 0.  1.
         -4   -1    0    0    0  501 -0.00000000000E+00 -0.00000000000E+00 -0.13492945364E+03  0.13493543034E+03  0.12700000000E+01 0.  1.
         25    2    1    2    0    0  0.00000000000E+00  0.00000000000E+00 -0.10601872252E+03  0.16387404249E+03  0.12495892236E+03 0.  0.
    9000005    1    3    3    0    0 -0.32474665016E+02 -0.48986156446E+02 -0.25238268113E+02  0.63970442929E+02  0.10000000000E+01 0.  0.
    9000005    1    3    3    0    0  0.32474665016E+02  0.48986156446E+02 -0.80780454411E+02  0.99903599565E+02  0.10000000000E+01 0.  0.
<mgrwt>
<rscale>  0 0.12495892E+03</rscale>
<asrwt>0</asrwt>
<pdfrwt beam="1">  1        4 0.44504093E-02 0.12495892E+03</pdfrwt>
<pdfrwt beam="2">  1       -4 0.20760982E-01 0.12495892E+03</pdfrwt>
<totfact> 0.96690266E+03</totfact>
</mgrwt>
</event>
<event>
 5    1  0.3296424E-002  0.1249986E+03  0.7818608E-02  0.1235071E+00
         -4   -1    0    0    0  501 -0.00000000000E+00  0.00000000000E+00  0.22427471269E+02  0.22463400622E+02  0.12700000000E+01 0.  1.
          4   -1    0    0  501    0  0.00000000000E+00 -0.00000000000E+00 -0.17399109336E+03  0.17399572831E+03  0.12700000000E+01 0.  1.
         25    2    1    2    0    0  0.00000000000E+00  0.00000000000E+00 -0.15156362209E+03  0.19645912893E+03  0.12499863118E+03 0.  0.
    9000005    1    3    3    0    0  0.25737527433E+02  0.12109773321E+02 -0.16323472256E+03  0.16569743986E+03  0.10000000000E+01 0.  0.
    9000005    1    3    3    0    0 -0.25737527433E+02 -0.12109773321E+02  0.11671100465E+02  0.30761689068E+02  0.10000000000E+01 0.  0.
<mgrwt>
<rscale>  0 0.12499863E+03</rscale>
<asrwt>0</asrwt>
<pdfrwt beam="2">  1        4 0.26770980E-01 0.12499863E+03</pdfrwt>
<pdfrwt beam="1">  1       -4 0.34535006E-02 0.12499863E+03</pdfrwt>
<totfact> 0.90738216E+03</totfact>
</mgrwt>
</event>
<event>
 5    1  0.3296424E-002  0.1249994E+03  0.7818608E-02  0.1235070E+00
         -4   -1    0    0    0  501 -0.00000000000E+00  0.00000000000E+00  0.23350306195E+03  0.23350651562E+03  0.12700000000E+01 0.  1.
          4   -1    0    0  501    0  0.00000000000E+00 -0.00000000000E+00 -0.16701047797E+02  0.16749265582E+02  0.12700000000E+01 0.  1.
         25    2    1    2    0    0  0.00000000000E+00  0.00000000000E+00  0.21680201415E+03  0.25025578121E+03  0.12499937075E+03 0.  0.
    9000005    1    3    3    0    0  0.15532082869E+02  0.50152944904E+02  0.40547918694E+02  0.66345287634E+02  0.10000000000E+01 0.  0.
    9000005    1    3    3    0    0 -0.15532082869E+02 -0.50152944904E+02  0.17625409546E+03  0.18391049357E+03  0.10000000000E+01 0.  0.
<mgrwt>
<rscale>  0 0.12499937E+03</rscale>
<asrwt>0</asrwt>
<pdfrwt beam="2">  1        4 0.25733667E-02 0.12499937E+03</pdfrwt>
<pdfrwt beam="1">  1       -4 0.35927523E-01 0.12499937E+03</pdfrwt>
<totfact> 0.82294426E+03</totfact>
</mgrwt>
</event>
<event>
 5    1  0.3296424E-002  0.1249999E+03  0.7818608E-02  0.1235069E+00
          4   -1    0    0  501    0  0.00000000000E+00  0.00000000000E+00  0.75286355943E+01  0.76350018934E+01  0.12700000000E+01 0.  1.
         -4   -1    0    0    0  501 -0.00000000000E+00 -0.00000000000E+00 -0.51510509449E+03  0.51510666009E+03  0.12700000000E+01 0.  1.
         25    2    1    2    0    0  0.00000000000E+00  0.00000000000E+00 -0.50757645890E+03  0.52274166199E+03  0.12499993419E+03 0.  0.
    9000005    1    3    3    0    0 -0.31527314721E+02  0.17029698528E+01 -0.28259188978E+02  0.42384589671E+02  0.10000000000E+01 0.  0.
    9000005    1    3    3    0    0  0.31527314721E+02 -0.17029698528E+01 -0.47931726992E+03  0.48035707232E+03  0.10000000000E+01 0.  0.
<mgrwt>
<rscale>  0 0.12499993E+03</rscale>
<asrwt>0</asrwt>
<pdfrwt beam="1">  1        4 0.11665545E-02 0.12499993E+03</pdfrwt>
<pdfrwt beam="2">  1       -4 0.79255213E-01 0.12499993E+03</pdfrwt>
<totfact> 0.54142169E+03</totfact>
</mgrwt>
</event>
<event>
 5    1  0.3296424E-002  0.1250011E+03  0.7818608E-02  0.1235068E+00
          4   -1    0    0  501    0  0.00000000000E+00  0.00000000000E+00  0.11241643491E+04  0.11241650665E+04  0.12700000000E+01 0. -1.
         -4   -1    0    0    0  501 -0.00000000000E+00 -0.00000000000E+00 -0.33580792911E+01  0.35902084237E+01  0.12700000000E+01 0. -1.
         25    2    1    2    0    0  0.00000000000E+00  0.00000000000E+00  0.11208062698E+04  0.11277552749E+04  0.12500106249E+03 0.  0.
    9000005    1    3    3    0    0  0.32663145291E+02  0.12955210249E+02  0.10266387140E+04  0.10272403650E+04  0.10000000000E+01 0.  0.
    9000005    1    3    3    0    0 -0.32663145291E+02 -0.12955210249E+02  0.94167555839E+02  0.10051490987E+03  0.10000000000E+01 0.  0.
<mgrwt>
<rscale>  0 0.12500106E+03</rscale>
<asrwt>0</asrwt>
<pdfrwt beam="1">  1        4 0.17296635E+00 0.12500106E+03</pdfrwt>
<pdfrwt beam="2">  1       -4 0.53453862E-03 0.12500106E+03</pdfrwt>
<totfact> 0.26684303E+03</totfact>
</mgrwt>
</event>
<event>
 5    1  0.3296424E-002  0.1250030E+03  0.7818608E-02  0.1235065E+00
          4   -1    0    0  501    0  0.00000000000E+00  0.00000000000E+00  0.38089924831E+02  0.38111091216E+02  0.12700000000E+01 0.  1.
         -4   -1    0    0    0  501 -0.00000000000E+00 -0.00000000000E+00 -0.10250467729E+03  0.10251254443E+03  0.12700000000E+01 0.  1.
         25    2    1    2    0    0  0.00000000000E+00  0.00000000000E+00 -0.64414752459E+02  0.14062363565E+03  0.12500298624E+03 0.  0.
    9000005    1    3    3    0    0 -0.50578256903E+02 -0.31862048446E+02 -0.11706921009E+02  0.60921278729E+02  0.10000000000E+01 0.  0.
    9000005    1    3    3    0    0  0.50578256903E+02  0.31862048446E+02 -0.52707831450E+02  0.79702356920E+02  0.10000000000E+01 0.  0.
<mgrwt>
<rscale>  0 0.12500299E+03</rscale>
<asrwt>0</asrwt>
<pdfrwt beam="1">  1        4 0.58622218E-02 0.12500299E+03</pdfrwt>
<pdfrwt beam="2">  1       -4 0.15772184E-01 0.12500299E+03</pdfrwt>
<totfact> 0.10119996E+04</totfact>
</mgrwt>
</event>
<event>
 5    1  0.3296424E-002  0.1249896E+03  0.7818608E-02  0.1235086E+00
          4   -1    0    0  501    0  0.00000000000E+00  0.00000000000E+00  0.95826448166E+01  0.96664358313E+01  0.12700000000E+01 0.  1.
         -4   -1    0    0    0  501 -0.00000000000E+00 -0.00000000000E+00 -0.40571125235E+03  0.40571324009E+03  0.12700000000E+01 0.  1.
         25    2    1    2    0    0  0.00000000000E+00  0.00000000000E+00 -0.39612860753E+03  0.41537967592E+03  0.12498960541E+03 0.  0.
    9000005    1    3    3    0    0 -0.60808680941E+02  0.14383877526E+02 -0.19837525703E+03  0.20798637987E+03  0.10000000000E+01 0.  0.
    9000005    1    3    3    0    0  0.60808680941E+02 -0.14383877526E+02 -0.19775335051E+03  0.20739329605E+03  0.10000000000E+01 0.  0.
<mgrwt>
<rscale>  0 0.12498961E+03</rscale>
<asrwt>0</asrwt>
<pdfrwt beam="1">  1        4 0.14808517E-02 0.12498961E+03</pdfrwt>
<pdfrwt beam="2">  1       -4 0.62423701E-01 0.12498961E+03</pdfrwt>
<totfact> 0.63098445E+03</totfact>
</mgrwt>
</event>
<event>
 5    1  0.3296424E-002  0.1249959E+03  0.7818608E-02  0.1235076E+00
         -4   -1    0    0    0  501 -0.00000000000E+00  0.00000000000E+00  0.70775586448E+03  0.70775700392E+03  0.12700000000E+01 0. -1.
          4   -1    0    0  501    0  0.00000000000E+00 -0.00000000000E+00 -0.54446173576E+01  0.55907743803E+01  0.12700000000E+01 0. -1.
         25    2    1    2    0    0  0.00000000000E+00  0.00000000000E+00  0.70231124712E+03  0.71334777830E+03  0.12499585985E+03 0.  0.
    9000005    1    3    3    0    0  0.59279781492E+02 -0.94799944578E+00  0.46385928229E+03  0.46763385780E+03  0.10000000000E+01 0.  0.
    9000005    1    3    3    0    0 -0.59279781492E+02  0.94799944578E+00  0.23845196483E+03  0.24571392050E+03  0.10000000000E+01 0.  0.
<mgrwt>
<rscale>  0 0.12499586E+03</rscale>
<asrwt>0</asrwt>
<pdfrwt beam="2">  1        4 0.84896424E-03 0.12499586E+03</pdfrwt>
<pdfrwt beam="1">  1       -4 0.10889681E+00 0.12499586E+03</pdfrwt>
<totfact> 0.42395242E+03</totfact>
</mgrwt>
</event>
<event>
 5    1  0.3296424E-002  0.1250005E+03  0.7818608E-02  0.1235069E+00
          4   -1    0    0  501    0  0.00000000000E+00  0.00000000000E+00  0.81825784169E+02  0.81835639270E+02  0.12700000000E+01 0. -1.
         -4   -1    0    0    0  501 -0.00000000000E+00 -0.00000000000E+00 -0.47717813508E+02  0.47734710913E+02  0.12700000000E+01 0. -1.
         25    2    1    2    0    0  0.00000000000E+00  0.00000000000E+00  0.34107970661E+02  0.12957035018E+03  0.12500048794E+03 0.  0.
    9000005    1    3    3    0    0  0.22770674982E+02  0.43580161135E+02 -0.22924762423E+02  0.54261209127E+02  0.10000000000E+01 0.  0.
    9000005    1    3    3    0    0 -0.22770674982E+02 -0.43580161135E+02  0.57032733084E+02  0.75309141057E+02  0.10000000000E+01 0.  0.
<mgrwt>
<rscale>  0 0.12500049E+03</rscale>
<asrwt>0</asrwt>
<pdfrwt beam="1">  1        4 0.12590640E-01 0.12500049E+03</pdfrwt>
<pdfrwt beam="2">  1       -4 0.73432600E-02 0.12500049E+03</pdfrwt>
<totfact> 0.10353593E+04</totfact>
</mgrwt>
</event>
<event>
 5    1  0.3296424E-002  0.1249889E+03  0.7818608E-02  0.1235087E+00
         -4   -1    0    0    0  501 -0.00000000000E+00  0.00000000000E+00  0.35805292453E+02  0.35827808580E+02  0.12700000000E+01 0.  1.
          4   -1    0    0  501    0  0.00000000000E+00 -0.00000000000E+00 -0.10901711903E+03  0.10902451624E+03  0.12700000000E+01 0.  1.
         25    2    1    2    0    0  0.00000000000E+00  0.00000000000E+00 -0.73211826575E+02  0.14485232482E+03  0.12498889733E+03 0.  0.
    9000005    1    3    3    0    0 -0.12062737423E+02  0.61246869459E+02 -0.39856571703E+02  0.74069122855E+02  0.10000000000E+01 0.  0.
    9000005    1    3    3    0    0  0.12062737423E+02 -0.61246869459E+02 -0.33355254873E+02  0.70783201964E+02  0.10000000000E+01 0.  0.
<mgrwt>
<rscale>  0 0.12498890E+03</rscale>
<asrwt>0</asrwt>
<pdfrwt beam="2">  1        4 0.16774165E-01 0.12498890E+03</pdfrwt>
<pdfrwt beam="1">  1       -4 0.55108076E-02 0.12498890E+03</pdfrwt>
<totfact> 0.10036499E+04</totfact>
</mgrwt>
</event>
<event>
 5    1  0.3296424E-002  0.1249994E+03  0.7818608E-02  0.1235070E+00
          4   -1    0    0  501    0  0.00000000000E+00  0.00000000000E+00  0.13321385218E+02  0.13381786283E+02  0.12700000000E+01 0.  1.
         -4   -1    0    0    0  501 -0.00000000000E+00 -0.00000000000E+00 -0.29250350702E+03  0.29250626407E+03  0.12700000000E+01 0.  1.
         25    2    1    2    0    0  0.00000000000E+00  0.00000000000E+00 -0.27918212180E+03  0.30588805035E+03  0.12499936885E+03 0.  0.
    9000005    1    3    3    0    0 -0.23080228467E+02 -0.28019288534E+02 -0.15114020421E+02  0.39334604222E+02  0.10000000000E+01 0.  0.
    9000005    1    3    3    0    0  0.23080228467E+02  0.28019288534E+02 -0.26406810138E+03  0.26655344613E+03  0.10000000000E+01 0.  0.
<mgrwt>
<rscale>  0 0.12499937E+03</rscale>
<asrwt>0</asrwt>
<pdfrwt beam="1">  1        4 0.20543024E-02 0.12499937E+03</pdfrwt>
<pdfrwt beam="2">  1       -4 0.45005393E-01 0.12499937E+03</pdfrwt>
<totfact> 0.74867190E+03</totfact>
</mgrwt>
</event>
<event>
 5    1  0.3296424E-002  0.1250052E+03  0.7818608E-02  0.1235061E+00
         -4   -1    0    0    0  501 -0.00000000000E+00  0.00000000000E+00  0.16076410196E+03  0.16076911824E+03  0.12700000000E+01 0. -1.
          4   -1    0    0  501    0  0.00000000000E+00 -0.00000000000E+00 -0.24278039574E+02  0.24311234143E+02  0.12700000000E+01 0. -1.
         25    2    1    2    0    0  0.00000000000E+00  0.00000000000E+00  0.13648606239E+03  0.18508035238E+03  0.12500516634E+03 0.  0.
    9000005    1    3    3    0    0  0.16648594523E+01  0.36850003491E+02  0.14293361812E+03  0.14762016700E+03  0.10000000000E+01 0.  0.
    9000005    1    3    3    0    0 -0.16648594523E+01 -0.36850003491E+02 -0.64475557342E+01  0.37460185387E+02  0.10000000000E+01 0.  0.
<mgrwt>
<rscale>  0 0.12500517E+03</rscale>
<asrwt>0</asrwt>
<pdfrwt beam="2">  1        4 0.37380225E-02 0.12500517E+03</pdfrwt>
<pdfrwt beam="1">  1       -4 0.24735877E-01 0.12500517E+03</pdfrwt>
<totfact> 0.92699702E+03</totfact>
</mgrwt>
</event>
<event>
 5    1  0.3296424E-002  0.1250004E+03  0.7818608E-02  0.1235069E+00
          4   -1    0    0  501    0  0.00000000000E+00  0.00000000000E+00  0.93693298709E+02  0.93701905653E+02  0.12700000000E+01 0. -1.
         -4   -1    0    0    0  501 -0.00000000000E+00 -0.00000000000E+00 -0.41671960091E+02  0.41691307941E+02  0.12700000000E+01 0. -1.
         25    2    1    2    0    0  0.00000000000E+00  0.00000000000E+00  0.52021338618E+02  0.13539321359E+03  0.12500041046E+03 0.  0.
    9000005    1    3    3    0    0  0.14432299699E+01 -0.19902391653E+02  0.90155071360E+02  0.92342433356E+02  0.10000000000E+01 0.  0.
    9000005    1    3    3    0    0 -0.14432299699E+01  0.19902391653E+02 -0.38133732742E+02  0.43050780237E+02  0.10000000000E+01 0.  0.
<mgrwt>
<rscale>  0 0.12500041E+03</rscale>
<asrwt>0</asrwt>
<pdfrwt beam="1">  1        4 0.14416504E-01 0.12500041E+03</pdfrwt>
<pdfrwt beam="2">  1       -4 0.64132211E-02 0.12500041E+03</pdfrwt>
<totfact> 0.10229695E+04</totfact>
</mgrwt>
</event>
<event>
 5    1  0.3296424E-002  0.1249985E+03  0.7818608E-02  0.1235072E+00
         -4   -1    0    0    0  501 -0.00000000000E+00  0.00000000000E+00  0.14309877853E+03  0.14310441404E+03  0.12700000000E+01 0. -1.
          4   -1    0    0  501    0  0.00000000000E+00 -0.00000000000E+00 -0.27275972435E+02  0.27305522743E+02  0.12700000000E+01 0. -1.
         25    2    1    2    0    0  0.00000000000E+00  0.00000000000E+00  0.11582280610E+03  0.17040993678E+03  0.12499849656E+03 0.  0.
    9000005    1    3    3    0    0  0.62083270537E+02  0.56675696135E+01  0.52015686641E+02  0.81197816982E+02  0.10000000000E+01 0.  0.
    9000005    1    3    3    0    0 -0.62083270537E+02 -0.56675696135E+01  0.63807119457E+02  0.89212119801E+02  0.10000000000E+01 0.  0.
<mgrwt>
<rscale>  0 0.12499850E+03</rscale>
<asrwt>0</asrwt>
<pdfrwt beam="2">  1        4 0.41990101E-02 0.12499850E+03</pdfrwt>
<pdfrwt beam="1">  1       -4 0.22017903E-01 0.12499850E+03</pdfrwt>
<totfact> 0.95375503E+03</totfact>
</mgrwt>
</event>
<event>
 5    1  0.3296424E-002  0.1249966E+03  0.7818608E-02  0.1235075E+00
          4   -1    0    0  501    0  0.00000000000E+00  0.00000000000E+00  0.20855806877E+02  0.20894438984E+02  0.12700000000E+01 0.  1.
         -4   -1    0    0    0  501 -0.00000000000E+00 -0.00000000000E+00 -0.18707373661E+03  0.18707804743E+03  0.12700000000E+01 0.  1.
         25    2    1    2    0    0  0.00000000000E+00  0.00000000000E+00 -0.16621792974E+03  0.20797248641E+03  0.12499661971E+03 0.  0.
    9000005    1    3    3    0    0  0.34774858500E+02  0.43059317977E+02 -0.34839598740E+02  0.65407899284E+02  0.10000000000E+01 0.  0.
    9000005    1    3    3    0    0 -0.34774858500E+02 -0.43059317977E+02 -0.13137833100E+03  0.14256458713E+03  0.10000000000E+01 0.  0.
<mgrwt>
<rscale>  0 0.12499662E+03</rscale>
<asrwt>0</asrwt>
<pdfrwt beam="1">  1        4 0.32118891E-02 0.12499662E+03</pdfrwt>
<pdfrwt beam="2">  1       -4 0.28783877E-01 0.12499662E+03</pdfrwt>
<totfact> 0.88814788E+03</totfact>
</mgrwt>
</event>
<event>
 5    1  0.3296424E-002  0.1249991E+03  0.7818608E-02  0.1235071E+00
         -4   -1    0    0    0  501 -0.00000000000E+00  0.00000000000E+00  0.18480385323E+04  0.18480389687E+04  0.12700000000E+01 0.  1.
          4   -1    0    0  501    0  0.00000000000E+00 -0.00000000000E+00 -0.19224546704E+01  0.23040685666E+01  0.12700000000E+01 0.  1.
         25    2    1    2    0    0  0.00000000000E+00  0.00000000000E+00  0.18461160777E+04  0.18503430373E+04  0.12499913364E+03 0.  0.
    9000005    1    3    3    0    0 -0.15153747967E+02 -0.59536373321E+02  0.10924714492E+04  0.10941979177E+04  0.10000000000E+01 0.  0.
    9000005    1    3    3    0    0  0.15153747967E+02  0.59536373321E+02  0.75364462846E+03  0.75614511955E+03  0.10000000000E+01 0.  0.
<mgrwt>
<rscale>  0 0.12499913E+03</rscale>
<asrwt>0</asrwt>
<pdfrwt beam="2">  1        4 0.32515069E-03 0.12499913E+03</pdfrwt>
<pdfrwt beam="1">  1       -4 0.28434305E+00 0.12499913E+03</pdfrwt>
<totfact> 0.11943844E+03</totfact>
</mgrwt>
</event>
<event>
 5    1  0.3296424E-002  0.1249953E+03  0.7818608E-02  0.1235077E+00
          4   -1    0    0  501    0  0.00000000000E+00  0.00000000000E+00  0.22007563783E+01  0.25409109855E+01  0.12700000000E+01 0. -1.
         -4   -1    0    0    0  501 -0.00000000000E+00 -0.00000000000E+00 -0.16471629360E+04  0.16471634256E+04  0.12700000000E+01 0. -1.
         25    2    1    2    0    0  0.00000000000E+00  0.00000000000E+00 -0.16449621796E+04  0.16497043366E+04  0.12499530296E+03 0.  0.
    9000005    1    3    3    0    0 -0.52438910058E+02 -0.33077873029E+02 -0.71942450447E+03  0.72209182422E+03  0.10000000000E+01 0.  0.
    9000005    1    3    3    0    0  0.52438910058E+02  0.33077873029E+02 -0.92553767515E+03  0.92761251237E+03  0.10000000000E+01 0.  0.
<mgrwt>
<rscale>  0 0.12499530E+03</rscale>
<asrwt>0</asrwt>
<pdfrwt beam="1">  1        4 0.36478262E-03 0.12499530E+03</pdfrwt>
<pdfrwt beam="2">  1       -4 0.25343497E+00 0.12499530E+03</pdfrwt>
<totfact> 0.15166210E+03</totfact>
</mgrwt>
</event>
<event>
 5    1  0.3296424E-002  0.1249982E+03  0.7818608E-02  0.1235072E+00
          4   -1    0    0  501    0  0.00000000000E+00  0.00000000000E+00  0.12925416158E+03  0.12926040069E+03  0.12700000000E+01 0.  1.
         -4   -1    0    0    0  501 -0.00000000000E+00 -0.00000000000E+00 -0.30200258179E+02  0.30226949797E+02  0.12700000000E+01 0.  1.
         25    2    1    2    0    0  0.00000000000E+00  0.00000000000E+00  0.99053903405E+02  0.15948735049E+03  0.12499815673E+03 0.  0.
    9000005    1    3    3    0    0 -0.26620968748E+02 -0.17577170037E+02 -0.19035095195E+02  0.37161374203E+02  0.10000000000E+01 0.  0.
    9000005    1    3    3    0    0  0.26620968748E+02  0.17577170037E+02  0.11808899860E+03  0.12232597629E+03  0.10000000000E+01 0.  0.
<mgrwt>
<rscale>  0 0.12499816E+03</rscale>
<asrwt>0</asrwt>
<pdfrwt beam="1">  1        4 0.19887788E-01 0.12499816E+03</pdfrwt>
<pdfrwt beam="2">  1       -4 0.46487268E-02 0.12499816E+03</pdfrwt>
<totfact> 0.97445748E+03</totfact>
</mgrwt>
</event>
<event>
 5    1  0.3296424E-002  0.1250000E+03  0.7818608E-02  0.1235069E+00
          4   -1    0    0  501    0  0.00000000000E+00  0.00000000000E+00  0.17650330075E+03  0.17650786973E+03  0.12700000000E+01 0.  1.
         -4   -1    0    0    0  501 -0.00000000000E+00 -0.00000000000E+00 -0.22108242593E+02  0.22144689895E+02  0.12700000000E+01 0.  1.
         25    2    1    2    0    0  0.00000000000E+00  0.00000000000E+00  0.15439505816E+03  0.19865255962E+03  0.12500002184E+03 0.  0.
    9000005    1    3    3    0    0 -0.37974200595E+02 -0.49535610958E+02  0.82078971349E+02  0.10312019299E+03  0.10000000000E+01 0.  0.
    9000005    1    3    3    0    0  0.37974200595E+02  0.49535610958E+02  0.72316086809E+02  0.95532366636E+02  0.10000000000E+01 0.  0.
<mgrwt>
<rscale>  0 0.12500002E+03</rscale>
<asrwt>0</asrwt>
<pdfrwt beam="1">  1        4 0.27157509E-01 0.12500002E+03</pdfrwt>
<pdfrwt beam="2">  1       -4 0.34044232E-02 0.12500002E+03</pdfrwt>
<totfact> 0.90363168E+03</totfact>
</mgrwt>
</event>
<event>
 5    1  0.3296424E-002  0.1250006E+03  0.7818608E-02  0.1235068E+00
         -4   -1    0    0    0  501 -0.00000000000E+00  0.00000000000E+00  0.22043307195E+02  0.22079861687E+02  0.12700000000E+01 0. -1.
          4   -1    0    0  501    0  0.00000000000E+00 -0.00000000000E+00 -0.17702407450E+03  0.17702863003E+03  0.12700000000E+01 0. -1.
         25    2    1    2    0    0  0.00000000000E+00  0.00000000000E+00 -0.15498076730E+03  0.19910849172E+03  0.12500061297E+03 0.  0.
    9000005    1    3    3    0    0  0.48039476741E+02  0.31502150458E+02 -0.38307594812E+02  0.69055402607E+02  0.10000000000E+01 0.  0.
    9000005    1    3    3    0    0 -0.48039476741E+02 -0.31502150458E+02 -0.11667317249E+03  0.13005308911E+03  0.10000000000E+01 0.  0.
<mgrwt>
<rscale>  0 0.12500061E+03</rscale>
<asrwt>0</asrwt>
<pdfrwt beam="2">  1        4 0.27237634E-01 0.12500061E+03</pdfrwt>
<pdfrwt beam="1">  1       -4 0.33944405E-02 0.12500061E+03</pdfrwt>
<totfact> 0.90284846E+03</totfact>
</mgrwt>
</event>
<event>
 5    1  0.3296424E-002  0.1249947E+03  0.7818608E-02  0.1235078E+00
         -4   -1    0    0    0  501 -0.00000000000E+00  0.00000000000E+00  0.19615681786E+02  0.19656751307E+02  0.12700000000E+01 0.  1.
          4   -1    0    0  501    0  0.00000000000E+00 -0.00000000000E+00 -0.19887101173E+03  0.19887506683E+03  0.12700000000E+01 0.  1.
         25    2    1    2    0    0  0.00000000000E+00  0.00000000000E+00 -0.17925532994E+03  0.21853181814E+03  0.12499472879E+03 0.  0.
    9000005    1    3    3    0    0  0.22321310935E+02  0.50458088220E+02 -0.38336916797E+02  0.67193591794E+02  0.10000000000E+01 0.  0.
    9000005    1    3    3    0    0 -0.22321310935E+02 -0.50458088220E+02 -0.14091841315E+03  0.15133822634E+03  0.10000000000E+01 0.  0.
<mgrwt>
<rscale>  0 0.12499473E+03</rscale>
<asrwt>0</asrwt>
<pdfrwt beam="2">  1        4 0.30599010E-01 0.12499473E+03</pdfrwt>
<pdfrwt beam="1">  1       -4 0.30212685E-02 0.12499473E+03</pdfrwt>
<totfact> 0.87111463E+03</totfact>
</mgrwt>
</event>
<event>
 5    1  0.3296424E-002  0.1250132E+03  0.7818608E-02  0.1235049E+00
          4   -1    0    0  501    0  0.00000000000E+00  0.00000000000E+00  0.59814324989E+03  0.59814459815E+03  0.12700000000E+01 0.  1.
         -4   -1    0    0    0  501 -0.00000000000E+00 -0.00000000000E+00 -0.64689050135E+01  0.65923919842E+01  0.12700000000E+01 0.  1.
         25    2    1    2    0    0  0.00000000000E+00  0.00000000000E+00  0.59167434488E+03  0.60473699013E+03  0.12501318668E+03 0.  0.
    9000005    1    3    3    0    0  0.35379516004E+02 -0.51508795109E+02  0.30115408386E+03  0.30757055833E+03  0.10000000000E+01 0.  0.
    9000005    1    3    3    0    0 -0.35379516004E+02  0.51508795109E+02  0.29052026102E+03  0.29716643180E+03  0.10000000000E+01 0.  0.
<mgrwt>
<rscale>  0 0.12501319E+03</rscale>
<asrwt>0</asrwt>
<pdfrwt beam="1">  1        4 0.92031657E-01 0.12501319E+03</pdfrwt>
<pdfrwt beam="2">  1       -4 0.10048187E-02 0.12501319E+03</pdfrwt>
<totfact> 0.48555910E+03</totfact>
</mgrwt>
</event>
<event>
 5    1  0.3296424E-002  0.1249962E+03  0.7818608E-02  0.1235075E+00
         -4   -1    0    0    0  501 -0.00000000000E+00  0.00000000000E+00  0.17183041818E+02  0.17229910798E+02  0.12700000000E+01 0.  1.
          4   -1    0    0  501    0  0.00000000000E+00 -0.00000000000E+00 -0.22695955258E+03  0.22696310583E+03  0.12700000000E+01 0.  1.
         25    2    1    2    0    0  0.00000000000E+00  0.00000000000E+00 -0.20977651076E+03  0.24419301663E+03  0.12499617955E+03 0.  0.
    9000005    1    3    3    0    0  0.46052097891E+02 -0.39900576289E+02 -0.13196942704E+03  0.14536086606E+03  0.10000000000E+01 0.  0.
    9000005    1    3    3    0    0 -0.46052097891E+02  0.39900576289E+02 -0.77807083721E+02  0.98832150566E+02  0.10000000000E+01 0.  0.
<mgrwt>
<rscale>  0 0.12499618E+03</rscale>
<asrwt>0</asrwt>
<pdfrwt beam="2">  1        4 0.34920731E-01 0.12499618E+03</pdfrwt>
<pdfrwt beam="1">  1       -4 0.26474237E-02 0.12499618E+03</pdfrwt>
<totfact> 0.83183912E+03</totfact>
</mgrwt>
</event>
<event>
 5    1  0.3296424E-002  0.1249999E+03  0.7818608E-02  0.1235069E+00
         -4   -1    0    0    0  501 -0.00000000000E+00  0.00000000000E+00  0.75405835293E+03  0.75405942241E+03  0.12700000000E+01 0. -1.
          4   -1    0    0  501    0  0.00000000000E+00 -0.00000000000E+00 -0.51013651649E+01  0.52570739528E+01  0.12700000000E+01 0. -1.
         25    2    1    2    0    0  0.00000000000E+00  0.00000000000E+00  0.74895698777E+03  0.75931649637E+03  0.12499988850E+03 0.  0.
    9000005    1    3    3    0    0 -0.42624017699E+02  0.40805455214E+00  0.65207020670E+03  0.65346272110E+03  0.10000000000E+01 0.  0.
    9000005    1    3    3    0    0  0.42624017699E+02 -0.40805455214E+00  0.96886781066E+02  0.10585377527E+03  0.10000000000E+01 0.  0.
<mgrwt>
<rscale>  0 0.12499989E+03</rscale>
<asrwt>0</asrwt>
<pdfrwt beam="2">  1        4 0.79688615E-03 0.12499989E+03</pdfrwt>
<pdfrwt beam="1">  1       -4 0.11602091E+00 0.12499989E+03</pdfrwt>
<totfact> 0.40132581E+03</totfact>
</mgrwt>
</event>
<event>
 5    1  0.3296424E-002  0.1250105E+03  0.7818608E-02  0.1235053E+00
         -4   -1    0    0    0  501 -0.00000000000E+00  0.00000000000E+00  0.92739110334E+01  0.93604661132E+01  0.12700000000E+01 0.  1.
          4   -1    0    0  501    0  0.00000000000E+00 -0.00000000000E+00 -0.41923504556E+03  0.41923696917E+03  0.12700000000E+01 0.  1.
         25    2    1    2    0    0  0.00000000000E+00  0.00000000000E+00 -0.40996113452E+03  0.42859743529E+03  0.12501051842E+03 0.  0.
    9000005    1    3    3    0    0  0.11048620352E+02  0.50507969506E+01  0.52036832714E+01  0.13253711974E+02  0.10000000000E+01 0.  0.
    9000005    1    3    3    0    0 -0.11048620352E+02 -0.50507969506E+01 -0.41516481779E+03  0.41534372331E+03  0.10000000000E+01 0.  0.
<mgrwt>
<rscale>  0 0.12501052E+03</rscale>
<asrwt>0</asrwt>
<pdfrwt beam="2">  1        4 0.64504491E-01 0.12501052E+03</pdfrwt>
<pdfrwt beam="1">  1       -4 0.14335619E-02 0.12501052E+03</pdfrwt>
<totfact> 0.61848992E+03</totfact>
</mgrwt>
</event>
<event>
 5    1  0.3296424E-002  0.1249920E+03  0.7818608E-02  0.1235082E+00
         -4   -1    0    0    0  501 -0.00000000000E+00  0.00000000000E+00  0.30361037312E+03  0.30361302930E+03  0.12700000000E+01 0. -1.
          4   -1    0    0  501    0  0.00000000000E+00 -0.00000000000E+00 -0.12830294207E+02  0.12892996139E+02  0.12700000000E+01 0. -1.
         25    2    1    2    0    0  0.00000000000E+00  0.00000000000E+00  0.29078007891E+03  0.31650602544E+03  0.12499203915E+03 0.  0.
    9000005    1    3    3    0    0  0.48375255293E+02 -0.19896358824E+02  0.58822465483E+02  0.78721743278E+02  0.10000000000E+01 0.  0.
    9000005    1    3    3    0    0 -0.48375255293E+02  0.19896358824E+02  0.23195761343E+03  0.23778428217E+03  0.10000000000E+01 0.  0.
<mgrwt>
<rscale>  0 0.12499204E+03</rscale>
<asrwt>0</asrwt>
<pdfrwt beam="2">  1        4 0.19789190E-02 0.12499204E+03</pdfrwt>
<pdfrwt beam="1">  1       -4 0.46714314E-01 0.12499204E+03</pdfrwt>
<totfact> 0.73586610E+03</totfact>
</mgrwt>
</event>
<event>
 5    1  0.3296424E-002  0.1249994E+03  0.7818608E-02  0.1235070E+00
         -4   -1    0    0    0  501 -0.00000000000E+00  0.00000000000E+00  0.18807298778E+02  0.18850129637E+02  0.12700000000E+01 0.  1.
          4   -1    0    0  501    0  0.00000000000E+00 -0.00000000000E+00 -0.20741574049E+03  0.20741962854E+03  0.12700000000E+01 0.  1.
         25    2    1    2    0    0  0.00000000000E+00  0.00000000000E+00 -0.18860844171E+03  0.22626975818E+03  0.12499943672E+03 0.  0.
    9000005    1    3    3    0    0 -0.40197157292E+02 -0.19067543960E+02 -0.17374210504E+03  0.17935077851E+03  0.10000000000E+01 0.  0.
    9000005    1    3    3    0    0  0.40197157292E+02  0.19067543960E+02 -0.14866336670E+02  0.46918979667E+02  0.10000000000E+01 0.  0.
<mgrwt>
<rscale>  0 0.12499944E+03</rscale>
<asrwt>0</asrwt>
<pdfrwt beam="2">  1        4 0.31913706E-01 0.12499944E+03</pdfrwt>
<pdfrwt beam="1">  1       -4 0.28970245E-02 0.12499944E+03</pdfrwt>
<totfact> 0.85886770E+03</totfact>
</mgrwt>
</event>
<event>
 5    1  0.3296424E-002  0.1249970E+03  0.7818608E-02  0.1235074E+00
          4   -1    0    0  501    0  0.00000000000E+00  0.00000000000E+00  0.91667724413E+01  0.92543296349E+01  0.12700000000E+01 0.  1.
         -4   -1    0    0    0  501 -0.00000000000E+00 -0.00000000000E+00 -0.42399682270E+03  0.42399872472E+03  0.12700000000E+01 0.  1.
         25    2    1    2    0    0  0.00000000000E+00  0.00000000000E+00 -0.41483005026E+03  0.43325305435E+03  0.12499695399E+03 0.  0.
    9000005    1    3    3    0    0 -0.20343497265E+02  0.56006008374E+02 -0.14215188800E+03  0.15413854196E+03  0.10000000000E+01 0.  0.
    9000005    1    3    3    0    0  0.20343497265E+02 -0.56006008374E+02 -0.27267816226E+03  0.27911451239E+03  0.10000000000E+01 0.  0.
<mgrwt>
<rscale>  0 0.12499695E+03</rscale>
<asrwt>0</asrwt>
<pdfrwt beam="1">  1        4 0.14171545E-02 0.12499695E+03</pdfrwt>
<pdfrwt beam="2">  1       -4 0.65237147E-01 0.12499695E+03</pdfrwt>
<totfact> 0.61446358E+03</totfact>
</mgrwt>
</event>
<event>
 5    1  0.3296424E-002  0.1250112E+03  0.7818608E-02  0.1235052E+00
         -4   -1    0    0    0  501 -0.00000000000E+00  0.00000000000E+00  0.11176841968E+04  0.11176849183E+04  0.12700000000E+01 0.  1.
          4   -1    0    0  501    0  0.00000000000E+00 -0.00000000000E+00 -0.33794763475E+01  0.36102299627E+01  0.12700000000E+01 0.  1.
         25    2    1    2    0    0  0.00000000000E+00  0.00000000000E+00  0.11143047204E+04  0.11212951483E+04  0.12501119780E+03 0.  0.
    9000005    1    3    3    0    0 -0.61612796433E+02  0.96353317734E+01  0.52019866302E+03  0.52392425532E+03  0.10000000000E+01 0.  0.
    9000005    1    3    3    0    0  0.61612796433E+02 -0.96353317734E+01  0.59410605739E+03  0.59737089294E+03  0.10000000000E+01 0.  0.
<mgrwt>
<rscale>  0 0.12501120E+03</rscale>
<asrwt>0</asrwt>
<pdfrwt beam="2">  1        4 0.53772543E-03 0.12501120E+03</pdfrwt>
<pdfrwt beam="1">  1       -4 0.17196915E+00 0.12501120E+03</pdfrwt>
<totfact> 0.26861808E+03</totfact>
</mgrwt>
</event>
<event>
 5    1  0.3296424E-002  0.1250012E+03  0.7818608E-02  0.1235067E+00
         -4   -1    0    0    0  501 -0.00000000000E+00  0.00000000000E+00  0.10318754123E+02  0.10396614191E+02  0.12700000000E+01 0.  1.
          4   -1    0    0  501    0  0.00000000000E+00 -0.00000000000E+00 -0.37706372999E+03  0.37706586875E+03  0.12700000000E+01 0.  1.
         25    2    1    2    0    0  0.00000000000E+00  0.00000000000E+00 -0.36674497587E+03  0.38746248294E+03  0.12500119344E+03 0.  0.
    9000005    1    3    3    0    0 -0.44206137627E+02  0.35747749119E+02 -0.26379925076E+03  0.26985760851E+03  0.10000000000E+01 0.  0.
    9000005    1    3    3    0    0  0.44206137627E+02 -0.35747749119E+02 -0.10294572512E+03  0.11760487443E+03  0.10000000000E+01 0.  0.
<mgrwt>
<rscale>  0 0.12500119E+03</rscale>
<asrwt>0</asrwt>
<pdfrwt beam="2">  1        4 0.58015948E-01 0.12500119E+03</pdfrwt>
<pdfrwt beam="1">  1       -4 0.15936547E-02 0.12500119E+03</pdfrwt>
<totfact> 0.65788987E+03</totfact>
</mgrwt>
</event>
<event>
 5    1  0.3296424E-002  0.1249942E+03  0.7818608E-02  0.1235078E+00
         -4   -1    0    0    0  501 -0.00000000000E+00  0.00000000000E+00  0.60341896403E+02  0.60355259601E+02  0.12700000000E+01 0.  1.
          4   -1    0    0  501    0  0.00000000000E+00 -0.00000000000E+00 -0.64702555577E+02  0.64715018335E+02  0.12700000000E+01 0.  1.
         25    2    1    2    0    0  0.00000000000E+00  0.00000000000E+00 -0.43606591740E+01  0.12507027794E+03  0.12499423617E+03 0.  0.
    9000005    1    3    3    0    0 -0.59835391750E+01  0.19877593555E+02 -0.61156565902E+02  0.64591385026E+02  0.10000000000E+01 0.  0.
    9000005    1    3    3    0    0  0.59835391750E+01 -0.19877593555E+02  0.56795906728E+02  0.60478892910E+02  0.10000000000E+01 0.  0.
<mgrwt>
<rscale>  0 0.12499424E+03</rscale>
<asrwt>0</asrwt>
<pdfrwt beam="2">  1        4 0.99562259E-02 0.12499424E+03</pdfrwt>
<pdfrwt beam="1">  1       -4 0.92853553E-02 0.12499424E+03</pdfrwt>
<totfact> 0.10452698E+04</totfact>
</mgrwt>
</event>
<event>
 5    1  0.3296424E-002  0.1250098E+03  0.7818608E-02  0.1235054E+00
          4   -1    0    0  501    0  0.00000000000E+00  0.00000000000E+00  0.52135669418E+02  0.52151135420E+02  0.12700000000E+01 0.  1.
         -4   -1    0    0    0  501 -0.00000000000E+00 -0.00000000000E+00 -0.74904534139E+02  0.74915299736E+02  0.12700000000E+01 0.  1.
         25    2    1    2    0    0  0.00000000000E+00  0.00000000000E+00 -0.22768864721E+02  0.12706643516E+03  0.12500983058E+03 0.  0.
    9000005    1    3    3    0    0 -0.14829351247E+01  0.59659589323E+01 -0.74601448309E+02  0.74860990191E+02  0.10000000000E+01 0.  0.
    9000005    1    3    3    0    0  0.14829351247E+01 -0.59659589323E+01  0.51832583588E+02  0.52205444965E+02  0.10000000000E+01 0.  0.
<mgrwt>
<rscale>  0 0.12500983E+03</rscale>
<asrwt>0</asrwt>
<pdfrwt beam="1">  1        4 0.80228900E-02 0.12500983E+03</pdfrwt>
<pdfrwt beam="2">  1       -4 0.11525792E-01 0.12500983E+03</pdfrwt>
<totfact> 0.10405393E+04</totfact>
</mgrwt>
</event>
<event>
 5    1  0.3296424E-002  0.1250019E+03  0.7818608E-02  0.1235066E+00
         -4   -1    0    0    0  501 -0.00000000000E+00  0.00000000000E+00  0.26971486475E+03  0.26971785474E+03  0.12700000000E+01 0. -1.
          4   -1    0    0  501    0  0.00000000000E+00 -0.00000000000E+00 -0.14452416639E+02  0.14508109688E+02  0.12700000000E+01 0. -1.
         25    2    1    2    0    0  0.00000000000E+00  0.00000000000E+00  0.25526244811E+03  0.28422596443E+03  0.12500192575E+03 0.  0.
    9000005    1    3    3    0    0  0.28978138130E+02  0.55285630948E+02  0.13450421925E+03  0.14828559766E+03  0.10000000000E+01 0.  0.
    9000005    1    3    3    0    0 -0.28978138130E+02 -0.55285630948E+02  0.12075822886E+03  0.13594036677E+03  0.10000000000E+01 0.  0.
<mgrwt>
<rscale>  0 0.12500193E+03</rscale>
<asrwt>0</asrwt>
<pdfrwt beam="2">  1        4 0.22279629E-02 0.12500193E+03</pdfrwt>
<pdfrwt beam="1">  1       -4 0.41499107E-01 0.12500193E+03</pdfrwt>
<totfact> 0.77617768E+03</totfact>
</mgrwt>
</event>
<event>
 5    1  0.3296424E-002  0.1250005E+03  0.7818608E-02  0.1235068E+00
          4   -1    0    0  501    0  0.00000000000E+00  0.00000000000E+00  0.67591841376E+02  0.67603771497E+02  0.12700000000E+01 0. -1.
         -4   -1    0    0    0  501 -0.00000000000E+00 -0.00000000000E+00 -0.57768215396E+02  0.57782173809E+02  0.12700000000E+01 0. -1.
         25    2    1    2    0    0  0.00000000000E+00  0.00000000000E+00  0.98236259797E+01  0.12538594531E+03  0.12500052661E+03 0.  0.
    9000005    1    3    3    0    0 -0.55287030176E+02  0.18211094531E+02 -0.17895559176E+02  0.60906081042E+02  0.10000000000E+01 0.  0.
    9000005    1    3    3    0    0  0.55287030176E+02 -0.18211094531E+02  0.27719185156E+02  0.64479864263E+02  0.10000000000E+01 0.  0.
<mgrwt>
<rscale>  0 0.12500053E+03</rscale>
<asrwt>0</asrwt>
<pdfrwt beam="1">  1        4 0.10400736E-01 0.12500053E+03</pdfrwt>
<pdfrwt beam="2">  1       -4 0.88894092E-02 0.12500053E+03</pdfrwt>
<totfact> 0.10444354E+04</totfact>
</mgrwt>
</event>
<event>
 5    1  0.3296424E-002  0.1250010E+03  0.7818608E-02  0.1235068E+00
          4   -1    0    0  501    0  0.00000000000E+00  0.00000000000E+00  0.51656105628E+02  0.51671715170E+02  0.12700000000E+01 0. -1.
         -4   -1    0    0    0  501 -0.00000000000E+00 -0.00000000000E+00 -0.75589131383E+02  0.75599799492E+02  0.12700000000E+01 0. -1.
         25    2    1    2    0    0  0.00000000000E+00  0.00000000000E+00 -0.23933025755E+02  0.12727151466E+03  0.12500099489E+03 0.  0.
    9000005    1    3    3    0    0 -0.17099480803E+02  0.24599084367E+02 -0.67806149124E+02  0.74136233074E+02  0.10000000000E+01 0.  0.
    9000005    1    3    3    0    0  0.17099480803E+02 -0.24599084367E+02  0.43873123368E+02  0.53135281589E+02  0.10000000000E+01 0.  0.
<mgrwt>
<rscale>  0 0.12500099E+03</rscale>
<asrwt>0</asrwt>
<pdfrwt beam="1">  1        4 0.79491145E-02 0.12500099E+03</pdfrwt>
<pdfrwt beam="2">  1       -4 0.11631119E-01 0.12500099E+03</pdfrwt>
<totfact> 0.10403019E+04</totfact>
</mgrwt>
</event>
<event>
 5    1  0.3296424E-002  0.1250004E+03  0.7818608E-02  0.1235069E+00
          4   -1    0    0  501    0  0.00000000000E+00  0.00000000000E+00  0.48956809791E+02  0.48973279704E+02  0.12700000000E+01 0. -1.
         -4   -1    0    0    0  501 -0.00000000000E+00 -0.00000000000E+00 -0.79755300579E+02  0.79765411492E+02  0.12700000000E+01 0. -1.
         25    2    1    2    0    0  0.00000000000E+00  0.00000000000E+00 -0.30798490788E+02  0.12873869120E+03  0.12500041430E+03 0.  0.
    9000005    1    3    3    0    0  0.26680830835E+02  0.62348330781E+01  0.42445695588E+02  0.50530950431E+02  0.10000000000E+01 0.  0.
    9000005    1    3    3    0    0 -0.26680830835E+02 -0.62348330781E+01 -0.73244186376E+02  0.78207740764E+02  0.10000000000E+01 0.  0.
<mgrwt>
<rscale>  0 0.12500041E+03</rscale>
<asrwt>0</asrwt>
<pdfrwt beam="1">  1        4 0.75338616E-02 0.12500041E+03</pdfrwt>
<pdfrwt beam="2">  1       -4 0.12272091E-01 0.12500041E+03</pdfrwt>
<totfact> 0.10371468E+04</totfact>
</mgrwt>
</event>
<event>
 5    1  0.3296424E-002  0.1250006E+03  0.7818608E-02  0.1235068E+00
         -4   -1    0    0    0  501 -0.00000000000E+00  0.00000000000E+00  0.90399786103E+02  0.90408706591E+02  0.12700000000E+01 0. -1.
          4   -1    0    0  501    0  0.00000000000E+00 -0.00000000000E+00 -0.43190829450E+02  0.43209497204E+02  0.12700000000E+01 0. -1.
         25    2    1    2    0    0  0.00000000000E+00  0.00000000000E+00  0.47208956653E+02  0.13361820379E+03  0.12500055519E+03 0.  0.
    9000005    1    3    3    0    0  0.17268884226E+02  0.59929188019E+02  0.27821414230E+02  0.68298997276E+02  0.10000000000E+01 0.  0.
    9000005    1    3    3    0    0 -0.17268884226E+02 -0.59929188019E+02  0.19387542423E+02  0.65319206519E+02  0.10000000000E+01 0.  0.
<mgrwt>
<rscale>  0 0.12500056E+03</rscale>
<asrwt>0</asrwt>
<pdfrwt beam="2">  1        4 0.66468651E-02 0.12500056E+03</pdfrwt>
<pdfrwt beam="1">  1       -4 0.13909782E-01 0.12500056E+03</pdfrwt>
<totfact> 0.10267150E+04</totfact>
</mgrwt>
</event>
<event>
 5    1  0.3296424E-002  0.1249933E+03  0.7818608E-02  0.1235080E+00
         -4   -1    0    0    0  501 -0.00000000000E+00  0.00000000000E+00  0.83469362882E+01  0.84429997868E+01  0.12700000000E+01 0. -1.
          4   -1    0    0  501    0  0.00000000000E+00 -0.00000000000E+00 -0.46516138219E+03  0.46516311589E+03  0.12700000000E+01 0. -1.
         25    2    1    2    0    0  0.00000000000E+00  0.00000000000E+00 -0.45681444590E+03  0.47360611567E+03  0.12499325909E+03 0.  0.
    9000005    1    3    3    0    0  0.34566804738E+02  0.24615477169E+02 -0.40221052177E+03  0.40444417356E+03  0.10000000000E+01 0.  0.
    9000005    1    3    3    0    0 -0.34566804738E+02 -0.24615477169E+02 -0.54603924136E+02  0.69161942115E+02  0.10000000000E+01 0.  0.
<mgrwt>
<rscale>  0 0.12499326E+03</rscale>
<asrwt>0</asrwt>
<pdfrwt beam="2">  1        4 0.71570792E-01 0.12499326E+03</pdfrwt>
<pdfrwt beam="1">  1       -4 0.12916673E-02 0.12499326E+03</pdfrwt>
<totfact> 0.57980593E+03</totfact>
</mgrwt>
</event>
<event>
 5    1  0.3296424E-002  0.1249987E+03  0.7818608E-02  0.1235071E+00
          4   -1    0    0  501    0  0.00000000000E+00  0.00000000000E+00  0.53340524625E+03  0.53340675814E+03  0.12700000000E+01 0. -1.
         -4   -1    0    0    0  501 -0.00000000000E+00 -0.00000000000E+00 -0.72664808851E+01  0.73766282578E+01  0.12700000000E+01 0. -1.
         25    2    1    2    0    0  0.00000000000E+00  0.00000000000E+00  0.52613876537E+03  0.54078338640E+03  0.12499868232E+03 0.  0.
    9000005    1    3    3    0    0 -0.27795254351E+02  0.15325947921E+02  0.30182447161E+02  0.43811425003E+02  0.10000000000E+01 0.  0.
    9000005    1    3    3    0    0  0.27795254351E+02 -0.15325947921E+02  0.49595631821E+03  0.49697196140E+03  0.10000000000E+01 0.  0.
<mgrwt>
<rscale>  0 0.12499868E+03</rscale>
<asrwt>0</asrwt>
<pdfrwt beam="1">  1        4 0.82070970E-01 0.12499868E+03</pdfrwt>
<pdfrwt beam="2">  1       -4 0.11265088E-02 0.12499868E+03</pdfrwt>
<totfact> 0.52834851E+03</totfact>
</mgrwt>
</event>
<event>
 5    1  0.3296424E-002  0.1249961E+03  0.7818608E-02  0.1235075E+00
          4   -1    0    0  501    0  0.00000000000E+00  0.00000000000E+00  0.27972752268E+01  0.30720756329E+01  0.12700000000E+01 0. -1.
         -4   -1    0    0    0  501 -0.00000000000E+00 -0.00000000000E+00 -0.13307087343E+04  0.13307093404E+04  0.12700000000E+01 0. -1.
         25    2    1    2    0    0  0.00000000000E+00  0.00000000000E+00 -0.13279114591E+04  0.13337814160E+04  0.12499608966E+03 0.  0.
    9000005    1    3    3    0    0  0.43615452637E+02 -0.15887275423E+02 -0.11103756194E+04  0.11113459089E+04  0.10000000000E+01 0.  0.
    9000005    1    3    3    0    0 -0.43615452637E+02  0.15887275423E+02 -0.21753583974E+03  0.22243550706E+03  0.10000000000E+01 0.  0.
<mgrwt>
<rscale>  0 0.12499609E+03</rscale>
<asrwt>0</asrwt>
<pdfrwt beam="1">  1        4 0.45153621E-03 0.12499609E+03</pdfrwt>
<pdfrwt beam="2">  1       -4 0.20474512E+00 0.12499609E+03</pdfrwt>
<totfact> 0.21446884E+03</totfact>
</mgrwt>
</event>
<event>
 5    1  0.3296424E-002  0.1250004E+03  0.7818608E-02  0.1235069E+00
         -4   -1    0    0    0  501 -0.00000000000E+00  0.00000000000E+00  0.11859073663E+02  0.11926882583E+02  0.12700000000E+01 0.  1.
          4   -1    0    0  501    0  0.00000000000E+00 -0.00000000000E+00 -0.32838338765E+03  0.32838584346E+03  0.12700000000E+01 0.  1.
         25    2    1    2    0    0  0.00000000000E+00  0.00000000000E+00 -0.31652431399E+03  0.34031272604E+03  0.12500044064E+03 0.  0.
    9000005    1    3    3    0    0  0.59597667724E+02  0.44562911192E+01 -0.10854129347E+03  0.12391106858E+03  0.10000000000E+01 0.  0.
    9000005    1    3    3    0    0 -0.59597667724E+02 -0.44562911192E+01 -0.20798302052E+03  0.21640165746E+03  0.10000000000E+01 0.  0.
<mgrwt>
<rscale>  0 0.12500044E+03</rscale>
<asrwt>0</asrwt>
<pdfrwt beam="2">  1        4 0.50525919E-01 0.12500044E+03</pdfrwt>
<pdfrwt beam="1">  1       -4 0.18298781E-02 0.12500044E+03</pdfrwt>
<totfact> 0.70802901E+03</totfact>
</mgrwt>
</event>
<event>
 5    1  0.3296424E-002  0.1250008E+03  0.7818608E-02  0.1235068E+00
         -4   -1    0    0    0  501 -0.00000000000E+00  0.00000000000E+00  0.29230562830E+01  0.31870296568E+01  0.12700000000E+01 0.  1.
          4   -1    0    0  501    0  0.00000000000E+00 -0.00000000000E+00 -0.12783753653E+04  0.12783759962E+04  0.12700000000E+01 0.  1.
         25    2    1    2    0    0  0.00000000000E+00  0.00000000000E+00 -0.12754523091E+04  0.12815630258E+04  0.12500078605E+03 0.  0.
    9000005    1    3    3    0    0 -0.47076816723E+02  0.33414617126E+02 -0.39240864012E+03  0.39663371535E+03  0.10000000000E+01 0.  0.
    9000005    1    3    3    0    0  0.47076816723E+02 -0.33414617126E+02 -0.88304366894E+03  0.88492931049E+03  0.10000000000E+01 0.  0.
<mgrwt>
<rscale>  0 0.12500079E+03</rscale>
<asrwt>0</asrwt>
<pdfrwt beam="2">  1        4 0.19669306E+00 0.12500079E+03</pdfrwt>
<pdfrwt beam="1">  1       -4 0.47005616E-03 0.12500079E+03</pdfrwt>
<totfact> 0.22667564E+03</totfact>
</mgrwt>
</event>
<event>
 5    1  0.3296424E-002  0.1250030E+03  0.7818608E-02  0.1235065E+00
          4   -1    0    0  501    0  0.00000000000E+00  0.00000000000E+00  0.32213171470E+02  0.32238196540E+02  0.12700000000E+01 0. -1.
         -4   -1    0    0    0  501 -0.00000000000E+00 -0.00000000000E+00 -0.12119285861E+03  0.12119951269E+03  0.12700000000E+01 0. -1.
         25    2    1    2    0    0  0.00000000000E+00  0.00000000000E+00 -0.88979687138E+02  0.15343770923E+03  0.12500298353E+03 0.  0.
    9000005    1    3    3    0    0  0.15600085071E+02 -0.58351144173E+02 -0.64176058872E+02  0.88135039643E+02  0.10000000000E+01 0.  0.
    9000005    1    3    3    0    0 -0.15600085071E+02  0.58351144173E+02 -0.24803628266E+02  0.65302669591E+02  0.10000000000E+01 0.  0.
<mgrwt>
<rscale>  0 0.12500298E+03</rscale>
<asrwt>0</asrwt>
<pdfrwt beam="1">  1        4 0.49583095E-02 0.12500298E+03</pdfrwt>
<pdfrwt beam="2">  1       -4 0.18647492E-01 0.12500298E+03</pdfrwt>
<totfact> 0.98616184E+03</totfact>
</mgrwt>
</event>
<event>
 5    1  0.3296424E-002  0.1250007E+03  0.7818608E-02  0.1235068E+00
         -4   -1    0    0    0  501 -0.00000000000E+00  0.00000000000E+00  0.40513867103E+02  0.40533767746E+02  0.12700000000E+01 0. -1.
          4   -1    0    0  501    0  0.00000000000E+00 -0.00000000000E+00 -0.96370938340E+02  0.96379306163E+02  0.12700000000E+01 0. -1.
         25    2    1    2    0    0  0.00000000000E+00  0.00000000000E+00 -0.55857071236E+02  0.13691307391E+03  0.12500070960E+03 0.  0.
    9000005    1    3    3    0    0 -0.35081650984E+02  0.48210543834E+02 -0.74281435257E+01  0.60092895494E+02  0.10000000000E+01 0.  0.
    9000005    1    3    3    0    0  0.35081650984E+02 -0.48210543834E+02 -0.48428927711E+02  0.76820178415E+02  0.10000000000E+01 0.  0.
<mgrwt>
<rscale>  0 0.12500071E+03</rscale>
<asrwt>0</asrwt>
<pdfrwt beam="2">  1        4 0.14828473E-01 0.12500071E+03</pdfrwt>
<pdfrwt beam="1">  1       -4 0.62350772E-02 0.12500071E+03</pdfrwt>
<totfact> 0.10197740E+04</totfact>
</mgrwt>
</event>
<event>
 5    1  0.3296424E-002  0.1250156E+03  0.7818608E-02  0.1235045E+00
         -4   -1    0    0    0  501 -0.00000000000E+00  0.00000000000E+00  0.40065594047E+03  0.40065795329E+03  0.12700000000E+01 0. -1.
          4   -1    0    0  501    0  0.00000000000E+00 -0.00000000000E+00 -0.97086708990E+01  0.97913834888E+01  0.12700000000E+01 0. -1.
         25    2    1    2    0    0  0.00000000000E+00  0.00000000000E+00  0.39094726957E+03  0.41044933677E+03  0.12501556094E+03 0.  0.
    9000005    1    3    3    0    0  0.33519657265E+02 -0.49978977504E+02  0.25087655948E+03  0.25799518157E+03  0.10000000000E+01 0.  0.
    9000005    1    3    3    0    0 -0.33519657265E+02  0.49978977504E+02  0.14007071009E+03  0.15245415521E+03  0.10000000000E+01 0.  0.
<mgrwt>
<rscale>  0 0.12501556E+03</rscale>
<asrwt>0</asrwt>
<pdfrwt beam="2">  1        4 0.15001593E-02 0.12501556E+03</pdfrwt>
<pdfrwt beam="1">  1       -4 0.61645882E-01 0.12501556E+03</pdfrwt>
<totfact> 0.63527219E+03</totfact>
</mgrwt>
</event>
<event>
 5    1  0.3296424E-002  0.1250021E+03  0.7818608E-02  0.1235066E+00
          4   -1    0    0  501    0  0.00000000000E+00  0.00000000000E+00  0.39604301412E+02  0.39624658867E+02  0.12700000000E+01 0. -1.
         -4   -1    0    0    0  501 -0.00000000000E+00 -0.00000000000E+00 -0.98585474625E+02  0.98593654496E+02  0.12700000000E+01 0. -1.
         25    2    1    2    0    0  0.00000000000E+00  0.00000000000E+00 -0.58981173213E+02  0.13821831336E+03  0.12500209340E+03 0.  0.
    9000005    1    3    3    0    0 -0.17052717917E+02  0.55418316322E+02 -0.55266049190E+02  0.80108184135E+02  0.10000000000E+01 0.  0.
    9000005    1    3    3    0    0  0.17052717917E+02 -0.55418316322E+02 -0.37151240231E+01  0.58110129228E+02  0.10000000000E+01 0.  0.
<mgrwt>
<rscale>  0 0.12500209E+03</rscale>
<asrwt>0</asrwt>
<pdfrwt beam="1">  1        4 0.60951647E-02 0.12500209E+03</pdfrwt>
<pdfrwt beam="2">  1       -4 0.15169191E-01 0.12500209E+03</pdfrwt>
<totfact> 0.10170167E+04</totfact>
</mgrwt>
</event>
<event>
 5    1  0.3296424E-002  0.1249984E+03  0.7818608E-02  0.1235072E+00
          4   -1    0    0  501    0  0.00000000000E+00  0.00000000000E+00  0.68565373286E+02  0.68577134045E+02  0.12700000000E+01 0.  1.
         -4   -1    0    0    0  501 -0.00000000000E+00 -0.00000000000E+00 -0.56946026572E+02  0.56960186467E+02  0.12700000000E+01 0.  1.
         25    2    1    2    0    0  0.00000000000E+00  0.00000000000E+00  0.11619346714E+02  0.12553732051E+03  0.12499843848E+03 0.  0.
    9000005    1    3    3    0    0 -0.79327663310E+01 -0.26493436599E+02 -0.50470486106E+02  0.57559542495E+02  0.10000000000E+01 0.  0.
    9000005    1    3    3    0    0  0.79327663310E+01  0.26493436599E+02  0.62089832820E+02  0.67977778017E+02  0.10000000000E+01 0.  0.
<mgrwt>
<rscale>  0 0.12499844E+03</rscale>
<asrwt>0</asrwt>
<pdfrwt beam="1">  1        4 0.10550513E-01 0.12499844E+03</pdfrwt>
<pdfrwt beam="2">  1       -4 0.87629211E-02 0.12499844E+03</pdfrwt>
<totfact> 0.10441498E+04</totfact>
</mgrwt>
</event>
<event>
 5    1  0.3296424E-002  0.1250034E+03  0.7818608E-02  0.1235064E+00
         -4   -1    0    0    0  501 -0.00000000000E+00  0.00000000000E+00  0.20255462163E+03  0.20255860299E+03  0.12700000000E+01 0.  1.
          4   -1    0    0  501    0  0.00000000000E+00 -0.00000000000E+00 -0.19260892868E+02  0.19302717272E+02  0.12700000000E+01 0.  1.
         25    2    1    2    0    0  0.00000000000E+00  0.00000000000E+00  0.18329372876E+03  0.22186132026E+03  0.12500341765E+03 0.  0.
    9000005    1    3    3    0    0 -0.46854779840E+02  0.10625038120E+02  0.16257843860E+03  0.16953173899E+03  0.10000000000E+01 0.  0.
    9000005    1    3    3    0    0  0.46854779840E+02 -0.10625038120E+02  0.20715290164E+02  0.52329581266E+02  0.10000000000E+01 0.  0.
<mgrwt>
<rscale>  0 0.12500342E+03</rscale>
<asrwt>0</asrwt>
<pdfrwt beam="2">  1        4 0.29667378E-02 0.12500342E+03</pdfrwt>
<pdfrwt beam="1">  1       -4 0.31165773E-01 0.12500342E+03</pdfrwt>
<totfact> 0.86568066E+03</totfact>
</mgrwt>
</event>
<event>
 5    1  0.3296424E-002  0.1250024E+03  0.7818608E-02  0.1235066E+00
          4   -1    0    0  501    0  0.00000000000E+00  0.00000000000E+00  0.22734985183E+03  0.22735339898E+03  0.12700000000E+01 0.  1.
         -4   -1    0    0    0  501 -0.00000000000E+00 -0.00000000000E+00 -0.17155173954E+02  0.17202118863E+02  0.12700000000E+01 0.  1.
         25    2    1    2    0    0  0.00000000000E+00  0.00000000000E+00  0.21019467788E+03  0.24455551784E+03  0.12500239478E+03 0.  0.
    9000005    1    3    3    0    0 -0.32600700708E+01 -0.60399488713E+02  0.13582434714E+03  0.14868752325E+03  0.10000000000E+01 0.  0.
    9000005    1    3    3    0    0  0.32600700708E+01  0.60399488713E+02  0.74370330739E+02  0.95867994596E+02  0.10000000000E+01 0.  0.
<mgrwt>
<rscale>  0 0.12500239E+03</rscale>
<asrwt>0</asrwt>
<pdfrwt beam="1">  1        4 0.34980783E-01 0.12500239E+03</pdfrwt>
<pdfrwt beam="2">  1       -4 0.26431417E-02 0.12500239E+03</pdfrwt>
<totfact> 0.83119112E+03</totfact>
</mgrwt>
</event>
<event>
 5    1  0.3296424E-002  0.1249980E+03  0.7818608E-02  0.1235072E+00
          4   -1    0    0  501    0  0.00000000000E+00  0.00000000000E+00  0.30709486490E+02  0.30735735886E+02  0.12700000000E+01 0. -1.
         -4   -1    0    0    0  501 -0.00000000000E+00 -0.00000000000E+00 -0.12711219816E+03  0.12711854240E+03  0.12700000000E+01 0. -1.
         25    2    1    2    0    0  0.00000000000E+00  0.00000000000E+00 -0.96402711672E+02  0.15785427828E+03  0.12499796140E+03 0.  0.
    9000005    1    3    3    0    0 -0.35595470767E+02 -0.51314120671E+02 -0.51009914714E+02  0.80642345690E+02  0.10000000000E+01 0.  0.
    9000005    1    3    3    0    0  0.35595470767E+02  0.51314120671E+02 -0.45392796957E+02  0.77211932594E+02  0.10000000000E+01 0.  0.
<mgrwt>
<rscale>  0 0.12499796E+03</rscale>
<asrwt>0</asrwt>
<pdfrwt beam="1">  1        4 0.47270437E-02 0.12499796E+03</pdfrwt>
<pdfrwt beam="2">  1       -4 0.19558230E-01 0.12499796E+03</pdfrwt>
<totfact> 0.97762546E+03</totfact>
</mgrwt>
</event>
<event>
 5    1  0.3296424E-002  0.1250007E+03  0.7818608E-02  0.1235068E+00
          4   -1    0    0  501    0  0.00000000000E+00  0.00000000000E+00  0.24322611655E+01  0.27438648613E+01  0.12700000000E+01 0.  1.
         -4   -1    0    0    0  501 -0.00000000000E+00 -0.00000000000E+00 -0.15090372738E+04  0.15090378082E+04  0.12700000000E+01 0.  1.
         25    2    1    2    0    0  0.00000000000E+00  0.00000000000E+00 -0.15066050127E+04  0.15117816731E+04  0.12500065180E+03 0.  0.
    9000005    1    3    3    0    0  0.34246132491E+01  0.44912351514E+02 -0.12771978496E+04  0.12779922513E+04  0.10000000000E+01 0.  0.
    9000005    1    3    3    0    0 -0.34246132491E+01 -0.44912351514E+02 -0.22940716306E+03  0.23378942182E+03  0.10000000000E+01 0.  0.
<mgrwt>
<rscale>  0 0.12500065E+03</rscale>
<asrwt>0</asrwt>
<pdfrwt beam="1">  1        4 0.39820586E-03 0.12500065E+03</pdfrwt>
<pdfrwt beam="2">  1       -4 0.23218289E+00 0.12500065E+03</pdfrwt>
<totfact> 0.17699805E+03</totfact>
</mgrwt>
</event>
<event>
 5    1  0.3296424E-002  0.1250016E+03  0.7818608E-02  0.1235067E+00
         -4   -1    0    0    0  501 -0.00000000000E+00  0.00000000000E+00  0.53663022428E+02  0.53678048364E+02  0.12700000000E+01 0.  1.
          4   -1    0    0  501    0  0.00000000000E+00 -0.00000000000E+00 -0.72763323886E+02  0.72774406236E+02  0.12700000000E+01 0.  1.
         25    2    1    2    0    0  0.00000000000E+00  0.00000000000E+00 -0.19100301458E+02  0.12645245460E+03  0.12500160702E+03 0.  0.
    9000005    1    3    3    0    0 -0.17470782488E+02  0.25407009939E+02  0.45437030667E+02  0.54920562184E+02  0.10000000000E+01 0.  0.
    9000005    1    3    3    0    0  0.17470782488E+02 -0.25407009939E+02 -0.64537332125E+02  0.71531892416E+02  0.10000000000E+01 0.  0.
<mgrwt>
<rscale>  0 0.12500161E+03</rscale>
<asrwt>0</asrwt>
<pdfrwt beam="2">  1        4 0.11196366E-01 0.12500161E+03</pdfrwt>
<pdfrwt beam="1">  1       -4 0.82578579E-02 0.12500161E+03</pdfrwt>
<totfact> 0.10420687E+04</totfact>
</mgrwt>
</event>
<event>
 4    1  0.3296424E-002  0.1255055E+03  0.7818608E-02  0.1234281E+00
          4   -1    0    0  501    0  0.00000000000E+00  0.00000000000E+00  0.35850083649E+02  0.35872571662E+02  0.12700000000E+01 0.  1.
         -4   -1    0    0    0  501 -0.00000000000E+00 -0.00000000000E+00 -0.10978312981E+03  0.10979047541E+03  0.12700000000E+01 0.  1.
    9000005    1    1    2    0    0  0.14297389383E+02 -0.40718585410E+02 -0.89828351216E+02  0.99662185523E+02  0.10000000000E+01 0.  0.
    9000005    1    1    2    0    0 -0.14297389383E+02  0.40718585410E+02  0.15895305052E+02  0.46000861554E+02  0.10000000000E+01 0.  0.
<mgrwt>
<rscale>  0 0.12550549E+03</rscale>
<asrwt>0</asrwt>
<pdfrwt beam="1">  1        4 0.55176924E-02 0.12550549E+03</pdfrwt>
<pdfrwt beam="2">  1       -4 0.16892007E-01 0.12550549E+03</pdfrwt>
<totfact> 0.99043648E+03</totfact>
</mgrwt>
</event>
<event>
 5    1  0.3296424E-002  0.1249939E+03  0.7818608E-02  0.1235079E+00
         -4   -1    0    0    0  501 -0.00000000000E+00  0.00000000000E+00  0.50839774157E+01  0.52402028934E+01  0.12700000000E+01 0.  1.
          4   -1    0    0  501    0  0.00000000000E+00 -0.00000000000E+00 -0.75648860494E+03  0.75648967098E+03  0.12700000000E+01 0.  1.
         25    2    1    2    0    0  0.00000000000E+00  0.00000000000E+00 -0.75140462752E+03  0.76172987387E+03  0.12499394582E+03 0.  0.
    9000005    1    3    3    0    0  0.58752538966E+02 -0.16236499614E+02 -0.29183611845E+03  0.29813554768E+03  0.10000000000E+01 0.  0.
    9000005    1    3    3    0    0 -0.58752538966E+02  0.16236499614E+02 -0.45956850907E+03  0.46359432620E+03  0.10000000000E+01 0.  0.
<mgrwt>
<rscale>  0 0.12499395E+03</rscale>
<asrwt>0</asrwt>
<pdfrwt beam="2">  1        4 0.11639487E+00 0.12499395E+03</pdfrwt>
<pdfrwt beam="1">  1       -4 0.79425032E-03 0.12499395E+03</pdfrwt>
<totfact> 0.40024608E+03</totfact>
</mgrwt>
</event>
<event>
 5    1  0.3296424E-002  0.1249997E+03  0.7818608E-02  0.1235070E+00
         -4   -1    0    0    0  501 -0.00000000000E+00  0.00000000000E+00  0.23859483418E+02  0.23893259488E+02  0.12700000000E+01 0. -1.
          4   -1    0    0  501    0  0.00000000000E+00 -0.00000000000E+00 -0.16356605609E+03  0.16357098644E+03  0.12700000000E+01 0. -1.
         25    2    1    2    0    0  0.00000000000E+00  0.00000000000E+00 -0.13970657267E+03  0.18746424592E+03  0.12499966821E+03 0.  0.
    9000005    1    3    3    0    0  0.27942792126E+02  0.35669870018E+02 -0.13439502090E+03  0.14183145244E+03  0.10000000000E+01 0.  0.
    9000005    1    3    3    0    0 -0.27942792126E+02 -0.35669870018E+02 -0.53115517695E+01  0.45632793483E+02  0.10000000000E+01 0.  0.
<mgrwt>
<rscale>  0 0.12499967E+03</rscale>
<asrwt>0</asrwt>
<pdfrwt beam="2">  1        4 0.25166985E-01 0.12499967E+03</pdfrwt>
<pdfrwt beam="1">  1       -4 0.36736673E-02 0.12499967E+03</pdfrwt>
<totfact> 0.92291095E+03</totfact>
</mgrwt>
</event>
<event>
 5    1  0.3296424E-002  0.1250020E+03  0.7818608E-02  0.1235066E+00
          4   -1    0    0  501    0  0.00000000000E+00  0.00000000000E+00  0.32744875170E+02  0.32769494197E+02  0.12700000000E+01 0.  1.
         -4   -1    0    0    0  501 -0.00000000000E+00 -0.00000000000E+00 -0.11922437253E+03  0.11923113647E+03  0.12700000000E+01 0.  1.
         25    2    1    2    0    0  0.00000000000E+00  0.00000000000E+00 -0.86479497358E+02  0.15200063067E+03  0.12500195303E+03 0.  0.
    9000005    1    3    3    0    0  0.32113290687E+02  0.32549708521E+02  0.85593315800E+01  0.46529658506E+02  0.10000000000E+01 0.  0.
    9000005    1    3    3    0    0 -0.32113290687E+02 -0.32549708521E+02 -0.95038828938E+02  0.10547097217E+03  0.10000000000E+01 0.  0.
<mgrwt>
<rscale>  0 0.12500195E+03</rscale>
<asrwt>0</asrwt>
<pdfrwt beam="1">  1        4 0.50400872E-02 0.12500195E+03</pdfrwt>
<pdfrwt beam="2">  1       -4 0.18344625E-01 0.12500195E+03</pdfrwt>
<totfact> 0.98902041E+03</totfact>
</mgrwt>
</event>
<event>
 5    1  0.3296424E-002  0.1249998E+03  0.7818608E-02  0.1235070E+00
          4   -1    0    0  501    0  0.00000000000E+00  0.00000000000E+00  0.16543878519E+03  0.16544365973E+03  0.12700000000E+01 0.  1.
         -4   -1    0    0    0  501 -0.00000000000E+00 -0.00000000000E+00 -0.23589069280E+02  0.23623231986E+02  0.12700000000E+01 0.  1.
         25    2    1    2    0    0  0.00000000000E+00  0.00000000000E+00  0.14184971591E+03  0.18906689172E+03  0.12499979056E+03 0.  0.
    9000005    1    3    3    0    0 -0.44784302424E+02  0.19086192353E+02  0.13019087114E+03  0.13899848707E+03  0.10000000000E+01 0.  0.
    9000005    1    3    3    0    0  0.44784302424E+02 -0.19086192353E+02  0.11658844779E+02  0.50068404646E+02  0.10000000000E+01 0.  0.
<mgrwt>
<rscale>  0 0.12499979E+03</rscale>
<asrwt>0</asrwt>
<pdfrwt beam="1">  1        4 0.25455124E-01 0.12499979E+03</pdfrwt>
<pdfrwt beam="2">  1       -4 0.36320904E-02 0.12499979E+03</pdfrwt>
<totfact> 0.92010357E+03</totfact>
</mgrwt>
</event>
<event>
 5    1  0.3296424E-002  0.1250007E+03  0.7818608E-02  0.1235068E+00
         -4   -1    0    0    0  501 -0.00000000000E+00  0.00000000000E+00  0.34848184368E+03  0.34848415785E+03  0.12700000000E+01 0. -1.
          4   -1    0    0  501    0  0.00000000000E+00 -0.00000000000E+00 -0.11171125630E+02  0.11243084445E+02  0.12700000000E+01 0. -1.
         25    2    1    2    0    0  0.00000000000E+00  0.00000000000E+00  0.33731071805E+03  0.35972724230E+03  0.12500067336E+03 0.  0.
    9000005    1    3    3    0    0  0.49923201899E+02 -0.25751242907E+02  0.89851927578E+02  0.10597085207E+03  0.10000000000E+01 0.  0.
    9000005    1    3    3    0    0 -0.49923201899E+02  0.25751242907E+02  0.24745879047E+03  0.25375639023E+03  0.10000000000E+01 0.  0.
<mgrwt>
<rscale>  0 0.12500067E+03</rscale>
<asrwt>0</asrwt>
<pdfrwt beam="2">  1        4 0.17243480E-02 0.12500067E+03</pdfrwt>
<pdfrwt beam="1">  1       -4 0.53618306E-01 0.12500067E+03</pdfrwt>
<totfact> 0.68666507E+03</totfact>
</mgrwt>
</event>
<event>
 5    1  0.3296424E-002  0.1249999E+03  0.7818608E-02  0.1235069E+00
          4   -1    0    0  501    0  0.00000000000E+00  0.00000000000E+00  0.69373546339E+02  0.69385170114E+02  0.12700000000E+01 0. -1.
         -4   -1    0    0    0  501 -0.00000000000E+00 -0.00000000000E+00 -0.56283862122E+02  0.56298188562E+02  0.12700000000E+01 0. -1.
         25    2    1    2    0    0  0.00000000000E+00  0.00000000000E+00  0.13089684217E+02  0.12568335868E+03  0.12499986726E+03 0.  0.
    9000005    1    3    3    0    0 -0.12461520558E+02  0.19648152436E+02  0.64861135740E+02  0.68915211080E+02  0.10000000000E+01 0.  0.
    9000005    1    3    3    0    0  0.12461520558E+02 -0.19648152436E+02 -0.51771451522E+02  0.56768147596E+02  0.10000000000E+01 0.  0.
<mgrwt>
<rscale>  0 0.12499987E+03</rscale>
<asrwt>0</asrwt>
<pdfrwt beam="1">  1        4 0.10674849E-01 0.12499987E+03</pdfrwt>
<pdfrwt beam="2">  1       -4 0.86610520E-02 0.12499987E+03</pdfrwt>
<totfact> 0.10437942E+04</totfact>
</mgrwt>
</event>
<event>
 5    1  0.3296424E-002  0.1250013E+03  0.7818608E-02  0.1235067E+00
          4   -1    0    0  501    0  0.00000000000E+00  0.00000000000E+00  0.45258095001E+01  0.47006224728E+01  0.12700000000E+01 0. -1.
         -4   -1    0    0    0  501 -0.00000000000E+00 -0.00000000000E+00 -0.84659383322E+03  0.84659478580E+03  0.12700000000E+01 0. -1.
         25    2    1    2    0    0  0.00000000000E+00  0.00000000000E+00 -0.84206802372E+03  0.85129540828E+03  0.12500126230E+03 0.  0.
    9000005    1    3    3    0    0 -0.44845513038E+02  0.40183428853E+01 -0.12589893474E+03  0.13371166324E+03  0.10000000000E+01 0.  0.
    9000005    1    3    3    0    0  0.44845513038E+02 -0.40183428853E+01 -0.71616908898E+03  0.71758374503E+03  0.10000000000E+01 0.  0.
<mgrwt>
<rscale>  0 0.12500126E+03</rscale>
<asrwt>0</asrwt>
<pdfrwt beam="1">  1        4 0.70979949E-03 0.12500126E+03</pdfrwt>
<pdfrwt beam="2">  1       -4 0.13025860E+00 0.12500126E+03</pdfrwt>
<totfact> 0.36073409E+03</totfact>
</mgrwt>
</event>
<event>
 5    1  0.3296424E-002  0.1249976E+03  0.7818608E-02  0.1235073E+00
          4   -1    0    0  501    0  0.00000000000E+00  0.00000000000E+00  0.76211719260E+02  0.76222300231E+02  0.12700000000E+01 0.  1.
         -4   -1    0    0    0  501 -0.00000000000E+00 -0.00000000000E+00 -0.51231264212E+02  0.51247003158E+02  0.12700000000E+01 0.  1.
         25    2    1    2    0    0  0.00000000000E+00  0.00000000000E+00  0.24980455048E+02  0.12746930339E+03  0.12499760067E+03 0.  0.
    9000005    1    3    3    0    0 -0.70258639455E+00  0.61673409904E+02  0.22738673449E+02  0.65743063414E+02  0.10000000000E+01 0.  0.
    9000005    1    3    3    0    0  0.70258639455E+00 -0.61673409904E+02  0.22417815992E+01  0.61726239976E+02  0.10000000000E+01 0.  0.
<mgrwt>
<rscale>  0 0.12499760E+03</rscale>
<asrwt>0</asrwt>
<pdfrwt beam="1">  1        4 0.11726904E-01 0.12499760E+03</pdfrwt>
<pdfrwt beam="2">  1       -4 0.78837576E-02 0.12499760E+03</pdfrwt>
<totfact> 0.10399529E+04</totfact>
</mgrwt>
</event>
<event>
 5    1  0.3296424E-002  0.1250006E+03  0.7818608E-02  0.1235068E+00
         -4   -1    0    0    0  501 -0.00000000000E+00  0.00000000000E+00  0.29677895706E+02  0.29705056700E+02  0.12700000000E+01 0. -1.
          4   -1    0    0  501    0  0.00000000000E+00 -0.00000000000E+00 -0.13153236442E+03  0.13153849547E+03  0.12700000000E+01 0. -1.
         25    2    1    2    0    0  0.00000000000E+00  0.00000000000E+00 -0.10185446872E+03  0.16124355217E+03  0.12500060128E+03 0.  0.
    9000005    1    3    3    0    0 -0.25770834569E+02  0.41314366086E+02 -0.10145403899E+03  0.11253859243E+03  0.10000000000E+01 0.  0.
    9000005    1    3    3    0    0  0.25770834569E+02 -0.41314366086E+02 -0.40042973120E+00  0.48704959742E+02  0.10000000000E+01 0.  0.
<mgrwt>
<rscale>  0 0.12500060E+03</rscale>
<asrwt>0</asrwt>
<pdfrwt beam="2">  1        4 0.20238309E-01 0.12500060E+03</pdfrwt>
<pdfrwt beam="1">  1       -4 0.45683911E-02 0.12500060E+03</pdfrwt>
<totfact> 0.97102260E+03</totfact>
</mgrwt>
</event>
<event>
 5    1  0.3296424E-002  0.1249996E+03  0.7818608E-02  0.1235070E+00
          4   -1    0    0  501    0  0.00000000000E+00  0.00000000000E+00  0.15491065879E+02  0.15543037736E+02  0.12700000000E+01 0. -1.
         -4   -1    0    0    0  501 -0.00000000000E+00 -0.00000000000E+00 -0.25168419741E+03  0.25168740161E+03  0.12700000000E+01 0. -1.
         25    2    1    2    0    0  0.00000000000E+00  0.00000000000E+00 -0.23619313153E+03  0.26723043934E+03  0.12499964931E+03 0.  0.
    9000005    1    3    3    0    0  0.45356263809E+02  0.51285603199E+01 -0.20934381188E+03  0.21426461297E+03  0.10000000000E+01 0.  0.
    9000005    1    3    3    0    0 -0.45356263809E+02 -0.51285603199E+01 -0.26849319655E+02  0.52965826375E+02  0.10000000000E+01 0.  0.
<mgrwt>
<rscale>  0 0.12499965E+03</rscale>
<asrwt>0</asrwt>
<pdfrwt beam="1">  1        4 0.23874854E-02 0.12499965E+03</pdfrwt>
<pdfrwt beam="2">  1       -4 0.38724887E-01 0.12499965E+03</pdfrwt>
<totfact> 0.79902583E+03</totfact>
</mgrwt>
</event>
<event>
 5    1  0.3296424E-002  0.1250144E+03  0.7818608E-02  0.1235047E+00
         -4   -1    0    0    0  501 -0.00000000000E+00  0.00000000000E+00  0.16257436797E+02  0.16306966340E+02  0.12700000000E+01 0.  1.
          4   -1    0    0  501    0  0.00000000000E+00 -0.00000000000E+00 -0.23991325274E+03  0.23991661414E+03  0.12700000000E+01 0.  1.
         25    2    1    2    0    0  0.00000000000E+00  0.00000000000E+00 -0.22365581594E+03  0.25622358048E+03  0.12501439593E+03 0.  0.
    9000005    1    3    3    0    0 -0.39314207651E+02 -0.48585304998E+02 -0.11204298549E+03  0.12829952994E+03  0.10000000000E+01 0.  0.
    9000005    1    3    3    0    0  0.39314207651E+02  0.48585304998E+02 -0.11161283045E+03  0.12792405054E+03  0.10000000000E+01 0.  0.
<mgrwt>
<rscale>  0 0.12501440E+03</rscale>
<asrwt>0</asrwt>
<pdfrwt beam="2">  1        4 0.36913797E-01 0.12501440E+03</pdfrwt>
<pdfrwt beam="1">  1       -4 0.25052128E-02 0.12501440E+03</pdfrwt>
<totfact> 0.81412868E+03</totfact>
</mgrwt>
</event>
<event>
 5    1  0.3296424E-002  0.1250040E+03  0.7818608E-02  0.1235063E+00
          4   -1    0    0  501    0  0.00000000000E+00  0.00000000000E+00  0.17796507408E+02  0.17841764933E+02  0.12700000000E+01 0.  1.
         -4   -1    0    0    0  501 -0.00000000000E+00 -0.00000000000E+00 -0.21918337358E+03  0.21918705289E+03  0.12700000000E+01 0.  1.
         25    2    1    2    0    0  0.00000000000E+00  0.00000000000E+00 -0.20138686617E+03  0.23702881782E+03  0.12500396238E+03 0.  0.
    9000005    1    3    3    0    0 -0.20075145424E+02 -0.28130501810E+02 -0.19620934433E+01  0.34629270951E+02  0.10000000000E+01 0.  0.
    9000005    1    3    3    0    0  0.20075145424E+02  0.28130501810E+02 -0.19942477273E+03  0.20239954687E+03  0.10000000000E+01 0.  0.
<mgrwt>
<rscale>  0 0.12500396E+03</rscale>
<asrwt>0</asrwt>
<pdfrwt beam="1">  1        4 0.27416887E-02 0.12500396E+03</pdfrwt>
<pdfrwt beam="2">  1       -4 0.33724281E-01 0.12500396E+03</pdfrwt>
<totfact> 0.84234429E+03</totfact>
</mgrwt>
</event>
<event>
 5    1  0.3296424E-002  0.1249999E+03  0.7818608E-02  0.1235069E+00
          4   -1    0    0  501    0  0.00000000000E+00  0.00000000000E+00  0.32463821678E+02  0.32488653680E+02  0.12700000000E+01 0. -1.
         -4   -1    0    0    0  501 -0.00000000000E+00 -0.00000000000E+00 -0.12025183486E+03  0.12025854102E+03  0.12700000000E+01 0. -1.
         25    2    1    2    0    0  0.00000000000E+00  0.00000000000E+00 -0.87788013186E+02  0.15274719470E+03  0.12499988092E+03 0.  0.
    9000005    1    3    3    0    0  0.12141087417E+02  0.55475986347E+02 -0.75765205098E+02  0.94690851556E+02  0.10000000000E+01 0.  0.
    9000005    1    3    3    0    0 -0.12141087417E+02 -0.55475986347E+02 -0.12022808087E+02  0.58056343143E+02  0.10000000000E+01 0.  0.
<mgrwt>
<rscale>  0 0.12499988E+03</rscale>
<asrwt>0</asrwt>
<pdfrwt beam="1">  1        4 0.49968602E-02 0.12499988E+03</pdfrwt>
<pdfrwt beam="2">  1       -4 0.18502708E-01 0.12499988E+03</pdfrwt>
<totfact> 0.98759143E+03</totfact>
</mgrwt>
</event>
<event>
 5    1  0.3296424E-002  0.1249915E+03  0.7818608E-02  0.1235083E+00
          4   -1    0    0  501    0  0.00000000000E+00  0.00000000000E+00  0.31050586003E+02  0.31076547285E+02  0.12700000000E+01 0.  1.
         -4   -1    0    0    0  501 -0.00000000000E+00 -0.00000000000E+00 -0.12570395401E+03  0.12571036932E+03  0.12700000000E+01 0.  1.
         25    2    1    2    0    0  0.00000000000E+00  0.00000000000E+00 -0.94653368008E+02  0.15678691660E+03  0.12499150828E+03 0.  0.
    9000005    1    3    3    0    0  0.17067704126E+02 -0.60103698435E+02 -0.46098802505E+02  0.77652177575E+02  0.10000000000E+01 0.  0.
    9000005    1    3    3    0    0 -0.17067704126E+02  0.60103698435E+02 -0.48554565503E+02  0.79134739027E+02  0.10000000000E+01 0.  0.
<mgrwt>
<rscale>  0 0.12499151E+03</rscale>
<asrwt>0</asrwt>
<pdfrwt beam="1">  1        4 0.47795038E-02 0.12499151E+03</pdfrwt>
<pdfrwt beam="2">  1       -4 0.19341560E-01 0.12499151E+03</pdfrwt>
<totfact> 0.97984551E+03</totfact>
</mgrwt>
</event>
<event>
 5    1  0.3296424E-002  0.1249912E+03  0.7818608E-02  0.1235083E+00
         -4   -1    0    0    0  501 -0.00000000000E+00  0.00000000000E+00  0.10923805535E+03  0.10924543761E+03  0.12700000000E+01 0.  1.
          4   -1    0    0  501    0  0.00000000000E+00 -0.00000000000E+00 -0.35734159533E+02  0.35756720453E+02  0.12700000000E+01 0.  1.
         25    2    1    2    0    0  0.00000000000E+00  0.00000000000E+00  0.73503895821E+02  0.14500215806E+03  0.12499121225E+03 0.  0.
    9000005    1    3    3    0    0 -0.47023022912E+02 -0.28788146085E+02  0.26367818659E+01  0.55207559784E+02  0.10000000000E+01 0.  0.
    9000005    1    3    3    0    0  0.47023022912E+02  0.28788146085E+02  0.70867113956E+02  0.89794598274E+02  0.10000000000E+01 0.  0.
<mgrwt>
<rscale>  0 0.12499121E+03</rscale>
<asrwt>0</asrwt>
<pdfrwt beam="2">  1        4 0.54998664E-02 0.12499121E+03</pdfrwt>
<pdfrwt beam="1">  1       -4 0.16808158E-01 0.12499121E+03</pdfrwt>
<totfact> 0.10032930E+04</totfact>
</mgrwt>
</event>
<event>
 5    1  0.3296424E-002  0.1250011E+03  0.7818608E-02  0.1235068E+00
          4   -1    0    0  501    0  0.00000000000E+00  0.00000000000E+00  0.94545917489E+02  0.94554446822E+02  0.12700000000E+01 0. -1.
         -4   -1    0    0    0  501 -0.00000000000E+00 -0.00000000000E+00 -0.41296468350E+02  0.41315992040E+02  0.12700000000E+01 0. -1.
         25    2    1    2    0    0  0.00000000000E+00  0.00000000000E+00  0.53249449139E+02  0.13587043886E+03  0.12500108929E+03 0.  0.
    9000005    1    3    3    0    0  0.23109152478E+02 -0.15179955010E+02  0.87541241490E+02  0.91809220256E+02  0.10000000000E+01 0.  0.
    9000005    1    3    3    0    0 -0.23109152478E+02  0.15179955010E+02 -0.34291792351E+02  0.44061218606E+02  0.10000000000E+01 0.  0.
<mgrwt>
<rscale>  0 0.12500109E+03</rscale>
<asrwt>0</asrwt>
<pdfrwt beam="1">  1        4 0.14547684E-01 0.12500109E+03</pdfrwt>
<pdfrwt beam="2">  1       -4 0.63554607E-02 0.12500109E+03</pdfrwt>
<totfact> 0.10219506E+04</totfact>
</mgrwt>
</event>
<event>
 5    1  0.3296424E-002  0.1249965E+03  0.7818608E-02  0.1235075E+00
          4   -1    0    0  501    0  0.00000000000E+00  0.00000000000E+00  0.29505522595E+01  0.32122668999E+01  0.12700000000E+01 0.  1.
         -4   -1    0    0    0  501 -0.00000000000E+00 -0.00000000000E+00 -0.12673497752E+04  0.12673504115E+04  0.12700000000E+01 0.  1.
         25    2    1    2    0    0  0.00000000000E+00  0.00000000000E+00 -0.12643992229E+04  0.12705626784E+04  0.12499649931E+03 0.  0.
    9000005    1    3    3    0    0  0.47743963081E+02  0.32267046094E+02 -0.38647593362E+03  0.39074965841E+03  0.10000000000E+01 0.  0.
    9000005    1    3    3    0    0 -0.47743963081E+02 -0.32267046094E+02 -0.87792328931E+03  0.87981302002E+03  0.10000000000E+01 0.  0.
<mgrwt>
<rscale>  0 0.12499650E+03</rscale>
<asrwt>0</asrwt>
<pdfrwt beam="1">  1        4 0.47411297E-03 0.12499650E+03</pdfrwt>
<pdfrwt beam="2">  1       -4 0.19499665E+00 0.12499650E+03</pdfrwt>
<totfact> 0.22935945E+03</totfact>
</mgrwt>
</event>
<event>
 5    1  0.3296424E-002  0.1249788E+03  0.7818608E-02  0.1235102E+00
          4   -1    0    0  501    0  0.00000000000E+00  0.00000000000E+00  0.91131573891E+01  0.92012247880E+01  0.12700000000E+01 0.  1.
         -4   -1    0    0    0  501 -0.00000000000E+00 -0.00000000000E+00 -0.42634368002E+03  0.42634557157E+03  0.12700000000E+01 0.  1.
         25    2    1    2    0    0  0.00000000000E+00  0.00000000000E+00 -0.41723052263E+03  0.43554679636E+03  0.12497880940E+03 0.  0.
    9000005    1    3    3    0    0 -0.23333827572E+02  0.42162498022E+02 -0.70012542823E+02  0.84999411181E+02  0.10000000000E+01 0.  0.
    9000005    1    3    3    0    0  0.23333827572E+02 -0.42162498022E+02 -0.34721797981E+03  0.35054738517E+03  0.10000000000E+01 0.  0.
<mgrwt>
<rscale>  0 0.12497881E+03</rscale>
<asrwt>0</asrwt>
<pdfrwt beam="1">  1        4 0.14089445E-02 0.12497881E+03</pdfrwt>
<pdfrwt beam="2">  1       -4 0.65598240E-01 0.12497881E+03</pdfrwt>
<totfact> 0.61265027E+03</totfact>
</mgrwt>
</event>
<event>
 5    1  0.3296424E-002  0.1249999E+03  0.7818608E-02  0.1235069E+00
         -4   -1    0    0    0  501 -0.00000000000E+00  0.00000000000E+00  0.18396167798E+02  0.18439953623E+02  0.12700000000E+01 0. -1.
          4   -1    0    0  501    0  0.00000000000E+00 -0.00000000000E+00 -0.21204211416E+03  0.21204591738E+03  0.12700000000E+01 0. -1.
         25    2    1    2    0    0  0.00000000000E+00  0.00000000000E+00 -0.19364594636E+03  0.23048587100E+03  0.12499993676E+03 0.  0.
    9000005    1    3    3    0    0 -0.61718939319E+02  0.58331684773E+01 -0.11134090887E+03  0.12744038337E+03  0.10000000000E+01 0.  0.
    9000005    1    3    3    0    0  0.61718939319E+02 -0.58331684773E+01 -0.82305037486E+02  0.10304548763E+03  0.10000000000E+01 0.  0.
<mgrwt>
<rscale>  0 0.12499994E+03</rscale>
<asrwt>0</asrwt>
<pdfrwt beam="2">  1        4 0.32625523E-01 0.12499994E+03</pdfrwt>
<pdfrwt beam="1">  1       -4 0.28338405E-02 0.12499994E+03</pdfrwt>
<totfact> 0.85235168E+03</totfact>
</mgrwt>
</event>
<event>
 5    1  0.3296424E-002  0.1249982E+03  0.7818608E-02  0.1235072E+00
         -4   -1    0    0    0  501 -0.00000000000E+00  0.00000000000E+00  0.27599379928E+03  0.27599672125E+03  0.12700000000E+01 0. -1.
          4   -1    0    0  501    0  0.00000000000E+00 -0.00000000000E+00 -0.14121507092E+02  0.14178500011E+02  0.12700000000E+01 0. -1.
         25    2    1    2    0    0  0.00000000000E+00  0.00000000000E+00  0.26187229219E+03  0.29017522126E+03  0.12499824646E+03 0.  0.
    9000005    1    3    3    0    0  0.26691394413E+02 -0.32536447793E+01 -0.16696583282E-01  0.26907564343E+02  0.10000000000E+01 0.  0.
    9000005    1    3    3    0    0 -0.26691394413E+02  0.32536447793E+01  0.26188898877E+03  0.26326765692E+03  0.10000000000E+01 0.  0.
<mgrwt>
<rscale>  0 0.12499825E+03</rscale>
<asrwt>0</asrwt>
<pdfrwt beam="2">  1        4 0.21771484E-02 0.12499825E+03</pdfrwt>
<pdfrwt beam="1">  1       -4 0.42465193E-01 0.12499825E+03</pdfrwt>
<totfact> 0.76850995E+03</totfact>
</mgrwt>
</event>
<event>
 4    1  0.3296424E-002  0.1251969E+03  0.7818608E-02  0.1234762E+00
          4   -1    0    0  501    0  0.00000000000E+00  0.00000000000E+00  0.12581560288E+02  0.12645495612E+02  0.12700000000E+01 0.  1.
         -4   -1    0    0    0  501 -0.00000000000E+00 -0.00000000000E+00 -0.31059848501E+03  0.31060108144E+03  0.12700000000E+01 0.  1.
    9000005    1    1    2    0    0 -0.59185343648E+01  0.49528416807E+02 -0.24662609510E+03  0.25162178742E+03  0.10000000000E+01 0.  0.
    9000005    1    1    2    0    0  0.59185343648E+01 -0.49528416807E+02 -0.51390829625E+02  0.71624789633E+02  0.10000000000E+01 0.  0.
<mgrwt>
<rscale>  0 0.12519689E+03</rscale>
<asrwt>0</asrwt>
<pdfrwt beam="1">  1        4 0.19407427E-02 0.12519689E+03</pdfrwt>
<pdfrwt beam="2">  1       -4 0.47789494E-01 0.12519689E+03</pdfrwt>
<totfact> 0.72455001E+03</totfact>
</mgrwt>
</event>
<event>
 5    1  0.3296424E-002  0.1250003E+03  0.7818608E-02  0.1235069E+00
         -4   -1    0    0    0  501 -0.00000000000E+00  0.00000000000E+00  0.10743551346E+02  0.10818354567E+02  0.12700000000E+01 0. -1.
          4   -1    0    0  501    0  0.00000000000E+00 -0.00000000000E+00 -0.36225475918E+03  0.36225698537E+03  0.12700000000E+01 0. -1.
         25    2    1    2    0    0  0.00000000000E+00  0.00000000000E+00 -0.35151120783E+03  0.37307533994E+03  0.12500032014E+03 0.  0.
    9000005    1    3    3    0    0  0.29417458731E+02 -0.14716552588E+02 -0.33434144498E+03  0.33595708897E+03  0.10000000000E+01 0.  0.
    9000005    1    3    3    0    0 -0.29417458731E+02  0.14716552588E+02 -0.17169762853E+02  0.37118250965E+02  0.10000000000E+01 0.  0.
<mgrwt>
<rscale>  0 0.12500032E+03</rscale>
<asrwt>0</asrwt>
<pdfrwt beam="2">  1        4 0.55737417E-01 0.12500032E+03</pdfrwt>
<pdfrwt beam="1">  1       -4 0.16587797E-02 0.12500032E+03</pdfrwt>
<totfact> 0.67257950E+03</totfact>
</mgrwt>
</event>
<event>
 5    1  0.3296424E-002  0.1250009E+03  0.7818608E-02  0.1235068E+00
          4   -1    0    0  501    0  0.00000000000E+00  0.00000000000E+00  0.93516183122E+01  0.94374607314E+01  0.12700000000E+01 0. -1.
         -4   -1    0    0    0  501 -0.00000000000E+00 -0.00000000000E+00 -0.41571923723E+03  0.41572117712E+03  0.12700000000E+01 0. -1.
         25    2    1    2    0    0  0.00000000000E+00  0.00000000000E+00 -0.40636761892E+03  0.42515863785E+03  0.12500090252E+03 0.  0.
    9000005    1    3    3    0    0  0.36012693303E+02 -0.45184737830E+02 -0.28415427717E+03  0.28997108105E+03  0.10000000000E+01 0.  0.
    9000005    1    3    3    0    0 -0.36012693303E+02  0.45184737830E+02 -0.12221334175E+03  0.13518755680E+03  0.10000000000E+01 0.  0.
<mgrwt>
<rscale>  0 0.12500090E+03</rscale>
<asrwt>0</asrwt>
<pdfrwt beam="1">  1        4 0.14454633E-02 0.12500090E+03</pdfrwt>
<pdfrwt beam="2">  1       -4 0.63963544E-01 0.12500090E+03</pdfrwt>
<totfact> 0.62176065E+03</totfact>
</mgrwt>
</event>
<event>
 5    1  0.3296424E-002  0.1249992E+03  0.7818608E-02  0.1235071E+00
          4   -1    0    0  501    0  0.00000000000E+00  0.00000000000E+00  0.40534802365E+01  0.42477761273E+01  0.12700000000E+01 0. -1.
         -4   -1    0    0    0  501 -0.00000000000E+00 -0.00000000000E+00 -0.94091572473E+03  0.94091658182E+03  0.12700000000E+01 0. -1.
         25    2    1    2    0    0  0.00000000000E+00  0.00000000000E+00 -0.93686224449E+03  0.94516435794E+03  0.12499919350E+03 0.  0.
    9000005    1    3    3    0    0  0.50248210746E+02 -0.33345375433E+02 -0.34455326482E+03  0.34979243709E+03  0.10000000000E+01 0.  0.
    9000005    1    3    3    0    0 -0.50248210746E+02  0.33345375433E+02 -0.59230897967E+03  0.59537192086E+03  0.10000000000E+01 0.  0.
<mgrwt>
<rscale>  0 0.12499919E+03</rscale>
<asrwt>0</asrwt>
<pdfrwt beam="1">  1        4 0.63862486E-03 0.12499919E+03</pdfrwt>
<pdfrwt beam="2">  1       -4 0.14477111E+00 0.12499919E+03</pdfrwt>
<totfact> 0.32488890E+03</totfact>
</mgrwt>
</event>
<event>
 5    1  0.3296424E-002  0.1250020E+03  0.7818608E-02  0.1235066E+00
          4   -1    0    0  501    0  0.00000000000E+00  0.00000000000E+00  0.26039143872E+02  0.26070096156E+02  0.12700000000E+01 0.  1.
         -4   -1    0    0    0  501 -0.00000000000E+00 -0.00000000000E+00 -0.14989661812E+03  0.14990199807E+03  0.12700000000E+01 0.  1.
         25    2    1    2    0    0  0.00000000000E+00  0.00000000000E+00 -0.12385747425E+03  0.17597209422E+03  0.12500201605E+03 0.  0.
    9000005    1    3    3    0    0  0.17169943218E+02 -0.46278141237E+02 -0.79747803885E+01  0.50010703142E+02  0.10000000000E+01 0.  0.
    9000005    1    3    3    0    0 -0.17169943218E+02  0.46278141237E+02 -0.11588269386E+03  0.12596139108E+03  0.10000000000E+01 0.  0.
<mgrwt>
<rscale>  0 0.12500202E+03</rscale>
<asrwt>0</asrwt>
<pdfrwt beam="1">  1        4 0.40088170E-02 0.12500202E+03</pdfrwt>
<pdfrwt beam="2">  1       -4 0.23063812E-01 0.12500202E+03</pdfrwt>
<totfact> 0.94342839E+03</totfact>
</mgrwt>
</event>
<event>
 5    1  0.3296424E-002  0.1250017E+03  0.7818608E-02  0.1235067E+00
          4   -1    0    0  501    0  0.00000000000E+00  0.00000000000E+00  0.14785919500E+03  0.14786464908E+03  0.12700000000E+01 0.  1.
         -4   -1    0    0    0  501 -0.00000000000E+00 -0.00000000000E+00 -0.26398224776E+02  0.26428756523E+02  0.12700000000E+01 0.  1.
         25    2    1    2    0    0  0.00000000000E+00  0.00000000000E+00  0.12146097023E+03  0.17429340560E+03  0.12500169578E+03 0.  0.
    9000005    1    3    3    0    0  0.56857593681E+02 -0.24199911516E+02  0.73731003135E+02  0.96206457682E+02  0.10000000000E+01 0.  0.
    9000005    1    3    3    0    0 -0.56857593681E+02  0.24199911516E+02  0.47729967092E+02  0.78086947918E+02  0.10000000000E+01 0.  0.
<mgrwt>
<rscale>  0 0.12500170E+03</rscale>
<asrwt>0</asrwt>
<pdfrwt beam="1">  1        4 0.22750336E-01 0.12500170E+03</pdfrwt>
<pdfrwt beam="2">  1       -4 0.40640336E-02 0.12500170E+03</pdfrwt>
<totfact> 0.94650811E+03</totfact>
</mgrwt>
</event>
<event>
 5    1  0.3296424E-002  0.1249978E+03  0.7818608E-02  0.1235073E+00
         -4   -1    0    0    0  501 -0.00000000000E+00  0.00000000000E+00  0.81350513856E+02  0.81360426527E+02  0.12700000000E+01 0. -1.
          4   -1    0    0  501    0  0.00000000000E+00 -0.00000000000E+00 -0.47994609527E+02  0.48011409515E+02  0.12700000000E+01 0. -1.
         25    2    1    2    0    0  0.00000000000E+00  0.00000000000E+00  0.33355904329E+02  0.12937183604E+03  0.12499782241E+03 0.  0.
    9000005    1    3    3    0    0  0.26139674956E+02 -0.54393548249E+02  0.33468239497E+02  0.69014953111E+02  0.10000000000E+01 0.  0.
    9000005    1    3    3    0    0 -0.26139674956E+02  0.54393548249E+02 -0.11233516854E+00  0.60356882931E+02  0.10000000000E+01 0.  0.
<mgrwt>
<rscale>  0 0.12499782E+03</rscale>
<asrwt>0</asrwt>
<pdfrwt beam="2">  1        4 0.73858409E-02 0.12499782E+03</pdfrwt>
<pdfrwt beam="1">  1       -4 0.12517518E-01 0.12499782E+03</pdfrwt>
<totfact> 0.10358473E+04</totfact>
</mgrwt>
</event>
<event>
 5    1  0.3296424E-002  0.1249984E+03  0.7818608E-02  0.1235072E+00
          4   -1    0    0  501    0  0.00000000000E+00  0.00000000000E+00  0.12820060420E+04  0.12820066711E+04  0.12700000000E+01 0.  1.
         -4   -1    0    0    0  501 -0.00000000000E+00 -0.00000000000E+00 -0.29139093219E+01  0.31786424046E+01  0.12700000000E+01 0.  1.
         25    2    1    2    0    0  0.00000000000E+00  0.00000000000E+00  0.12790921327E+04  0.12851853135E+04  0.12499842418E+03 0.  0.
    9000005    1    3    3    0    0  0.41369617025E+02  0.45300251900E+02  0.51720202017E+03  0.52082865484E+03  0.10000000000E+01 0.  0.
    9000005    1    3    3    0    0 -0.41369617025E+02 -0.45300251900E+02  0.76189011253E+03  0.76435665863E+03  0.10000000000E+01 0.  0.
<mgrwt>
<rscale>  0 0.12499842E+03</rscale>
<asrwt>0</asrwt>
<pdfrwt beam="1">  1        4 0.19725243E+00 0.12499842E+03</pdfrwt>
<pdfrwt beam="2">  1       -4 0.46870546E-03 0.12499842E+03</pdfrwt>
<totfact> 0.22581618E+03</totfact>
</mgrwt>
</event>
<event>
 5    1  0.3296424E-002  0.1249993E+03  0.7818608E-02  0.1235070E+00
         -4   -1    0    0    0  501 -0.00000000000E+00  0.00000000000E+00  0.59254106370E+02  0.59267714835E+02  0.12700000000E+01 0.  1.
          4   -1    0    0  501    0  0.00000000000E+00 -0.00000000000E+00 -0.65895699947E+02  0.65907937090E+02  0.12700000000E+01 0.  1.
         25    2    1    2    0    0  0.00000000000E+00  0.00000000000E+00 -0.66415935765E+01  0.12517565192E+03  0.12499933228E+03 0.  0.
    9000005    1    3    3    0    0  0.41237532867E+02  0.38769117438E+01 -0.50180431132E+02  0.65074113365E+02  0.10000000000E+01 0.  0.
    9000005    1    3    3    0    0 -0.41237532867E+02 -0.38769117438E+01  0.43538837555E+02  0.60101538560E+02  0.10000000000E+01 0.  0.
<mgrwt>
<rscale>  0 0.12499933E+03</rscale>
<asrwt>0</asrwt>
<pdfrwt beam="2">  1        4 0.10139788E-01 0.12499933E+03</pdfrwt>
<pdfrwt beam="1">  1       -4 0.91180045E-02 0.12499933E+03</pdfrwt>
<totfact> 0.10449206E+04</totfact>
</mgrwt>
</event>
<event>
 5    1  0.3296424E-002  0.1249970E+03  0.7818608E-02  0.1235074E+00
          4   -1    0    0  501    0  0.00000000000E+00  0.00000000000E+00  0.16250230937E+03  0.16250727200E+03  0.12700000000E+01 0.  1.
         -4   -1    0    0    0  501 -0.00000000000E+00 -0.00000000000E+00 -0.24014874018E+02  0.24048431843E+02  0.12700000000E+01 0.  1.
         25    2    1    2    0    0  0.00000000000E+00  0.00000000000E+00  0.13848743536E+03  0.18655570384E+03  0.12499704350E+03 0.  0.
    9000005    1    3    3    0    0  0.19937132625E+02  0.57278298244E+02  0.46768495263E+02  0.76593634567E+02  0.10000000000E+01 0.  0.
    9000005    1    3    3    0    0 -0.19937132625E+02 -0.57278298244E+02  0.91718940093E+02  0.10996206927E+03  0.10000000000E+01 0.  0.
<mgrwt>
<rscale>  0 0.12499704E+03</rscale>
<asrwt>0</asrwt>
<pdfrwt beam="1">  1        4 0.25003318E-01 0.12499704E+03</pdfrwt>
<pdfrwt beam="2">  1       -4 0.36975591E-02 0.12499704E+03</pdfrwt>
<totfact> 0.92456213E+03</totfact>
</mgrwt>
</event>
<event>
 5    1  0.3296424E-002  0.1249886E+03  0.7818608E-02  0.1235087E+00
          4   -1    0    0  501    0  0.00000000000E+00  0.00000000000E+00  0.25525295544E+02  0.25556870164E+02  0.12700000000E+01 0. -1.
         -4   -1    0    0    0  501 -0.00000000000E+00 -0.00000000000E+00 -0.15287764751E+03  0.15288292255E+03  0.12700000000E+01 0. -1.
         25    2    1    2    0    0  0.00000000000E+00  0.00000000000E+00 -0.12735235196E+03  0.17843979271E+03  0.12498855177E+03 0.  0.
    9000005    1    3    3    0    0  0.49955117857E+02  0.37536263548E+02 -0.63994247434E+02  0.89446903724E+02  0.10000000000E+01 0.  0.
    9000005    1    3    3    0    0 -0.49955117857E+02 -0.37536263548E+02 -0.63358104530E+02  0.88992888990E+02  0.10000000000E+01 0.  0.
<mgrwt>
<rscale>  0 0.12498855E+03</rscale>
<asrwt>0</asrwt>
<pdfrwt beam="1">  1        4 0.39298032E-02 0.12498855E+03</pdfrwt>
<pdfrwt beam="2">  1       -4 0.23522472E-01 0.12498855E+03</pdfrwt>
<totfact> 0.93922713E+03</totfact>
</mgrwt>
</event>
<event>
 5    1  0.3296424E-002  0.1249994E+03  0.7818608E-02  0.1235070E+00
          4   -1    0    0  501    0  0.00000000000E+00  0.00000000000E+00  0.37132745610E+03  0.37132962790E+03  0.12700000000E+01 0.  1.
         -4   -1    0    0    0  501 -0.00000000000E+00 -0.00000000000E+00 -0.10479048633E+02  0.10555726420E+02  0.12700000000E+01 0.  1.
         25    2    1    2    0    0  0.00000000000E+00  0.00000000000E+00  0.36084840747E+03  0.38188535432E+03  0.12499940268E+03 0.  0.
    9000005    1    3    3    0    0  0.22214985391E+02  0.25785321811E+02  0.20306075930E+02  0.39644988542E+02  0.10000000000E+01 0.  0.
    9000005    1    3    3    0    0 -0.22214985391E+02 -0.25785321811E+02  0.34054233154E+03  0.34224036577E+03  0.10000000000E+01 0.  0.
<mgrwt>
<rscale>  0 0.12499940E+03</rscale>
<asrwt>0</asrwt>
<pdfrwt beam="1">  1        4 0.57133369E-01 0.12499940E+03</pdfrwt>
<pdfrwt beam="2">  1       -4 0.16182266E-02 0.12499940E+03</pdfrwt>
<totfact> 0.66354440E+03</totfact>
</mgrwt>
</event>
<event>
 5    1  0.3296424E-002  0.1249975E+03  0.7818608E-02  0.1235073E+00
         -4   -1    0    0    0  501 -0.00000000000E+00  0.00000000000E+00  0.91357398321E+02  0.91366225313E+02  0.12700000000E+01 0.  1.
          4   -1    0    0  501    0  0.00000000000E+00 -0.00000000000E+00 -0.42735864711E+02  0.42754731114E+02  0.12700000000E+01 0.  1.
         25    2    1    2    0    0  0.00000000000E+00  0.00000000000E+00  0.48621533610E+02  0.13412095643E+03  0.12499750966E+03 0.  0.
    9000005    1    3    3    0    0  0.43067389619E+02 -0.57747298651E+01  0.72499166394E+02  0.84529738444E+02  0.10000000000E+01 0.  0.
    9000005    1    3    3    0    0 -0.43067389619E+02  0.57747298651E+01 -0.23877632784E+02  0.49591217983E+02  0.10000000000E+01 0.  0.
<mgrwt>
<rscale>  0 0.12499751E+03</rscale>
<asrwt>0</asrwt>
<pdfrwt beam="2">  1        4 0.65768788E-02 0.12499751E+03</pdfrwt>
<pdfrwt beam="1">  1       -4 0.14057114E-01 0.12499751E+03</pdfrwt>
<totfact> 0.10257208E+04</totfact>
</mgrwt>
</event>
<event>
 5    1  0.3296424E-002  0.1250002E+03  0.7818608E-02  0.1235069E+00
         -4   -1    0    0    0  501 -0.00000000000E+00  0.00000000000E+00  0.23408532304E+02  0.23442958103E+02  0.12700000000E+01 0.  1.
          4   -1    0    0  501    0  0.00000000000E+00 -0.00000000000E+00 -0.16671403351E+03  0.16671887076E+03  0.12700000000E+01 0.  1.
         25    2    1    2    0    0  0.00000000000E+00  0.00000000000E+00 -0.14330550120E+03  0.19016182886E+03  0.12500021793E+03 0.  0.
    9000005    1    3    3    0    0 -0.46612477539E+02 -0.39229034559E+02 -0.50484181496E+02  0.79128331185E+02  0.10000000000E+01 0.  0.
    9000005    1    3    3    0    0  0.46612477539E+02  0.39229034559E+02 -0.92821319706E+02  0.11103349768E+03  0.10000000000E+01 0.  0.
<mgrwt>
<rscale>  0 0.12500022E+03</rscale>
<asrwt>0</asrwt>
<pdfrwt beam="2">  1        4 0.25651332E-01 0.12500022E+03</pdfrwt>
<pdfrwt beam="1">  1       -4 0.36043330E-02 0.12500022E+03</pdfrwt>
<totfact> 0.91818717E+03</totfact>
</mgrwt>
</event>
<event>
 5    1  0.3296424E-002  0.1249999E+03  0.7818608E-02  0.1235069E+00
         -4   -1    0    0    0  501 -0.00000000000E+00  0.00000000000E+00  0.23254383616E+03  0.23254730408E+03  0.12700000000E+01 0.  1.
          4   -1    0    0  501    0  0.00000000000E+00 -0.00000000000E+00 -0.16770273466E+02  0.16818292783E+02  0.12700000000E+01 0.  1.
         25    2    1    2    0    0  0.00000000000E+00  0.00000000000E+00  0.21577356269E+03  0.24936559686E+03  0.12499988217E+03 0.  0.
    9000005    1    3    3    0    0  0.11826814922E+01  0.13922533456E+02  0.22939741777E+03  0.22982473965E+03  0.10000000000E+01 0.  0.
    9000005    1    3    3    0    0 -0.11826814922E+01 -0.13922533456E+02 -0.13623855083E+02  0.19540857214E+02  0.10000000000E+01 0.  0.
<mgrwt>
<rscale>  0 0.12499988E+03</rscale>
<asrwt>0</asrwt>
<pdfrwt beam="2">  1        4 0.25840028E-02 0.12499988E+03</pdfrwt>
<pdfrwt beam="1">  1       -4 0.35779933E-01 0.12499988E+03</pdfrwt>
<totfact> 0.82422223E+03</totfact>
</mgrwt>
</event>
<event>
 5    1  0.3296424E-002  0.1249982E+03  0.7818608E-02  0.1235072E+00
         -4   -1    0    0    0  501 -0.00000000000E+00  0.00000000000E+00  0.21494714591E+02  0.21532200430E+02  0.12700000000E+01 0. -1.
          4   -1    0    0  501    0  0.00000000000E+00 -0.00000000000E+00 -0.18152753907E+03  0.18153198159E+03  0.12700000000E+01 0. -1.
         25    2    1    2    0    0  0.00000000000E+00  0.00000000000E+00 -0.16003282448E+03  0.20306418202E+03  0.12499822843E+03 0.  0.
    9000005    1    3    3    0    0  0.34840967317E+02  0.67597381033E+01  0.35415109034E+01  0.35680938361E+02  0.10000000000E+01 0.  0.
    9000005    1    3    3    0    0 -0.34840967317E+02 -0.67597381033E+01 -0.16357433538E+03  0.16738324366E+03  0.10000000000E+01 0.  0.
<mgrwt>
<rscale>  0 0.12499823E+03</rscale>
<asrwt>0</asrwt>
<pdfrwt beam="2">  1        4 0.27930538E-01 0.12499823E+03</pdfrwt>
<pdfrwt beam="1">  1       -4 0.33101045E-02 0.12499823E+03</pdfrwt>
<totfact> 0.89624821E+03</totfact>
</mgrwt>
</event>
<event>
 5    1  0.3296424E-002  0.1250010E+03  0.7818608E-02  0.1235068E+00
         -4   -1    0    0    0  501 -0.00000000000E+00  0.00000000000E+00  0.40705305227E+02  0.40725112321E+02  0.12700000000E+01 0.  1.
          4   -1    0    0  501    0  0.00000000000E+00 -0.00000000000E+00 -0.95918365684E+02  0.95926772986E+02  0.12700000000E+01 0.  1.
         25    2    1    2    0    0  0.00000000000E+00  0.00000000000E+00 -0.55213060457E+02  0.13665188531E+03  0.12500102285E+03 0.  0.
    9000005    1    3    3    0    0 -0.19429524810E+02 -0.17283626815E+02 -0.89727998907E+02  0.93425606651E+02  0.10000000000E+01 0.  0.
    9000005    1    3    3    0    0  0.19429524810E+02  0.17283626815E+02  0.34514938450E+02  0.43226278656E+02  0.10000000000E+01 0.  0.
<mgrwt>
<rscale>  0 0.12500102E+03</rscale>
<asrwt>0</asrwt>
<pdfrwt beam="2">  1        4 0.14758842E-01 0.12500102E+03</pdfrwt>
<pdfrwt beam="1">  1       -4 0.62645250E-02 0.12500102E+03</pdfrwt>
<totfact> 0.10203134E+04</totfact>
</mgrwt>
</event>
<event>
 5    1  0.3296424E-002  0.1250004E+03  0.7818608E-02  0.1235069E+00
         -4   -1    0    0    0  501 -0.00000000000E+00  0.00000000000E+00  0.98246539510E+02  0.98254747599E+02  0.12700000000E+01 0. -1.
          4   -1    0    0  501    0  0.00000000000E+00 -0.00000000000E+00 -0.39739886218E+02  0.39760174253E+02  0.12700000000E+01 0. -1.
         25    2    1    2    0    0  0.00000000000E+00  0.00000000000E+00  0.58506653292E+02  0.13801492185E+03  0.12500036070E+03 0.  0.
    9000005    1    3    3    0    0 -0.61604255816E+02 -0.10323571279E+02  0.31351753105E+02  0.69897016255E+02  0.10000000000E+01 0.  0.
    9000005    1    3    3    0    0  0.61604255816E+02  0.10323571279E+02  0.27154900187E+02  0.68117905596E+02  0.10000000000E+01 0.  0.
<mgrwt>
<rscale>  0 0.12500036E+03</rscale>
<asrwt>0</asrwt>
<pdfrwt beam="2">  1        4 0.61160207E-02 0.12500036E+03</pdfrwt>
<pdfrwt beam="1">  1       -4 0.15117044E-01 0.12500036E+03</pdfrwt>
<totfact> 0.10174812E+04</totfact>
</mgrwt>
</event>
<event>
 5    1  0.3296424E-002  0.1250004E+03  0.7818608E-02  0.1235069E+00
          4   -1    0    0  501    0  0.00000000000E+00  0.00000000000E+00  0.42877671293E+03  0.42877859374E+03  0.12700000000E+01 0. -1.
         -4   -1    0    0    0  501 -0.00000000000E+00 -0.00000000000E+00 -0.90641131594E+01  0.91526524771E+01  0.12700000000E+01 0. -1.
         25    2    1    2    0    0  0.00000000000E+00  0.00000000000E+00  0.41971259977E+03  0.43793124622E+03  0.12500044003E+03 0.  0.
    9000005    1    3    3    0    0 -0.10646483885E+02 -0.55940327173E+02  0.11967359048E+03  0.13253465993E+03  0.10000000000E+01 0.  0.
    9000005    1    3    3    0    0  0.10646483885E+02  0.55940327173E+02  0.30003900929E+03  0.30539658629E+03  0.10000000000E+01 0.  0.
<mgrwt>
<rscale>  0 0.12500044E+03</rscale>
<asrwt>0</asrwt>
<pdfrwt beam="1">  1        4 0.65972589E-01 0.12500044E+03</pdfrwt>
<pdfrwt beam="2">  1       -4 0.14014347E-02 0.12500044E+03</pdfrwt>
<totfact> 0.61023008E+03</totfact>
</mgrwt>
</event>
<event>
 5    1  0.3296424E-002  0.1250046E+03  0.7818608E-02  0.1235062E+00
          4   -1    0    0  501    0  0.00000000000E+00  0.00000000000E+00  0.43582121830E+02  0.43600622051E+02  0.12700000000E+01 0. -1.
         -4   -1    0    0    0  501 -0.00000000000E+00 -0.00000000000E+00 -0.89594240720E+02  0.89603241404E+02  0.12700000000E+01 0. -1.
         25    2    1    2    0    0  0.00000000000E+00  0.00000000000E+00 -0.46012118890E+02  0.13320386346E+03  0.12500461653E+03 0.  0.
    9000005    1    3    3    0    0  0.43852364948E+02  0.44111755259E+02 -0.16554021373E+02  0.64373228031E+02  0.10000000000E+01 0.  0.
    9000005    1    3    3    0    0 -0.43852364948E+02 -0.44111755259E+02 -0.29458097517E+02  0.68830635424E+02  0.10000000000E+01 0.  0.
<mgrwt>
<rscale>  0 0.12500462E+03</rscale>
<asrwt>0</asrwt>
<pdfrwt beam="1">  1        4 0.67070573E-02 0.12500462E+03</pdfrwt>
<pdfrwt beam="2">  1       -4 0.13785845E-01 0.12500462E+03</pdfrwt>
<totfact> 0.10274999E+04</totfact>
</mgrwt>
</event>
<event>
 5    1  0.3296424E-002  0.1249994E+03  0.7818608E-02  0.1235070E+00
         -4   -1    0    0    0  501 -0.00000000000E+00  0.00000000000E+00  0.42457404541E+01  0.44316150559E+01  0.12700000000E+01 0. -1.
          4   -1    0    0  501    0  0.00000000000E+00 -0.00000000000E+00 -0.90013714627E+03  0.90013804219E+03  0.12700000000E+01 0. -1.
         25    2    1    2    0    0  0.00000000000E+00  0.00000000000E+00 -0.89589140582E+03  0.90456965725E+03  0.12499941517E+03 0.  0.
    9000005    1    3    3    0    0 -0.26768104018E+02 -0.34024958610E+02 -0.12181828491E+03  0.12928620862E+03  0.10000000000E+01 0.  0.
    9000005    1    3    3    0    0  0.26768104018E+02  0.34024958610E+02 -0.77407312090E+03  0.77528344862E+03  0.10000000000E+01 0.  0.
<mgrwt>
<rscale>  0 0.12499942E+03</rscale>
<asrwt>0</asrwt>
<pdfrwt beam="2">  1        4 0.13849686E+00 0.12499942E+03</pdfrwt>
<pdfrwt beam="1">  1       -4 0.66755852E-03 0.12499942E+03</pdfrwt>
<totfact> 0.33986013E+03</totfact>
</mgrwt>
</event>
<event>
 5    1  0.3296424E-002  0.1249955E+03  0.7818608E-02  0.1235076E+00
          4   -1    0    0  501    0  0.00000000000E+00  0.00000000000E+00  0.38414975980E+02  0.38435963362E+02  0.12700000000E+01 0.  1.
         -4   -1    0    0    0  501 -0.00000000000E+00 -0.00000000000E+00 -0.10162549797E+03  0.10163343316E+03  0.12700000000E+01 0.  1.
         25    2    1    2    0    0  0.00000000000E+00  0.00000000000E+00 -0.63210521986E+02  0.14006939653E+03  0.12499546293E+03 0.  0.
    9000005    1    3    3    0    0  0.35550549867E+02  0.31652328458E+01 -0.89085450666E+02  0.95974360196E+02  0.10000000000E+01 0.  0.
    9000005    1    3    3    0    0 -0.35550549867E+02 -0.31652328458E+01  0.25874928680E+02  0.44095036330E+02  0.10000000000E+01 0.  0.
<mgrwt>
<rscale>  0 0.12499546E+03</rscale>
<asrwt>0</asrwt>
<pdfrwt beam="1">  1        4 0.59122212E-02 0.12499546E+03</pdfrwt>
<pdfrwt beam="2">  1       -4 0.15636917E-01 0.12499546E+03</pdfrwt>
<totfact> 0.10133183E+04</totfact>
</mgrwt>
</event>
<event>
 5    1  0.3296424E-002  0.1249992E+03  0.7818608E-02  0.1235071E+00
          4   -1    0    0  501    0  0.00000000000E+00  0.00000000000E+00  0.29053075617E+02  0.29080820188E+02  0.12700000000E+01 0.  1.
         -4   -1    0    0    0  501 -0.00000000000E+00 -0.00000000000E+00 -0.13435552466E+03  0.13436152688E+03  0.12700000000E+01 0.  1.
         25    2    1    2    0    0  0.00000000000E+00  0.00000000000E+00 -0.10530244904E+03  0.16344234707E+03  0.12499918016E+03 0.  0.
    9000005    1    3    3    0    0 -0.12871101247E+02  0.40417027480E+02  0.73536236605E+01  0.43061318356E+02  0.10000000000E+01 0.  0.
    9000005    1    3    3    0    0  0.12871101247E+02 -0.40417027480E+02 -0.11265607270E+03  0.12038102871E+03  0.10000000000E+01 0.  0.
<mgrwt>
<rscale>  0 0.12499918E+03</rscale>
<asrwt>0</asrwt>
<pdfrwt beam="1">  1        4 0.44722999E-02 0.12499918E+03</pdfrwt>
<pdfrwt beam="2">  1       -4 0.20672676E-01 0.12499918E+03</pdfrwt>
<totfact> 0.96684984E+03</totfact>
</mgrwt>
</event>
<event>
 5    1  0.3296424E-002  0.1250003E+03  0.7818608E-02  0.1235069E+00
          4   -1    0    0  501    0  0.00000000000E+00  0.00000000000E+00  0.21812012521E+03  0.21812382245E+03  0.12700000000E+01 0.  1.
         -4   -1    0    0    0  501 -0.00000000000E+00 -0.00000000000E+00 -0.17882417824E+02  0.17927458471E+02  0.12700000000E+01 0.  1.
         25    2    1    2    0    0  0.00000000000E+00  0.00000000000E+00  0.20023770738E+03  0.23605128092E+03  0.12500027107E+03 0.  0.
    9000005    1    3    3    0    0 -0.26593633644E+02  0.53026683593E+02  0.13723054718E+03  0.14950676775E+03  0.10000000000E+01 0.  0.
    9000005    1    3    3    0    0  0.26593633644E+02 -0.53026683593E+02  0.63007160198E+02  0.86544513168E+02  0.10000000000E+01 0.  0.
<mgrwt>
<rscale>  0 0.12500027E+03</rscale>
<asrwt>0</asrwt>
<pdfrwt beam="1">  1        4 0.33560691E-01 0.12500027E+03</pdfrwt>
<pdfrwt beam="2">  1       -4 0.27548903E-02 0.12500027E+03</pdfrwt>
<totfact> 0.84388485E+03</totfact>
</mgrwt>
</event>
<event>
 5    1  0.3296424E-002  0.1249977E+03  0.7818608E-02  0.1235073E+00
         -4   -1    0    0    0  501 -0.00000000000E+00  0.00000000000E+00  0.19414691357E+02  0.19456185147E+02  0.12700000000E+01 0.  1.
          4   -1    0    0  501    0  0.00000000000E+00 -0.00000000000E+00 -0.20093497544E+03  0.20093898889E+03  0.12700000000E+01 0.  1.
         25    2    1    2    0    0  0.00000000000E+00  0.00000000000E+00 -0.18152028409E+03  0.22039517404E+03  0.12499767680E+03 0.  0.
    9000005    1    3    3    0    0 -0.84651552488E+00 -0.26741381253E+02  0.88140802236E+01  0.28186984053E+02  0.10000000000E+01 0.  0.
    9000005    1    3    3    0    0  0.84651552488E+00  0.26741381253E+02 -0.19033436431E+03  0.19220818999E+03  0.10000000000E+01 0.  0.
<mgrwt>
<rscale>  0 0.12499768E+03</rscale>
<asrwt>0</asrwt>
<pdfrwt beam="2">  1        4 0.30916572E-01 0.12499768E+03</pdfrwt>
<pdfrwt beam="1">  1       -4 0.29903763E-02 0.12499768E+03</pdfrwt>
<totfact> 0.86810362E+03</totfact>
</mgrwt>
</event>
<event>
 5    1  0.3296424E-002  0.1249994E+03  0.7818608E-02  0.1235070E+00
          4   -1    0    0  501    0  0.00000000000E+00  0.00000000000E+00  0.23025336986E+02  0.23060334848E+02  0.12700000000E+01 0.  1.
         -4   -1    0    0    0  501 -0.00000000000E+00 -0.00000000000E+00 -0.16948216967E+03  0.16948692792E+03  0.12700000000E+01 0.  1.
         25    2    1    2    0    0  0.00000000000E+00  0.00000000000E+00 -0.14645683269E+03  0.19254726277E+03  0.12499937824E+03 0.  0.
    9000005    1    3    3    0    0  0.24509734673E+02 -0.53261911809E+02 -0.39917140689E+02  0.70936143567E+02  0.10000000000E+01 0.  0.
    9000005    1    3    3    0    0 -0.24509734673E+02  0.53261911809E+02 -0.10653969200E+03  0.12161111920E+03  0.10000000000E+01 0.  0.
<mgrwt>
<rscale>  0 0.12499938E+03</rscale>
<asrwt>0</asrwt>
<pdfrwt beam="1">  1        4 0.35454178E-02 0.12499938E+03</pdfrwt>
<pdfrwt beam="2">  1       -4 0.26077237E-01 0.12499938E+03</pdfrwt>
<totfact> 0.91407252E+03</totfact>
</mgrwt>
</event>
<event>
 5    1  0.3296424E-002  0.1250004E+03  0.7818608E-02  0.1235069E+00
          4   -1    0    0  501    0  0.00000000000E+00  0.00000000000E+00  0.11173056270E+04  0.11173063488E+04  0.12700000000E+01 0.  1.
         -4   -1    0    0    0  501 -0.00000000000E+00 -0.00000000000E+00 -0.33800782304E+01  0.36107933815E+01  0.12700000000E+01 0.  1.
         25    2    1    2    0    0  0.00000000000E+00  0.00000000000E+00  0.11139255487E+04  0.11209171421E+04  0.12500044556E+03 0.  0.
    9000005    1    3    3    0    0  0.45671372332E+02 -0.20775285682E+01  0.93900443965E+03  0.94011729484E+03  0.10000000000E+01 0.  0.
    9000005    1    3    3    0    0 -0.45671372332E+02  0.20775285682E+01  0.17492110909E+03  0.18079984729E+03  0.10000000000E+01 0.  0.
<mgrwt>
<rscale>  0 0.12500045E+03</rscale>
<asrwt>0</asrwt>
<pdfrwt beam="1">  1        4 0.17191119E+00 0.12500045E+03</pdfrwt>
<pdfrwt beam="2">  1       -4 0.53781420E-03 0.12500045E+03</pdfrwt>
<totfact> 0.26878833E+03</totfact>
</mgrwt>
</event>
<event>
 5    1  0.3296424E-002  0.1250027E+03  0.7818608E-02  0.1235065E+00
         -4   -1    0    0    0  501 -0.00000000000E+00  0.00000000000E+00  0.28192117889E+02  0.28220708905E+02  0.12700000000E+01 0. -1.
          4   -1    0    0  501    0  0.00000000000E+00 -0.00000000000E+00 -0.13846258144E+03  0.13846840563E+03  0.12700000000E+01 0. -1.
         25    2    1    2    0    0  0.00000000000E+00  0.00000000000E+00 -0.11027046355E+03  0.16668911454E+03  0.12500274306E+03 0.  0.
    9000005    1    3    3    0    0  0.48844395429E+02 -0.14978837214E+02 -0.10312732355E+03  0.11509294241E+03  0.10000000000E+01 0.  0.
    9000005    1    3    3    0    0 -0.48844395429E+02  0.14978837214E+02 -0.71431399941E+01  0.51596172127E+02  0.10000000000E+01 0.  0.
<mgrwt>
<rscale>  0 0.12500274E+03</rscale>
<asrwt>0</asrwt>
<pdfrwt beam="2">  1        4 0.21304583E-01 0.12500274E+03</pdfrwt>
<pdfrwt beam="1">  1       -4 0.43398963E-02 0.12500274E+03</pdfrwt>
<totfact> 0.96062535E+03</totfact>
</mgrwt>
</event>
<event>
 5    1  0.3296424E-002  0.1249768E+03  0.7818608E-02  0.1235106E+00
          4   -1    0    0  501    0  0.00000000000E+00  0.00000000000E+00  0.57716601075E+01  0.59097343761E+01  0.12700000000E+01 0. -1.
         -4   -1    0    0    0  501 -0.00000000000E+00 -0.00000000000E+00 -0.66841181927E+03  0.66841302579E+03  0.12700000000E+01 0. -1.
         25    2    1    2    0    0  0.00000000000E+00  0.00000000000E+00 -0.66264015916E+03  0.67432276016E+03  0.12497681520E+03 0.  0.
    9000005    1    3    3    0    0 -0.60271240544E+02 -0.16348825668E+02 -0.34196804986E+03  0.34762487492E+03  0.10000000000E+01 0.  0.
    9000005    1    3    3    0    0  0.60271240544E+02  0.16348825668E+02 -0.32067210931E+03  0.32669788525E+03  0.10000000000E+01 0.  0.
<mgrwt>
<rscale>  0 0.12497682E+03</rscale>
<asrwt>0</asrwt>
<pdfrwt beam="1">  1        4 0.89866214E-03 0.12497682E+03</pdfrwt>
<pdfrwt beam="2">  1       -4 0.10284324E+00 0.12497682E+03</pdfrwt>
<totfact> 0.44499862E+03</totfact>
</mgrwt>
</event>
<event>
 5    1  0.3296424E-002  0.1250021E+03  0.7818608E-02  0.1235066E+00
          4   -1    0    0  501    0  0.00000000000E+00  0.00000000000E+00  0.65014797605E+01  0.66243595220E+01  0.12700000000E+01 0. -1.
         -4   -1    0    0    0  501 -0.00000000000E+00 -0.00000000000E+00 -0.59509628877E+03  0.59509764393E+03  0.12700000000E+01 0. -1.
         25    2    1    2    0    0  0.00000000000E+00  0.00000000000E+00 -0.58859480901E+03  0.60172200345E+03  0.12500208095E+03 0.  0.
    9000005    1    3    3    0    0  0.51093022597E+02 -0.22520052519E+02 -0.15919364458E+03  0.16870467154E+03  0.10000000000E+01 0.  0.
    9000005    1    3    3    0    0 -0.51093022597E+02  0.22520052519E+02 -0.42940116443E+03  0.43301733191E+03  0.10000000000E+01 0.  0.
<mgrwt>
<rscale>  0 0.12500208E+03</rscale>
<asrwt>0</asrwt>
<pdfrwt beam="1">  1        4 0.10097847E-02 0.12500208E+03</pdfrwt>
<pdfrwt beam="2">  1       -4 0.91562790E-01 0.12500208E+03</pdfrwt>
<totfact> 0.48756885E+03</totfact>
</mgrwt>
</event>
<event>
 5    1  0.3296424E-002  0.1249729E+03  0.7818608E-02  0.1235112E+00
         -4   -1    0    0    0  501 -0.00000000000E+00  0.00000000000E+00  0.88644894479E+01  0.89550026897E+01  0.12700000000E+01 0.  1.
          4   -1    0    0  501    0  0.00000000000E+00 -0.00000000000E+00 -0.43814283927E+03  0.43814467988E+03  0.12700000000E+01 0.  1.
         25    2    1    2    0    0  0.00000000000E+00  0.00000000000E+00 -0.42927834982E+03  0.44709968257E+03  0.12497289516E+03 0.  0.
    9000005    1    3    3    0    0  0.57830426810E+02  0.21825115539E+02 -0.18207299975E+03  0.19228174945E+03  0.10000000000E+01 0.  0.
    9000005    1    3    3    0    0 -0.57830426810E+02 -0.21825115539E+02 -0.24720535007E+03  0.25481793311E+03  0.10000000000E+01 0.  0.
<mgrwt>
<rscale>  0 0.12497290E+03</rscale>
<asrwt>0</asrwt>
<pdfrwt beam="2">  1        4 0.67413678E-01 0.12497290E+03</pdfrwt>
<pdfrwt beam="1">  1       -4 0.13708721E-02 0.12497290E+03</pdfrwt>
<totfact> 0.60251852E+03</totfact>
</mgrwt>
</event>
<event>
 5    1  0.3296424E-002  0.1249992E+03  0.7818608E-02  0.1235070E+00
          4   -1    0    0  501    0  0.00000000000E+00  0.00000000000E+00  0.51385511958E+02  0.51401203675E+02  0.12700000000E+01 0. -1.
         -4   -1    0    0    0  501 -0.00000000000E+00 -0.00000000000E+00 -0.75984990955E+02  0.75995603495E+02  0.12700000000E+01 0. -1.
         25    2    1    2    0    0  0.00000000000E+00  0.00000000000E+00 -0.24599478997E+02  0.12739680717E+03  0.12499924844E+03 0.  0.
    9000005    1    3    3    0    0  0.40163750946E+02  0.98909145630E+01  0.35441511437E+02  0.54479884488E+02  0.10000000000E+01 0.  0.
    9000005    1    3    3    0    0 -0.40163750946E+02 -0.98909145630E+01 -0.60040990434E+02  0.72916922681E+02  0.10000000000E+01 0.  0.
<mgrwt>
<rscale>  0 0.12499925E+03</rscale>
<asrwt>0</asrwt>
<pdfrwt beam="1">  1        4 0.79074868E-02 0.12499925E+03</pdfrwt>
<pdfrwt beam="2">  1       -4 0.11692022E-01 0.12499925E+03</pdfrwt>
<totfact> 0.10400712E+04</totfact>
</mgrwt>
</event>
<event>
 5    1  0.3296424E-002  0.1250013E+03  0.7818608E-02  0.1235067E+00
          4   -1    0    0  501    0  0.00000000000E+00  0.00000000000E+00  0.38243217228E+02  0.38264298817E+02  0.12700000000E+01 0. -1.
         -4   -1    0    0    0  501 -0.00000000000E+00 -0.00000000000E+00 -0.10209127060E+03  0.10209916960E+03  0.12700000000E+01 0. -1.
         25    2    1    2    0    0  0.00000000000E+00  0.00000000000E+00 -0.63848053370E+02  0.14036346841E+03  0.12500131738E+03 0.  0.
    9000005    1    3    3    0    0  0.29083946035E+02 -0.39346492081E+02 -0.75577245900E+02  0.90038560927E+02  0.10000000000E+01 0.  0.
    9000005    1    3    3    0    0 -0.29083946035E+02  0.39346492081E+02  0.11729192530E+02  0.50324907486E+02  0.10000000000E+01 0.  0.
<mgrwt>
<rscale>  0 0.12500132E+03</rscale>
<asrwt>0</asrwt>
<pdfrwt beam="1">  1        4 0.58858012E-02 0.12500132E+03</pdfrwt>
<pdfrwt beam="2">  1       -4 0.15708578E-01 0.12500132E+03</pdfrwt>
<totfact> 0.10125758E+04</totfact>
</mgrwt>
</event>
<event>
 5    1  0.3296424E-002  0.1250005E+03  0.7818608E-02  0.1235069E+00
         -4   -1    0    0    0  501 -0.00000000000E+00  0.00000000000E+00  0.36160695072E+03  0.36160918090E+03  0.12700000000E+01 0.  1.
          4   -1    0    0  501    0  0.00000000000E+00 -0.00000000000E+00 -0.10762960965E+02  0.10837630218E+02  0.12700000000E+01 0.  1.
         25    2    1    2    0    0  0.00000000000E+00  0.00000000000E+00  0.35084398976E+03  0.37244681112E+03  0.12500048785E+03 0.  0.
    9000005    1    3    3    0    0 -0.23233277893E+02 -0.31543258008E+02  0.32049085410E+03  0.32287791793E+03  0.10000000000E+01 0.  0.
    9000005    1    3    3    0    0  0.23233277893E+02  0.31543258008E+02  0.30353135660E+02  0.49568893187E+02  0.10000000000E+01 0.  0.
<mgrwt>
<rscale>  0 0.12500049E+03</rscale>
<asrwt>0</asrwt>
<pdfrwt beam="2">  1        4 0.16617555E-02 0.12500049E+03</pdfrwt>
<pdfrwt beam="1">  1       -4 0.55637753E-01 0.12500049E+03</pdfrwt>
<totfact> 0.67323002E+03</totfact>
</mgrwt>
</event>
<event>
 5    1  0.3296424E-002  0.1249973E+03  0.7818608E-02  0.1235073E+00
          4   -1    0    0  501    0  0.00000000000E+00  0.00000000000E+00  0.34755651025E+02  0.34778846705E+02  0.12700000000E+01 0.  1.
         -4   -1    0    0    0  501 -0.00000000000E+00 -0.00000000000E+00 -0.11232270032E+03  0.11232987985E+03  0.12700000000E+01 0.  1.
         25    2    1    2    0    0  0.00000000000E+00  0.00000000000E+00 -0.77567049293E+02  0.14710872655E+03  0.12499732114E+03 0.  0.
    9000005    1    3    3    0    0  0.15474335910E+02  0.58097573882E+02 -0.18731380997E+02  0.62981328954E+02  0.10000000000E+01 0.  0.
    9000005    1    3    3    0    0 -0.15474335910E+02 -0.58097573882E+02 -0.58835668296E+02  0.84127397598E+02  0.10000000000E+01 0.  0.
<mgrwt>
<rscale>  0 0.12499732E+03</rscale>
<asrwt>0</asrwt>
<pdfrwt beam="1">  1        4 0.53493598E-02 0.12499732E+03</pdfrwt>
<pdfrwt beam="2">  1       -4 0.17282752E-01 0.12499732E+03</pdfrwt>
<totfact> 0.99889208E+03</totfact>
</mgrwt>
</event>
<event>
 5    1  0.3296424E-002  0.1249991E+03  0.7818608E-02  0.1235071E+00
          4   -1    0    0  501    0  0.00000000000E+00  0.00000000000E+00  0.63256919184E+02  0.63269666702E+02  0.12700000000E+01 0.  1.
         -4   -1    0    0    0  501 -0.00000000000E+00 -0.00000000000E+00 -0.61725715141E+02  0.61738778815E+02  0.12700000000E+01 0.  1.
         25    2    1    2    0    0  0.00000000000E+00  0.00000000000E+00  0.15312040431E+01  0.12500844552E+03  0.12499906746E+03 0.  0.
    9000005    1    3    3    0    0 -0.40065148745E+02 -0.37084207933E+02 -0.29646169652E+02  0.62131714905E+02  0.10000000000E+01 0.  0.
    9000005    1    3    3    0    0  0.40065148745E+02  0.37084207933E+02  0.31177373695E+02  0.62876730613E+02  0.10000000000E+01 0.  0.
<mgrwt>
<rscale>  0 0.12499907E+03</rscale>
<asrwt>0</asrwt>
<pdfrwt beam="1">  1        4 0.97338192E-02 0.12499907E+03</pdfrwt>
<pdfrwt beam="2">  1       -4 0.94982493E-02 0.12499907E+03</pdfrwt>
<totfact> 0.10452899E+04</totfact>
</mgrwt>
</event>
<event>
 5    1  0.3296424E-002  0.1250018E+03  0.7818608E-02  0.1235066E+00
          4   -1    0    0  501    0  0.00000000000E+00  0.00000000000E+00  0.27443365928E+01  0.30239516091E+01  0.12700000000E+01 0.  1.
         -4   -1    0    0    0  501 -0.00000000000E+00 -0.00000000000E+00 -0.13541469290E+04  0.13541475245E+04  0.12700000000E+01 0.  1.
         25    2    1    2    0    0  0.00000000000E+00  0.00000000000E+00 -0.13514025924E+04  0.13571714761E+04  0.12500179563E+03 0.  0.
    9000005    1    3    3    0    0  0.58151999368E+02 -0.22385278190E+02 -0.62407923958E+03  0.62718310962E+03  0.10000000000E+01 0.  0.
    9000005    1    3    3    0    0 -0.58151999368E+02  0.22385278190E+02 -0.72732335280E+03  0.72998836651E+03  0.10000000000E+01 0.  0.
<mgrwt>
<rscale>  0 0.12500180E+03</rscale>
<asrwt>0</asrwt>
<pdfrwt beam="1">  1        4 0.44376137E-03 0.12500180E+03</pdfrwt>
<pdfrwt beam="2">  1       -4 0.20835134E+00 0.12500180E+03</pdfrwt>
<totfact> 0.20917223E+03</totfact>
</mgrwt>
</event>
<event>
 5    1  0.3296424E-002  0.1249988E+03  0.7818608E-02  0.1235071E+00
          4   -1    0    0  501    0  0.00000000000E+00  0.00000000000E+00  0.69201280213E+02  0.69212932918E+02  0.12700000000E+01 0.  1.
         -4   -1    0    0    0  501 -0.00000000000E+00 -0.00000000000E+00 -0.56422991278E+02  0.56437282400E+02  0.12700000000E+01 0.  1.
         25    2    1    2    0    0  0.00000000000E+00  0.00000000000E+00  0.12778288935E+02  0.12565021532E+03  0.12499876776E+03 0.  0.
    9000005    1    3    3    0    0  0.22905760322E+02 -0.35434547317E+02 -0.39947644478E+02  0.58112780856E+02  0.10000000000E+01 0.  0.
    9000005    1    3    3    0    0 -0.22905760322E+02  0.35434547317E+02  0.52725933413E+02  0.67537434462E+02  0.10000000000E+01 0.  0.
<mgrwt>
<rscale>  0 0.12499877E+03</rscale>
<asrwt>0</asrwt>
<pdfrwt beam="1">  1        4 0.10648346E-01 0.12499877E+03</pdfrwt>
<pdfrwt beam="2">  1       -4 0.86824559E-02 0.12499877E+03</pdfrwt>
<totfact> 0.10438931E+04</totfact>
</mgrwt>
</event>
<event>
 5    1  0.3296424E-002  0.1250000E+03  0.7818608E-02  0.1235069E+00
         -4   -1    0    0    0  501 -0.00000000000E+00  0.00000000000E+00  0.15882681318E+03  0.15883189064E+03  0.12700000000E+01 0.  1.
          4   -1    0    0  501    0  0.00000000000E+00 -0.00000000000E+00 -0.24572535280E+02  0.24605332554E+02  0.12700000000E+01 0.  1.
         25    2    1    2    0    0  0.00000000000E+00  0.00000000000E+00  0.13425427790E+03  0.18343722319E+03  0.12500001488E+03 0.  0.
    9000005    1    3    3    0    0 -0.12215028422E+02  0.44718399925E+02  0.56267543778E+01  0.46707628671E+02  0.10000000000E+01 0.  0.
    9000005    1    3    3    0    0  0.12215028422E+02 -0.44718399925E+02  0.12862752352E+03  0.13672959452E+03  0.10000000000E+01 0.  0.
<mgrwt>
<rscale>  0 0.12500001E+03</rscale>
<asrwt>0</asrwt>
<pdfrwt beam="2">  1        4 0.37833035E-02 0.12500001E+03</pdfrwt>
<pdfrwt beam="1">  1       -4 0.24437808E-01 0.12500001E+03</pdfrwt>
<totfact> 0.93001894E+03</totfact>
</mgrwt>
</event>
<event>
 5    1  0.3296424E-002  0.1250038E+03  0.7818608E-02  0.1235063E+00
         -4   -1    0    0    0  501 -0.00000000000E+00  0.00000000000E+00  0.28789462193E+03  0.28789742311E+03  0.12700000000E+01 0.  1.
          4   -1    0    0  501    0  0.00000000000E+00 -0.00000000000E+00 -0.13536563509E+02  0.13596008666E+02  0.12700000000E+01 0.  1.
         25    2    1    2    0    0  0.00000000000E+00  0.00000000000E+00  0.27435805842E+03  0.30149343178E+03  0.12500378069E+03 0.  0.
    9000005    1    3    3    0    0 -0.29820936959E+02 -0.22709779750E+02  0.25778394313E+03  0.26049680173E+03  0.10000000000E+01 0.  0.
    9000005    1    3    3    0    0  0.29820936959E+02  0.22709779750E+02  0.16574115287E+02  0.40996630044E+02  0.10000000000E+01 0.  0.
<mgrwt>
<rscale>  0 0.12500378E+03</rscale>
<asrwt>0</asrwt>
<pdfrwt beam="2">  1        4 0.20873363E-02 0.12500378E+03</pdfrwt>
<pdfrwt beam="1">  1       -4 0.44296271E-01 0.12500378E+03</pdfrwt>
<totfact> 0.75405555E+03</totfact>
</mgrwt>
</event>
<event>
 5    1  0.3296424E-002  0.1250011E+03  0.7818608E-02  0.1235067E+00
         -4   -1    0    0    0  501 -0.00000000000E+00  0.00000000000E+00  0.43269245664E+02  0.43287879601E+02  0.12700000000E+01 0.  1.
          4   -1    0    0  501    0  0.00000000000E+00 -0.00000000000E+00 -0.90236856952E+02  0.90245793546E+02  0.12700000000E+01 0.  1.
         25    2    1    2    0    0  0.00000000000E+00  0.00000000000E+00 -0.46967611288E+02  0.13353367315E+03  0.12500114141E+03 0.  0.
    9000005    1    3    3    0    0  0.32134198276E+02 -0.26430498620E+02  0.26326695102E+02  0.49247059112E+02  0.10000000000E+01 0.  0.
    9000005    1    3    3    0    0 -0.32134198276E+02  0.26430498620E+02 -0.73294306391E+02  0.84286614035E+02  0.10000000000E+01 0.  0.
<mgrwt>
<rscale>  0 0.12500114E+03</rscale>
<asrwt>0</asrwt>
<pdfrwt beam="2">  1        4 0.13884714E-01 0.12500114E+03</pdfrwt>
<pdfrwt beam="1">  1       -4 0.66589279E-02 0.12500114E+03</pdfrwt>
<totfact> 0.10268806E+04</totfact>
</mgrwt>
</event>
<event>
 5    1  0.3296424E-002  0.1250051E+03  0.7818608E-02  0.1235061E+00
         -4   -1    0    0    0  501 -0.00000000000E+00  0.00000000000E+00  0.59598783645E+01  0.60936893685E+01  0.12700000000E+01 0.  1.
          4   -1    0    0  501    0  0.00000000000E+00 -0.00000000000E+00 -0.64806631423E+03  0.64806755862E+03  0.12700000000E+01 0.  1.
         25    2    1    2    0    0  0.00000000000E+00  0.00000000000E+00 -0.64210643586E+03  0.65416124799E+03  0.12500505347E+03 0.  0.
    9000005    1    3    3    0    0 -0.39270082596E+00 -0.58248766559E+02 -0.20258519535E+03  0.21079571721E+03  0.10000000000E+01 0.  0.
    9000005    1    3    3    0    0  0.39270082596E+00  0.58248766559E+02 -0.43952124052E+03  0.44336553078E+03  0.10000000000E+01 0.  0.
<mgrwt>
<rscale>  0 0.12500505E+03</rscale>
<asrwt>0</asrwt>
<pdfrwt beam="2">  1        4 0.99712843E-01 0.12500505E+03</pdfrwt>
<pdfrwt beam="1">  1       -4 0.92729375E-03 0.12500505E+03</pdfrwt>
<totfact> 0.45612786E+03</totfact>
</mgrwt>
</event>
<event>
 5    1  0.3296424E-002  0.1250042E+03  0.7818608E-02  0.1235063E+00
         -4   -1    0    0    0  501 -0.00000000000E+00  0.00000000000E+00  0.61758982327E+02  0.61772038966E+02  0.12700000000E+01 0.  1.
          4   -1    0    0  501    0  0.00000000000E+00 -0.00000000000E+00 -0.63228019297E+02  0.63240772641E+02  0.12700000000E+01 0.  1.
         25    2    1    2    0    0  0.00000000000E+00  0.00000000000E+00 -0.14690369705E+01  0.12501281161E+03  0.12500417992E+03 0.  0.
    9000005    1    3    3    0    0 -0.59274963732E+02 -0.19566511995E+02  0.22891869306E+01  0.62470873965E+02  0.10000000000E+01 0.  0.
    9000005    1    3    3    0    0  0.59274963732E+02  0.19566511995E+02 -0.37582239011E+01  0.62541937642E+02  0.10000000000E+01 0.  0.
<mgrwt>
<rscale>  0 0.12500418E+03</rscale>
<asrwt>0</asrwt>
<pdfrwt beam="2">  1        4 0.97293730E-02 0.12500418E+03</pdfrwt>
<pdfrwt beam="1">  1       -4 0.95033673E-02 0.12500418E+03</pdfrwt>
<totfact> 0.10451597E+04</totfact>
</mgrwt>
</event>
<event>
 5    1  0.3296424E-002  0.1250083E+03  0.7818608E-02  0.1235056E+00
         -4   -1    0    0    0  501 -0.00000000000E+00  0.00000000000E+00  0.17120421592E+03  0.17120892631E+03  0.12700000000E+01 0. -1.
          4   -1    0    0  501    0  0.00000000000E+00 -0.00000000000E+00 -0.22796638369E+02  0.22831986793E+02  0.12700000000E+01 0. -1.
         25    2    1    2    0    0  0.00000000000E+00  0.00000000000E+00  0.14840757755E+03  0.19404091310E+03  0.12500826726E+03 0.  0.
    9000005    1    3    3    0    0  0.17638915815E+02 -0.59931069045E+02  0.71559382433E+02  0.94997945253E+02  0.10000000000E+01 0.  0.
    9000005    1    3    3    0    0 -0.17638915815E+02  0.59931069045E+02  0.76848195115E+02  0.99042967850E+02  0.10000000000E+01 0.  0.
<mgrwt>
<rscale>  0 0.12500827E+03</rscale>
<asrwt>0</asrwt>
<pdfrwt beam="2">  1        4 0.35102567E-02 0.12500827E+03</pdfrwt>
<pdfrwt beam="1">  1       -4 0.26342190E-01 0.12500827E+03</pdfrwt>
<totfact> 0.91132054E+03</totfact>
</mgrwt>
</event>
<event>
 5    1  0.3296424E-002  0.1250001E+03  0.7818608E-02  0.1235069E+00
          4   -1    0    0  501    0  0.00000000000E+00  0.00000000000E+00  0.66792523960E+02  0.66804596825E+02  0.12700000000E+01 0.  1.
         -4   -1    0    0    0  501 -0.00000000000E+00 -0.00000000000E+00 -0.58459134220E+02  0.58472927699E+02  0.12700000000E+01 0.  1.
         25    2    1    2    0    0  0.00000000000E+00  0.00000000000E+00  0.83333897402E+01  0.12527752452E+03  0.12500005107E+03 0.  0.
    9000005    1    3    3    0    0  0.45071430595E+02  0.43270746664E+02  0.53784357248E+01  0.62719366575E+02  0.10000000000E+01 0.  0.
    9000005    1    3    3    0    0 -0.45071430595E+02 -0.43270746664E+02  0.29549540154E+01  0.62558157949E+02  0.10000000000E+01 0.  0.
<mgrwt>
<rscale>  0 0.12500005E+03</rscale>
<asrwt>0</asrwt>
<pdfrwt beam="1">  1        4 0.10277763E-01 0.12500005E+03</pdfrwt>
<pdfrwt beam="2">  1       -4 0.89957027E-02 0.12500005E+03</pdfrwt>
<totfact> 0.10446826E+04</totfact>
</mgrwt>
</event>
<event>
 5    1  0.3296424E-002  0.1250018E+03  0.7818608E-02  0.1235067E+00
          4   -1    0    0  501    0  0.00000000000E+00  0.00000000000E+00  0.14378959745E+03  0.14379520588E+03  0.12700000000E+01 0.  1.
         -4   -1    0    0    0  501 -0.00000000000E+00 -0.00000000000E+00 -0.27146212115E+02  0.27175903521E+02  0.12700000000E+01 0.  1.
         25    2    1    2    0    0  0.00000000000E+00  0.00000000000E+00  0.11664338533E+03  0.17097110940E+03  0.12500176362E+03 0.  0.
    9000005    1    3    3    0    0 -0.17569439888E+02 -0.47048292876E+02  0.74544046408E+01  0.50781839559E+02  0.10000000000E+01 0.  0.
    9000005    1    3    3    0    0  0.17569439888E+02  0.47048292876E+02  0.10918898069E+03  0.12018926984E+03  0.10000000000E+01 0.  0.
<mgrwt>
<rscale>  0 0.12500176E+03</rscale>
<asrwt>0</asrwt>
<pdfrwt beam="1">  1        4 0.22124192E-01 0.12500176E+03</pdfrwt>
<pdfrwt beam="2">  1       -4 0.41790557E-02 0.12500176E+03</pdfrwt>
<totfact> 0.95264173E+03</totfact>
</mgrwt>
</event>
<event>
 5    1  0.3296424E-002  0.1250043E+03  0.7818608E-02  0.1235063E+00
          4   -1    0    0  501    0  0.00000000000E+00  0.00000000000E+00  0.18362118847E+02  0.18405985671E+02  0.12700000000E+01 0. -1.
         -4   -1    0    0    0  501 -0.00000000000E+00 -0.00000000000E+00 -0.21244934135E+03  0.21245313728E+03  0.12700000000E+01 0. -1.
         25    2    1    2    0    0  0.00000000000E+00  0.00000000000E+00 -0.19408722251E+03  0.23085912295E+03  0.12500433877E+03 0.  0.
    9000005    1    3    3    0    0  0.47725850271E+02 -0.90420459596E+01 -0.24428415328E+02  0.54380721351E+02  0.10000000000E+01 0.  0.
    9000005    1    3    3    0    0 -0.47725850271E+02  0.90420459596E+01 -0.16965880718E+03  0.17647840160E+03  0.10000000000E+01 0.  0.
<mgrwt>
<rscale>  0 0.12500434E+03</rscale>
<asrwt>0</asrwt>
<pdfrwt beam="1">  1        4 0.28286079E-02 0.12500434E+03</pdfrwt>
<pdfrwt beam="2">  1       -4 0.32688179E-01 0.12500434E+03</pdfrwt>
<totfact> 0.85169608E+03</totfact>
</mgrwt>
</event>
<event>
 5    1  0.3296424E-002  0.1249982E+03  0.7818608E-02  0.1235072E+00
          4   -1    0    0  501    0  0.00000000000E+00  0.00000000000E+00  0.14231359574E+04  0.14231365240E+04  0.12700000000E+01 0.  1.
         -4   -1    0    0    0  501 -0.00000000000E+00 -0.00000000000E+00 -0.25972322749E+01  0.28911097333E+01  0.12700000000E+01 0.  1.
         25    2    1    2    0    0  0.00000000000E+00  0.00000000000E+00  0.14205387251E+04  0.14260276338E+04  0.12499817116E+03 0.  0.
    9000005    1    3    3    0    0 -0.39447993542E+02 -0.48404811023E+02  0.68240445108E+03  0.68525615997E+03  0.10000000000E+01 0.  0.
    9000005    1    3    3    0    0  0.39447993542E+02  0.48404811023E+02  0.73813427402E+03  0.74077147381E+03  0.10000000000E+01 0.  0.
<mgrwt>
<rscale>  0 0.12499817E+03</rscale>
<asrwt>0</asrwt>
<pdfrwt beam="1">  1        4 0.21896652E+00 0.12499817E+03</pdfrwt>
<pdfrwt beam="2">  1       -4 0.42222398E-03 0.12499817E+03</pdfrwt>
<totfact> 0.19429978E+03</totfact>
</mgrwt>
</event>
<event>
 5    1  0.3296424E-002  0.1249882E+03  0.7818608E-02  0.1235088E+00
         -4   -1    0    0    0  501 -0.00000000000E+00  0.00000000000E+00  0.19905016916E+03  0.19905422061E+03  0.12700000000E+01 0.  1.
          4   -1    0    0  501    0  0.00000000000E+00 -0.00000000000E+00 -0.19595936684E+02  0.19637047500E+02  0.12700000000E+01 0.  1.
         25    2    1    2    0    0  0.00000000000E+00  0.00000000000E+00  0.17945423248E+03  0.21869126811E+03  0.12498819622E+03 0.  0.
    9000005    1    3    3    0    0 -0.53906544868E+02  0.29550007056E+02  0.10932009544E+03  0.12542329036E+03  0.10000000000E+01 0.  0.
    9000005    1    3    3    0    0  0.53906544868E+02 -0.29550007056E+02  0.70134137036E+02  0.93267977755E+02  0.10000000000E+01 0.  0.
<mgrwt>
<rscale>  0 0.12498820E+03</rscale>
<asrwt>0</asrwt>
<pdfrwt beam="2">  1        4 0.30182336E-02 0.12498820E+03</pdfrwt>
<pdfrwt beam="1">  1       -4 0.30626576E-01 0.12498820E+03</pdfrwt>
<totfact> 0.87098829E+03</totfact>
</mgrwt>
</event>
<event>
 5    1  0.3296424E-002  0.1249996E+03  0.7818608E-02  0.1235070E+00
         -4   -1    0    0    0  501 -0.00000000000E+00  0.00000000000E+00  0.17364925914E+04  0.17364930559E+04  0.12700000000E+01 0. -1.
          4   -1    0    0  501    0  0.00000000000E+00 -0.00000000000E+00 -0.20697366353E+01  0.24283141765E+01  0.12700000000E+01 0. -1.
         25    2    1    2    0    0  0.00000000000E+00  0.00000000000E+00  0.17344228548E+04  0.17389213700E+04  0.12499956751E+03 0.  0.
    9000005    1    3    3    0    0  0.36867447686E+02 -0.44955344068E+02  0.54845126760E+03  0.55152514411E+03  0.10000000000E+01 0.  0.
    9000005    1    3    3    0    0 -0.36867447686E+02  0.44955344068E+02  0.11859715872E+04  0.11873962259E+04  0.10000000000E+01 0.  0.
<mgrwt>
<rscale>  0 0.12499957E+03</rscale>
<asrwt>0</asrwt>
<pdfrwt beam="2">  1        4 0.34604125E-03 0.12499957E+03</pdfrwt>
<pdfrwt beam="1">  1       -4 0.26717907E+00 0.12499957E+03</pdfrwt>
<totfact> 0.13668630E+03</totfact>
</mgrwt>
</event>
<event>
 5    1  0.3296424E-002  0.1249919E+03  0.7818608E-02  0.1235082E+00
          4   -1    0    0  501    0  0.00000000000E+00  0.00000000000E+00  0.18918171028E+01  0.22785679605E+01  0.12700000000E+01 0. -1.
         -4   -1    0    0    0  501 -0.00000000000E+00 -0.00000000000E+00 -0.18726986424E+04  0.18726990731E+04  0.12700000000E+01 0. -1.
         25    2    1    2    0    0  0.00000000000E+00  0.00000000000E+00 -0.18708068253E+04  0.18749776410E+04  0.12499190636E+03 0.  0.
    9000005    1    3    3    0    0 -0.53077295427E+02  0.17183903762E+02 -0.51317485170E+03  0.51619949075E+03  0.10000000000E+01 0.  0.
    9000005    1    3    3    0    0  0.53077295427E+02 -0.17183903762E+02 -0.13576319736E+04  0.13587781503E+04  0.10000000000E+01 0.  0.
<mgrwt>
<rscale>  0 0.12499191E+03</rscale>
<asrwt>0</asrwt>
<pdfrwt beam="1">  1        4 0.32083347E-03 0.12499191E+03</pdfrwt>
<pdfrwt beam="2">  1       -4 0.28813592E+00 0.12499191E+03</pdfrwt>
<totfact> 0.11584832E+03</totfact>
</mgrwt>
</event>
<event>
 5    1  0.3296424E-002  0.1249920E+03  0.7818608E-02  0.1235082E+00
          4   -1    0    0  501    0  0.00000000000E+00  0.00000000000E+00  0.23770611183E+02  0.23804513354E+02  0.12700000000E+01 0.  1.
         -4   -1    0    0    0  501 -0.00000000000E+00 -0.00000000000E+00 -0.16415662784E+03  0.16416154045E+03  0.12700000000E+01 0.  1.
         25    2    1    2    0    0  0.00000000000E+00  0.00000000000E+00 -0.14038601666E+03  0.18796605381E+03  0.12499201459E+03 0.  0.
    9000005    1    3    3    0    0  0.61749373053E+02  0.70484460233E+01 -0.79948792492E+02  0.10126931956E+03  0.10000000000E+01 0.  0.
    9000005    1    3    3    0    0 -0.61749373053E+02 -0.70484460233E+01 -0.60437224164E+02  0.86696734243E+02  0.10000000000E+01 0.  0.
<mgrwt>
<rscale>  0 0.12499201E+03</rscale>
<asrwt>0</asrwt>
<pdfrwt beam="1">  1        4 0.36600030E-02 0.12499201E+03</pdfrwt>
<pdfrwt beam="2">  1       -4 0.25257851E-01 0.12499201E+03</pdfrwt>
<totfact> 0.92218921E+03</totfact>
</mgrwt>
</event>
<event>
 5    1  0.3296424E-002  0.1249997E+03  0.7818608E-02  0.1235070E+00
         -4   -1    0    0    0  501 -0.00000000000E+00  0.00000000000E+00  0.32858013094E+01  0.35226964452E+01  0.12700000000E+01 0. -1.
          4   -1    0    0  501    0  0.00000000000E+00 -0.00000000000E+00 -0.11472208186E+04  0.11472215216E+04  0.12700000000E+01 0. -1.
         25    2    1    2    0    0  0.00000000000E+00  0.00000000000E+00 -0.11439350173E+04  0.11507442180E+04  0.12499972595E+03 0.  0.
    9000005    1    3    3    0    0 -0.45284305857E+02 -0.72237031871E+01 -0.18113269922E+03  0.18684995310E+03  0.10000000000E+01 0.  0.
    9000005    1    3    3    0    0  0.45284305857E+02  0.72237031871E+01 -0.96280231806E+03  0.96389426490E+03  0.10000000000E+01 0.  0.
<mgrwt>
<rscale>  0 0.12499973E+03</rscale>
<asrwt>0</asrwt>
<pdfrwt beam="2">  1        4 0.17651348E+00 0.12499973E+03</pdfrwt>
<pdfrwt beam="1">  1       -4 0.52378559E-03 0.12499973E+03</pdfrwt>
<totfact> 0.26039802E+03</totfact>
</mgrwt>
</event>
<event>
 5    1  0.3296424E-002  0.1250002E+03  0.7818608E-02  0.1235069E+00
          4   -1    0    0  501    0  0.00000000000E+00  0.00000000000E+00  0.31587541431E+02  0.31613061757E+02  0.12700000000E+01 0.  1.
         -4   -1    0    0    0  501 -0.00000000000E+00 -0.00000000000E+00 -0.12358594769E+03  0.12359247294E+03  0.12700000000E+01 0.  1.
         25    2    1    2    0    0  0.00000000000E+00  0.00000000000E+00 -0.91998406259E+02  0.15520553469E+03  0.12500020498E+03 0.  0.
    9000005    1    3    3    0    0 -0.30575651685E+02 -0.50982704102E+02 -0.69919956276E+02  0.91781843952E+02  0.10000000000E+01 0.  0.
    9000005    1    3    3    0    0  0.30575651685E+02  0.50982704102E+02 -0.22078449983E+02  0.63423690741E+02  0.10000000000E+01 0.  0.
<mgrwt>
<rscale>  0 0.12500020E+03</rscale>
<asrwt>0</asrwt>
<pdfrwt beam="1">  1        4 0.48620869E-02 0.12500020E+03</pdfrwt>
<pdfrwt beam="2">  1       -4 0.19015687E-01 0.12500020E+03</pdfrwt>
<totfact> 0.98274712E+03</totfact>
</mgrwt>
</event>
<event>
 5    1  0.3296424E-002  0.1250001E+03  0.7818608E-02  0.1235069E+00
         -4   -1    0    0    0  501 -0.00000000000E+00  0.00000000000E+00  0.16197198895E+04  0.16197203874E+04  0.12700000000E+01 0.  1.
          4   -1    0    0  501    0  0.00000000000E+00 -0.00000000000E+00 -0.22439561228E+01  0.25784179415E+01  0.12700000000E+01 0.  1.
         25    2    1    2    0    0  0.00000000000E+00  0.00000000000E+00  0.16174759334E+04  0.16222988054E+04  0.12500007496E+03 0.  0.
    9000005    1    3    3    0    0 -0.60205498517E+02  0.12595361016E+02  0.66544021531E+03  0.66827765586E+03  0.10000000000E+01 0.  0.
    9000005    1    3    3    0    0  0.60205498517E+02 -0.12595361016E+02  0.95203571810E+03  0.95402114951E+03  0.10000000000E+01 0.  0.
<mgrwt>
<rscale>  0 0.12500007E+03</rscale>
<asrwt>0</asrwt>
<pdfrwt beam="2">  1        4 0.37099003E-03 0.12500007E+03</pdfrwt>
<pdfrwt beam="1">  1       -4 0.24921352E+00 0.12500007E+03</pdfrwt>
<totfact> 0.15646348E+03</totfact>
</mgrwt>
</event>
<event>
 5    1  0.3296424E-002  0.1250003E+03  0.7818608E-02  0.1235069E+00
         -4   -1    0    0    0  501 -0.00000000000E+00  0.00000000000E+00  0.98488571532E+02  0.98496759452E+02  0.12700000000E+01 0. -1.
          4   -1    0    0  501    0  0.00000000000E+00 -0.00000000000E+00 -0.39642161571E+02  0.39662499594E+02  0.12700000000E+01 0. -1.
         25    2    1    2    0    0  0.00000000000E+00  0.00000000000E+00  0.58846409961E+02  0.13815925905E+03  0.12500032358E+03 0.  0.
    9000005    1    3    3    0    0 -0.22443859759E+02 -0.26873139159E+02  0.86635034187E+02  0.93447961978E+02  0.10000000000E+01 0.  0.
    9000005    1    3    3    0    0  0.22443859759E+02  0.26873139159E+02 -0.27788624226E+02  0.44711297068E+02  0.10000000000E+01 0.  0.
<mgrwt>
<rscale>  0 0.12500032E+03</rscale>
<asrwt>0</asrwt>
<pdfrwt beam="2">  1        4 0.61009884E-02 0.12500032E+03</pdfrwt>
<pdfrwt beam="1">  1       -4 0.15154282E-01 0.12500032E+03</pdfrwt>
<totfact> 0.10171805E+04</totfact>
</mgrwt>
</event>
<event>
 5    1  0.3296424E-002  0.1250023E+03  0.7818608E-02  0.1235066E+00
          4   -1    0    0  501    0  0.00000000000E+00  0.00000000000E+00  0.21809256739E+03  0.21809626511E+03  0.12700000000E+01 0. -1.
         -4   -1    0    0    0  501 -0.00000000000E+00 -0.00000000000E+00 -0.17885271263E+02  0.17930304742E+02  0.12700000000E+01 0. -1.
         25    2    1    2    0    0  0.00000000000E+00  0.00000000000E+00  0.20020729613E+03  0.23602656985E+03  0.12500232098E+03 0.  0.
    9000005    1    3    3    0    0  0.23394418523E+02  0.55685917410E+02  0.13038373117E+03  0.14369807782E+03  0.10000000000E+01 0.  0.
    9000005    1    3    3    0    0 -0.23394418523E+02 -0.55685917410E+02  0.69823564965E+02  0.92328492028E+02  0.10000000000E+01 0.  0.
<mgrwt>
<rscale>  0 0.12500232E+03</rscale>
<asrwt>0</asrwt>
<pdfrwt beam="1">  1        4 0.33556449E-01 0.12500232E+03</pdfrwt>
<pdfrwt beam="2">  1       -4 0.27553289E-02 0.12500232E+03</pdfrwt>
<totfact> 0.84388353E+03</totfact>
</mgrwt>
</event>
<event>
 5    1  0.3296424E-002  0.1250002E+03  0.7818608E-02  0.1235069E+00
          4   -1    0    0  501    0  0.00000000000E+00  0.00000000000E+00  0.87254108780E+01  0.88173519262E+01  0.12700000000E+01 0. -1.
         -4   -1    0    0    0  501 -0.00000000000E+00 -0.00000000000E+00 -0.44524872788E+03  0.44525053911E+03  0.12700000000E+01 0. -1.
         25    2    1    2    0    0  0.00000000000E+00  0.00000000000E+00 -0.43652331700E+03  0.45406789104E+03  0.12500017354E+03 0.  0.
    9000005    1    3    3    0    0  0.47251516506E+02 -0.17357728992E+02 -0.83746645578E+02  0.97716412201E+02  0.10000000000E+01 0.  0.
    9000005    1    3    3    0    0 -0.47251516506E+02  0.17357728992E+02 -0.35277667142E+03  0.35635147883E+03  0.10000000000E+01 0.  0.
<mgrwt>
<rscale>  0 0.12500017E+03</rscale>
<asrwt>0</asrwt>
<pdfrwt beam="1">  1        4 0.13495830E-02 0.12500017E+03</pdfrwt>
<pdfrwt beam="2">  1       -4 0.68506998E-01 0.12500017E+03</pdfrwt>
<totfact> 0.59612787E+03</totfact>
</mgrwt>
</event>
<event>
 5    1  0.3296424E-002  0.1249999E+03  0.7818608E-02  0.1235069E+00
         -4   -1    0    0    0  501 -0.00000000000E+00  0.00000000000E+00  0.32408079283E+02  0.32432953964E+02  0.12700000000E+01 0.  1.
          4   -1    0    0  501    0  0.00000000000E+00 -0.00000000000E+00 -0.12045858566E+03  0.12046528030E+03  0.12700000000E+01 0.  1.
         25    2    1    2    0    0  0.00000000000E+00  0.00000000000E+00 -0.88050506373E+02  0.15289823427E+03  0.12499991348E+03 0.  0.
    9000005    1    3    3    0    0 -0.15939481675E+02 -0.31842480787E+02 -0.10684079140E+03  0.11262311204E+03  0.10000000000E+01 0.  0.
    9000005    1    3    3    0    0  0.15939481675E+02  0.31842480787E+02  0.18790285028E+02  0.40275122224E+02  0.10000000000E+01 0.  0.
<mgrwt>
<rscale>  0 0.12499991E+03</rscale>
<asrwt>0</asrwt>
<pdfrwt beam="2">  1        4 0.18534518E-01 0.12499991E+03</pdfrwt>
<pdfrwt beam="1">  1       -4 0.49882868E-02 0.12499991E+03</pdfrwt>
<totfact> 0.98729277E+03</totfact>
</mgrwt>
</event>
<event>
 5    1  0.3296424E-002  0.1249960E+03  0.7818608E-02  0.1235076E+00
          4   -1    0    0  501    0  0.00000000000E+00  0.00000000000E+00  0.30071285885E+02  0.30098091880E+02  0.12700000000E+01 0.  1.
         -4   -1    0    0    0  501 -0.00000000000E+00 -0.00000000000E+00 -0.12980352336E+03  0.12980973606E+03  0.12700000000E+01 0.  1.
         25    2    1    2    0    0  0.00000000000E+00  0.00000000000E+00 -0.99732237476E+02  0.15990782794E+03  0.12499597692E+03 0.  0.
    9000005    1    3    3    0    0  0.26129123448E+02  0.48263466104E+02 -0.88093662277E+02  0.10379588906E+03  0.10000000000E+01 0.  0.
    9000005    1    3    3    0    0 -0.26129123448E+02 -0.48263466104E+02 -0.11638575199E+02  0.56111938883E+02  0.10000000000E+01 0.  0.
<mgrwt>
<rscale>  0 0.12499598E+03</rscale>
<asrwt>0</asrwt>
<pdfrwt beam="1">  1        4 0.46288917E-02 0.12499598E+03</pdfrwt>
<pdfrwt beam="2">  1       -4 0.19972312E-01 0.12499598E+03</pdfrwt>
<totfact> 0.97369363E+03</totfact>
</mgrwt>
</event>
<event>
 5    1  0.3296424E-002  0.1250037E+03  0.7818608E-02  0.1235064E+00
          4   -1    0    0  501    0  0.00000000000E+00  0.00000000000E+00  0.25456142858E+02  0.25487803146E+02  0.12700000000E+01 0. -1.
         -4   -1    0    0    0  501 -0.00000000000E+00 -0.00000000000E+00 -0.15332952360E+03  0.15333478310E+03  0.12700000000E+01 0. -1.
         25    2    1    2    0    0  0.00000000000E+00  0.00000000000E+00 -0.12787338074E+03  0.17882258624E+03  0.12500366334E+03 0.  0.
    9000005    1    3    3    0    0 -0.43678060105E+02 -0.18968127586E+02 -0.12183227788E+03  0.13081156956E+03  0.10000000000E+01 0.  0.
    9000005    1    3    3    0    0  0.43678060105E+02  0.18968127586E+02 -0.60411028618E+01  0.48011016678E+02  0.10000000000E+01 0.  0.
<mgrwt>
<rscale>  0 0.12500366E+03</rscale>
<asrwt>0</asrwt>
<pdfrwt beam="1">  1        4 0.39191697E-02 0.12500366E+03</pdfrwt>
<pdfrwt beam="2">  1       -4 0.23591997E-01 0.12500366E+03</pdfrwt>
<totfact> 0.93821664E+03</totfact>
</mgrwt>
</event>
<event>
 5    1  0.3296424E-002  0.1249926E+03  0.7818608E-02  0.1235081E+00
          4   -1    0    0  501    0  0.00000000000E+00  0.00000000000E+00  0.19188900632E+03  0.19189320896E+03  0.12700000000E+01 0. -1.
         -4   -1    0    0    0  501 -0.00000000000E+00 -0.00000000000E+00 -0.20330178350E+02  0.20369807357E+02  0.12700000000E+01 0. -1.
         25    2    1    2    0    0  0.00000000000E+00  0.00000000000E+00  0.17155882797E+03  0.21226301632E+03  0.12499262636E+03 0.  0.
    9000005    1    3    3    0    0 -0.21853358667E+02 -0.82044072054E+01  0.18421533372E+03  0.18569106268E+03  0.10000000000E+01 0.  0.
    9000005    1    3    3    0    0  0.21853358667E+02  0.82044072054E+01 -0.12656505746E+02  0.26571953642E+02  0.10000000000E+01 0.  0.
<mgrwt>
<rscale>  0 0.12499263E+03</rscale>
<asrwt>0</asrwt>
<pdfrwt beam="1">  1        4 0.29524756E-01 0.12499263E+03</pdfrwt>
<pdfrwt beam="2">  1       -4 0.31310915E-02 0.12499263E+03</pdfrwt>
<totfact> 0.88122153E+03</totfact>
</mgrwt>
</event>
<event>
 5    1  0.3296424E-002  0.1250005E+03  0.7818608E-02  0.1235069E+00
          4   -1    0    0  501    0  0.00000000000E+00  0.00000000000E+00  0.60112482113E+02  0.60125896299E+02  0.12700000000E+01 0.  1.
         -4   -1    0    0    0  501 -0.00000000000E+00 -0.00000000000E+00 -0.64955983147E+02  0.64968397291E+02  0.12700000000E+01 0.  1.
         25    2    1    2    0    0  0.00000000000E+00  0.00000000000E+00 -0.48435010337E+01  0.12509429359E+03  0.12500049115E+03 0.  0.
    9000005    1    3    3    0    0 -0.63270985837E+01  0.61941722619E+02 -0.77616256226E+01  0.62753900356E+02  0.10000000000E+01 0.  0.
    9000005    1    3    3    0    0  0.63270985837E+01 -0.61941722619E+02  0.29181245889E+01  0.62340393235E+02  0.10000000000E+01 0.  0.
<mgrwt>
<rscale>  0 0.12500049E+03</rscale>
<asrwt>0</asrwt>
<pdfrwt beam="1">  1        4 0.92500609E-02 0.12500049E+03</pdfrwt>
<pdfrwt beam="2">  1       -4 0.99952150E-02 0.12500049E+03</pdfrwt>
<totfact> 0.10450699E+04</totfact>
</mgrwt>
</event>
<event>
 5    1  0.3296424E-002  0.1249975E+03  0.7818608E-02  0.1235073E+00
          4   -1    0    0  501    0  0.00000000000E+00  0.00000000000E+00  0.18325674295E+04  0.18325678695E+04  0.12700000000E+01 0.  1.
         -4   -1    0    0    0  501 -0.00000000000E+00 -0.00000000000E+00 -0.19418309003E+01  0.23202601676E+01  0.12700000000E+01 0.  1.
         25    2    1    2    0    0  0.00000000000E+00  0.00000000000E+00  0.18306255986E+04  0.18348881297E+04  0.12499746552E+03 0.  0.
    9000005    1    3    3    0    0 -0.50966685127E+01 -0.61954648254E+02  0.82162056842E+03  0.82396948543E+03  0.10000000000E+01 0.  0.
    9000005    1    3    3    0    0  0.50966685127E+01  0.61954648254E+02  0.10090050302E+04  0.10109186443E+04  0.10000000000E+01 0.  0.
<mgrwt>
<rscale>  0 0.12499747E+03</rscale>
<asrwt>0</asrwt>
<pdfrwt beam="1">  1        4 0.28196296E+00 0.12499747E+03</pdfrwt>
<pdfrwt beam="2">  1       -4 0.32788658E-03 0.12499747E+03</pdfrwt>
<totfact> 0.12174264E+03</totfact>
</mgrwt>
</event>
<event>
 4    1  0.3296424E-002  0.1248763E+03  0.7818608E-02  0.1235263E+00
         -4   -1    0    0    0  501 -0.00000000000E+00  0.00000000000E+00  0.49355923517E+03  0.49356086911E+03  0.12700000000E+01 0. -1.
          4   -1    0    0  501    0  0.00000000000E+00 -0.00000000000E+00 -0.78460834326E+01  0.79482026415E+01  0.12700000000E+01 0. -1.
    9000005    1    1    2    0    0 -0.42812853030E+02 -0.44890678427E+02  0.27108554286E+03  0.27809438135E+03  0.10000000000E+01 0.  0.
    9000005    1    1    2    0    0  0.42812853030E+02  0.44890678427E+02  0.21462760888E+03  0.22341469040E+03  0.10000000000E+01 0.  0.
<mgrwt>
<rscale>  0 0.12487627E+03</rscale>
<asrwt>0</asrwt>
<pdfrwt beam="2">  1        4 0.12150707E-02 0.12487627E+03</pdfrwt>
<pdfrwt beam="1">  1       -4 0.75940176E-01 0.12487627E+03</pdfrwt>
<totfact> 0.55899398E+03</totfact>
</mgrwt>
</event>
<event>
 5    1  0.3296424E-002  0.1250010E+03  0.7818608E-02  0.1235068E+00
          4   -1    0    0  501    0  0.00000000000E+00  0.00000000000E+00  0.31980031902E+03  0.31980284074E+03  0.12700000000E+01 0. -1.
         -4   -1    0    0    0  501 -0.00000000000E+00 -0.00000000000E+00 -0.12179269610E+02  0.12245305559E+02  0.12700000000E+01 0. -1.
         25    2    1    2    0    0  0.00000000000E+00  0.00000000000E+00  0.30762104941E+03  0.33204814630E+03  0.12500104568E+03 0.  0.
    9000005    1    3    3    0    0 -0.21741578143E+02  0.35743283842E+02  0.27712519864E+03  0.28026711237E+03  0.10000000000E+01 0.  0.
    9000005    1    3    3    0    0  0.21741578143E+02 -0.35743283842E+02  0.30495850776E+02  0.51781033926E+02  0.10000000000E+01 0.  0.
<mgrwt>
<rscale>  0 0.12500105E+03</rscale>
<asrwt>0</asrwt>
<pdfrwt beam="1">  1        4 0.49205306E-01 0.12500105E+03</pdfrwt>
<pdfrwt beam="2">  1       -4 0.18790081E-02 0.12500105E+03</pdfrwt>
<totfact> 0.71744054E+03</totfact>
</mgrwt>
</event>
<event>
 5    1  0.3296424E-002  0.1249816E+03  0.7818608E-02  0.1235098E+00
         -4   -1    0    0    0  501 -0.00000000000E+00  0.00000000000E+00  0.44414453581E+02  0.44432607249E+02  0.12700000000E+01 0.  1.
          4   -1    0    0  501    0  0.00000000000E+00 -0.00000000000E+00 -0.87883321875E+02  0.87892497768E+02  0.12700000000E+01 0.  1.
         25    2    1    2    0    0  0.00000000000E+00  0.00000000000E+00 -0.43468868294E+02  0.13232510502E+03  0.12498156227E+03 0.  0.
    9000005    1    3    3    0    0 -0.55450517295E+02 -0.12653911719E+02  0.56547804252E+01  0.57165180764E+02  0.10000000000E+01 0.  0.
    9000005    1    3    3    0    0  0.55450517295E+02  0.12653911719E+02 -0.49123648720E+02  0.75159924252E+02  0.10000000000E+01 0.  0.
<mgrwt>
<rscale>  0 0.12498156E+03</rscale>
<asrwt>0</asrwt>
<pdfrwt beam="2">  1        4 0.13522613E-01 0.12498156E+03</pdfrwt>
<pdfrwt beam="1">  1       -4 0.68350952E-02 0.12498156E+03</pdfrwt>
<totfact> 0.10299047E+04</totfact>
</mgrwt>
</event>
<event>
 5    1  0.3296424E-002  0.1250004E+03  0.7818608E-02  0.1235069E+00
         -4   -1    0    0    0  501 -0.00000000000E+00  0.00000000000E+00  0.76319366239E+01  0.77368828757E+01  0.12700000000E+01 0. -1.
          4   -1    0    0  501    0  0.00000000000E+00 -0.00000000000E+00 -0.50823168900E+03  0.50823327577E+03  0.12700000000E+01 0. -1.
         25    2    1    2    0    0  0.00000000000E+00  0.00000000000E+00 -0.50059975237E+03  0.51597015865E+03  0.12500037015E+03 0.  0.
    9000005    1    3    3    0    0  0.23375620532E+02 -0.34239351546E+02 -0.44331442372E+03  0.44524985245E+03  0.10000000000E+01 0.  0.
    9000005    1    3    3    0    0 -0.23375620532E+02  0.34239351546E+02 -0.57285328656E+02  0.70720306198E+02  0.10000000000E+01 0.  0.
<mgrwt>
<rscale>  0 0.12500037E+03</rscale>
<asrwt>0</asrwt>
<pdfrwt beam="2">  1        4 0.78197659E-01 0.12500037E+03</pdfrwt>
<pdfrwt beam="1">  1       -4 0.11823393E-02 0.12500037E+03</pdfrwt>
<totfact> 0.54645792E+03</totfact>
</mgrwt>
</event>
<event>
 5    1  0.3296424E-002  0.1250019E+03  0.7818608E-02  0.1235066E+00
         -4   -1    0    0    0  501 -0.00000000000E+00  0.00000000000E+00  0.15021373603E+03  0.15021910462E+03  0.12700000000E+01 0. -1.
          4   -1    0    0  501    0  0.00000000000E+00 -0.00000000000E+00 -0.25984079701E+02  0.26015097499E+02  0.12700000000E+01 0. -1.
         25    2    1    2    0    0  0.00000000000E+00  0.00000000000E+00  0.12422965633E+03  0.17623420212E+03  0.12500194592E+03 0.  0.
    9000005    1    3    3    0    0 -0.46965318747E+02 -0.16450606407E+02  0.88193020641E+01  0.50548429304E+02  0.10000000000E+01 0.  0.
    9000005    1    3    3    0    0  0.46965318747E+02  0.16450606407E+02  0.11541035427E+03  0.12568577282E+03  0.10000000000E+01 0.  0.
<mgrwt>
<rscale>  0 0.12500195E+03</rscale>
<asrwt>0</asrwt>
<pdfrwt beam="2">  1        4 0.40003497E-02 0.12500195E+03</pdfrwt>
<pdfrwt beam="1">  1       -4 0.23112605E-01 0.12500195E+03</pdfrwt>
<totfact> 0.94295168E+03</totfact>
</mgrwt>
</event>
<event>
 5    1  0.3296424E-002  0.1250104E+03  0.7818608E-02  0.1235053E+00
         -4   -1    0    0    0  501 -0.00000000000E+00  0.00000000000E+00  0.17173743067E+03  0.17174212643E+03  0.12700000000E+01 0.  1.
          4   -1    0    0  501    0  0.00000000000E+00 -0.00000000000E+00 -0.22726519920E+02  0.22761977235E+02  0.12700000000E+01 0.  1.
         25    2    1    2    0    0  0.00000000000E+00  0.00000000000E+00  0.14901091075E+03  0.19450410367E+03  0.12501037886E+03 0.  0.
    9000005    1    3    3    0    0 -0.52969168721E+02  0.10404506955E+02  0.25502836321E+02  0.59710813597E+02  0.10000000000E+01 0.  0.
    9000005    1    3    3    0    0  0.52969168721E+02 -0.10404506955E+02  0.12350807443E+03  0.13479329007E+03  0.10000000000E+01 0.  0.
<mgrwt>
<rscale>  0 0.12501038E+03</rscale>
<asrwt>0</asrwt>
<pdfrwt beam="2">  1        4 0.34994763E-02 0.12501038E+03</pdfrwt>
<pdfrwt beam="1">  1       -4 0.26424233E-01 0.12501038E+03</pdfrwt>
<totfact> 0.91048307E+03</totfact>
</mgrwt>
</event>
<event>
 5    1  0.3296424E-002  0.1249987E+03  0.7818608E-02  0.1235071E+00
          4   -1    0    0  501    0  0.00000000000E+00  0.00000000000E+00  0.38593999482E+02  0.38614889564E+02  0.12700000000E+01 0. -1.
         -4   -1    0    0    0  501 -0.00000000000E+00 -0.00000000000E+00 -0.10115962183E+03  0.10116759357E+03  0.12700000000E+01 0. -1.
         25    2    1    2    0    0  0.00000000000E+00  0.00000000000E+00 -0.62565622347E+02  0.13978248313E+03  0.12499874196E+03 0.  0.
    9000005    1    3    3    0    0 -0.54662269571E+02 -0.29197964411E+02 -0.40276835222E+02  0.73916901287E+02  0.10000000000E+01 0.  0.
    9000005    1    3    3    0    0  0.54662269571E+02  0.29197964411E+02 -0.22288787125E+02  0.65865581846E+02  0.10000000000E+01 0.  0.
<mgrwt>
<rscale>  0 0.12499874E+03</rscale>
<asrwt>0</asrwt>
<pdfrwt beam="1">  1        4 0.59397585E-02 0.12499874E+03</pdfrwt>
<pdfrwt beam="2">  1       -4 0.15565239E-01 0.12499874E+03</pdfrwt>
<totfact> 0.10138383E+04</totfact>
</mgrwt>
</event>
<event>
 5    1  0.3296424E-002  0.1250184E+03  0.7818608E-02  0.1235041E+00
          4   -1    0    0  501    0  0.00000000000E+00  0.00000000000E+00  0.13287685813E+02  0.13348239369E+02  0.12700000000E+01 0. -1.
         -4   -1    0    0    0  501 -0.00000000000E+00 -0.00000000000E+00 -0.29333135359E+03  0.29333410285E+03  0.12700000000E+01 0. -1.
         25    2    1    2    0    0  0.00000000000E+00  0.00000000000E+00 -0.28004366777E+03  0.30668234222E+03  0.12501841133E+03 0.  0.
    9000005    1    3    3    0    0 -0.43792230553E+02 -0.48673056731E+00 -0.24940919781E+03  0.25322706078E+03  0.10000000000E+01 0.  0.
    9000005    1    3    3    0    0  0.43792230553E+02  0.48673056731E+00 -0.30634469969E+02  0.53455281440E+02  0.10000000000E+01 0.  0.
<mgrwt>
<rscale>  0 0.12501841E+03</rscale>
<asrwt>0</asrwt>
<pdfrwt beam="1">  1        4 0.20491290E-02 0.12501841E+03</pdfrwt>
<pdfrwt beam="2">  1       -4 0.45132765E-01 0.12501841E+03</pdfrwt>
<totfact> 0.74737655E+03</totfact>
</mgrwt>
</event>
<event>
 5    1  0.3296424E-002  0.1249998E+03  0.7818608E-02  0.1235070E+00
         -4   -1    0    0    0  501 -0.00000000000E+00  0.00000000000E+00  0.71846018754E+02  0.71857242578E+02  0.12700000000E+01 0.  1.
          4   -1    0    0  501    0  0.00000000000E+00 -0.00000000000E+00 -0.54346711373E+02  0.54361548332E+02  0.12700000000E+01 0.  1.
         25    2    1    2    0    0  0.00000000000E+00  0.00000000000E+00  0.17499307382E+02  0.12621879091E+03  0.12499982968E+03 0.  0.
    9000005    1    3    3    0    0 -0.61600472581E+02  0.92675280592E+01  0.37278206762E+01  0.62413155228E+02  0.10000000000E+01 0.  0.
    9000005    1    3    3    0    0  0.61600472581E+02 -0.92675280592E+01  0.13771486706E+02  0.63805635681E+02  0.10000000000E+01 0.  0.
<mgrwt>
<rscale>  0 0.12499983E+03</rscale>
<asrwt>0</asrwt>
<pdfrwt beam="2">  1        4 0.83630372E-02 0.12499983E+03</pdfrwt>
<pdfrwt beam="1">  1       -4 0.11055238E-01 0.12499983E+03</pdfrwt>
<totfact> 0.10426208E+04</totfact>
</mgrwt>
</event>
<event>
 5    1  0.3296424E-002  0.1249983E+03  0.7818608E-02  0.1235072E+00
          4   -1    0    0  501    0  0.00000000000E+00  0.00000000000E+00  0.35719698053E+02  0.35742268101E+02  0.12700000000E+01 0.  1.
         -4   -1    0    0    0  501 -0.00000000000E+00 -0.00000000000E+00 -0.10929471076E+03  0.10930208919E+03  0.12700000000E+01 0.  1.
         25    2    1    2    0    0  0.00000000000E+00  0.00000000000E+00 -0.73575012708E+02  0.14504435729E+03  0.12499833233E+03 0.  0.
    9000005    1    3    3    0    0  0.61002670379E+02 -0.21097234002E+01 -0.21246813852E+02  0.64639027105E+02  0.10000000000E+01 0.  0.
    9000005    1    3    3    0    0 -0.61002670379E+02  0.21097234002E+01 -0.52328198856E+02  0.80405330182E+02  0.10000000000E+01 0.  0.
<mgrwt>
<rscale>  0 0.12499833E+03</rscale>
<asrwt>0</asrwt>
<pdfrwt beam="1">  1        4 0.54976419E-02 0.12499833E+03</pdfrwt>
<pdfrwt beam="2">  1       -4 0.16816874E-01 0.12499833E+03</pdfrwt>
<totfact> 0.10030464E+04</totfact>
</mgrwt>
</event>
<event>
 5    1  0.3296424E-002  0.1250043E+03  0.7818608E-02  0.1235063E+00
          4   -1    0    0  501    0  0.00000000000E+00  0.00000000000E+00  0.50983793444E+03  0.50983951621E+03  0.12700000000E+01 0.  1.
         -4   -1    0    0    0  501 -0.00000000000E+00 -0.00000000000E+00 -0.76080445880E+01  0.77133159181E+01  0.12700000000E+01 0.  1.
         25    2    1    2    0    0  0.00000000000E+00  0.00000000000E+00  0.50222988985E+03  0.51755283213E+03  0.12500428708E+03 0.  0.
    9000005    1    3    3    0    0 -0.49649217944E+02  0.12146834437E+01  0.94057031273E+02  0.10636844189E+03  0.10000000000E+01 0.  0.
    9000005    1    3    3    0    0  0.49649217944E+02 -0.12146834437E+01  0.40817285858E+03  0.41118439024E+03  0.10000000000E+01 0.  0.
<mgrwt>
<rscale>  0 0.12500429E+03</rscale>
<asrwt>0</asrwt>
<pdfrwt beam="1">  1        4 0.78444808E-01 0.12500429E+03</pdfrwt>
<pdfrwt beam="2">  1       -4 0.11786881E-02 0.12500429E+03</pdfrwt>
<totfact> 0.54522616E+03</totfact>
</mgrwt>
</event>
<event>
 5    1  0.3296424E-002  0.1250075E+03  0.7818608E-02  0.1235058E+00
          4   -1    0    0  501    0  0.00000000000E+00  0.00000000000E+00  0.77982497992E+03  0.77982601406E+03  0.12700000000E+01 0. -1.
         -4   -1    0    0    0  501 -0.00000000000E+00 -0.00000000000E+00 -0.49281922846E+01  0.50892022159E+01  0.12700000000E+01 0. -1.
         25    2    1    2    0    0  0.00000000000E+00  0.00000000000E+00  0.77489678764E+03  0.78491521628E+03  0.12500746080E+03 0.  0.
    9000005    1    3    3    0    0 -0.50146687573E+02 -0.24028683784E+02  0.20834442868E+03  0.21563967371E+03  0.10000000000E+01 0.  0.
    9000005    1    3    3    0    0  0.50146687573E+02  0.24028683784E+02  0.56655235896E+03  0.56927554256E+03  0.10000000000E+01 0.  0.
<mgrwt>
<rscale>  0 0.12500746E+03</rscale>
<asrwt>0</asrwt>
<pdfrwt beam="1">  1        4 0.11998551E+00 0.12500746E+03</pdfrwt>
<pdfrwt beam="2">  1       -4 0.77064854E-03 0.12500746E+03</pdfrwt>
<totfact> 0.38940747E+03</totfact>
</mgrwt>
</event>
<event>
 5    1  0.3296424E-002  0.1249981E+03  0.7818608E-02  0.1235072E+00
          4   -1    0    0  501    0  0.00000000000E+00  0.00000000000E+00  0.12523228513E+02  0.12587460124E+02  0.12700000000E+01 0. -1.
         -4   -1    0    0    0  501 -0.00000000000E+00 -0.00000000000E+00 -0.31104752290E+03  0.31105011558E+03  0.12700000000E+01 0. -1.
         25    2    1    2    0    0  0.00000000000E+00  0.00000000000E+00 -0.29852429439E+03  0.32363757571E+03  0.12499810426E+03 0.  0.
    9000005    1    3    3    0    0  0.22499453052E+02 -0.55175876629E+02 -0.10051140259E+03  0.11685095121E+03  0.10000000000E+01 0.  0.
    9000005    1    3    3    0    0 -0.22499453052E+02  0.55175876629E+02 -0.19801289180E+03  0.20678662449E+03  0.10000000000E+01 0.  0.
<mgrwt>
<rscale>  0 0.12499810E+03</rscale>
<asrwt>0</asrwt>
<pdfrwt beam="1">  1        4 0.19317911E-02 0.12499810E+03</pdfrwt>
<pdfrwt beam="2">  1       -4 0.47858599E-01 0.12499810E+03</pdfrwt>
<totfact> 0.72728621E+03</totfact>
</mgrwt>
</event>
<event>
 5    1  0.3296424E-002  0.1250005E+03  0.7818608E-02  0.1235068E+00
         -4   -1    0    0    0  501 -0.00000000000E+00  0.00000000000E+00  0.54927779518E+02  0.54942459563E+02  0.12700000000E+01 0. -1.
          4   -1    0    0  501    0  0.00000000000E+00 -0.00000000000E+00 -0.71086840444E+02  0.71098184114E+02  0.12700000000E+01 0. -1.
         25    2    1    2    0    0  0.00000000000E+00  0.00000000000E+00 -0.16159060926E+02  0.12604064368E+03  0.12500051443E+03 0.  0.
    9000005    1    3    3    0    0  0.53405170023E+02 -0.32150600309E+02 -0.36258933001E+01  0.62449342572E+02  0.10000000000E+01 0.  0.
    9000005    1    3    3    0    0 -0.53405170023E+02  0.32150600309E+02 -0.12533167626E+02  0.63591301104E+02  0.10000000000E+01 0.  0.
<mgrwt>
<rscale>  0 0.12500051E+03</rscale>
<asrwt>0</asrwt>
<pdfrwt beam="2">  1        4 0.10938439E-01 0.12500051E+03</pdfrwt>
<pdfrwt beam="1">  1       -4 0.84524294E-02 0.12500051E+03</pdfrwt>
<totfact> 0.10429945E+04</totfact>
</mgrwt>
</event>
<event>
 5    1  0.3296424E-002  0.1250034E+03  0.7818608E-02  0.1235064E+00
         -4   -1    0    0    0  501 -0.00000000000E+00  0.00000000000E+00  0.40019129518E+02  0.40039276059E+02  0.12700000000E+01 0.  1.
          4   -1    0    0  501    0  0.00000000000E+00 -0.00000000000E+00 -0.97566055796E+02  0.97574321128E+02  0.12700000000E+01 0.  1.
         25    2    1    2    0    0  0.00000000000E+00  0.00000000000E+00 -0.57546926278E+02  0.13761359719E+03  0.12500341358E+03 0.  0.
    9000005    1    3    3    0    0  0.12099507351E+02  0.26483001723E+02 -0.89648332165E+02  0.94263306320E+02  0.10000000000E+01 0.  0.
    9000005    1    3    3    0    0 -0.12099507351E+02 -0.26483001723E+02  0.32101405887E+02  0.43350290867E+02  0.10000000000E+01 0.  0.
<mgrwt>
<rscale>  0 0.12500341E+03</rscale>
<asrwt>0</asrwt>
<pdfrwt beam="2">  1        4 0.15012348E-01 0.12500341E+03</pdfrwt>
<pdfrwt beam="1">  1       -4 0.61589747E-02 0.12500341E+03</pdfrwt>
<totfact> 0.10182488E+04</totfact>
</mgrwt>
</event>
<event>
 5    1  0.3296424E-002  0.1250007E+03  0.7818608E-02  0.1235068E+00
         -4   -1    0    0    0  501 -0.00000000000E+00  0.00000000000E+00  0.10936533083E+02  0.11010025244E+02  0.12700000000E+01 0.  1.
          4   -1    0    0  501    0  0.00000000000E+00 -0.00000000000E+00 -0.35590770829E+03  0.35590997418E+03  0.12700000000E+01 0.  1.
         25    2    1    2    0    0  0.00000000000E+00  0.00000000000E+00 -0.34497117521E+03  0.36691999942E+03  0.12500069701E+03 0.  0.
    9000005    1    3    3    0    0 -0.18004433710E+02  0.92527678608E+01 -0.34603168767E+03  0.34662472823E+03  0.10000000000E+01 0.  0.
    9000005    1    3    3    0    0  0.18004433710E+02 -0.92527678608E+01  0.10605124620E+01  0.20295271198E+02  0.10000000000E+01 0.  0.
<mgrwt>
<rscale>  0 0.12500070E+03</rscale>
<asrwt>0</asrwt>
<pdfrwt beam="2">  1        4 0.54760851E-01 0.12500070E+03</pdfrwt>
<pdfrwt beam="1">  1       -4 0.16883714E-02 0.12500070E+03</pdfrwt>
<totfact> 0.67901356E+03</totfact>
</mgrwt>
</event>
<event>
 5    1  0.3296424E-002  0.1249991E+03  0.7818608E-02  0.1235071E+00
          4   -1    0    0  501    0  0.00000000000E+00  0.00000000000E+00  0.43382330479E+03  0.43382516372E+03  0.12700000000E+01 0.  1.
         -4   -1    0    0    0  501 -0.00000000000E+00 -0.00000000000E+00 -0.89574374480E+01  0.90470208154E+01  0.12700000000E+01 0.  1.
         25    2    1    2    0    0  0.00000000000E+00  0.00000000000E+00  0.42486586734E+03  0.44287218454E+03  0.12499906642E+03 0.  0.
    9000005    1    3    3    0    0  0.53056881215E+02  0.11917593528E+02  0.32152811606E+03  0.32609567783E+03  0.10000000000E+01 0.  0.
    9000005    1    3    3    0    0 -0.53056881215E+02 -0.11917593528E+02  0.10333775128E+03  0.11677650671E+03  0.10000000000E+01 0.  0.
<mgrwt>
<rscale>  0 0.12499907E+03</rscale>
<asrwt>0</asrwt>
<pdfrwt beam="1">  1        4 0.66749086E-01 0.12499907E+03</pdfrwt>
<pdfrwt beam="2">  1       -4 0.13851012E-02 0.12499907E+03</pdfrwt>
<totfact> 0.60587530E+03</totfact>
</mgrwt>
</event>
<event>
 5    1  0.3296424E-002  0.1249985E+03  0.7818608E-02  0.1235072E+00
          4   -1    0    0  501    0  0.00000000000E+00  0.00000000000E+00  0.10848940313E+03  0.10849683632E+03  0.12700000000E+01 0.  1.
         -4   -1    0    0    0  501 -0.00000000000E+00 -0.00000000000E+00 -0.35985080535E+02  0.36007484238E+02  0.12700000000E+01 0.  1.
         25    2    1    2    0    0  0.00000000000E+00  0.00000000000E+00  0.72504322596E+02  0.14450432056E+03  0.12499848745E+03 0.  0.
    9000005    1    3    3    0    0  0.23114318397E+02 -0.32266345409E+01 -0.30763491529E+02  0.38627390496E+02  0.10000000000E+01 0.  0.
    9000005    1    3    3    0    0 -0.23114318397E+02  0.32266345409E+01  0.10326781412E+03  0.10587693006E+03  0.10000000000E+01 0.  0.
<mgrwt>
<rscale>  0 0.12499849E+03</rscale>
<asrwt>0</asrwt>
<pdfrwt beam="1">  1        4 0.16692972E-01 0.12499849E+03</pdfrwt>
<pdfrwt beam="2">  1       -4 0.55384615E-02 0.12499849E+03</pdfrwt>
<totfact> 0.10041411E+04</totfact>
</mgrwt>
</event>
<event>
 5    1  0.3296424E-002  0.1249984E+03  0.7818608E-02  0.1235072E+00
         -4   -1    0    0    0  501 -0.00000000000E+00  0.00000000000E+00  0.44717248299E+02  0.44735279092E+02  0.12700000000E+01 0. -1.
          4   -1    0    0  501    0  0.00000000000E+00 -0.00000000000E+00 -0.87311895634E+02  0.87321131573E+02  0.12700000000E+01 0. -1.
         25    2    1    2    0    0  0.00000000000E+00  0.00000000000E+00 -0.42594647335E+02  0.13205641066E+03  0.12499836645E+03 0.  0.
    9000005    1    3    3    0    0  0.47177422471E+02  0.40694072389E+02 -0.16183423073E+02  0.64378722424E+02  0.10000000000E+01 0.  0.
    9000005    1    3    3    0    0 -0.47177422471E+02 -0.40694072389E+02 -0.26411224261E+02  0.67677688241E+02  0.10000000000E+01 0.  0.
<mgrwt>
<rscale>  0 0.12499837E+03</rscale>
<asrwt>0</asrwt>
<pdfrwt beam="2">  1        4 0.13434697E-01 0.12499837E+03</pdfrwt>
<pdfrwt beam="1">  1       -4 0.68816741E-02 0.12499837E+03</pdfrwt>
<totfact> 0.10300874E+04</totfact>
</mgrwt>
</event>
<event>
 5    1  0.3296424E-002  0.1250003E+03  0.7818608E-02  0.1235069E+00
          4   -1    0    0  501    0  0.00000000000E+00  0.00000000000E+00  0.10007021237E+03  0.10007827089E+03  0.12700000000E+01 0.  1.
         -4   -1    0    0    0  501 -0.00000000000E+00 -0.00000000000E+00 -0.39015328259E+02  0.39035992868E+02  0.12700000000E+01 0.  1.
         25    2    1    2    0    0  0.00000000000E+00  0.00000000000E+00  0.61054884115E+02  0.13911426376E+03  0.12500031803E+03 0.  0.
    9000005    1    3    3    0    0 -0.24345361634E+02  0.45636172185E+02  0.69557369627E+02  0.86686703214E+02  0.10000000000E+01 0.  0.
    9000005    1    3    3    0    0  0.24345361634E+02 -0.45636172185E+02 -0.85024855115E+01  0.52427560545E+02  0.10000000000E+01 0.  0.
<mgrwt>
<rscale>  0 0.12500032E+03</rscale>
<asrwt>0</asrwt>
<pdfrwt beam="1">  1        4 0.15397626E-01 0.12500032E+03</pdfrwt>
<pdfrwt beam="2">  1       -4 0.60045678E-02 0.12500032E+03</pdfrwt>
<totfact> 0.10151903E+04</totfact>
</mgrwt>
</event>
<event>
 5    1  0.3296424E-002  0.1250017E+03  0.7818608E-02  0.1235067E+00
         -4   -1    0    0    0  501 -0.00000000000E+00  0.00000000000E+00  0.32148385524E+02  0.32173460986E+02  0.12700000000E+01 0. -1.
          4   -1    0    0  501    0  0.00000000000E+00 -0.00000000000E+00 -0.12143450322E+03  0.12144114407E+03  0.12700000000E+01 0. -1.
         25    2    1    2    0    0  0.00000000000E+00  0.00000000000E+00 -0.89286117700E+02  0.15361460506E+03  0.12500174428E+03 0.  0.
    9000005    1    3    3    0    0 -0.15255377467E+02 -0.56473287511E+02 -0.71662096821E+02  0.92511701232E+02  0.10000000000E+01 0.  0.
    9000005    1    3    3    0    0  0.15255377467E+02  0.56473287511E+02 -0.17624020879E+02  0.61102903826E+02  0.10000000000E+01 0.  0.
<mgrwt>
<rscale>  0 0.12500174E+03</rscale>
<asrwt>0</asrwt>
<pdfrwt beam="2">  1        4 0.18684671E-01 0.12500174E+03</pdfrwt>
<pdfrwt beam="1">  1       -4 0.49483452E-02 0.12500174E+03</pdfrwt>
<totfact> 0.98584131E+03</totfact>
</mgrwt>
</event>
<event>
 5    1  0.3296424E-002  0.1249998E+03  0.7818608E-02  0.1235070E+00
          4   -1    0    0  501    0  0.00000000000E+00  0.00000000000E+00  0.43072949934E+03  0.43073137163E+03  0.12700000000E+01 0.  1.
         -4   -1    0    0    0  501 -0.00000000000E+00 -0.00000000000E+00 -0.90225310796E+01  0.91114744735E+01  0.12700000000E+01 0.  1.
         25    2    1    2    0    0  0.00000000000E+00  0.00000000000E+00  0.42170696826E+03  0.43984284610E+03  0.12499984874E+03 0.  0.
    9000005    1    3    3    0    0  0.62255971207E+02  0.47301081844E+01  0.20150349607E+03  0.21095695960E+03  0.10000000000E+01 0.  0.
    9000005    1    3    3    0    0 -0.62255971207E+02 -0.47301081844E+01  0.22020347220E+03  0.22888588651E+03  0.10000000000E+01 0.  0.
<mgrwt>
<rscale>  0 0.12499985E+03</rscale>
<asrwt>0</asrwt>
<pdfrwt beam="1">  1        4 0.66273080E-01 0.12499985E+03</pdfrwt>
<pdfrwt beam="2">  1       -4 0.13950672E-02 0.12499985E+03</pdfrwt>
<totfact> 0.60854011E+03</totfact>
</mgrwt>
</event>
<event>
 5    1  0.3296424E-002  0.1250021E+03  0.7818608E-02  0.1235066E+00
         -4   -1    0    0    0  501 -0.00000000000E+00  0.00000000000E+00  0.91510719004E+02  0.91519531208E+02  0.12700000000E+01 0. -1.
          4   -1    0    0  501    0  0.00000000000E+00 -0.00000000000E+00 -0.42667401685E+02  0.42686298347E+02  0.12700000000E+01 0. -1.
         25    2    1    2    0    0  0.00000000000E+00  0.00000000000E+00  0.48843317319E+02  0.13420582956E+03  0.12500214014E+03 0.  0.
    9000005    1    3    3    0    0  0.36749492408E+02  0.48637540663E+02  0.96520217862E+01  0.61727603862E+02  0.10000000000E+01 0.  0.
    9000005    1    3    3    0    0 -0.36749492408E+02 -0.48637540663E+02  0.39191295533E+02  0.72478225693E+02  0.10000000000E+01 0.  0.
<mgrwt>
<rscale>  0 0.12500214E+03</rscale>
<asrwt>0</asrwt>
<pdfrwt beam="2">  1        4 0.65663471E-02 0.12500214E+03</pdfrwt>
<pdfrwt beam="1">  1       -4 0.14080704E-01 0.12500214E+03</pdfrwt>
<totfact> 0.10254342E+04</totfact>
</mgrwt>
</event>
<event>
 5    1  0.3296424E-002  0.1249834E+03  0.7818608E-02  0.1235095E+00
         -4   -1    0    0    0  501 -0.00000000000E+00  0.00000000000E+00  0.16002929476E+02  0.16053244277E+02  0.12700000000E+01 0.  1.
          4   -1    0    0  501    0  0.00000000000E+00 -0.00000000000E+00 -0.24359614205E+03  0.24359945263E+03  0.12700000000E+01 0.  1.
         25    2    1    2    0    0  0.00000000000E+00  0.00000000000E+00 -0.22759321258E+03  0.25965269691E+03  0.12498340931E+03 0.  0.
    9000005    1    3    3    0    0 -0.37072096446E+02  0.29988622758E+02 -0.19768622868E+03  0.20335806559E+03  0.10000000000E+01 0.  0.
    9000005    1    3    3    0    0  0.37072096446E+02 -0.29988622758E+02 -0.29906983895E+02  0.56294631321E+02  0.10000000000E+01 0.  0.
<mgrwt>
<rscale>  0 0.12498341E+03</rscale>
<asrwt>0</asrwt>
<pdfrwt beam="2">  1        4 0.37480452E-01 0.12498341E+03</pdfrwt>
<pdfrwt beam="1">  1       -4 0.24661144E-02 0.12498341E+03</pdfrwt>
<totfact> 0.80984731E+03</totfact>
</mgrwt>
</event>
<event>
 5    1  0.3296424E-002  0.1249995E+03  0.7818608E-02  0.1235070E+00
          4   -1    0    0  501    0  0.00000000000E+00  0.00000000000E+00  0.59499862280E+02  0.59513414549E+02  0.12700000000E+01 0. -1.
         -4   -1    0    0    0  501 -0.00000000000E+00 -0.00000000000E+00 -0.65623764141E+02  0.65636051984E+02  0.12700000000E+01 0. -1.
         25    2    1    2    0    0  0.00000000000E+00  0.00000000000E+00 -0.61239018615E+01  0.12514946653E+03  0.12499954720E+03 0.  0.
    9000005    1    3    3    0    0  0.19002092721E+02  0.52470210478E+02  0.25096844398E+02  0.61196847256E+02  0.10000000000E+01 0.  0.
    9000005    1    3    3    0    0 -0.19002092721E+02 -0.52470210478E+02 -0.31220746259E+02  0.63952619277E+02  0.10000000000E+01 0.  0.
<mgrwt>
<rscale>  0 0.12499955E+03</rscale>
<asrwt>0</asrwt>
<pdfrwt beam="1">  1        4 0.91558126E-02 0.12499955E+03</pdfrwt>
<pdfrwt beam="2">  1       -4 0.10097951E-01 0.12499955E+03</pdfrwt>
<totfact> 0.10449724E+04</totfact>
</mgrwt>
</event>
<event>
 5    1  0.3296424E-002  0.1250005E+03  0.7818608E-02  0.1235069E+00
         -4   -1    0    0    0  501 -0.00000000000E+00  0.00000000000E+00  0.10829983731E+04  0.10829991178E+04  0.12700000000E+01 0. -1.
          4   -1    0    0  501    0  0.00000000000E+00 -0.00000000000E+00 -0.34943490665E+01  0.37179800159E+01  0.12700000000E+01 0. -1.
         25    2    1    2    0    0  0.00000000000E+00  0.00000000000E+00  0.10795040241E+04  0.10867170978E+04  0.12500045065E+03 0.  0.
    9000005    1    3    3    0    0  0.16575666506E+02  0.56854616418E+02  0.71320789343E+03  0.71566311864E+03  0.10000000000E+01 0.  0.
    9000005    1    3    3    0    0 -0.16575666506E+02 -0.56854616418E+02  0.36629613062E+03  0.37105397914E+03  0.10000000000E+01 0.  0.
<mgrwt>
<rscale>  0 0.12500045E+03</rscale>
<asrwt>0</asrwt>
<pdfrwt beam="2">  1        4 0.55485156E-03 0.12500045E+03</pdfrwt>
<pdfrwt beam="1">  1       -4 0.16663247E+00 0.12500045E+03</pdfrwt>
<totfact> 0.27875136E+03</totfact>
</mgrwt>
</event>
<event>
 5    1  0.3296424E-002  0.1250016E+03  0.7818608E-02  0.1235067E+00
          4   -1    0    0  501    0  0.00000000000E+00  0.00000000000E+00  0.98605464259E+02  0.98613642473E+02  0.12700000000E+01 0. -1.
         -4   -1    0    0    0  501 -0.00000000000E+00 -0.00000000000E+00 -0.39595924967E+02  0.39616286727E+02  0.12700000000E+01 0. -1.
         25    2    1    2    0    0  0.00000000000E+00  0.00000000000E+00  0.59009539292E+02  0.13822992920E+03  0.12500155039E+03 0.  0.
    9000005    1    3    3    0    0 -0.15122897473E+02  0.55305533427E+02  0.20156494821E+01  0.57380021771E+02  0.10000000000E+01 0.  0.
    9000005    1    3    3    0    0  0.15122897473E+02 -0.55305533427E+02  0.56993889810E+02  0.80849907429E+02  0.10000000000E+01 0.  0.
<mgrwt>
<rscale>  0 0.12500155E+03</rscale>
<asrwt>0</asrwt>
<pdfrwt beam="1">  1        4 0.15172267E-01 0.12500155E+03</pdfrwt>
<pdfrwt beam="2">  1       -4 0.60938762E-02 0.12500155E+03</pdfrwt>
<totfact> 0.10170049E+04</totfact>
</mgrwt>
</event>
<event>
 5    1  0.3296424E-002  0.1249983E+03  0.7818608E-02  0.1235072E+00
          4   -1    0    0  501    0  0.00000000000E+00  0.00000000000E+00  0.86763728652E+03  0.86763821600E+03  0.12700000000E+01 0.  1.
         -4   -1    0    0    0  501 -0.00000000000E+00 -0.00000000000E+00 -0.44115307018E+01  0.45906974560E+01  0.12700000000E+01 0.  1.
         25    2    1    2    0    0  0.00000000000E+00  0.00000000000E+00  0.86322575582E+03  0.87222891345E+03  0.12499828782E+03 0.  0.
    9000005    1    3    3    0    0  0.20887453355E+02 -0.22657560677E+02  0.52261797415E+02  0.60679042779E+02  0.10000000000E+01 0.  0.
    9000005    1    3    3    0    0 -0.20887453355E+02  0.22657560677E+02  0.81096395840E+03  0.81154987068E+03  0.10000000000E+01 0.  0.
<mgrwt>
<rscale>  0 0.12499829E+03</rscale>
<asrwt>0</asrwt>
<pdfrwt beam="1">  1        4 0.13349659E+00 0.12499829E+03</pdfrwt>
<pdfrwt beam="2">  1       -4 0.69255021E-03 0.12499829E+03</pdfrwt>
<totfact> 0.35235861E+03</totfact>
</mgrwt>
</event>
<event>
 5    1  0.3296424E-002  0.1249986E+03  0.7818608E-02  0.1235072E+00
         -4   -1    0    0    0  501 -0.00000000000E+00  0.00000000000E+00  0.88572191973E+01  0.89478059830E+01  0.12700000000E+01 0. -1.
          4   -1    0    0  501    0  0.00000000000E+00 -0.00000000000E+00 -0.43867910571E+03  0.43868094407E+03  0.12700000000E+01 0. -1.
         25    2    1    2    0    0  0.00000000000E+00  0.00000000000E+00 -0.42982188651E+03  0.44762875005E+03  0.12499857497E+03 0.  0.
    9000005    1    3    3    0    0 -0.26182667674E+02 -0.73619735438E+00 -0.41809014903E+03  0.41891102491E+03  0.10000000000E+01 0.  0.
    9000005    1    3    3    0    0  0.26182667674E+02  0.73619735438E+00 -0.11731737486E+02  0.28717725145E+02  0.10000000000E+01 0.  0.
<mgrwt>
<rscale>  0 0.12499857E+03</rscale>
<asrwt>0</asrwt>
<pdfrwt beam="2">  1        4 0.67496186E-01 0.12499857E+03</pdfrwt>
<pdfrwt beam="1">  1       -4 0.13697591E-02 0.12499857E+03</pdfrwt>
<totfact> 0.60171664E+03</totfact>
</mgrwt>
</event>
<event>
 5    1  0.3296424E-002  0.1249960E+03  0.7818608E-02  0.1235076E+00
          4   -1    0    0  501    0  0.00000000000E+00  0.00000000000E+00  0.14925571177E+04  0.14925576580E+04  0.12700000000E+01 0. -1.
         -4   -1    0    0    0  501 -0.00000000000E+00 -0.00000000000E+00 -0.24623317650E+01  0.27705554896E+01  0.12700000000E+01 0. -1.
         25    2    1    2    0    0  0.00000000000E+00  0.00000000000E+00  0.14900947859E+04  0.14953282135E+04  0.12499598005E+03 0.  0.
    9000005    1    3    3    0    0  0.40098938815E+02 -0.44160822099E+02  0.52223470829E+03  0.52563123351E+03  0.10000000000E+01 0.  0.
    9000005    1    3    3    0    0 -0.40098938815E+02  0.44160822099E+02  0.96786007765E+03  0.96969698000E+03  0.10000000000E+01 0.  0.
<mgrwt>
<rscale>  0 0.12499598E+03</rscale>
<asrwt>0</asrwt>
<pdfrwt beam="1">  1        4 0.22964837E+00 0.12499598E+03</pdfrwt>
<pdfrwt beam="2">  1       -4 0.40257058E-03 0.12499598E+03</pdfrwt>
<totfact> 0.18024009E+03</totfact>
</mgrwt>
</event>
<event>
 5    1  0.3296424E-002  0.1249996E+03  0.7818608E-02  0.1235070E+00
          4   -1    0    0  501    0  0.00000000000E+00  0.00000000000E+00  0.50577768964E+03  0.50577928411E+03  0.12700000000E+01 0.  1.
         -4   -1    0    0    0  501 -0.00000000000E+00 -0.00000000000E+00 -0.76693808369E+01  0.77738216099E+01  0.12700000000E+01 0.  1.
         25    2    1    2    0    0  0.00000000000E+00  0.00000000000E+00  0.49810830880E+03  0.51355310572E+03  0.12499962039E+03 0.  0.
    9000005    1    3    3    0    0  0.59837045727E+02 -0.15714850044E+02  0.21281649785E+03  0.22162872177E+03  0.10000000000E+01 0.  0.
    9000005    1    3    3    0    0 -0.59837045727E+02  0.15714850044E+02  0.28529181095E+03  0.29192438395E+03  0.10000000000E+01 0.  0.
<mgrwt>
<rscale>  0 0.12499962E+03</rscale>
<asrwt>0</asrwt>
<pdfrwt beam="1">  1        4 0.77820115E-01 0.12499962E+03</pdfrwt>
<pdfrwt beam="2">  1       -4 0.11880612E-02 0.12499962E+03</pdfrwt>
<totfact> 0.54828388E+03</totfact>
</mgrwt>
</event>
<event>
 5    1  0.3296424E-002  0.1249953E+03  0.7818608E-02  0.1235077E+00
          4   -1    0    0  501    0  0.00000000000E+00  0.00000000000E+00  0.11467992086E+03  0.11468695283E+03  0.12700000000E+01 0. -1.
         -4   -1    0    0    0  501 -0.00000000000E+00 -0.00000000000E+00 -0.34039740606E+02  0.34063423794E+02  0.12700000000E+01 0. -1.
         25    2    1    2    0    0  0.00000000000E+00  0.00000000000E+00  0.80640180259E+02  0.14875037662E+03  0.12499534341E+03 0.  0.
    9000005    1    3    3    0    0  0.50420131543E+02  0.31338921450E+02  0.63537950621E+02  0.86961996479E+02  0.10000000000E+01 0.  0.
    9000005    1    3    3    0    0 -0.50420131543E+02 -0.31338921450E+02  0.17102229637E+02  0.61788380145E+02  0.10000000000E+01 0.  0.
<mgrwt>
<rscale>  0 0.12499534E+03</rscale>
<asrwt>0</asrwt>
<pdfrwt beam="1">  1        4 0.17645428E-01 0.12499534E+03</pdfrwt>
<pdfrwt beam="2">  1       -4 0.52392458E-02 0.12499534E+03</pdfrwt>
<totfact> 0.99563812E+03</totfact>
</mgrwt>
</event>
<event>
 5    1  0.3296424E-002  0.1250003E+03  0.7818608E-02  0.1235069E+00
          4   -1    0    0  501    0  0.00000000000E+00  0.00000000000E+00  0.29821858223E+03  0.29822128644E+03  0.12700000000E+01 0.  1.
         -4   -1    0    0    0  501 -0.00000000000E+00 -0.00000000000E+00 -0.13065112333E+02  0.13126692663E+02  0.12700000000E+01 0.  1.
         25    2    1    2    0    0  0.00000000000E+00  0.00000000000E+00  0.28515346990E+03  0.31134797911E+03  0.12500025080E+03 0.  0.
    9000005    1    3    3    0    0  0.53442929294E+02 -0.24805398702E+02  0.90698458854E+02  0.10816036675E+03  0.10000000000E+01 0.  0.
    9000005    1    3    3    0    0 -0.53442929294E+02  0.24805398702E+02  0.19445501105E+03  0.20318761236E+03  0.10000000000E+01 0.  0.
<mgrwt>
<rscale>  0 0.12500025E+03</rscale>
<asrwt>0</asrwt>
<pdfrwt beam="1">  1        4 0.45884723E-01 0.12500025E+03</pdfrwt>
<pdfrwt beam="2">  1       -4 0.20149624E-02 0.12500025E+03</pdfrwt>
<totfact> 0.74196655E+03</totfact>
</mgrwt>
</event>
<event>
 5    1  0.3296424E-002  0.1250000E+03  0.7818608E-02  0.1235069E+00
         -4   -1    0    0    0  501 -0.00000000000E+00  0.00000000000E+00  0.80547524329E+01  0.81542588109E+01  0.12700000000E+01 0. -1.
          4   -1    0    0  501    0  0.00000000000E+00 -0.00000000000E+00 -0.48188461399E+03  0.48188628752E+03  0.12700000000E+01 0. -1.
         25    2    1    2    0    0  0.00000000000E+00  0.00000000000E+00 -0.47382986156E+03  0.49004054633E+03  0.12499999738E+03 0.  0.
    9000005    1    3    3    0    0  0.61988474334E+02  0.50636956147E+01 -0.21305632673E+03  0.22195091873E+03  0.10000000000E+01 0.  0.
    9000005    1    3    3    0    0 -0.61988474334E+02 -0.50636956147E+01 -0.26077353483E+03  0.26808962761E+03  0.10000000000E+01 0.  0.
<mgrwt>
<rscale>  0 0.12500000E+03</rscale>
<asrwt>0</asrwt>
<pdfrwt beam="2">  1        4 0.74143855E-01 0.12500000E+03</pdfrwt>
<pdfrwt beam="1">  1       -4 0.12469761E-02 0.12500000E+03</pdfrwt>
<totfact> 0.56645476E+03</totfact>
</mgrwt>
</event>
<event>
 5    1  0.3296424E-002  0.1250035E+03  0.7818608E-02  0.1235064E+00
          4   -1    0    0  501    0  0.00000000000E+00  0.00000000000E+00  0.15608558778E+02  0.15660140712E+02  0.12700000000E+01 0.  1.
         -4   -1    0    0    0  501 -0.00000000000E+00 -0.00000000000E+00 -0.24981123098E+03  0.24981445920E+03  0.12700000000E+01 0.  1.
         25    2    1    2    0    0  0.00000000000E+00  0.00000000000E+00 -0.23420267220E+03  0.26547459991E+03  0.12500348607E+03 0.  0.
    9000005    1    3    3    0    0 -0.26471367346E+01  0.61258790138E+02 -0.14274683518E+03  0.15536185393E+03  0.10000000000E+01 0.  0.
    9000005    1    3    3    0    0  0.26471367346E+01 -0.61258790138E+02 -0.91455837025E+02  0.11011274598E+03  0.10000000000E+01 0.  0.
<mgrwt>
<rscale>  0 0.12500349E+03</rscale>
<asrwt>0</asrwt>
<pdfrwt beam="1">  1        4 0.24055331E-02 0.12500349E+03</pdfrwt>
<pdfrwt beam="2">  1       -4 0.38436710E-01 0.12500349E+03</pdfrwt>
<totfact> 0.80137650E+03</totfact>
</mgrwt>
</event>
<event>
 5    1  0.3296424E-002  0.1250012E+03  0.7818608E-02  0.1235067E+00
         -4   -1    0    0    0  501 -0.00000000000E+00  0.00000000000E+00  0.16690944654E+02  0.16739191540E+02  0.12700000000E+01 0. -1.
          4   -1    0    0  501    0  0.00000000000E+00 -0.00000000000E+00 -0.23365075531E+03  0.23365420681E+03  0.12700000000E+01 0. -1.
         25    2    1    2    0    0  0.00000000000E+00  0.00000000000E+00 -0.21695981066E+03  0.25039339835E+03  0.12500117797E+03 0.  0.
    9000005    1    3    3    0    0 -0.62306283318E+01 -0.19361714077E+02  0.98849265289E+01  0.22636441282E+02  0.10000000000E+01 0.  0.
    9000005    1    3    3    0    0  0.62306283318E+01  0.19361714077E+02 -0.22684473719E+03  0.22775695706E+03  0.10000000000E+01 0.  0.
<mgrwt>
<rscale>  0 0.12500118E+03</rscale>
<asrwt>0</asrwt>
<pdfrwt beam="2">  1        4 0.35950245E-01 0.12500118E+03</pdfrwt>
<pdfrwt beam="1">  1       -4 0.25718146E-02 0.12500118E+03</pdfrwt>
<totfact> 0.82271245E+03</totfact>
</mgrwt>
</event>
<event>
 5    1  0.3296424E-002  0.1250000E+03  0.7818608E-02  0.1235069E+00
          4   -1    0    0  501    0  0.00000000000E+00  0.00000000000E+00  0.75487584392E+01  0.76548451306E+01  0.12700000000E+01 0.  1.
         -4   -1    0    0    0  501 -0.00000000000E+00 -0.00000000000E+00 -0.51375127797E+03  0.51375284769E+03  0.12700000000E+01 0.  1.
         25    2    1    2    0    0  0.00000000000E+00  0.00000000000E+00 -0.50620251953E+03  0.52140769282E+03  0.12499996544E+03 0.  0.
    9000005    1    3    3    0    0  0.32784196522E+01  0.52256778978E+02 -0.11080501371E+03  0.12255721133E+03  0.10000000000E+01 0.  0.
    9000005    1    3    3    0    0 -0.32784196522E+01 -0.52256778978E+02 -0.39539750581E+03  0.39885048149E+03  0.10000000000E+01 0.  0.
<mgrwt>
<rscale>  0 0.12499997E+03</rscale>
<asrwt>0</asrwt>
<pdfrwt beam="1">  1        4 0.11696291E-02 0.12499997E+03</pdfrwt>
<pdfrwt beam="2">  1       -4 0.79046913E-01 0.12499997E+03</pdfrwt>
<totfact> 0.54240878E+03</totfact>
</mgrwt>
</event>
<event>
 5    1  0.3296424E-002  0.1250002E+03  0.7818608E-02  0.1235069E+00
          4   -1    0    0  501    0  0.00000000000E+00  0.00000000000E+00  0.19819403007E+02  0.19860051248E+02  0.12700000000E+01 0.  1.
         -4   -1    0    0    0  501 -0.00000000000E+00 -0.00000000000E+00 -0.19684833218E+03  0.19685242895E+03  0.12700000000E+01 0.  1.
         25    2    1    2    0    0  0.00000000000E+00  0.00000000000E+00 -0.17702892917E+03  0.21671248019E+03  0.12500022923E+03 0.  0.
    9000005    1    3    3    0    0 -0.28906159220E+02  0.54648619149E+02 -0.72698179667E+02  0.95436172087E+02  0.10000000000E+01 0.  0.
    9000005    1    3    3    0    0  0.28906159220E+02 -0.54648619149E+02 -0.10433074951E+03  0.12127630811E+03  0.10000000000E+01 0.  0.
<mgrwt>
<rscale>  0 0.12500023E+03</rscale>
<asrwt>0</asrwt>
<pdfrwt beam="1">  1        4 0.30525810E-02 0.12500023E+03</pdfrwt>
<pdfrwt beam="2">  1       -4 0.30287799E-01 0.12500023E+03</pdfrwt>
<totfact> 0.87390798E+03</totfact>
</mgrwt>
</event>
<event>
 5    1  0.3296424E-002  0.1250014E+03  0.7818608E-02  0.1235067E+00
          4   -1    0    0  501    0  0.00000000000E+00  0.00000000000E+00  0.10782381140E+03  0.10783129048E+03  0.12700000000E+01 0.  1.
         -4   -1    0    0    0  501 -0.00000000000E+00 -0.00000000000E+00 -0.36209005577E+02  0.36231270815E+02  0.12700000000E+01 0.  1.
         25    2    1    2    0    0  0.00000000000E+00  0.00000000000E+00  0.71614805828E+02  0.14406256129E+03  0.12500136460E+03 0.  0.
    9000005    1    3    3    0    0 -0.52724002885E+01  0.42521326270E+02 -0.16620966884E+02  0.45968662507E+02  0.10000000000E+01 0.  0.
    9000005    1    3    3    0    0  0.52724002885E+01 -0.42521326270E+02  0.88235772712E+02  0.98093898784E+02  0.10000000000E+01 0.  0.
<mgrwt>
<rscale>  0 0.12500136E+03</rscale>
<asrwt>0</asrwt>
<pdfrwt beam="1">  1        4 0.16590566E-01 0.12500136E+03</pdfrwt>
<pdfrwt beam="2">  1       -4 0.55729044E-02 0.12500136E+03</pdfrwt>
<totfact> 0.10049761E+04</totfact>
</mgrwt>
</event>
<event>
 5    1  0.3296424E-002  0.1249977E+03  0.7818608E-02  0.1235073E+00
         -4   -1    0    0    0  501 -0.00000000000E+00  0.00000000000E+00  0.11646171416E+03  0.11646863854E+03  0.12700000000E+01 0.  1.
          4   -1    0    0  501    0  0.00000000000E+00 -0.00000000000E+00 -0.33519883386E+02  0.33543933613E+02  0.12700000000E+01 0.  1.
         25    2    1    2    0    0  0.00000000000E+00  0.00000000000E+00  0.82941830770E+02  0.15001257216E+03  0.12499769803E+03 0.  0.
    9000005    1    3    3    0    0 -0.44551301905E+02 -0.34665861117E+02  0.73641494874E+02  0.92793373662E+02  0.10000000000E+01 0.  0.
    9000005    1    3    3    0    0  0.44551301905E+02  0.34665861117E+02  0.93003358961E+01  0.57219198493E+02  0.10000000000E+01 0.  0.
<mgrwt>
<rscale>  0 0.12499770E+03</rscale>
<asrwt>0</asrwt>
<pdfrwt beam="2">  1        4 0.51592878E-02 0.12499770E+03</pdfrwt>
<pdfrwt beam="1">  1       -4 0.17919570E-01 0.12499770E+03</pdfrwt>
<totfact> 0.99306336E+03</totfact>
</mgrwt>
</event>
<event>
 5    1  0.3296424E-002  0.1249986E+03  0.7818608E-02  0.1235071E+00
         -4   -1    0    0    0  501 -0.00000000000E+00  0.00000000000E+00  0.18158943339E+03  0.18159387440E+03  0.12700000000E+01 0. -1.
          4   -1    0    0  501    0  0.00000000000E+00 -0.00000000000E+00 -0.21487505487E+02  0.21525003881E+02  0.12700000000E+01 0. -1.
         25    2    1    2    0    0  0.00000000000E+00  0.00000000000E+00  0.16010192790E+03  0.20311887828E+03  0.12499860557E+03 0.  0.
    9000005    1    3    3    0    0 -0.55988312539E+02 -0.26568941885E+02  0.66994153787E+02  0.91267828152E+02  0.10000000000E+01 0.  0.
    9000005    1    3    3    0    0  0.55988312539E+02  0.26568941885E+02  0.93107774113E+02  0.11185105013E+03  0.10000000000E+01 0.  0.
<mgrwt>
<rscale>  0 0.12499861E+03</rscale>
<asrwt>0</asrwt>
<pdfrwt beam="2">  1        4 0.33089961E-02 0.12499861E+03</pdfrwt>
<pdfrwt beam="1">  1       -4 0.27940063E-01 0.12499861E+03</pdfrwt>
<totfact> 0.89614930E+03</totfact>
</mgrwt>
</event>
<event>
 5    1  0.3296424E-002  0.1249926E+03  0.7818608E-02  0.1235081E+00
          4   -1    0    0  501    0  0.00000000000E+00  0.00000000000E+00  0.53165297981E+02  0.53180464547E+02  0.12700000000E+01 0. -1.
         -4   -1    0    0    0  501 -0.00000000000E+00 -0.00000000000E+00 -0.73433791223E+02  0.73444772403E+02  0.12700000000E+01 0. -1.
         25    2    1    2    0    0  0.00000000000E+00  0.00000000000E+00 -0.20268493242E+02  0.12662523695E+03  0.12499255504E+03 0.  0.
    9000005    1    3    3    0    0 -0.12154473058E+02  0.55169617547E+02  0.16923558737E+02  0.58981562848E+02  0.10000000000E+01 0.  0.
    9000005    1    3    3    0    0  0.12154473058E+02 -0.55169617547E+02 -0.37192051979E+02  0.67643674102E+02  0.10000000000E+01 0.  0.
<mgrwt>
<rscale>  0 0.12499256E+03</rscale>
<asrwt>0</asrwt>
<pdfrwt beam="1">  1        4 0.81812880E-02 0.12499256E+03</pdfrwt>
<pdfrwt beam="2">  1       -4 0.11299518E-01 0.12499256E+03</pdfrwt>
<totfact> 0.10419049E+04</totfact>
</mgrwt>
</event>
<event>
 5    1  0.3296424E-002  0.1249992E+03  0.7818608E-02  0.1235071E+00
         -4   -1    0    0    0  501 -0.00000000000E+00  0.00000000000E+00  0.25269798886E+02  0.25301692349E+02  0.12700000000E+01 0.  1.
          4   -1    0    0  501    0  0.00000000000E+00 -0.00000000000E+00 -0.15444782405E+03  0.15445304547E+03  0.12700000000E+01 0.  1.
         25    2    1    2    0    0  0.00000000000E+00  0.00000000000E+00 -0.12917802516E+03  0.17975473781E+03  0.12499921432E+03 0.  0.
    9000005    1    3    3    0    0  0.61136879867E+02 -0.22923436792E+01 -0.46272788943E+02  0.76714691657E+02  0.10000000000E+01 0.  0.
    9000005    1    3    3    0    0 -0.61136879867E+02  0.22923436792E+01 -0.82905236220E+02  0.10304004616E+03  0.10000000000E+01 0.  0.
<mgrwt>
<rscale>  0 0.12499921E+03</rscale>
<asrwt>0</asrwt>
<pdfrwt beam="2">  1        4 0.23764058E-01 0.12499921E+03</pdfrwt>
<pdfrwt beam="1">  1       -4 0.38905165E-02 0.12499921E+03</pdfrwt>
<totfact> 0.93662820E+03</totfact>
</mgrwt>
</event>
<event>
 5    1  0.3296424E-002  0.1249992E+03  0.7818608E-02  0.1235070E+00
         -4   -1    0    0    0  501 -0.00000000000E+00  0.00000000000E+00  0.17425879639E+03  0.17426342421E+03  0.12700000000E+01 0. -1.
          4   -1    0    0  501    0  0.00000000000E+00 -0.00000000000E+00 -0.22393181815E+02  0.22429166097E+02  0.12700000000E+01 0. -1.
         25    2    1    2    0    0  0.00000000000E+00  0.00000000000E+00  0.15186561457E+03  0.19669259031E+03  0.12499924077E+03 0.  0.
    9000005    1    3    3    0    0  0.47993286476E+02  0.29829498347E+01  0.13873597679E+03  0.14683638784E+03  0.10000000000E+01 0.  0.
    9000005    1    3    3    0    0 -0.47993286476E+02 -0.29829498347E+01  0.13129637777E+02  0.49856202469E+02  0.10000000000E+01 0.  0.
<mgrwt>
<rscale>  0 0.12499924E+03</rscale>
<asrwt>0</asrwt>
<pdfrwt beam="2">  1        4 0.34482289E-02 0.12499924E+03</pdfrwt>
<pdfrwt beam="1">  1       -4 0.26812170E-01 0.12499924E+03</pdfrwt>
<totfact> 0.90697230E+03</totfact>
</mgrwt>
</event>
<event>
 5    1  0.3296424E-002  0.1250056E+03  0.7818608E-02  0.1235061E+00
         -4   -1    0    0    0  501 -0.00000000000E+00  0.00000000000E+00  0.99183648413E+01  0.99993430347E+01  0.12700000000E+01 0.  1.
          4   -1    0    0  501    0  0.00000000000E+00 -0.00000000000E+00 -0.39219173256E+03  0.39219378882E+03  0.12700000000E+01 0.  1.
         25    2    1    2    0    0  0.00000000000E+00  0.00000000000E+00 -0.38227336771E+03  0.40219313185E+03  0.12500555045E+03 0.  0.
    9000005    1    3    3    0    0 -0.11377052230E+02  0.20225039251E+02 -0.37783217803E+03  0.37854543226E+03  0.10000000000E+01 0.  0.
    9000005    1    3    3    0    0  0.11377052230E+02 -0.20225039251E+02 -0.44411896875E+01  0.23647699593E+02  0.10000000000E+01 0.  0.
<mgrwt>
<rscale>  0 0.12500555E+03</rscale>
<asrwt>0</asrwt>
<pdfrwt beam="2">  1        4 0.60343565E-01 0.12500555E+03</pdfrwt>
<pdfrwt beam="1">  1       -4 0.15322899E-02 0.12500555E+03</pdfrwt>
<totfact> 0.64332168E+03</totfact>
</mgrwt>
</event>
<event>
 5    1  0.3296424E-002  0.1250182E+03  0.7818608E-02  0.1235041E+00
         -4   -1    0    0    0  501 -0.00000000000E+00  0.00000000000E+00  0.38847912802E+03  0.38848120393E+03  0.12700000000E+01 0.  1.
          4   -1    0    0  501    0  0.00000000000E+00 -0.00000000000E+00 -0.10015967437E+02  0.10096162820E+02  0.12700000000E+01 0.  1.
         25    2    1    2    0    0  0.00000000000E+00  0.00000000000E+00  0.37846316059E+03  0.39857736675E+03  0.12501821214E+03 0.  0.
    9000005    1    3    3    0    0 -0.13758243839E+02  0.53898613027E+02  0.98381004974E+02  0.11302288219E+03  0.10000000000E+01 0.  0.
    9000005    1    3    3    0    0  0.13758243839E+02 -0.53898613027E+02  0.28008215561E+03  0.28555448456E+03  0.10000000000E+01 0.  0.
<mgrwt>
<rscale>  0 0.12501821E+03</rscale>
<asrwt>0</asrwt>
<pdfrwt beam="2">  1        4 0.15472469E-02 0.12501821E+03</pdfrwt>
<pdfrwt beam="1">  1       -4 0.59772337E-01 0.12501821E+03</pdfrwt>
<totfact> 0.64665388E+03</totfact>
</mgrwt>
</event>
<event>
 5    1  0.3296424E-002  0.1249977E+03  0.7818608E-02  0.1235073E+00
          4   -1    0    0  501    0  0.00000000000E+00  0.00000000000E+00  0.32258471834E+02  0.32283461789E+02  0.12700000000E+01 0. -1.
         -4   -1    0    0    0  501 -0.00000000000E+00 -0.00000000000E+00 -0.12101257823E+03  0.12101924223E+03  0.12700000000E+01 0. -1.
         25    2    1    2    0    0  0.00000000000E+00  0.00000000000E+00 -0.88754106395E+02  0.15330270402E+03  0.12499771061E+03 0.  0.
    9000005    1    3    3    0    0  0.59997556214E+02  0.17340115644E+02 -0.41712378763E+02  0.75108647333E+02  0.10000000000E+01 0.  0.
    9000005    1    3    3    0    0 -0.59997556214E+02 -0.17340115644E+02 -0.47041727632E+02  0.78194056685E+02  0.10000000000E+01 0.  0.
<mgrwt>
<rscale>  0 0.12499771E+03</rscale>
<asrwt>0</asrwt>
<pdfrwt beam="1">  1        4 0.49652768E-02 0.12499771E+03</pdfrwt>
<pdfrwt beam="2">  1       -4 0.18619754E-01 0.12499771E+03</pdfrwt>
<totfact> 0.98654462E+03</totfact>
</mgrwt>
</event>
<event>
 5    1  0.3296424E-002  0.1250389E+03  0.7818608E-02  0.1235009E+00
          4   -1    0    0  501    0  0.00000000000E+00  0.00000000000E+00  0.63756090544E+03  0.63756217034E+03  0.12700000000E+01 0.  1.
         -4   -1    0    0    0  501 -0.00000000000E+00 -0.00000000000E+00 -0.60636204116E+01  0.61951910782E+01  0.12700000000E+01 0.  1.
         25    2    1    2    0    0  0.00000000000E+00  0.00000000000E+00  0.63149728503E+03  0.64375736142E+03  0.12503887147E+03 0.  0.
    9000005    1    3    3    0    0 -0.38788598507E+02 -0.47216696788E+02  0.24789282429E+03  0.25531514676E+03  0.10000000000E+01 0.  0.
    9000005    1    3    3    0    0  0.38788598507E+02  0.47216696788E+02  0.38360446074E+03  0.38844221466E+03  0.10000000000E+01 0.  0.
<mgrwt>
<rscale>  0 0.12503887E+03</rscale>
<asrwt>0</asrwt>
<pdfrwt beam="1">  1        4 0.98096479E-01 0.12503887E+03</pdfrwt>
<pdfrwt beam="2">  1       -4 0.94308311E-03 0.12503887E+03</pdfrwt>
<totfact> 0.46177679E+03</totfact>
</mgrwt>
</event>
<event>
 5    1  0.3296424E-002  0.1249972E+03  0.7818608E-02  0.1235074E+00
         -4   -1    0    0    0  501 -0.00000000000E+00  0.00000000000E+00  0.38635802423E+03  0.38636011154E+03  0.12700000000E+01 0.  1.
          4   -1    0    0  501    0  0.00000000000E+00 -0.00000000000E+00 -0.10067974004E+02  0.10147758400E+02  0.12700000000E+01 0.  1.
         25    2    1    2    0    0  0.00000000000E+00  0.00000000000E+00  0.37629005023E+03  0.39650786994E+03  0.12499715606E+03 0.  0.
    9000005    1    3    3    0    0  0.42807662718E+02  0.58418772671E+01  0.33136433506E+03  0.33417053441E+03  0.10000000000E+01 0.  0.
    9000005    1    3    3    0    0 -0.42807662718E+02 -0.58418772671E+01  0.44925715163E+02  0.62337335524E+02  0.10000000000E+01 0.  0.
<mgrwt>
<rscale>  0 0.12499716E+03</rscale>
<asrwt>0</asrwt>
<pdfrwt beam="2">  1        4 0.15552170E-02 0.12499716E+03</pdfrwt>
<pdfrwt beam="1">  1       -4 0.59445992E-01 0.12499716E+03</pdfrwt>
<totfact> 0.64897927E+03</totfact>
</mgrwt>
</event>
<event>
 5    1  0.3296424E-002  0.1250225E+03  0.7818608E-02  0.1235034E+00
          4   -1    0    0  501    0  0.00000000000E+00  0.00000000000E+00  0.10859076312E+04  0.10859083738E+04  0.12700000000E+01 0.  1.
         -4   -1    0    0    0  501 -0.00000000000E+00 -0.00000000000E+00 -0.34856949325E+01  0.37098475929E+01  0.12700000000E+01 0.  1.
         25    2    1    2    0    0  0.00000000000E+00  0.00000000000E+00  0.10824219362E+04  0.10896182214E+04  0.12502247953E+03 0.  0.
    9000005    1    3    3    0    0 -0.32817034747E+02 -0.21995924744E+01  0.77993800976E+02  0.84651219527E+02  0.10000000000E+01 0.  0.
    9000005    1    3    3    0    0  0.32817034747E+02  0.21995924744E+01  0.10044281352E+04  0.10049670019E+04  0.10000000000E+01 0.  0.
<mgrwt>
<rscale>  0 0.12502248E+03</rscale>
<asrwt>0</asrwt>
<pdfrwt beam="1">  1        4 0.16708015E+00 0.12502248E+03</pdfrwt>
<pdfrwt beam="2">  1       -4 0.55355994E-03 0.12502248E+03</pdfrwt>
<totfact> 0.27775586E+03</totfact>
</mgrwt>
</event>
<event>
 5    1  0.3296424E-002  0.1249994E+03  0.7818608E-02  0.1235070E+00
          4   -1    0    0  501    0  0.00000000000E+00  0.00000000000E+00  0.63224368886E+01  0.64487291934E+01  0.12700000000E+01 0.  1.
         -4   -1    0    0    0  501 -0.00000000000E+00 -0.00000000000E+00 -0.61159645551E+03  0.61159777411E+03  0.12700000000E+01 0.  1.
         25    2    1    2    0    0  0.00000000000E+00  0.00000000000E+00 -0.60527401863E+03  0.61804650330E+03  0.12499937049E+03 0.  0.
    9000005    1    3    3    0    0  0.37968197895E+02  0.32282577569E+02 -0.11622198029E+03  0.12646065621E+03  0.10000000000E+01 0.  0.
    9000005    1    3    3    0    0 -0.37968197895E+02 -0.32282577569E+02 -0.48905203833E+03  0.49158584710E+03  0.10000000000E+01 0.  0.
<mgrwt>
<rscale>  0 0.12499937E+03</rscale>
<asrwt>0</asrwt>
<pdfrwt beam="1">  1        4 0.98249930E-03 0.12499937E+03</pdfrwt>
<pdfrwt beam="2">  1       -4 0.94101533E-01 0.12499937E+03</pdfrwt>
<totfact> 0.47748600E+03</totfact>
</mgrwt>
</event>
<event>
 4    1  0.3296424E-002  0.1248311E+03  0.7818608E-02  0.1235333E+00
         -4   -1    0    0    0  501 -0.00000000000E+00  0.00000000000E+00  0.17451398325E+03  0.17451860431E+03  0.12700000000E+01 0. -1.
          4   -1    0    0  501    0  0.00000000000E+00 -0.00000000000E+00 -0.22300159140E+02  0.22336293284E+02  0.12700000000E+01 0. -1.
    9000005    1    1    2    0    0 -0.25413385111E+02 -0.46133087296E+02  0.23317295903E+02  0.57609011226E+02  0.10000000000E+01 0.  0.
    9000005    1    1    2    0    0  0.25413385111E+02  0.46133087296E+02  0.12889652821E+03  0.13924588637E+03  0.10000000000E+01 0.  0.
<mgrwt>
<rscale>  0 0.12483110E+03</rscale>
<asrwt>0</asrwt>
<pdfrwt beam="2">  1        4 0.34339289E-02 0.12483110E+03</pdfrwt>
<pdfrwt beam="1">  1       -4 0.26851439E-01 0.12483110E+03</pdfrwt>
<totfact> 0.91011740E+03</totfact>
</mgrwt>
</event>
<event>
 5    1  0.3296424E-002  0.1250064E+03  0.7818608E-02  0.1235059E+00
         -4   -1    0    0    0  501 -0.00000000000E+00  0.00000000000E+00  0.15895343857E+03  0.15895851198E+03  0.12700000000E+01 0. -1.
          4   -1    0    0  501    0  0.00000000000E+00 -0.00000000000E+00 -0.24555451241E+02  0.24588271302E+02  0.12700000000E+01 0. -1.
         25    2    1    2    0    0  0.00000000000E+00  0.00000000000E+00  0.13439798733E+03  0.18354678329E+03  0.12500641047E+03 0.  0.
    9000005    1    3    3    0    0  0.61538891908E+02  0.94726468042E+01  0.59307735695E+02  0.85995196191E+02  0.10000000000E+01 0.  0.
    9000005    1    3    3    0    0 -0.61538891908E+02 -0.94726468042E+01  0.75090251631E+02  0.97551587095E+02  0.10000000000E+01 0.  0.
<mgrwt>
<rscale>  0 0.12500641E+03</rscale>
<asrwt>0</asrwt>
<pdfrwt beam="2">  1        4 0.37806766E-02 0.12500641E+03</pdfrwt>
<pdfrwt beam="1">  1       -4 0.24457290E-01 0.12500641E+03</pdfrwt>
<totfact> 0.92969080E+03</totfact>
</mgrwt>
</event>
<event>
 5    1  0.3296424E-002  0.1250087E+03  0.7818608E-02  0.1235056E+00
         -4   -1    0    0    0  501 -0.00000000000E+00  0.00000000000E+00  0.34104633503E+02  0.34128271658E+02  0.12700000000E+01 0.  1.
          4   -1    0    0  501    0  0.00000000000E+00 -0.00000000000E+00 -0.11448638442E+03  0.11449342827E+03  0.12700000000E+01 0.  1.
         25    2    1    2    0    0  0.00000000000E+00  0.00000000000E+00 -0.80381750914E+02  0.14862169993E+03  0.12500873493E+03 0.  0.
    9000005    1    3    3    0    0 -0.22176959931E+02  0.11112870862E+02 -0.10838887836E+03  0.11119560424E+03  0.10000000000E+01 0.  0.
    9000005    1    3    3    0    0  0.22176959931E+02 -0.11112870862E+02  0.28007127446E+02  0.37426095686E+02  0.10000000000E+01 0.  0.
<mgrwt>
<rscale>  0 0.12500873E+03</rscale>
<asrwt>0</asrwt>
<pdfrwt beam="2">  1        4 0.17615650E-01 0.12500873E+03</pdfrwt>
<pdfrwt beam="1">  1       -4 0.52492269E-02 0.12500873E+03</pdfrwt>
<totfact> 0.99559578E+03</totfact>
</mgrwt>
</event>
<event>
 5    1  0.3296424E-002  0.1250007E+03  0.7818608E-02  0.1235068E+00
         -4   -1    0    0    0  501 -0.00000000000E+00  0.00000000000E+00  0.25636143161E+02  0.25667581424E+02  0.12700000000E+01 0. -1.
          4   -1    0    0  501    0  0.00000000000E+00 -0.00000000000E+00 -0.15224698901E+03  0.15225228591E+03  0.12700000000E+01 0. -1.
         25    2    1    2    0    0  0.00000000000E+00  0.00000000000E+00 -0.12661084585E+03  0.17791986733E+03  0.12500069161E+03 0.  0.
    9000005    1    3    3    0    0  0.59058422523E+02 -0.16860590053E+02 -0.46883352635E+02  0.77273705244E+02  0.10000000000E+01 0.  0.
    9000005    1    3    3    0    0 -0.59058422523E+02  0.16860590053E+02 -0.79727493219E+02  0.10064616209E+03  0.10000000000E+01 0.  0.
<mgrwt>
<rscale>  0 0.12500069E+03</rscale>
<asrwt>0</asrwt>
<pdfrwt beam="2">  1        4 0.23425439E-01 0.12500069E+03</pdfrwt>
<pdfrwt beam="1">  1       -4 0.39468479E-02 0.12500069E+03</pdfrwt>
<totfact> 0.93991322E+03</totfact>
</mgrwt>
</event>
<event>
 5    1  0.3296424E-002  0.1250007E+03  0.7818608E-02  0.1235068E+00
         -4   -1    0    0    0  501 -0.00000000000E+00  0.00000000000E+00  0.22671362148E+02  0.22706905594E+02  0.12700000000E+01 0. -1.
          4   -1    0    0  501    0  0.00000000000E+00 -0.00000000000E+00 -0.17212801528E+03  0.17213270039E+03  0.12700000000E+01 0. -1.
         25    2    1    2    0    0  0.00000000000E+00  0.00000000000E+00 -0.14945665313E+03  0.19483960599E+03  0.12500072358E+03 0.  0.
    9000005    1    3    3    0    0 -0.31011820495E+02 -0.34445185330E+02 -0.93909195831E+01  0.47301090616E+02  0.10000000000E+01 0.  0.
    9000005    1    3    3    0    0  0.31011820495E+02  0.34445185330E+02 -0.14006573355E+03  0.14753851537E+03  0.10000000000E+01 0.  0.
<mgrwt>
<rscale>  0 0.12500072E+03</rscale>
<asrwt>0</asrwt>
<pdfrwt beam="2">  1        4 0.26484327E-01 0.12500072E+03</pdfrwt>
<pdfrwt beam="1">  1       -4 0.34909965E-02 0.12500072E+03</pdfrwt>
<totfact> 0.91010517E+03</totfact>
</mgrwt>
</event>
<event>
 5    1  0.3296424E-002  0.1249848E+03  0.7818608E-02  0.1235093E+00
         -4   -1    0    0    0  501 -0.00000000000E+00  0.00000000000E+00  0.11508324518E+03  0.11509025251E+03  0.12700000000E+01 0. -1.
          4   -1    0    0  501    0  0.00000000000E+00 -0.00000000000E+00 -0.33914635648E+02  0.33938406137E+02  0.12700000000E+01 0. -1.
         25    2    1    2    0    0  0.00000000000E+00  0.00000000000E+00  0.81168609536E+02  0.14902865864E+03  0.12498479077E+03 0.  0.
    9000005    1    3    3    0    0 -0.43228860053E+02 -0.41656412118E+02  0.19921160171E+02  0.63260126736E+02  0.10000000000E+01 0.  0.
    9000005    1    3    3    0    0  0.43228860053E+02  0.41656412118E+02  0.61247449364E+02  0.85768531908E+02  0.10000000000E+01 0.  0.
<mgrwt>
<rscale>  0 0.12498479E+03</rscale>
<asrwt>0</asrwt>
<pdfrwt beam="2">  1        4 0.52200038E-02 0.12498479E+03</pdfrwt>
<pdfrwt beam="1">  1       -4 0.17707482E-01 0.12498479E+03</pdfrwt>
<totfact> 0.99531742E+03</totfact>
</mgrwt>
</event>
<event>
 5    1  0.3296424E-002  0.1250107E+03  0.7818608E-02  0.1235053E+00
          4   -1    0    0  501    0  0.00000000000E+00  0.00000000000E+00  0.44215464524E+01  0.46003231442E+01  0.12700000000E+01 0.  1.
         -4   -1    0    0    0  501 -0.00000000000E+00 -0.00000000000E+00 -0.86592044204E+03  0.86592137336E+03  0.12700000000E+01 0.  1.
         25    2    1    2    0    0  0.00000000000E+00  0.00000000000E+00 -0.86149889559E+03  0.87052169651E+03  0.12501070749E+03 0.  0.
    9000005    1    3    3    0    0 -0.17989760912E+02  0.51761755269E+02 -0.22149326846E+03  0.22817357160E+03  0.10000000000E+01 0.  0.
    9000005    1    3    3    0    0  0.17989760912E+02 -0.51761755269E+02 -0.64000562713E+03  0.64234812490E+03  0.10000000000E+01 0.  0.
<mgrwt>
<rscale>  0 0.12501071E+03</rscale>
<asrwt>0</asrwt>
<pdfrwt beam="1">  1        4 0.69406230E-03 0.12501071E+03</pdfrwt>
<pdfrwt beam="2">  1       -4 0.13323222E+00 0.12501071E+03</pdfrwt>
<totfact> 0.35293742E+03</totfact>
</mgrwt>
</event>
<event>
 5    1  0.3296424E-002  0.1250004E+03  0.7818608E-02  0.1235069E+00
          4   -1    0    0  501    0  0.00000000000E+00  0.00000000000E+00  0.48829872816E+01  0.50454399999E+01  0.12700000000E+01 0. -1.
         -4   -1    0    0    0  501 -0.00000000000E+00 -0.00000000000E+00 -0.78672336878E+03  0.78672439385E+03  0.12700000000E+01 0. -1.
         25    2    1    2    0    0  0.00000000000E+00  0.00000000000E+00 -0.78184038150E+03  0.79176983385E+03  0.12500035064E+03 0.  0.
    9000005    1    3    3    0    0  0.14995232206E+02  0.60518290382E+02 -0.41775741213E+03  0.42238557723E+03  0.10000000000E+01 0.  0.
    9000005    1    3    3    0    0 -0.14995232206E+02 -0.60518290382E+02 -0.36408296937E+03  0.36938425663E+03  0.10000000000E+01 0.  0.
<mgrwt>
<rscale>  0 0.12500035E+03</rscale>
<asrwt>0</asrwt>
<pdfrwt beam="1">  1        4 0.76380465E-03 0.12500035E+03</pdfrwt>
<pdfrwt beam="2">  1       -4 0.12104684E+00 0.12500035E+03</pdfrwt>
<totfact> 0.38634526E+03</totfact>
</mgrwt>
</event>
<event>
 5    1  0.3296424E-002  0.1250240E+03  0.7818608E-02  0.1235032E+00
         -4   -1    0    0    0  501 -0.00000000000E+00  0.00000000000E+00  0.14287680576E+02  0.14344013255E+02  0.12700000000E+01 0.  1.
          4   -1    0    0  501    0  0.00000000000E+00 -0.00000000000E+00 -0.27290891497E+03  0.27291186996E+03  0.12700000000E+01 0.  1.
         25    2    1    2    0    0  0.00000000000E+00  0.00000000000E+00 -0.25862123439E+03  0.28725588322E+03  0.12502399596E+03 0.  0.
    9000005    1    3    3    0    0  0.80448530761E+01  0.24407299900E+01  0.12994000214E+02  0.15508735134E+02  0.10000000000E+01 0.  0.
    9000005    1    3    3    0    0 -0.80448530761E+01 -0.24407299900E+01 -0.27161523460E+03  0.27174714808E+03  0.10000000000E+01 0.  0.
<mgrwt>
<rscale>  0 0.12502400E+03</rscale>
<asrwt>0</asrwt>
<pdfrwt beam="2">  1        4 0.41990544E-01 0.12502400E+03</pdfrwt>
<pdfrwt beam="1">  1       -4 0.22026655E-02 0.12502400E+03</pdfrwt>
<totfact> 0.77184605E+03</totfact>
</mgrwt>
</event>
<event>
 5    1  0.3296424E-002  0.1249984E+03  0.7818608E-02  0.1235072E+00
         -4   -1    0    0    0  501 -0.00000000000E+00  0.00000000000E+00  0.51235137995E+03  0.51235295397E+03  0.12700000000E+01 0.  1.
          4   -1    0    0  501    0  0.00000000000E+00 -0.00000000000E+00 -0.75694774382E+01  0.76752777596E+01  0.12700000000E+01 0.  1.
         25    2    1    2    0    0  0.00000000000E+00  0.00000000000E+00  0.50478190251E+03  0.52002823173E+03  0.12499837074E+03 0.  0.
    9000005    1    3    3    0    0  0.16645535342E+01 -0.27300505930E+02  0.48614760090E+03  0.48691742444E+03  0.10000000000E+01 0.  0.
    9000005    1    3    3    0    0 -0.16645535342E+01  0.27300505930E+02  0.18634301612E+02  0.33110807285E+02  0.10000000000E+01 0.  0.
<mgrwt>
<rscale>  0 0.12499837E+03</rscale>
<asrwt>0</asrwt>
<pdfrwt beam="2">  1        4 0.11727943E-02 0.12499837E+03</pdfrwt>
<pdfrwt beam="1">  1       -4 0.78831566E-01 0.12499837E+03</pdfrwt>
<totfact> 0.54345167E+03</totfact>
</mgrwt>
</event>
<event>
 5    1  0.3296424E-002  0.1250001E+03  0.7818608E-02  0.1235069E+00
          4   -1    0    0  501    0  0.00000000000E+00  0.00000000000E+00  0.69473834626E+03  0.69473950706E+03  0.12700000000E+01 0. -1.
         -4   -1    0    0    0  501 -0.00000000000E+00 -0.00000000000E+00 -0.55497382041E+01  0.56931971803E+01  0.12700000000E+01 0. -1.
         25    2    1    2    0    0  0.00000000000E+00  0.00000000000E+00  0.68918860806E+03  0.70043270424E+03  0.12500014276E+03 0.  0.
    9000005    1    3    3    0    0  0.28134305633E+01  0.58117113696E+02  0.21684724498E+03  0.22452002572E+03  0.10000000000E+01 0.  0.
    9000005    1    3    3    0    0 -0.28134305633E+01 -0.58117113696E+02  0.47234136308E+03  0.47591267852E+03  0.10000000000E+01 0.  0.
<mgrwt>
<rscale>  0 0.12500014E+03</rscale>
<asrwt>0</asrwt>
<pdfrwt beam="1">  1        4 0.10689393E+00 0.12500014E+03</pdfrwt>
<pdfrwt beam="2">  1       -4 0.86493065E-03 0.12500014E+03</pdfrwt>
<totfact> 0.43063730E+03</totfact>
</mgrwt>
</event>
<event>
 5    1  0.3296424E-002  0.1250054E+03  0.7818608E-02  0.1235061E+00
         -4   -1    0    0    0  501 -0.00000000000E+00  0.00000000000E+00  0.25164264032E+04  0.25164267237E+04  0.12700000000E+01 0. -1.
          4   -1    0    0  501    0  0.00000000000E+00 -0.00000000000E+00 -0.12923223856E+01  0.18119042879E+01  0.12700000000E+01 0. -1.
         25    2    1    2    0    0  0.00000000000E+00  0.00000000000E+00  0.25151340809E+04  0.25182386280E+04  0.12500537143E+03 0.  0.
    9000005    1    3    3    0    0  0.31618452835E+02  0.35070659861E+02  0.20822619063E+04  0.20827974755E+04  0.10000000000E+01 0.  0.
    9000005    1    3    3    0    0 -0.31618452835E+02 -0.35070659861E+02  0.43287217460E+03  0.43544115249E+03  0.10000000000E+01 0.  0.
<mgrwt>
<rscale>  0 0.12500537E+03</rscale>
<asrwt>0</asrwt>
<pdfrwt beam="2">  1        4 0.23881020E-03 0.12500537E+03</pdfrwt>
<pdfrwt beam="1">  1       -4 0.38718433E+00 0.12500537E+03</pdfrwt>
<totfact> 0.45270003E+02</totfact>
</mgrwt>
</event>
<event>
 5    1  0.3296424E-002  0.1250005E+03  0.7818608E-02  0.1235069E+00
          4   -1    0    0  501    0  0.00000000000E+00  0.00000000000E+00  0.42275107905E+03  0.42275298667E+03  0.12700000000E+01 0.  1.
         -4   -1    0    0    0  501 -0.00000000000E+00 -0.00000000000E+00 -0.91945660236E+01  0.92818610398E+01  0.12700000000E+01 0.  1.
         25    2    1    2    0    0  0.00000000000E+00  0.00000000000E+00  0.41355651303E+03  0.43203484771E+03  0.12500048067E+03 0.  0.
    9000005    1    3    3    0    0 -0.32659071440E+01 -0.23068126977E+02  0.40719622410E+03  0.40786342022E+03  0.10000000000E+01 0.  0.
    9000005    1    3    3    0    0  0.32659071440E+01  0.23068126977E+02  0.63602889264E+01  0.24171427490E+02  0.10000000000E+01 0.  0.
<mgrwt>
<rscale>  0 0.12500048E+03</rscale>
<asrwt>0</asrwt>
<pdfrwt beam="1">  1        4 0.65045476E-01 0.12500048E+03</pdfrwt>
<pdfrwt beam="2">  1       -4 0.14214107E-02 0.12500048E+03</pdfrwt>
<totfact> 0.61551331E+03</totfact>
</mgrwt>
</event>
<event>
 5    1  0.3296424E-002  0.1250030E+03  0.7818608E-02  0.1235065E+00
          4   -1    0    0  501    0  0.00000000000E+00  0.00000000000E+00  0.78132922642E+01  0.79158345110E+01  0.12700000000E+01 0.  1.
         -4   -1    0    0    0  501 -0.00000000000E+00 -0.00000000000E+00 -0.49661028352E+03  0.49661190743E+03  0.12700000000E+01 0.  1.
         25    2    1    2    0    0  0.00000000000E+00  0.00000000000E+00 -0.48879699126E+03  0.50452774194E+03  0.12500297486E+03 0.  0.
    9000005    1    3    3    0    0 -0.13923453387E+02  0.53776610914E+02 -0.35995084788E+03  0.36421339805E+03  0.10000000000E+01 0.  0.
    9000005    1    3    3    0    0  0.13923453387E+02 -0.53776610914E+02 -0.12884614338E+03  0.14031434389E+03  0.10000000000E+01 0.  0.
<mgrwt>
<rscale>  0 0.12500297E+03</rscale>
<asrwt>0</asrwt>
<pdfrwt beam="1">  1        4 0.12100581E-02 0.12500297E+03</pdfrwt>
<pdfrwt beam="2">  1       -4 0.76409570E-01 0.12500297E+03</pdfrwt>
<totfact> 0.55511153E+03</totfact>
</mgrwt>
</event>
<event>
 5    1  0.3296424E-002  0.1250007E+03  0.7818608E-02  0.1235068E+00
         -4   -1    0    0    0  501 -0.00000000000E+00  0.00000000000E+00  0.90240089273E+02  0.90249025546E+02  0.12700000000E+01 0.  1.
          4   -1    0    0  501    0  0.00000000000E+00 -0.00000000000E+00 -0.43267376706E+02  0.43286011447E+02  0.12700000000E+01 0.  1.
         25    2    1    2    0    0  0.00000000000E+00  0.00000000000E+00  0.46972712568E+02  0.13353503699E+03  0.12500068151E+03 0.  0.
    9000005    1    3    3    0    0  0.42953188988E+02 -0.75902431721E+01 -0.24320619524E+02  0.49950783474E+02  0.10000000000E+01 0.  0.
    9000005    1    3    3    0    0 -0.42953188988E+02  0.75902431721E+01  0.71293332092E+02  0.83584253519E+02  0.10000000000E+01 0.  0.
<mgrwt>
<rscale>  0 0.12500068E+03</rscale>
<asrwt>0</asrwt>
<pdfrwt beam="2">  1        4 0.66586404E-02 0.12500068E+03</pdfrwt>
<pdfrwt beam="1">  1       -4 0.13885211E-01 0.12500068E+03</pdfrwt>
<totfact> 0.10268884E+04</totfact>
</mgrwt>
</event>
<event>
 5    1  0.3296424E-002  0.1250003E+03  0.7818608E-02  0.1235069E+00
          4   -1    0    0  501    0  0.00000000000E+00  0.00000000000E+00  0.75022205519E+02  0.75032954233E+02  0.12700000000E+01 0. -1.
         -4   -1    0    0    0  501 -0.00000000000E+00 -0.00000000000E+00 -0.52045908565E+02  0.52061401234E+02  0.12700000000E+01 0. -1.
         25    2    1    2    0    0  0.00000000000E+00  0.00000000000E+00  0.22976296953E+02  0.12709435547E+03  0.12500025988E+03 0.  0.
    9000005    1    3    3    0    0 -0.59820058667E+02  0.65995008525E+01 -0.56245403733E+01  0.60453521691E+02  0.10000000000E+01 0.  0.
    9000005    1    3    3    0    0  0.59820058667E+02 -0.65995008525E+01  0.28600837326E+02  0.66640833775E+02  0.10000000000E+01 0.  0.
<mgrwt>
<rscale>  0 0.12500026E+03</rscale>
<asrwt>0</asrwt>
<pdfrwt beam="1">  1        4 0.11543896E-01 0.12500026E+03</pdfrwt>
<pdfrwt beam="2">  1       -4 0.80090815E-02 0.12500026E+03</pdfrwt>
<totfact> 0.10407035E+04</totfact>
</mgrwt>
</event>
<event>
 5    1  0.3296424E-002  0.1250026E+03  0.7818608E-02  0.1235065E+00
          4   -1    0    0  501    0  0.00000000000E+00  0.00000000000E+00  0.14482164527E+02  0.14537743614E+02  0.12700000000E+01 0. -1.
         -4   -1    0    0    0  501 -0.00000000000E+00 -0.00000000000E+00 -0.26916575798E+03  0.26916875407E+03  0.12700000000E+01 0. -1.
         25    2    1    2    0    0  0.00000000000E+00  0.00000000000E+00 -0.25468359345E+03  0.28370649768E+03  0.12500257620E+03 0.  0.
    9000005    1    3    3    0    0 -0.45835137356E+02 -0.12763042366E+02 -0.35383399948E+02  0.59302108384E+02  0.10000000000E+01 0.  0.
    9000005    1    3    3    0    0  0.45835137356E+02  0.12763042366E+02 -0.21930019350E+03  0.22440438930E+03  0.10000000000E+01 0.  0.
<mgrwt>
<rscale>  0 0.12500258E+03</rscale>
<asrwt>0</asrwt>
<pdfrwt beam="1">  1        4 0.22325313E-02 0.12500258E+03</pdfrwt>
<pdfrwt beam="2">  1       -4 0.41414619E-01 0.12500258E+03</pdfrwt>
<totfact> 0.77684758E+03</totfact>
</mgrwt>
</event>
<event>
 5    1  0.3296424E-002  0.1250039E+03  0.7818608E-02  0.1235063E+00
          4   -1    0    0  501    0  0.00000000000E+00  0.00000000000E+00  0.11777524905E+03  0.11778209621E+03  0.12700000000E+01 0. -1.
         -4   -1    0    0    0  501 -0.00000000000E+00 -0.00000000000E+00 -0.33149102753E+02  0.33173421791E+02  0.12700000000E+01 0. -1.
         25    2    1    2    0    0  0.00000000000E+00  0.00000000000E+00  0.84626146292E+02  0.15095551800E+03  0.12500393505E+03 0.  0.
    9000005    1    3    3    0    0  0.97202475633E+01 -0.55096661509E+02  0.86867037619E+01  0.56626708755E+02  0.10000000000E+01 0.  0.
    9000005    1    3    3    0    0 -0.97202475633E+01  0.55096661509E+02  0.75939442531E+02  0.94328809247E+02  0.10000000000E+01 0.  0.
<mgrwt>
<rscale>  0 0.12500394E+03</rscale>
<asrwt>0</asrwt>
<pdfrwt beam="1">  1        4 0.18121667E-01 0.12500394E+03</pdfrwt>
<pdfrwt beam="2">  1       -4 0.51022593E-02 0.12500394E+03</pdfrwt>
<totfact> 0.99104794E+03</totfact>
</mgrwt>
</event>
<event>
 5    1  0.3296424E-002  0.1250007E+03  0.7818608E-02  0.1235068E+00
          4   -1    0    0  501    0  0.00000000000E+00  0.00000000000E+00  0.44917462716E+02  0.44935413171E+02  0.12700000000E+01 0.  1.
         -4   -1    0    0    0  501 -0.00000000000E+00 -0.00000000000E+00 -0.86926141965E+02  0.86935418886E+02  0.12700000000E+01 0.  1.
         25    2    1    2    0    0  0.00000000000E+00  0.00000000000E+00 -0.42008679249E+02  0.13187083206E+03  0.12500074886E+03 0.  0.
    9000005    1    3    3    0    0  0.11304017256E+02 -0.16586088854E+02 -0.83438186987E+02  0.85824298408E+02  0.10000000000E+01 0.  0.
    9000005    1    3    3    0    0 -0.11304017256E+02  0.16586088854E+02  0.41429507738E+02  0.46046533649E+02  0.10000000000E+01 0.  0.
<mgrwt>
<rscale>  0 0.12500075E+03</rscale>
<asrwt>0</asrwt>
<pdfrwt beam="1">  1        4 0.69124733E-02 0.12500075E+03</pdfrwt>
<pdfrwt beam="2">  1       -4 0.13375347E-01 0.12500075E+03</pdfrwt>
<totfact> 0.10304282E+04</totfact>
</mgrwt>
</event>
<event>
 5    1  0.3296424E-002  0.1249979E+03  0.7818608E-02  0.1235073E+00
          4   -1    0    0  501    0  0.00000000000E+00  0.00000000000E+00  0.29903975744E+02  0.29930931580E+02  0.12700000000E+01 0.  1.
         -4   -1    0    0    0  501 -0.00000000000E+00 -0.00000000000E+00 -0.13053306667E+03  0.13053924465E+03  0.12700000000E+01 0.  1.
         25    2    1    2    0    0  0.00000000000E+00  0.00000000000E+00 -0.10062909092E+03  0.16047017623E+03  0.12499785406E+03 0.  0.
    9000005    1    3    3    0    0 -0.46346408014E+02 -0.38774863355E+02 -0.29869057013E+02  0.67413946115E+02  0.10000000000E+01 0.  0.
    9000005    1    3    3    0    0  0.46346408014E+02  0.38774863355E+02 -0.70760033911E+02  0.93056230114E+02  0.10000000000E+01 0.  0.
<mgrwt>
<rscale>  0 0.12499785E+03</rscale>
<asrwt>0</asrwt>
<pdfrwt beam="1">  1        4 0.46031605E-02 0.12499785E+03</pdfrwt>
<pdfrwt beam="2">  1       -4 0.20084559E-01 0.12499785E+03</pdfrwt>
<totfact> 0.97256906E+03</totfact>
</mgrwt>
</event>
<event>
 5    1  0.3296424E-002  0.1249952E+03  0.7818608E-02  0.1235077E+00
         -4   -1    0    0    0  501 -0.00000000000E+00  0.00000000000E+00  0.26359289120E+03  0.26359595063E+03  0.12700000000E+01 0. -1.
          4   -1    0    0  501    0  0.00000000000E+00 -0.00000000000E+00 -0.14787747711E+02  0.14842182534E+02  0.12700000000E+01 0. -1.
         25    2    1    2    0    0  0.00000000000E+00  0.00000000000E+00  0.24880514349E+03  0.27843813317E+03  0.12499517821E+03 0.  0.
    9000005    1    3    3    0    0 -0.28094141734E+02 -0.55736436207E+02  0.13112883547E+03  0.14522948259E+03  0.10000000000E+01 0.  0.
    9000005    1    3    3    0    0  0.28094141734E+02  0.55736436207E+02  0.11767630802E+03  0.13320865058E+03  0.10000000000E+01 0.  0.
<mgrwt>
<rscale>  0 0.12499518E+03</rscale>
<asrwt>0</asrwt>
<pdfrwt beam="2">  1        4 0.22794610E-02 0.12499518E+03</pdfrwt>
<pdfrwt beam="1">  1       -4 0.40557170E-01 0.12499518E+03</pdfrwt>
<totfact> 0.78394060E+03</totfact>
</mgrwt>
</event>
<event>
 5    1  0.3296424E-002  0.1249989E+03  0.7818608E-02  0.1235071E+00
         -4   -1    0    0    0  501 -0.00000000000E+00  0.00000000000E+00  0.10593725384E+03  0.10594486609E+03  0.12700000000E+01 0. -1.
          4   -1    0    0  501    0  0.00000000000E+00 -0.00000000000E+00 -0.36852721350E+02  0.36874597908E+02  0.12700000000E+01 0. -1.
         25    2    1    2    0    0  0.00000000000E+00  0.00000000000E+00  0.69084532490E+02  0.14281946400E+03  0.12499890667E+03 0.  0.
    9000005    1    3    3    0    0  0.28058827292E+01 -0.15122689733E+02  0.10374641509E+03  0.10488511508E+03  0.10000000000E+01 0.  0.
    9000005    1    3    3    0    0 -0.28058827292E+01  0.15122689733E+02 -0.34661882596E+02  0.37934348917E+02  0.10000000000E+01 0.  0.
<mgrwt>
<rscale>  0 0.12499891E+03</rscale>
<asrwt>0</asrwt>
<pdfrwt beam="2">  1        4 0.56719179E-02 0.12499891E+03</pdfrwt>
<pdfrwt beam="1">  1       -4 0.16300307E-01 0.12499891E+03</pdfrwt>
<totfact> 0.10075730E+04</totfact>
</mgrwt>
</event>
<event>
 5    1  0.3296424E-002  0.1250016E+03  0.7818608E-02  0.1235067E+00
          4   -1    0    0  501    0  0.00000000000E+00  0.00000000000E+00  0.99976410586E+02  0.99984476664E+02  0.12700000000E+01 0.  1.
         -4   -1    0    0    0  501 -0.00000000000E+00 -0.00000000000E+00 -0.39052721591E+02  0.39073366424E+02  0.12700000000E+01 0.  1.
         25    2    1    2    0    0  0.00000000000E+00  0.00000000000E+00  0.60923688995E+02  0.13905784309E+03  0.12500155136E+03 0.  0.
    9000005    1    3    3    0    0  0.60263331969E+02 -0.13272989938E+02  0.41446708508E+02  0.74341583841E+02  0.10000000000E+01 0.  0.
    9000005    1    3    3    0    0 -0.60263331969E+02  0.13272989938E+02  0.19476980488E+02  0.64716259246E+02  0.10000000000E+01 0.  0.
<mgrwt>
<rscale>  0 0.12500155E+03</rscale>
<asrwt>0</asrwt>
<pdfrwt beam="1">  1        4 0.15383195E-01 0.12500155E+03</pdfrwt>
<pdfrwt beam="2">  1       -4 0.60103197E-02 0.12500155E+03</pdfrwt>
<totfact> 0.10152795E+04</totfact>
</mgrwt>
</event>
<event>
 5    1  0.3296424E-002  0.1249655E+03  0.7818608E-02  0.1235123E+00
          4   -1    0    0  501    0  0.00000000000E+00  0.00000000000E+00  0.53644455525E+03  0.53644605857E+03  0.12700000000E+01 0. -1.
         -4   -1    0    0    0  501 -0.00000000000E+00 -0.00000000000E+00 -0.72207899154E+01  0.73316237630E+01  0.12700000000E+01 0. -1.
         25    2    1    2    0    0  0.00000000000E+00  0.00000000000E+00  0.52922376534E+03  0.54377768234E+03  0.12496549128E+03 0.  0.
    9000005    1    3    3    0    0  0.26312303522E+01  0.46970894543E+02  0.85731609660E+02  0.97796202392E+02  0.10000000000E+01 0.  0.
    9000005    1    3    3    0    0 -0.26312303522E+01 -0.46970894543E+02  0.44349215568E+03  0.44598147994E+03  0.10000000000E+01 0.  0.
<mgrwt>
<rscale>  0 0.12496549E+03</rscale>
<asrwt>0</asrwt>
<pdfrwt beam="1">  1        4 0.82538558E-01 0.12496549E+03</pdfrwt>
<pdfrwt beam="2">  1       -4 0.11195323E-02 0.12496549E+03</pdfrwt>
<totfact> 0.52660756E+03</totfact>
</mgrwt>
</event>
<event>
 5    1  0.3296424E-002  0.1249994E+03  0.7818608E-02  0.1235070E+00
          4   -1    0    0  501    0  0.00000000000E+00  0.00000000000E+00  0.26394873670E+03  0.26395179201E+03  0.12700000000E+01 0. -1.
         -4   -1    0    0    0  501 -0.00000000000E+00 -0.00000000000E+00 -0.14768737946E+02  0.14823242577E+02  0.12700000000E+01 0. -1.
         25    2    1    2    0    0  0.00000000000E+00  0.00000000000E+00  0.24917999876E+03  0.27877503459E+03  0.12499939252E+03 0.  0.
    9000005    1    3    3    0    0  0.22913432642E+02  0.56498551665E+02  0.94002729390E+02  0.11204742241E+03  0.10000000000E+01 0.  0.
    9000005    1    3    3    0    0 -0.22913432642E+02 -0.56498551665E+02  0.15517726937E+03  0.16672761218E+03  0.10000000000E+01 0.  0.
<mgrwt>
<rscale>  0 0.12499939E+03</rscale>
<asrwt>0</asrwt>
<pdfrwt beam="1">  1        4 0.40611921E-01 0.12499939E+03</pdfrwt>
<pdfrwt beam="2">  1       -4 0.22765415E-02 0.12499939E+03</pdfrwt>
<totfact> 0.78341868E+03</totfact>
</mgrwt>
</event>
<event>
 5    1  0.3296424E-002  0.1250060E+03  0.7818608E-02  0.1235060E+00
          4   -1    0    0  501    0  0.00000000000E+00  0.00000000000E+00  0.25221537232E+02  0.25253491647E+02  0.12700000000E+01 0. -1.
         -4   -1    0    0    0  501 -0.00000000000E+00 -0.00000000000E+00 -0.15475985782E+03  0.15476506871E+03  0.12700000000E+01 0. -1.
         25    2    1    2    0    0  0.00000000000E+00  0.00000000000E+00 -0.12953832059E+03  0.18001856036E+03  0.12500602214E+03 0.  0.
    9000005    1    3    3    0    0  0.58742523817E+02 -0.68569097226E+01 -0.35683659148E+02  0.69079843989E+02  0.10000000000E+01 0.  0.
    9000005    1    3    3    0    0 -0.58742523817E+02  0.68569097226E+01 -0.93854661445E+02  0.11093871637E+03  0.10000000000E+01 0.  0.
<mgrwt>
<rscale>  0 0.12500602E+03</rscale>
<asrwt>0</asrwt>
<pdfrwt beam="1">  1        4 0.38830955E-02 0.12500602E+03</pdfrwt>
<pdfrwt beam="2">  1       -4 0.23812067E-01 0.12500602E+03</pdfrwt>
<totfact> 0.93601023E+03</totfact>
</mgrwt>
</event>
<event>
 5    1  0.3296424E-002  0.1250049E+03  0.7818608E-02  0.1235062E+00
         -4   -1    0    0    0  501 -0.00000000000E+00  0.00000000000E+00  0.11675547913E+02  0.11744416506E+02  0.12700000000E+01 0. -1.
          4   -1    0    0  501    0  0.00000000000E+00 -0.00000000000E+00 -0.33353892177E+03  0.33354133962E+03  0.12700000000E+01 0. -1.
         25    2    1    2    0    0  0.00000000000E+00  0.00000000000E+00 -0.32186337385E+03  0.34528575612E+03  0.12500488772E+03 0.  0.
    9000005    1    3    3    0    0  0.34500772645E+02  0.48634924002E+02 -0.21259965352E+03  0.22080595966E+03  0.10000000000E+01 0.  0.
    9000005    1    3    3    0    0 -0.34500772645E+02 -0.48634924002E+02 -0.10926372033E+03  0.12447979646E+03  0.10000000000E+01 0.  0.
<mgrwt>
<rscale>  0 0.12500489E+03</rscale>
<asrwt>0</asrwt>
<pdfrwt beam="2">  1        4 0.51319157E-01 0.12500489E+03</pdfrwt>
<pdfrwt beam="1">  1       -4 0.18017220E-02 0.12500489E+03</pdfrwt>
<totfact> 0.70238716E+03</totfact>
</mgrwt>
</event>
<event>
 5    1  0.3296424E-002  0.1249953E+03  0.7818608E-02  0.1235077E+00
          4   -1    0    0  501    0  0.00000000000E+00  0.00000000000E+00  0.43739182895E+02  0.43757616712E+02  0.12700000000E+01 0.  1.
         -4   -1    0    0    0  501 -0.00000000000E+00 -0.00000000000E+00 -0.89259301035E+02  0.89268335491E+02  0.12700000000E+01 0.  1.
         25    2    1    2    0    0  0.00000000000E+00  0.00000000000E+00 -0.45520118141E+02  0.13302595220E+03  0.12499529113E+03 0.  0.
    9000005    1    3    3    0    0 -0.41462824836E+02  0.23954601028E+02  0.19968750171E+02  0.51891615288E+02  0.10000000000E+01 0.  0.
    9000005    1    3    3    0    0  0.41462824836E+02 -0.23954601028E+02 -0.65488868312E+02  0.81134336914E+02  0.10000000000E+01 0.  0.
<mgrwt>
<rscale>  0 0.12499529E+03</rscale>
<asrwt>0</asrwt>
<pdfrwt beam="1">  1        4 0.67312180E-02 0.12499529E+03</pdfrwt>
<pdfrwt beam="2">  1       -4 0.13734313E-01 0.12499529E+03</pdfrwt>
<totfact> 0.10280940E+04</totfact>
</mgrwt>
</event>
<event>
 5    1  0.3296424E-002  0.1250090E+03  0.7818608E-02  0.1235055E+00
          4   -1    0    0  501    0  0.00000000000E+00  0.00000000000E+00  0.71536669836E+01  0.72655248477E+01  0.12700000000E+01 0.  1.
         -4   -1    0    0    0  501 -0.00000000000E+00 -0.00000000000E+00 -0.54177835900E+03  0.54177984753E+03  0.12700000000E+01 0.  1.
         25    2    1    2    0    0  0.00000000000E+00  0.00000000000E+00 -0.53462469202E+03  0.54904537237E+03  0.12500903810E+03 0.  0.
    9000005    1    3    3    0    0 -0.43388367050E+02 -0.41526064976E+02 -0.19138577837E+03  0.20059033035E+03  0.10000000000E+01 0.  0.
    9000005    1    3    3    0    0  0.43388367050E+02  0.41526064976E+02 -0.34323891365E+03  0.34845504202E+03  0.10000000000E+01 0.  0.
<mgrwt>
<rscale>  0 0.12500904E+03</rscale>
<asrwt>0</asrwt>
<pdfrwt beam="1">  1        4 0.11092835E-02 0.12500904E+03</pdfrwt>
<pdfrwt beam="2">  1       -4 0.83359204E-01 0.12500904E+03</pdfrwt>
<totfact> 0.52240178E+03</totfact>
</mgrwt>
</event>
<event>
 5    1  0.3296424E-002  0.1249988E+03  0.7818608E-02  0.1235071E+00
         -4   -1    0    0    0  501 -0.00000000000E+00  0.00000000000E+00  0.37735285681E+03  0.37735499393E+03  0.12700000000E+01 0. -1.
          4   -1    0    0  501    0  0.00000000000E+00 -0.00000000000E+00 -0.10310392323E+02  0.10388315064E+02  0.12700000000E+01 0. -1.
         25    2    1    2    0    0  0.00000000000E+00  0.00000000000E+00  0.36704246449E+03  0.38774330899E+03  0.12499881172E+03 0.  0.
    9000005    1    3    3    0    0 -0.55935915219E+02  0.26449930270E+02  0.15634567254E+03  0.16814694390E+03  0.10000000000E+01 0.  0.
    9000005    1    3    3    0    0  0.55935915219E+02 -0.26449930270E+02  0.21069679195E+03  0.21959636509E+03  0.10000000000E+01 0.  0.
<mgrwt>
<rscale>  0 0.12499881E+03</rscale>
<asrwt>0</asrwt>
<pdfrwt beam="2">  1        4 0.15923725E-02 0.12499881E+03</pdfrwt>
<pdfrwt beam="1">  1       -4 0.58060451E-01 0.12499881E+03</pdfrwt>
<totfact> 0.65764295E+03</totfact>
</mgrwt>
</event>
<event>
 5    1  0.3296424E-002  0.1249983E+03  0.7818608E-02  0.1235072E+00
         -4   -1    0    0    0  501 -0.00000000000E+00  0.00000000000E+00  0.12252489326E+02  0.12318132760E+02  0.12700000000E+01 0. -1.
          4   -1    0    0  501    0  0.00000000000E+00 -0.00000000000E+00 -0.31788556215E+03  0.31788809906E+03  0.12700000000E+01 0. -1.
         25    2    1    2    0    0  0.00000000000E+00  0.00000000000E+00 -0.30563307283E+03  0.33020623182E+03  0.12499832130E+03 0.  0.
    9000005    1    3    3    0    0 -0.96769926637E+01  0.89636346381E+01 -0.31417906123E+03  0.31445742708E+03  0.10000000000E+01 0.  0.
    9000005    1    3    3    0    0  0.96769926637E+01 -0.89636346381E+01  0.85459884019E+01  0.15748804739E+02  0.10000000000E+01 0.  0.
<mgrwt>
<rscale>  0 0.12499832E+03</rscale>
<asrwt>0</asrwt>
<pdfrwt beam="2">  1        4 0.48910710E-01 0.12499832E+03</pdfrwt>
<pdfrwt beam="1">  1       -4 0.18902432E-02 0.12499832E+03</pdfrwt>
<totfact> 0.71961129E+03</totfact>
</mgrwt>
</event>
<event>
 5    1  0.3296424E-002  0.1250228E+03  0.7818608E-02  0.1235034E+00
         -4   -1    0    0    0  501 -0.00000000000E+00  0.00000000000E+00  0.32260959471E+01  0.34670729817E+01  0.12700000000E+01 0. -1.
          4   -1    0    0  501    0  0.00000000000E+00 -0.00000000000E+00 -0.11674195291E+04  0.11674202199E+04  0.12700000000E+01 0. -1.
         25    2    1    2    0    0  0.00000000000E+00  0.00000000000E+00 -0.11641934332E+04  0.11708872929E+04  0.12502280923E+03 0.  0.
    9000005    1    3    3    0    0 -0.16628462131E+02  0.15029082630E+02 -0.11285330104E+04  0.11287560120E+04  0.10000000000E+01 0.  0.
    9000005    1    3    3    0    0  0.16628462131E+02 -0.15029082630E+02 -0.35660422793E+02  0.42131280912E+02  0.10000000000E+01 0.  0.
<mgrwt>
<rscale>  0 0.12502281E+03</rscale>
<asrwt>0</asrwt>
<pdfrwt beam="2">  1        4 0.17962127E+00 0.12502281E+03</pdfrwt>
<pdfrwt beam="1">  1       -4 0.51491322E-03 0.12502281E+03</pdfrwt>
<totfact> 0.25475121E+03</totfact>
</mgrwt>
</event>
<event>
 5    1  0.3296424E-002  0.1250004E+03  0.7818608E-02  0.1235069E+00
          4   -1    0    0  501    0  0.00000000000E+00  0.00000000000E+00  0.21123259308E+03  0.21123641088E+03  0.12700000000E+01 0. -1.
         -4   -1    0    0    0  501 -0.00000000000E+00 -0.00000000000E+00 -0.18466963006E+02  0.18510581370E+02  0.12700000000E+01 0. -1.
         25    2    1    2    0    0  0.00000000000E+00  0.00000000000E+00  0.19276563008E+03  0.22974699225E+03  0.12500036923E+03 0.  0.
    9000005    1    3    3    0    0 -0.53204383038E+02  0.15671520904E+02  0.14930137055E+03  0.15927398466E+03  0.10000000000E+01 0.  0.
    9000005    1    3    3    0    0  0.53204383038E+02 -0.15671520904E+02  0.43464259525E+02  0.70473007584E+02  0.10000000000E+01 0.  0.
<mgrwt>
<rscale>  0 0.12500037E+03</rscale>
<asrwt>0</asrwt>
<pdfrwt beam="1">  1        4 0.32500973E-01 0.12500037E+03</pdfrwt>
<pdfrwt beam="2">  1       -4 0.28447200E-02 0.12500037E+03</pdfrwt>
<totfact> 0.85347756E+03</totfact>
</mgrwt>
</event>
<event>
 5    1  0.3296424E-002  0.1249947E+03  0.7818608E-02  0.1235078E+00
          4   -1    0    0  501    0  0.00000000000E+00  0.00000000000E+00  0.74167028165E+02  0.74177900799E+02  0.12700000000E+01 0. -1.
         -4   -1    0    0    0  501 -0.00000000000E+00 -0.00000000000E+00 -0.52641415495E+02  0.52656732953E+02  0.12700000000E+01 0. -1.
         25    2    1    2    0    0  0.00000000000E+00  0.00000000000E+00  0.21525612671E+02  0.12683463375E+03  0.12499468916E+03 0.  0.
    9000005    1    3    3    0    0 -0.27883934290E+02 -0.46918722180E+02  0.41641623419E+02  0.68657884350E+02  0.10000000000E+01 0.  0.
    9000005    1    3    3    0    0  0.27883934290E+02  0.46918722180E+02 -0.20116010749E+02  0.58176749401E+02  0.10000000000E+01 0.  0.
<mgrwt>
<rscale>  0 0.12499469E+03</rscale>
<asrwt>0</asrwt>
<pdfrwt beam="1">  1        4 0.11412327E-01 0.12499469E+03</pdfrwt>
<pdfrwt beam="2">  1       -4 0.81006940E-02 0.12499469E+03</pdfrwt>
<totfact> 0.10413989E+04</totfact>
</mgrwt>
</event>
<event>
 5    1  0.3296424E-002  0.1250076E+03  0.7818608E-02  0.1235057E+00
          4   -1    0    0  501    0  0.00000000000E+00  0.00000000000E+00  0.65644517954E+02  0.65656801913E+02  0.12700000000E+01 0.  1.
         -4   -1    0    0    0  501 -0.00000000000E+00 -0.00000000000E+00 -0.59488724462E+02  0.59502279268E+02  0.12700000000E+01 0.  1.
         25    2    1    2    0    0  0.00000000000E+00  0.00000000000E+00  0.61557934919E+01  0.12515908118E+03  0.12500760700E+03 0.  0.
    9000005    1    3    3    0    0 -0.22934769641E+02  0.11531015408E+02  0.60127266281E+02  0.65385442762E+02  0.10000000000E+01 0.  0.
    9000005    1    3    3    0    0  0.22934769641E+02 -0.11531015408E+02 -0.53971472789E+02  0.59773638419E+02  0.10000000000E+01 0.  0.
<mgrwt>
<rscale>  0 0.12500761E+03</rscale>
<asrwt>0</asrwt>
<pdfrwt beam="1">  1        4 0.10101144E-01 0.12500761E+03</pdfrwt>
<pdfrwt beam="2">  1       -4 0.91540990E-02 0.12500761E+03</pdfrwt>
<totfact> 0.10447612E+04</totfact>
</mgrwt>
</event>
<event>
 5    1  0.3296424E-002  0.1249982E+03  0.7818608E-02  0.1235072E+00
         -4   -1    0    0    0  501 -0.00000000000E+00  0.00000000000E+00  0.45821641542E+02  0.45839237926E+02  0.12700000000E+01 0.  1.
          4   -1    0    0  501    0  0.00000000000E+00 -0.00000000000E+00 -0.85207900446E+02  0.85217364418E+02  0.12700000000E+01 0.  1.
         25    2    1    2    0    0  0.00000000000E+00  0.00000000000E+00 -0.39386258904E+02  0.13105660234E+03  0.12499822250E+03 0.  0.
    9000005    1    3    3    0    0 -0.25689438877E+01  0.26068964007E+02  0.39792503214E+02  0.47651166504E+02  0.10000000000E+01 0.  0.
    9000005    1    3    3    0    0  0.25689438877E+01 -0.26068964007E+02 -0.79178762118E+02  0.83405435840E+02  0.10000000000E+01 0.  0.
<mgrwt>
<rscale>  0 0.12499822E+03</rscale>
<asrwt>0</asrwt>
<pdfrwt beam="2">  1        4 0.13110989E-01 0.12499822E+03</pdfrwt>
<pdfrwt beam="1">  1       -4 0.70515649E-02 0.12499822E+03</pdfrwt>
<totfact> 0.10322290E+04</totfact>
</mgrwt>
</event>
<event>
 5    1  0.3296424E-002  0.1250059E+03  0.7818608E-02  0.1235060E+00
          4   -1    0    0  501    0  0.00000000000E+00  0.00000000000E+00  0.21265088231E+03  0.21265467464E+03  0.12700000000E+01 0. -1.
         -4   -1    0    0    0  501 -0.00000000000E+00 -0.00000000000E+00 -0.18345134086E+02  0.18389041428E+02  0.12700000000E+01 0. -1.
         25    2    1    2    0    0  0.00000000000E+00  0.00000000000E+00  0.19430574823E+03  0.23104371607E+03  0.12500589963E+03 0.  0.
    9000005    1    3    3    0    0 -0.50035663837E+02  0.36410120990E+02  0.81002595080E+02  0.10193961436E+03  0.10000000000E+01 0.  0.
    9000005    1    3    3    0    0  0.50035663837E+02 -0.36410120990E+02  0.11330315315E+03  0.12910410171E+03  0.10000000000E+01 0.  0.
<mgrwt>
<rscale>  0 0.12500590E+03</rscale>
<asrwt>0</asrwt>
<pdfrwt beam="1">  1        4 0.32719187E-01 0.12500590E+03</pdfrwt>
<pdfrwt beam="2">  1       -4 0.28259977E-02 0.12500590E+03</pdfrwt>
<totfact> 0.85138385E+03</totfact>
</mgrwt>
</event>
<event>
 5    1  0.3296424E-002  0.1249986E+03  0.7818608E-02  0.1235072E+00
          4   -1    0    0  501    0  0.00000000000E+00  0.00000000000E+00  0.10506844914E+03  0.10507612433E+03  0.12700000000E+01 0. -1.
         -4   -1    0    0    0  501 -0.00000000000E+00 -0.00000000000E+00 -0.37157403269E+02  0.37179100549E+02  0.12700000000E+01 0. -1.
         25    2    1    2    0    0  0.00000000000E+00  0.00000000000E+00  0.67911045872E+02  0.14225522488E+03  0.12499855541E+03 0.  0.
    9000005    1    3    3    0    0  0.37196586999E+00 -0.42240303592E+02 -0.18454077458E+02  0.46107858126E+02  0.10000000000E+01 0.  0.
    9000005    1    3    3    0    0 -0.37196586999E+00  0.42240303592E+02  0.86365123330E+02  0.96147366755E+02  0.10000000000E+01 0.  0.
<mgrwt>
<rscale>  0 0.12499856E+03</rscale>
<asrwt>0</asrwt>
<pdfrwt beam="1">  1        4 0.16166636E-01 0.12499856E+03</pdfrwt>
<pdfrwt beam="2">  1       -4 0.57187830E-02 0.12499856E+03</pdfrwt>
<totfact> 0.10087385E+04</totfact>
</mgrwt>
</event>
<event>
 5    1  0.3296424E-002  0.1250018E+03  0.7818608E-02  0.1235066E+00
          4   -1    0    0  501    0  0.00000000000E+00  0.00000000000E+00  0.13301980928E+04  0.13301986991E+04  0.12700000000E+01 0. -1.
         -4   -1    0    0    0  501 -0.00000000000E+00 -0.00000000000E+00 -0.27987361749E+01  0.30734059570E+01  0.12700000000E+01 0. -1.
         25    2    1    2    0    0  0.00000000000E+00  0.00000000000E+00  0.13273993566E+04  0.13332721050E+04  0.12500181621E+03 0.  0.
    9000005    1    3    3    0    0  0.33618771466E+02  0.43477537805E+02  0.34642444316E+03  0.35075833976E+03  0.10000000000E+01 0.  0.
    9000005    1    3    3    0    0 -0.33618771466E+02 -0.43477537805E+02  0.98097491348E+03  0.98251376528E+03  0.10000000000E+01 0.  0.
<mgrwt>
<rscale>  0 0.12500182E+03</rscale>
<asrwt>0</asrwt>
<pdfrwt beam="1">  1        4 0.20466743E+00 0.12500182E+03</pdfrwt>
<pdfrwt beam="2">  1       -4 0.45174902E-03 0.12500182E+03</pdfrwt>
<totfact> 0.21455687E+03</totfact>
</mgrwt>
</event>
<event>
 5    1  0.3296424E-002  0.1249974E+03  0.7818608E-02  0.1235073E+00
          4   -1    0    0  501    0  0.00000000000E+00  0.00000000000E+00  0.12144269946E+03  0.12144933986E+03  0.12700000000E+01 0. -1.
         -4   -1    0    0    0  501 -0.00000000000E+00 -0.00000000000E+00 -0.32143977097E+02  0.32169055995E+02  0.12700000000E+01 0. -1.
         25    2    1    2    0    0  0.00000000000E+00  0.00000000000E+00  0.89298722364E+02  0.15361839585E+03  0.12499739889E+03 0.  0.
    9000005    1    3    3    0    0 -0.73274638376E+00 -0.59726544873E+02  0.22078703728E+02  0.63688823494E+02  0.10000000000E+01 0.  0.
    9000005    1    3    3    0    0  0.73274638376E+00  0.59726544873E+02  0.67220018635E+02  0.89929572361E+02  0.10000000000E+01 0.  0.
<mgrwt>
<rscale>  0 0.12499740E+03</rscale>
<asrwt>0</asrwt>
<pdfrwt beam="1">  1        4 0.18685932E-01 0.12499740E+03</pdfrwt>
<pdfrwt beam="2">  1       -4 0.49476673E-02 0.12499740E+03</pdfrwt>
<totfact> 0.98593023E+03</totfact>
</mgrwt>
</event>
<event>
 5    1  0.3296424E-002  0.1249997E+03  0.7818608E-02  0.1235070E+00
         -4   -1    0    0    0  501 -0.00000000000E+00  0.00000000000E+00  0.51359280873E+03  0.51359437894E+03  0.12700000000E+01 0. -1.
          4   -1    0    0  501    0  0.00000000000E+00 -0.00000000000E+00 -0.75510854775E+01  0.76571399288E+01  0.12700000000E+01 0. -1.
         25    2    1    2    0    0  0.00000000000E+00  0.00000000000E+00  0.50604172325E+03  0.52125151887E+03  0.12499968100E+03 0.  0.
    9000005    1    3    3    0    0 -0.53421050481E+02  0.31385445323E+02  0.28699445734E+03  0.29360802672E+03  0.10000000000E+01 0.  0.
    9000005    1    3    3    0    0  0.53421050481E+02 -0.31385445323E+02  0.21904726592E+03  0.22764349215E+03  0.10000000000E+01 0.  0.
<mgrwt>
<rscale>  0 0.12499968E+03</rscale>
<asrwt>0</asrwt>
<pdfrwt beam="2">  1        4 0.11699839E-02 0.12499968E+03</pdfrwt>
<pdfrwt beam="1">  1       -4 0.79022581E-01 0.12499968E+03</pdfrwt>
<totfact> 0.54252772E+03</totfact>
</mgrwt>
</event>
<event>
 5    1  0.3296424E-002  0.1249998E+03  0.7818608E-02  0.1235070E+00
         -4   -1    0    0    0  501 -0.00000000000E+00  0.00000000000E+00  0.31313191003E+02  0.31338934742E+02  0.12700000000E+01 0.  1.
          4   -1    0    0  501    0  0.00000000000E+00 -0.00000000000E+00 -0.12466710094E+03  0.12467356960E+03  0.12700000000E+01 0.  1.
         25    2    1    2    0    0  0.00000000000E+00  0.00000000000E+00 -0.93353909939E+02  0.15601250434E+03  0.12499979604E+03 0.  0.
    9000005    1    3    3    0    0  0.27439085542E+01 -0.29913359406E+02 -0.11507134446E+03  0.11893171326E+03  0.10000000000E+01 0.  0.
    9000005    1    3    3    0    0 -0.27439085542E+01  0.29913359406E+02  0.21717434517E+02  0.37080791080E+02  0.10000000000E+01 0.  0.
<mgrwt>
<rscale>  0 0.12499980E+03</rscale>
<asrwt>0</asrwt>
<pdfrwt beam="2">  1        4 0.19182032E-01 0.12499980E+03</pdfrwt>
<pdfrwt beam="1">  1       -4 0.48198920E-02 0.12499980E+03</pdfrwt>
<totfact> 0.98117548E+03</totfact>
</mgrwt>
</event>
<event>
 5    1  0.3296424E-002  0.1249993E+03  0.7818608E-02  0.1235070E+00
         -4   -1    0    0    0  501 -0.00000000000E+00  0.00000000000E+00  0.28215538563E+03  0.28215824379E+03  0.12700000000E+01 0. -1.
          4   -1    0    0  501    0  0.00000000000E+00 -0.00000000000E+00 -0.13812106874E+02  0.13870371167E+02  0.12700000000E+01 0. -1.
         25    2    1    2    0    0  0.00000000000E+00  0.00000000000E+00  0.26834327875E+03  0.29602861496E+03  0.12499930248E+03 0.  0.
    9000005    1    3    3    0    0 -0.31451201668E+02  0.85749056133E+01  0.79085859156E+01  0.33559690461E+02  0.10000000000E+01 0.  0.
    9000005    1    3    3    0    0  0.31451201668E+02 -0.85749056133E+01  0.26043469284E+03  0.26246892449E+03  0.10000000000E+01 0.  0.
<mgrwt>
<rscale>  0 0.12499930E+03</rscale>
<asrwt>0</asrwt>
<pdfrwt beam="2">  1        4 0.21296412E-02 0.12499930E+03</pdfrwt>
<pdfrwt beam="1">  1       -4 0.43413223E-01 0.12499930E+03</pdfrwt>
<totfact> 0.76100895E+03</totfact>
</mgrwt>
</event>
<event>
 5    1  0.3296424E-002  0.1249997E+03  0.7818608E-02  0.1235070E+00
         -4   -1    0    0    0  501 -0.00000000000E+00  0.00000000000E+00  0.70497608069E+01  0.71632414055E+01  0.12700000000E+01 0.  1.
          4   -1    0    0  501    0  0.00000000000E+00 -0.00000000000E+00 -0.54955577677E+03  0.54955724422E+03  0.12700000000E+01 0.  1.
         25    2    1    2    0    0  0.00000000000E+00  0.00000000000E+00 -0.54250601596E+03  0.55672048563E+03  0.12499968706E+03 0.  0.
    9000005    1    3    3    0    0 -0.22415352095E+02 -0.52728346680E+02 -0.38237481901E+03  0.38664483543E+03  0.10000000000E+01 0.  0.
    9000005    1    3    3    0    0  0.22415352095E+02  0.52728346680E+02 -0.16013119695E+03  0.17007565020E+03  0.10000000000E+01 0.  0.
<mgrwt>
<rscale>  0 0.12499969E+03</rscale>
<asrwt>0</asrwt>
<pdfrwt beam="2">  1        4 0.84555851E-01 0.12499969E+03</pdfrwt>
<pdfrwt beam="1">  1       -4 0.10934212E-02 0.12499969E+03</pdfrwt>
<totfact> 0.51719066E+03</totfact>
</mgrwt>
</event>
<event>
 5    1  0.3296424E-002  0.1250028E+03  0.7818608E-02  0.1235065E+00
         -4   -1    0    0    0  501 -0.00000000000E+00  0.00000000000E+00  0.20999633779E+02  0.21038001779E+02  0.12700000000E+01 0. -1.
          4   -1    0    0  501    0  0.00000000000E+00 -0.00000000000E+00 -0.18581307988E+03  0.18581741994E+03  0.12700000000E+01 0. -1.
         25    2    1    2    0    0  0.00000000000E+00  0.00000000000E+00 -0.16481344610E+03  0.20685542172E+03  0.12500277389E+03 0.  0.
    9000005    1    3    3    0    0 -0.99420714810E+01 -0.61597489652E+02 -0.76596524312E+02  0.98798396006E+02  0.10000000000E+01 0.  0.
    9000005    1    3    3    0    0  0.99420714810E+01  0.61597489652E+02 -0.88216921790E+02  0.10805702572E+03  0.10000000000E+01 0.  0.
<mgrwt>
<rscale>  0 0.12500277E+03</rscale>
<asrwt>0</asrwt>
<pdfrwt beam="2">  1        4 0.28589912E-01 0.12500277E+03</pdfrwt>
<pdfrwt beam="1">  1       -4 0.32339983E-02 0.12500277E+03</pdfrwt>
<totfact> 0.88986501E+03</totfact>
</mgrwt>
</event>
<event>
 5    1  0.3296424E-002  0.1250001E+03  0.7818608E-02  0.1235069E+00
         -4   -1    0    0    0  501 -0.00000000000E+00  0.00000000000E+00  0.15007768080E+03  0.15008305425E+03  0.12700000000E+01 0. -1.
          4   -1    0    0  501    0  0.00000000000E+00 -0.00000000000E+00 -0.26006889503E+02  0.26037880129E+02  0.12700000000E+01 0. -1.
         25    2    1    2    0    0  0.00000000000E+00  0.00000000000E+00  0.12407079130E+03  0.17612093438E+03  0.12500008910E+03 0.  0.
    9000005    1    3    3    0    0 -0.40527385386E+02 -0.22289227192E+02  0.28256529072E+01  0.46349357378E+02  0.10000000000E+01 0.  0.
    9000005    1    3    3    0    0  0.40527385386E+02  0.22289227192E+02  0.12124513839E+03  0.12977157700E+03  0.10000000000E+01 0.  0.
<mgrwt>
<rscale>  0 0.12500009E+03</rscale>
<asrwt>0</asrwt>
<pdfrwt beam="2">  1        4 0.40038572E-02 0.12500009E+03</pdfrwt>
<pdfrwt beam="1">  1       -4 0.23091671E-01 0.12500009E+03</pdfrwt>
<totfact> 0.94319756E+03</totfact>
</mgrwt>
</event>
<event>
 5    1  0.3296424E-002  0.1250011E+03  0.7818608E-02  0.1235068E+00
          4   -1    0    0  501    0  0.00000000000E+00  0.00000000000E+00  0.27844026425E+03  0.27844316055E+03  0.12700000000E+01 0.  1.
         -4   -1    0    0    0  501 -0.00000000000E+00 -0.00000000000E+00 -0.13997568910E+02  0.14055064404E+02  0.12700000000E+01 0.  1.
         25    2    1    2    0    0  0.00000000000E+00  0.00000000000E+00  0.26444269534E+03  0.29249822495E+03  0.12500108992E+03 0.  0.
    9000005    1    3    3    0    0 -0.46700866818E+02 -0.35278013908E+02  0.18347721441E+03  0.19258867421E+03  0.10000000000E+01 0.  0.
    9000005    1    3    3    0    0  0.46700866818E+02  0.35278013908E+02  0.80965480929E+02  0.99909550739E+02  0.10000000000E+01 0.  0.
<mgrwt>
<rscale>  0 0.12500109E+03</rscale>
<asrwt>0</asrwt>
<pdfrwt beam="1">  1        4 0.42841606E-01 0.12500109E+03</pdfrwt>
<pdfrwt beam="2">  1       -4 0.21581178E-02 0.12500109E+03</pdfrwt>
<totfact> 0.76547735E+03</totfact>
</mgrwt>
</event>
<event>
 5    1  0.3296424E-002  0.1250021E+03  0.7818608E-02  0.1235066E+00
          4   -1    0    0  501    0  0.00000000000E+00  0.00000000000E+00  0.38575051204E+02  0.38595951542E+02  0.12700000000E+01 0. -1.
         -4   -1    0    0    0  501 -0.00000000000E+00 -0.00000000000E+00 -0.10121471966E+03  0.10122268706E+03  0.12700000000E+01 0. -1.
         25    2    1    2    0    0  0.00000000000E+00  0.00000000000E+00 -0.62639668454E+02  0.13981863860E+03  0.12500209453E+03 0.  0.
    9000005    1    3    3    0    0  0.27872816275E+01  0.59163585193E+01  0.38196703616E+02  0.38765453746E+02  0.10000000000E+01 0.  0.
    9000005    1    3    3    0    0 -0.27872816275E+01 -0.59163585193E+01 -0.10083637207E+03  0.10105318485E+03  0.10000000000E+01 0.  0.
<mgrwt>
<rscale>  0 0.12500209E+03</rscale>
<asrwt>0</asrwt>
<pdfrwt beam="1">  1        4 0.59368439E-02 0.12500209E+03</pdfrwt>
<pdfrwt beam="2">  1       -4 0.15573716E-01 0.12500209E+03</pdfrwt>
<totfact> 0.10136868E+04</totfact>
</mgrwt>
</event>
<event>
 5    1  0.3296424E-002  0.1249918E+03  0.7818608E-02  0.1235082E+00
          4   -1    0    0  501    0  0.00000000000E+00  0.00000000000E+00  0.59999692471E+02  0.60013131868E+02  0.12700000000E+01 0. -1.
         -4   -1    0    0    0  501 -0.00000000000E+00 -0.00000000000E+00 -0.65069018194E+02  0.65081410777E+02  0.12700000000E+01 0. -1.
         25    2    1    2    0    0  0.00000000000E+00  0.00000000000E+00 -0.50693257223E+01  0.12509454264E+03  0.12499178588E+03 0.  0.
    9000005    1    3    3    0    0  0.92811317498E+01  0.60115184004E+02 -0.16855929945E+02  0.63127625717E+02  0.10000000000E+01 0.  0.
    9000005    1    3    3    0    0 -0.92811317498E+01 -0.60115184004E+02  0.11786604223E+02  0.61966916928E+02  0.10000000000E+01 0.  0.
<mgrwt>
<rscale>  0 0.12499179E+03</rscale>
<asrwt>0</asrwt>
<pdfrwt beam="1">  1        4 0.92327090E-02 0.12499179E+03</pdfrwt>
<pdfrwt beam="2">  1       -4 0.10012605E-01 0.12499179E+03</pdfrwt>
<totfact> 0.10452750E+04</totfact>
</mgrwt>
</event>
<event>
 5    1  0.3296424E-002  0.1249989E+03  0.7818608E-02  0.1235071E+00
          4   -1    0    0  501    0  0.00000000000E+00  0.00000000000E+00  0.10087691872E+02  0.10167321541E+02  0.12700000000E+01 0. -1.
         -4   -1    0    0    0  501 -0.00000000000E+00 -0.00000000000E+00 -0.38561968390E+03  0.38562177520E+03  0.12700000000E+01 0. -1.
         25    2    1    2    0    0  0.00000000000E+00  0.00000000000E+00 -0.37553199202E+03  0.39578909674E+03  0.12499892826E+03 0.  0.
    9000005    1    3    3    0    0  0.31600081174E+02  0.53907239376E+02 -0.19027406690E+03  0.20027425227E+03  0.10000000000E+01 0.  0.
    9000005    1    3    3    0    0 -0.31600081174E+02 -0.53907239376E+02 -0.18525792513E+03  0.19551484447E+03  0.10000000000E+01 0.  0.
<mgrwt>
<rscale>  0 0.12499893E+03</rscale>
<asrwt>0</asrwt>
<pdfrwt beam="1">  1        4 0.15582391E-02 0.12499893E+03</pdfrwt>
<pdfrwt beam="2">  1       -4 0.59332380E-01 0.12499893E+03</pdfrwt>
<totfact> 0.64965950E+03</totfact>
</mgrwt>
</event>
<event>
 5    1  0.3296424E-002  0.1249993E+03  0.7818608E-02  0.1235070E+00
          4   -1    0    0  501    0  0.00000000000E+00  0.00000000000E+00  0.10749005806E+02  0.10823771330E+02  0.12700000000E+01 0.  1.
         -4   -1    0    0    0  501 -0.00000000000E+00 -0.00000000000E+00 -0.36206655894E+03  0.36206878629E+03  0.12700000000E+01 0.  1.
         25    2    1    2    0    0  0.00000000000E+00  0.00000000000E+00 -0.35131755314E+03  0.37289255762E+03  0.12499934554E+03 0.  0.
    9000005    1    3    3    0    0 -0.69985690792E+01 -0.61954243550E+02 -0.16303722919E+03  0.17455499525E+03  0.10000000000E+01 0.  0.
    9000005    1    3    3    0    0  0.69985690792E+01  0.61954243550E+02 -0.18828032394E+03  0.19833756237E+03  0.10000000000E+01 0.  0.
<mgrwt>
<rscale>  0 0.12499935E+03</rscale>
<asrwt>0</asrwt>
<pdfrwt beam="1">  1        4 0.16596160E-02 0.12499935E+03</pdfrwt>
<pdfrwt beam="2">  1       -4 0.55708461E-01 0.12499935E+03</pdfrwt>
<totfact> 0.67278381E+03</totfact>
</mgrwt>
</event>
<event>
 5    1  0.3296424E-002  0.1249986E+03  0.7818608E-02  0.1235071E+00
         -4   -1    0    0    0  501 -0.00000000000E+00  0.00000000000E+00  0.12910599034E+03  0.12911223660E+03  0.12700000000E+01 0. -1.
          4   -1    0    0  501    0  0.00000000000E+00 -0.00000000000E+00 -0.30235160742E+02  0.30261821576E+02  0.12700000000E+01 0. -1.
         25    2    1    2    0    0  0.00000000000E+00  0.00000000000E+00  0.98870829593E+02  0.15937405818E+03  0.12499859789E+03 0.  0.
    9000005    1    3    3    0    0  0.46874962390E+02 -0.33462720232E+02  0.80356540349E+02  0.98869557100E+02  0.10000000000E+01 0.  0.
    9000005    1    3    3    0    0 -0.46874962390E+02  0.33462720232E+02  0.18514289245E+02  0.60504501078E+02  0.10000000000E+01 0.  0.
<mgrwt>
<rscale>  0 0.12499860E+03</rscale>
<asrwt>0</asrwt>
<pdfrwt beam="2">  1        4 0.46540945E-02 0.12499860E+03</pdfrwt>
<pdfrwt beam="1">  1       -4 0.19864991E-01 0.12499860E+03</pdfrwt>
<totfact> 0.97466669E+03</totfact>
</mgrwt>
</event>
<event>
 5    1  0.3296424E-002  0.1249946E+03  0.7818608E-02  0.1235078E+00
         -4   -1    0    0    0  501 -0.00000000000E+00  0.00000000000E+00  0.43562493687E+02  0.43581002240E+02  0.12700000000E+01 0. -1.
          4   -1    0    0  501    0  0.00000000000E+00 -0.00000000000E+00 -0.89620259516E+02  0.89629257587E+02  0.12700000000E+01 0. -1.
         25    2    1    2    0    0  0.00000000000E+00  0.00000000000E+00 -0.46057765829E+02  0.13321025983E+03  0.12499462201E+03 0.  0.
    9000005    1    3    3    0    0  0.59992072215E+02  0.97471894563E+01 -0.38504245191E+02  0.71955773421E+02  0.10000000000E+01 0.  0.
    9000005    1    3    3    0    0 -0.59992072215E+02 -0.97471894563E+01 -0.75535206376E+01  0.61254486406E+02  0.10000000000E+01 0.  0.
<mgrwt>
<rscale>  0 0.12499462E+03</rscale>
<asrwt>0</asrwt>
<pdfrwt beam="2">  1        4 0.13789848E-01 0.12499462E+03</pdfrwt>
<pdfrwt beam="1">  1       -4 0.67040380E-02 0.12499462E+03</pdfrwt>
<totfact> 0.10277180E+04</totfact>
</mgrwt>
</event>
<event>
 5    1  0.3296424E-002  0.1249971E+03  0.7818608E-02  0.1235074E+00
         -4   -1    0    0    0  501 -0.00000000000E+00  0.00000000000E+00  0.17069154880E+02  0.17116335715E+02  0.12700000000E+01 0. -1.
          4   -1    0    0  501    0  0.00000000000E+00 -0.00000000000E+00 -0.22847312704E+03  0.22847665675E+03  0.12700000000E+01 0. -1.
         25    2    1    2    0    0  0.00000000000E+00  0.00000000000E+00 -0.21140397216E+03  0.24559299246E+03  0.12499711398E+03 0.  0.
    9000005    1    3    3    0    0 -0.14764720259E+02 -0.79298496902E+01 -0.22398475230E+03  0.22461310902E+03  0.10000000000E+01 0.  0.
    9000005    1    3    3    0    0  0.14764720259E+02  0.79298496902E+01  0.12580780140E+02  0.20979883445E+02  0.10000000000E+01 0.  0.
<mgrwt>
<rscale>  0 0.12499711E+03</rscale>
<asrwt>0</asrwt>
<pdfrwt beam="2">  1        4 0.35153610E-01 0.12499711E+03</pdfrwt>
<pdfrwt beam="1">  1       -4 0.26299248E-02 0.12499711E+03</pdfrwt>
<totfact> 0.82976716E+03</totfact>
</mgrwt>
</event>
<event>
 5    1  0.3296424E-002  0.1249979E+03  0.7818608E-02  0.1235073E+00
         -4   -1    0    0    0  501 -0.00000000000E+00  0.00000000000E+00  0.31232512597E+03  0.31232770804E+03  0.12700000000E+01 0. -1.
          4   -1    0    0  501    0  0.00000000000E+00 -0.00000000000E+00 -0.12471688318E+02  0.12536184009E+02  0.12700000000E+01 0. -1.
         25    2    1    2    0    0  0.00000000000E+00  0.00000000000E+00  0.29985343765E+03  0.32486389205E+03  0.12499785714E+03 0.  0.
    9000005    1    3    3    0    0 -0.53602666431E+02  0.23834182614E+02  0.20589798948E+03  0.21409412925E+03  0.10000000000E+01 0.  0.
    9000005    1    3    3    0    0  0.53602666431E+02 -0.23834182614E+02  0.93955448173E+02  0.11076976280E+03  0.10000000000E+01 0.  0.
<mgrwt>
<rscale>  0 0.12499786E+03</rscale>
<asrwt>0</asrwt>
<pdfrwt beam="2">  1        4 0.19238813E-02 0.12499786E+03</pdfrwt>
<pdfrwt beam="1">  1       -4 0.48055175E-01 0.12499786E+03</pdfrwt>
<totfact> 0.72584789E+03</totfact>
</mgrwt>
</event>
<event>
 5    1  0.3296424E-002  0.1249995E+03  0.7818608E-02  0.1235070E+00
         -4   -1    0    0    0  501 -0.00000000000E+00  0.00000000000E+00  0.94843640165E+02  0.94852142726E+02  0.12700000000E+01 0. -1.
          4   -1    0    0  501    0  0.00000000000E+00 -0.00000000000E+00 -0.41165716641E+02  0.41185302313E+02  0.12700000000E+01 0. -1.
         25    2    1    2    0    0  0.00000000000E+00  0.00000000000E+00  0.53677923524E+02  0.13603744504E+03  0.12499946791E+03 0.  0.
    9000005    1    3    3    0    0  0.47505369085E+02 -0.37356429535E+02  0.95300036064E+01  0.61188919652E+02  0.10000000000E+01 0.  0.
    9000005    1    3    3    0    0 -0.47505369085E+02  0.37356429535E+02  0.44147919917E+02  0.74848525386E+02  0.10000000000E+01 0.  0.
<mgrwt>
<rscale>  0 0.12499947E+03</rscale>
<asrwt>0</asrwt>
<pdfrwt beam="2">  1        4 0.63353478E-02 0.12499947E+03</pdfrwt>
<pdfrwt beam="1">  1       -4 0.14593490E-01 0.12499947E+03</pdfrwt>
<totfact> 0.10216373E+04</totfact>
</mgrwt>
</event>
<event>
 5    1  0.3296424E-002  0.1250006E+03  0.7818608E-02  0.1235068E+00
         -4   -1    0    0    0  501 -0.00000000000E+00  0.00000000000E+00  0.11514117562E+03  0.11514817942E+03  0.12700000000E+01 0. -1.
          4   -1    0    0  501    0  0.00000000000E+00 -0.00000000000E+00 -0.33906164576E+02  0.33929941000E+02  0.12700000000E+01 0. -1.
         25    2    1    2    0    0  0.00000000000E+00  0.00000000000E+00  0.81235011042E+02  0.14907812041E+03  0.12500063587E+03 0.  0.
    9000005    1    3    3    0    0  0.28897358816E+02 -0.12985685114E+02  0.10485976174E+03  0.10954567539E+03  0.10000000000E+01 0.  0.
    9000005    1    3    3    0    0 -0.28897358816E+02  0.12985685114E+02 -0.23624750696E+02  0.39532445027E+02  0.10000000000E+01 0.  0.
<mgrwt>
<rscale>  0 0.12500064E+03</rscale>
<asrwt>0</asrwt>
<pdfrwt beam="2">  1        4 0.52187008E-02 0.12500064E+03</pdfrwt>
<pdfrwt beam="1">  1       -4 0.17716395E-01 0.12500064E+03</pdfrwt>
<totfact> 0.99486355E+03</totfact>
</mgrwt>
</event>
<event>
 5    1  0.3296424E-002  0.1249980E+03  0.7818608E-02  0.1235072E+00
         -4   -1    0    0    0  501 -0.00000000000E+00  0.00000000000E+00  0.17633069239E+03  0.17633526583E+03  0.12700000000E+01 0.  1.
          4   -1    0    0  501    0  0.00000000000E+00 -0.00000000000E+00 -0.22129208998E+02  0.22165621824E+02  0.12700000000E+01 0.  1.
         25    2    1    2    0    0  0.00000000000E+00  0.00000000000E+00  0.15420148339E+03  0.19850088766E+03  0.12499801967E+03 0.  0.
    9000005    1    3    3    0    0 -0.13314505277E+02 -0.57863133319E+02  0.10804529260E+03  0.12328910536E+03  0.10000000000E+01 0.  0.
    9000005    1    3    3    0    0  0.13314505277E+02  0.57863133319E+02  0.46156190792E+02  0.75211782300E+02  0.10000000000E+01 0.  0.
<mgrwt>
<rscale>  0 0.12499802E+03</rscale>
<asrwt>0</asrwt>
<pdfrwt beam="2">  1        4 0.34076464E-02 0.12499802E+03</pdfrwt>
<pdfrwt beam="1">  1       -4 0.27130952E-01 0.12499802E+03</pdfrwt>
<totfact> 0.90392870E+03</totfact>
</mgrwt>
</event>
<event>
 5    1  0.3296424E-002  0.1249808E+03  0.7818608E-02  0.1235099E+00
          4   -1    0    0  501    0  0.00000000000E+00  0.00000000000E+00  0.13051622166E+02  0.13113265847E+02  0.12700000000E+01 0.  1.
         -4   -1    0    0    0  501 -0.00000000000E+00 -0.00000000000E+00 -0.29843248788E+03  0.29843519015E+03  0.12700000000E+01 0.  1.
         25    2    1    2    0    0  0.00000000000E+00  0.00000000000E+00 -0.28538086571E+03  0.31154845600E+03  0.12498080621E+03 0.  0.
    9000005    1    3    3    0    0  0.27693274684E+02 -0.26650895066E+02 -0.19888587048E+02  0.43286759700E+02  0.10000000000E+01 0.  0.
    9000005    1    3    3    0    0 -0.27693274684E+02  0.26650895066E+02 -0.26549227866E+03  0.26826169630E+03  0.10000000000E+01 0.  0.
<mgrwt>
<rscale>  0 0.12498081E+03</rscale>
<asrwt>0</asrwt>
<pdfrwt beam="1">  1        4 0.20128918E-02 0.12498081E+03</pdfrwt>
<pdfrwt beam="2">  1       -4 0.45917635E-01 0.12498081E+03</pdfrwt>
<totfact> 0.74204278E+03</totfact>
</mgrwt>
</event>
<event>
 5    1  0.3296424E-002  0.1250008E+03  0.7818608E-02  0.1235068E+00
         -4   -1    0    0    0  501 -0.00000000000E+00  0.00000000000E+00  0.28452065782E+03  0.28452349222E+03  0.12700000000E+01 0.  1.
          4   -1    0    0  501    0  0.00000000000E+00 -0.00000000000E+00 -0.13697118866E+02  0.13755870210E+02  0.12700000000E+01 0.  1.
         25    2    1    2    0    0  0.00000000000E+00  0.00000000000E+00  0.27082353895E+03  0.29827936243E+03  0.12500075520E+03 0.  0.
    9000005    1    3    3    0    0  0.25581294998E+02 -0.67039466473E+01  0.27052225454E+03  0.27181360481E+03  0.10000000000E+01 0.  0.
    9000005    1    3    3    0    0 -0.25581294998E+02  0.67039466473E+01  0.30128441006E+00  0.26465757626E+02  0.10000000000E+01 0.  0.
<mgrwt>
<rscale>  0 0.12500076E+03</rscale>
<asrwt>0</asrwt>
<pdfrwt beam="2">  1        4 0.21119866E-02 0.12500076E+03</pdfrwt>
<pdfrwt beam="1">  1       -4 0.43777142E-01 0.12500076E+03</pdfrwt>
<totfact> 0.75813911E+03</totfact>
</mgrwt>
</event>
<event>
 5    1  0.3296424E-002  0.1250001E+03  0.7818608E-02  0.1235069E+00
         -4   -1    0    0    0  501 -0.00000000000E+00  0.00000000000E+00  0.98036432587E+01  0.98855612458E+01  0.12700000000E+01 0.  1.
          4   -1    0    0  501    0  0.00000000000E+00 -0.00000000000E+00 -0.39670883636E+03  0.39671086921E+03  0.12700000000E+01 0.  1.
         25    2    1    2    0    0  0.00000000000E+00  0.00000000000E+00 -0.38690519310E+03  0.40659643045E+03  0.12500011523E+03 0.  0.
    9000005    1    3    3    0    0  0.86296344583E+01  0.53803821414E+02 -0.93940451451E+02  0.10860538757E+03  0.10000000000E+01 0.  0.
    9000005    1    3    3    0    0 -0.86296344583E+01 -0.53803821414E+02 -0.29296474165E+03  0.29799104289E+03  0.10000000000E+01 0.  0.
<mgrwt>
<rscale>  0 0.12500012E+03</rscale>
<asrwt>0</asrwt>
<pdfrwt beam="2">  1        4 0.61038574E-01 0.12500012E+03</pdfrwt>
<pdfrwt beam="1">  1       -4 0.15147109E-02 0.12500012E+03</pdfrwt>
<totfact> 0.63916088E+03</totfact>
</mgrwt>
</event>
<event>
 5    1  0.3296424E-002  0.1250003E+03  0.7818608E-02  0.1235069E+00
          4   -1    0    0  501    0  0.00000000000E+00  0.00000000000E+00  0.56356661581E+01  0.57769916951E+01  0.12700000000E+01 0. -1.
         -4   -1    0    0    0  501 -0.00000000000E+00 -0.00000000000E+00 -0.68440796596E+03  0.68440914428E+03  0.12700000000E+01 0. -1.
         25    2    1    2    0    0  0.00000000000E+00  0.00000000000E+00 -0.67877229980E+03  0.69018613597E+03  0.12500026924E+03 0.  0.
    9000005    1    3    3    0    0  0.13023396066E+02  0.58891222582E+02 -0.24908308921E+03  0.25628337884E+03  0.10000000000E+01 0.  0.
    9000005    1    3    3    0    0 -0.13023396066E+02 -0.58891222582E+02 -0.42968921059E+03  0.43390275713E+03  0.10000000000E+01 0.  0.
<mgrwt>
<rscale>  0 0.12500027E+03</rscale>
<asrwt>0</asrwt>
<pdfrwt beam="1">  1        4 0.87798794E-03 0.12500027E+03</pdfrwt>
<pdfrwt beam="2">  1       -4 0.10530443E+00 0.12500027E+03</pdfrwt>
<totfact> 0.43609603E+03</totfact>
</mgrwt>
</event>
<event>
 5    1  0.3296424E-002  0.1250003E+03  0.7818608E-02  0.1235069E+00
         -4   -1    0    0    0  501 -0.00000000000E+00  0.00000000000E+00  0.53419005361E+03  0.53419156328E+03  0.12700000000E+01 0. -1.
          4   -1    0    0  501    0  0.00000000000E+00 -0.00000000000E+00 -0.72558296784E+01  0.73661363225E+01  0.12700000000E+01 0. -1.
         25    2    1    2    0    0  0.00000000000E+00  0.00000000000E+00  0.52693422393E+03  0.54155769960E+03  0.12500026258E+03 0.  0.
    9000005    1    3    3    0    0 -0.51627624272E+02  0.34012036084E+02  0.22398797893E+03  0.23236575671E+03  0.10000000000E+01 0.  0.
    9000005    1    3    3    0    0  0.51627624272E+02 -0.34012036084E+02  0.30294624501E+03  0.30919194289E+03  0.10000000000E+01 0.  0.
<mgrwt>
<rscale>  0 0.12500026E+03</rscale>
<asrwt>0</asrwt>
<pdfrwt beam="2">  1        4 0.11248830E-02 0.12500026E+03</pdfrwt>
<pdfrwt beam="1">  1       -4 0.82191671E-01 0.12500026E+03</pdfrwt>
<totfact> 0.52777967E+03</totfact>
</mgrwt>
</event>
<event>
 5    1  0.3296424E-002  0.1249993E+03  0.7818608E-02  0.1235070E+00
         -4   -1    0    0    0  501 -0.00000000000E+00  0.00000000000E+00  0.57856636106E+02  0.57870573192E+02  0.12700000000E+01 0. -1.
          4   -1    0    0  501    0  0.00000000000E+00 -0.00000000000E+00 -0.67487212547E+02  0.67499161160E+02  0.12700000000E+01 0. -1.
         25    2    1    2    0    0  0.00000000000E+00  0.00000000000E+00 -0.96305764407E+01  0.12536973435E+03  0.12499928915E+03 0.  0.
    9000005    1    3    3    0    0 -0.26439277114E+02 -0.45090135068E+02  0.29536030109E+02  0.60046088377E+02  0.10000000000E+01 0.  0.
    9000005    1    3    3    0    0  0.26439277114E+02  0.45090135068E+02 -0.39166606550E+02  0.65323645975E+02  0.10000000000E+01 0.  0.
<mgrwt>
<rscale>  0 0.12499929E+03</rscale>
<asrwt>0</asrwt>
<pdfrwt beam="2">  1        4 0.10384639E-01 0.12499929E+03</pdfrwt>
<pdfrwt beam="1">  1       -4 0.89030122E-02 0.12499929E+03</pdfrwt>
<totfact> 0.10445005E+04</totfact>
</mgrwt>
</event>
<event>
 5    1  0.3296424E-002  0.1250041E+03  0.7818608E-02  0.1235063E+00
          4   -1    0    0  501    0  0.00000000000E+00  0.00000000000E+00  0.25820274072E+03  0.25820586402E+03  0.12700000000E+01 0.  1.
         -4   -1    0    0    0  501 -0.00000000000E+00 -0.00000000000E+00 -0.15099735107E+02  0.15153049208E+02  0.12700000000E+01 0.  1.
         25    2    1    2    0    0  0.00000000000E+00  0.00000000000E+00  0.24310300561E+03  0.27335891323E+03  0.12500409635E+03 0.  0.
    9000005    1    3    3    0    0  0.12102178051E+02 -0.18560909555E+01 -0.12461999634E+02  0.17498834878E+02  0.10000000000E+01 0.  0.
    9000005    1    3    3    0    0 -0.12102178051E+02  0.18560909555E+01  0.25556500524E+03  0.25586007835E+03  0.10000000000E+01 0.  0.
<mgrwt>
<rscale>  0 0.12500410E+03</rscale>
<asrwt>0</asrwt>
<pdfrwt beam="1">  1        4 0.39727839E-01 0.12500410E+03</pdfrwt>
<pdfrwt beam="2">  1       -4 0.23273776E-02 0.12500410E+03</pdfrwt>
<totfact> 0.79059783E+03</totfact>
</mgrwt>
</event>
<event>
 5    1  0.3296424E-002  0.1250085E+03  0.7818608E-02  0.1235056E+00
          4   -1    0    0  501    0  0.00000000000E+00  0.00000000000E+00  0.26505809546E+02  0.26536217509E+02  0.12700000000E+01 0. -1.
         -4   -1    0    0    0  501 -0.00000000000E+00 -0.00000000000E+00 -0.14727572024E+03  0.14728119593E+03  0.12700000000E+01 0. -1.
         25    2    1    2    0    0  0.00000000000E+00  0.00000000000E+00 -0.12076991070E+03  0.17381741343E+03  0.12500848724E+03 0.  0.
    9000005    1    3    3    0    0  0.47841210084E+02 -0.17535526110E+02 -0.10068821205E+02  0.51948601701E+02  0.10000000000E+01 0.  0.
    9000005    1    3    3    0    0 -0.47841210084E+02  0.17535526110E+02 -0.11070108949E+03  0.12186881173E+03  0.10000000000E+01 0.  0.
<mgrwt>
<rscale>  0 0.12500849E+03</rscale>
<asrwt>0</asrwt>
<pdfrwt beam="1">  1        4 0.40805772E-02 0.12500849E+03</pdfrwt>
<pdfrwt beam="2">  1       -4 0.22660563E-01 0.12500849E+03</pdfrwt>
<totfact> 0.94723837E+03</totfact>
</mgrwt>
</event>
<event>
 5    1  0.3296424E-002  0.1250002E+03  0.7818608E-02  0.1235069E+00
          4   -1    0    0  501    0  0.00000000000E+00  0.00000000000E+00  0.23016081660E+01  0.26287449762E+01  0.12700000000E+01 0.  1.
         -4   -1    0    0    0  501 -0.00000000000E+00 -0.00000000000E+00 -0.15842501061E+04  0.15842506151E+04  0.12700000000E+01 0.  1.
         25    2    1    2    0    0  0.00000000000E+00  0.00000000000E+00 -0.15819484979E+04  0.15868793601E+04  0.12500021381E+03 0.  0.
    9000005    1    3    3    0    0 -0.30762362132E+02 -0.53908412778E+02 -0.69870720143E+03  0.70145933113E+03  0.10000000000E+01 0.  0.
    9000005    1    3    3    0    0  0.30762362132E+02  0.53908412778E+02 -0.88324129648E+03  0.88542002897E+03  0.10000000000E+01 0.  0.
<mgrwt>
<rscale>  0 0.12500021E+03</rscale>
<asrwt>0</asrwt>
<pdfrwt beam="1">  1        4 0.37929836E-03 0.12500021E+03</pdfrwt>
<pdfrwt beam="2">  1       -4 0.24375518E+00 0.12500021E+03</pdfrwt>
<totfact> 0.16284392E+03</totfact>
</mgrwt>
</event>
<event>
 5    1  0.3296424E-002  0.1249954E+03  0.7818608E-02  0.1235076E+00
          4   -1    0    0  501    0  0.00000000000E+00  0.00000000000E+00  0.71004387485E+01  0.72131220995E+01  0.12700000000E+01 0. -1.
         -4   -1    0    0    0  501 -0.00000000000E+00 -0.00000000000E+00 -0.54565749714E+03  0.54565897508E+03  0.12700000000E+01 0. -1.
         25    2    1    2    0    0  0.00000000000E+00  0.00000000000E+00 -0.53855705839E+03  0.55287209717E+03  0.12499540270E+03 0.  0.
    9000005    1    3    3    0    0 -0.17072175371E+02  0.35054253074E+02 -0.48527555288E+03  0.48684044825E+03  0.10000000000E+01 0.  0.
    9000005    1    3    3    0    0  0.17072175371E+02 -0.35054253074E+02 -0.53281505508E+02  0.66031648925E+02  0.10000000000E+01 0.  0.
<mgrwt>
<rscale>  0 0.12499540E+03</rscale>
<asrwt>0</asrwt>
<pdfrwt beam="1">  1        4 0.11011573E-02 0.12499540E+03</pdfrwt>
<pdfrwt beam="2">  1       -4 0.83956056E-01 0.12499540E+03</pdfrwt>
<totfact> 0.51989589E+03</totfact>
</mgrwt>
</event>
<event>
 5    1  0.3296424E-002  0.1249992E+03  0.7818608E-02  0.1235070E+00
         -4   -1    0    0    0  501 -0.00000000000E+00  0.00000000000E+00  0.26286193493E+01  0.29193389121E+01  0.12700000000E+01 0.  1.
          4   -1    0    0  501    0  0.00000000000E+00 -0.00000000000E+00 -0.14078676413E+04  0.14078682141E+04  0.12700000000E+01 0.  1.
         25    2    1    2    0    0  0.00000000000E+00  0.00000000000E+00 -0.14052390219E+04  0.14107875530E+04  0.12499924387E+03 0.  0.
    9000005    1    3    3    0    0  0.37310651254E+01  0.38394569271E+01 -0.14053299324E+04  0.14053404858E+04  0.10000000000E+01 0.  0.
    9000005    1    3    3    0    0 -0.37310651254E+01 -0.38394569271E+01  0.90910417429E-01  0.54470672080E+01  0.10000000000E+01 0.  0.
<mgrwt>
<rscale>  0 0.12499924E+03</rscale>
<asrwt>0</asrwt>
<pdfrwt beam="2">  1        4 0.21661686E+00 0.12499924E+03</pdfrwt>
<pdfrwt beam="1">  1       -4 0.42681121E-03 0.12499924E+03</pdfrwt>
<totfact> 0.19751011E+03</totfact>
</mgrwt>
</event>
<event>
 5    1  0.3296424E-002  0.1249936E+03  0.7818608E-02  0.1235079E+00
          4   -1    0    0  501    0  0.00000000000E+00  0.00000000000E+00  0.61946218912E+02  0.61959236095E+02  0.12700000000E+01 0. -1.
         -4   -1    0    0    0  501 -0.00000000000E+00 -0.00000000000E+00 -0.63026207482E+02  0.63039001654E+02  0.12700000000E+01 0. -1.
         25    2    1    2    0    0  0.00000000000E+00  0.00000000000E+00 -0.10799885704E+01  0.12499823775E+03  0.12499357209E+03 0.  0.
    9000005    1    3    3    0    0  0.26170027241E+02  0.42697540014E+02  0.36836499714E+02  0.62176184831E+02  0.10000000000E+01 0.  0.
    9000005    1    3    3    0    0 -0.26170027241E+02 -0.42697540014E+02 -0.37916488284E+02  0.62822052918E+02  0.10000000000E+01 0.  0.
<mgrwt>
<rscale>  0 0.12499357E+03</rscale>
<asrwt>0</asrwt>
<pdfrwt beam="1">  1        4 0.95321731E-02 0.12499357E+03</pdfrwt>
<pdfrwt beam="2">  1       -4 0.96983250E-02 0.12499357E+03</pdfrwt>
<totfact> 0.10454419E+04</totfact>
</mgrwt>
</event>
<event>
 5    1  0.3296424E-002  0.1249996E+03  0.7818608E-02  0.1235070E+00
          4   -1    0    0  501    0  0.00000000000E+00  0.00000000000E+00  0.34896971203E+03  0.34897202297E+03  0.12700000000E+01 0.  1.
         -4   -1    0    0    0  501 -0.00000000000E+00 -0.00000000000E+00 -0.11155206131E+02  0.11227266979E+02  0.12700000000E+01 0.  1.
         25    2    1    2    0    0  0.00000000000E+00  0.00000000000E+00  0.33781450590E+03  0.36019928995E+03  0.12499955233E+03 0.  0.
    9000005    1    3    3    0    0  0.27678573921E+02  0.55711255231E+02  0.15176846101E+03  0.16402595273E+03  0.10000000000E+01 0.  0.
    9000005    1    3    3    0    0 -0.27678573921E+02 -0.55711255231E+02  0.18604604490E+03  0.19617333722E+03  0.10000000000E+01 0.  0.
<mgrwt>
<rscale>  0 0.12499955E+03</rscale>
<asrwt>0</asrwt>
<pdfrwt beam="1">  1        4 0.53693369E-01 0.12499955E+03</pdfrwt>
<pdfrwt beam="2">  1       -4 0.17219065E-02 0.12499955E+03</pdfrwt>
<totfact> 0.68617571E+03</totfact>
</mgrwt>
</event>
<event>
 5    1  0.3296424E-002  0.1249970E+03  0.7818608E-02  0.1235074E+00
          4   -1    0    0  501    0  0.00000000000E+00  0.00000000000E+00  0.23288354720E+01  0.26526165678E+01  0.12700000000E+01 0. -1.
         -4   -1    0    0    0  501 -0.00000000000E+00 -0.00000000000E+00 -0.15679177448E+04  0.15679182592E+04  0.12700000000E+01 0. -1.
         25    2    1    2    0    0  0.00000000000E+00  0.00000000000E+00 -0.15655889094E+04  0.15705708757E+04  0.12499697046E+03 0.  0.
    9000005    1    3    3    0    0 -0.18864220069E+02 -0.32364914375E+02 -0.15433553111E+03  0.15882003225E+03  0.10000000000E+01 0.  0.
    9000005    1    3    3    0    0  0.18864220069E+02  0.32364914375E+02 -0.14112533783E+04  0.14117508435E+04  0.10000000000E+01 0.  0.
<mgrwt>
<rscale>  0 0.12499697E+03</rscale>
<asrwt>0</asrwt>
<pdfrwt beam="1">  1        4 0.38322944E-03 0.12499697E+03</pdfrwt>
<pdfrwt beam="2">  1       -4 0.24124227E+00 0.12499697E+03</pdfrwt>
<totfact> 0.16585353E+03</totfact>
</mgrwt>
</event>
<event>
 5    1  0.3296424E-002  0.1249984E+03  0.7818608E-02  0.1235072E+00
          4   -1    0    0  501    0  0.00000000000E+00  0.00000000000E+00  0.53350934032E+03  0.53351085192E+03  0.12700000000E+01 0.  1.
         -4   -1    0    0    0  501 -0.00000000000E+00 -0.00000000000E+00 -0.72650070092E+01  0.73751763941E+01  0.12700000000E+01 0.  1.
         25    2    1    2    0    0  0.00000000000E+00  0.00000000000E+00  0.52624433332E+03  0.54088602831E+03  0.12499838909E+03 0.  0.
    9000005    1    3    3    0    0  0.31981010594E+02  0.39590892376E+02  0.42003263710E+03  0.42310594421E+03  0.10000000000E+01 0.  0.
    9000005    1    3    3    0    0 -0.31981010594E+02 -0.39590892376E+02  0.10621169622E+03  0.11778008410E+03  0.10000000000E+01 0.  0.
<mgrwt>
<rscale>  0 0.12499839E+03</rscale>
<asrwt>0</asrwt>
<pdfrwt beam="1">  1        4 0.82086962E-01 0.12499839E+03</pdfrwt>
<pdfrwt beam="2">  1       -4 0.11262841E-02 0.12499839E+03</pdfrwt>
<totfact> 0.52827897E+03</totfact>
</mgrwt>
</event>
<event>
 5    1  0.3296424E-002  0.1249984E+03  0.7818608E-02  0.1235072E+00
          4   -1    0    0  501    0  0.00000000000E+00  0.00000000000E+00  0.17719640989E+02  0.17765094336E+02  0.12700000000E+01 0. -1.
         -4   -1    0    0    0  501 -0.00000000000E+00 -0.00000000000E+00 -0.22011223838E+03  0.22011590216E+03  0.12700000000E+01 0. -1.
         25    2    1    2    0    0  0.00000000000E+00  0.00000000000E+00 -0.20239259739E+03  0.23788099650E+03  0.12499842006E+03 0.  0.
    9000005    1    3    3    0    0  0.89871230828E+01  0.54847849890E+02 -0.46830482482E+02  0.72685274357E+02  0.10000000000E+01 0.  0.
    9000005    1    3    3    0    0 -0.89871230828E+01 -0.54847849890E+02 -0.15556211491E+03  0.16519572214E+03  0.10000000000E+01 0.  0.
<mgrwt>
<rscale>  0 0.12499842E+03</rscale>
<asrwt>0</asrwt>
<pdfrwt beam="1">  1        4 0.27298770E-02 0.12499842E+03</pdfrwt>
<pdfrwt beam="2">  1       -4 0.33867197E-01 0.12499842E+03</pdfrwt>
<totfact> 0.84116935E+03</totfact>
</mgrwt>
</event>
<event>
 5    1  0.3296424E-002  0.1249981E+03  0.7818608E-02  0.1235072E+00
          4   -1    0    0  501    0  0.00000000000E+00  0.00000000000E+00  0.86921025209E+01  0.87843921949E+01  0.12700000000E+01 0. -1.
         -4   -1    0    0    0  501 -0.00000000000E+00 -0.00000000000E+00 -0.44692248664E+03  0.44692429108E+03  0.12700000000E+01 0. -1.
         25    2    1    2    0    0  0.00000000000E+00  0.00000000000E+00 -0.43823038412E+03  0.45570868328E+03  0.12499813780E+03 0.  0.
    9000005    1    3    3    0    0 -0.13142746356E+02 -0.56583779194E+02 -0.13513067947E+03  0.14709097995E+03  0.10000000000E+01 0.  0.
    9000005    1    3    3    0    0  0.13142746356E+02  0.56583779194E+02 -0.30309970465E+03  0.30861770333E+03  0.10000000000E+01 0.  0.
<mgrwt>
<rscale>  0 0.12499814E+03</rscale>
<asrwt>0</asrwt>
<pdfrwt beam="1">  1        4 0.13444849E-02 0.12499814E+03</pdfrwt>
<pdfrwt beam="2">  1       -4 0.68764526E-01 0.12499814E+03</pdfrwt>
<totfact> 0.59474870E+03</totfact>
</mgrwt>
</event>
<event>
 5    1  0.3296424E-002  0.1249971E+03  0.7818608E-02  0.1235074E+00
         -4   -1    0    0    0  501 -0.00000000000E+00  0.00000000000E+00  0.22283482891E+01  0.25648462133E+01  0.12700000000E+01 0.  1.
          4   -1    0    0  501    0  0.00000000000E+00 -0.00000000000E+00 -0.16295021520E+04  0.16295026469E+04  0.12700000000E+01 0.  1.
         25    2    1    2    0    0  0.00000000000E+00  0.00000000000E+00 -0.16272738037E+04  0.16320674931E+04  0.12499707937E+03 0.  0.
    9000005    1    3    3    0    0  0.34769752585E+02  0.21397321601E+02 -0.14313631801E+04  0.14319456465E+04  0.10000000000E+01 0.  0.
    9000005    1    3    3    0    0 -0.34769752585E+02 -0.21397321601E+02 -0.19591062355E+03  0.20012184660E+03  0.10000000000E+01 0.  0.
<mgrwt>
<rscale>  0 0.12499708E+03</rscale>
<asrwt>0</asrwt>
<pdfrwt beam="2">  1        4 0.25071768E+00 0.12499708E+03</pdfrwt>
<pdfrwt beam="1">  1       -4 0.36874664E-03 0.12499708E+03</pdfrwt>
<totfact> 0.15474483E+03</totfact>
</mgrwt>
</event>
<event>
 5    1  0.3296424E-002  0.1249465E+03  0.7818608E-02  0.1235153E+00
          4   -1    0    0  501    0  0.00000000000E+00  0.00000000000E+00  0.27761907320E+03  0.27762197806E+03  0.12700000000E+01 0. -1.
         -4   -1    0    0    0  501 -0.00000000000E+00 -0.00000000000E+00 -0.14026819438E+02  0.14084195524E+02  0.12700000000E+01 0. -1.
         25    2    1    2    0    0  0.00000000000E+00  0.00000000000E+00  0.26359225376E+03  0.29170617359E+03  0.12494645040E+03 0.  0.
    9000005    1    3    3    0    0  0.98996098956E+01  0.50525007860E+02  0.21437559448E+03  0.22047374947E+03  0.10000000000E+01 0.  0.
    9000005    1    3    3    0    0 -0.98996098956E+01 -0.50525007860E+02  0.49216659281E+02  0.71232424120E+02  0.10000000000E+01 0.  0.
<mgrwt>
<rscale>  0 0.12494645E+03</rscale>
<asrwt>0</asrwt>
<pdfrwt beam="1">  1        4 0.42715266E-01 0.12494645E+03</pdfrwt>
<pdfrwt beam="2">  1       -4 0.21626091E-02 0.12494645E+03</pdfrwt>
<totfact> 0.76742356E+03</totfact>
</mgrwt>
</event>
<event>
 5    1  0.3296424E-002  0.1249995E+03  0.7818608E-02  0.1235070E+00
          4   -1    0    0  501    0  0.00000000000E+00  0.00000000000E+00  0.15471102781E+04  0.15471107993E+04  0.12700000000E+01 0. -1.
         -4   -1    0    0    0  501 -0.00000000000E+00 -0.00000000000E+00 -0.23645904625E+01  0.26840618576E+01  0.12700000000E+01 0. -1.
         25    2    1    2    0    0  0.00000000000E+00  0.00000000000E+00  0.15447456876E+04  0.15497948612E+04  0.12499948955E+03 0.  0.
    9000005    1    3    3    0    0 -0.33206546712E+02 -0.20222392527E+02  0.13789577524E+04  0.13795061083E+04  0.10000000000E+01 0.  0.
    9000005    1    3    3    0    0  0.33206546712E+02  0.20222392527E+02  0.16578793522E+03  0.17028875292E+03  0.10000000000E+01 0.  0.
<mgrwt>
<rscale>  0 0.12499949E+03</rscale>
<asrwt>0</asrwt>
<pdfrwt beam="1">  1        4 0.23804130E+00 0.12499949E+03</pdfrwt>
<pdfrwt beam="2">  1       -4 0.38839842E-03 0.12499949E+03</pdfrwt>
<totfact> 0.16972319E+03</totfact>
</mgrwt>
</event>
<event>
 5    1  0.3296424E-002  0.1250060E+03  0.7818608E-02  0.1235060E+00
         -4   -1    0    0    0  501 -0.00000000000E+00  0.00000000000E+00  0.20945970637E+02  0.20984436755E+02  0.12700000000E+01 0.  1.
          4   -1    0    0  501    0  0.00000000000E+00 -0.00000000000E+00 -0.18629774057E+03  0.18630206935E+03  0.12700000000E+01 0.  1.
         25    2    1    2    0    0  0.00000000000E+00  0.00000000000E+00 -0.16535176994E+03  0.20728650610E+03  0.12500595102E+03 0.  0.
    9000005    1    3    3    0    0 -0.29712022441E+02 -0.15270061163E+02  0.49060729342E+01  0.33779410845E+02  0.10000000000E+01 0.  0.
    9000005    1    3    3    0    0  0.29712022441E+02  0.15270061163E+02 -0.17025784287E+03  0.17350709526E+03  0.10000000000E+01 0.  0.
<mgrwt>
<rscale>  0 0.12500595E+03</rscale>
<asrwt>0</asrwt>
<pdfrwt beam="2">  1        4 0.28664482E-01 0.12500595E+03</pdfrwt>
<pdfrwt beam="1">  1       -4 0.32257491E-02 0.12500595E+03</pdfrwt>
<totfact> 0.88909124E+03</totfact>
</mgrwt>
</event>
<event>
 5    1  0.3296424E-002  0.1249892E+03  0.7818608E-02  0.1235086E+00
         -4   -1    0    0    0  501 -0.00000000000E+00  0.00000000000E+00  0.76956622871E+02  0.76967101438E+02  0.12700000000E+01 0.  1.
          4   -1    0    0  501    0  0.00000000000E+00 -0.00000000000E+00 -0.50728453736E+02  0.50744348635E+02  0.12700000000E+01 0.  1.
         25    2    1    2    0    0  0.00000000000E+00  0.00000000000E+00  0.26228169136E+02  0.12771145007E+03  0.12498919003E+03 0.  0.
    9000005    1    3    3    0    0 -0.16160444818E+02  0.21765166591E+02  0.70640314252E+02  0.75669917742E+02  0.10000000000E+01 0.  0.
    9000005    1    3    3    0    0  0.16160444818E+02 -0.21765166591E+02 -0.44412145117E+02  0.52041532331E+02  0.10000000000E+01 0.  0.
<mgrwt>
<rscale>  0 0.12498919E+03</rscale>
<asrwt>0</asrwt>
<pdfrwt beam="2">  1        4 0.78064063E-02 0.12498919E+03</pdfrwt>
<pdfrwt beam="1">  1       -4 0.11841509E-01 0.12498919E+03</pdfrwt>
<totfact> 0.10396261E+04</totfact>
</mgrwt>
</event>
<event>
 5    1  0.3296424E-002  0.1250035E+03  0.7818608E-02  0.1235064E+00
          4   -1    0    0  501    0  0.00000000000E+00  0.00000000000E+00  0.22583057520E+03  0.22583414621E+03  0.12700000000E+01 0. -1.
         -4   -1    0    0    0  501 -0.00000000000E+00 -0.00000000000E+00 -0.17271196864E+02  0.17317827263E+02  0.12700000000E+01 0. -1.
         25    2    1    2    0    0  0.00000000000E+00  0.00000000000E+00  0.20855937834E+03  0.24315197348E+03  0.12500347160E+03 0.  0.
    9000005    1    3    3    0    0 -0.93331596605E+01  0.14541513996E+02  0.22110124469E+03  0.22177764518E+03  0.10000000000E+01 0.  0.
    9000005    1    3    3    0    0  0.93331596605E+01 -0.14541513996E+02 -0.12541866352E+02  0.21374328297E+02  0.10000000000E+01 0.  0.
<mgrwt>
<rscale>  0 0.12500347E+03</rscale>
<asrwt>0</asrwt>
<pdfrwt beam="1">  1        4 0.34747027E-01 0.12500347E+03</pdfrwt>
<pdfrwt beam="2">  1       -4 0.26609689E-02 0.12500347E+03</pdfrwt>
<totfact> 0.83323717E+03</totfact>
</mgrwt>
</event>
<event>
 5    1  0.3296424E-002  0.1250047E+03  0.7818608E-02  0.1235062E+00
         -4   -1    0    0    0  501 -0.00000000000E+00  0.00000000000E+00  0.12710773289E+03  0.12711407735E+03  0.12700000000E+01 0. -1.
          4   -1    0    0  501    0  0.00000000000E+00 -0.00000000000E+00 -0.30713881788E+02  0.30740127431E+02  0.12700000000E+01 0. -1.
         25    2    1    2    0    0  0.00000000000E+00  0.00000000000E+00  0.96393851105E+02  0.15785420478E+03  0.12500470166E+03 0.  0.
    9000005    1    3    3    0    0 -0.54176735517E+02 -0.30527611813E+02  0.56031300539E+02  0.83711172459E+02  0.10000000000E+01 0.  0.
    9000005    1    3    3    0    0  0.54176735517E+02  0.30527611813E+02  0.40362550566E+02  0.74143032326E+02  0.10000000000E+01 0.  0.
<mgrwt>
<rscale>  0 0.12500470E+03</rscale>
<asrwt>0</asrwt>
<pdfrwt beam="2">  1        4 0.47277195E-02 0.12500470E+03</pdfrwt>
<pdfrwt beam="1">  1       -4 0.19557543E-01 0.12500470E+03</pdfrwt>
<totfact> 0.97747746E+03</totfact>
</mgrwt>
</event>
<event>
 5    1  0.3296424E-002  0.1249990E+03  0.7818608E-02  0.1235071E+00
          4   -1    0    0  501    0  0.00000000000E+00  0.00000000000E+00  0.13371746944E+03  0.13372350030E+03  0.12700000000E+01 0.  1.
         -4   -1    0    0    0  501 -0.00000000000E+00 -0.00000000000E+00 -0.29191771950E+02  0.29219384826E+02  0.12700000000E+01 0.  1.
         25    2    1    2    0    0  0.00000000000E+00  0.00000000000E+00  0.10452569749E+03  0.16294288513E+03  0.12499904951E+03 0.  0.
    9000005    1    3    3    0    0 -0.21668777250E+02  0.35276762677E+02 -0.87568651153E+01  0.42328106255E+02  0.10000000000E+01 0.  0.
    9000005    1    3    3    0    0  0.21668777250E+02 -0.35276762677E+02  0.11328256260E+03  0.12061477887E+03  0.10000000000E+01 0.  0.
<mgrwt>
<rscale>  0 0.12499905E+03</rscale>
<asrwt>0</asrwt>
<pdfrwt beam="1">  1        4 0.20574507E-01 0.12499905E+03</pdfrwt>
<pdfrwt beam="2">  1       -4 0.44936298E-02 0.12499905E+03</pdfrwt>
<totfact> 0.96780468E+03</totfact>
</mgrwt>
</event>
<event>
 5    1  0.3296424E-002  0.1249977E+03  0.7818608E-02  0.1235073E+00
          4   -1    0    0  501    0  0.00000000000E+00  0.00000000000E+00  0.40635597218E+03  0.40635795676E+03  0.12700000000E+01 0. -1.
         -4   -1    0    0    0  501 -0.00000000000E+00 -0.00000000000E+00 -0.95685524411E+01  0.96524657896E+01  0.12700000000E+01 0. -1.
         25    2    1    2    0    0  0.00000000000E+00  0.00000000000E+00  0.39678741974E+03  0.41601042255E+03  0.12499766082E+03 0.  0.
    9000005    1    3    3    0    0 -0.33771946693E+02  0.24036021361E+01  0.37320159820E+03  0.37473557956E+03  0.10000000000E+01 0.  0.
    9000005    1    3    3    0    0  0.33771946693E+02 -0.24036021361E+01  0.23585821535E+02  0.41274842994E+02  0.10000000000E+01 0.  0.
<mgrwt>
<rscale>  0 0.12499766E+03</rscale>
<asrwt>0</asrwt>
<pdfrwt beam="1">  1        4 0.62522921E-01 0.12499766E+03</pdfrwt>
<pdfrwt beam="2">  1       -4 0.14786923E-02 0.12499766E+03</pdfrwt>
<totfact> 0.63028107E+03</totfact>
</mgrwt>
</event>
<event>
 5    1  0.3296424E-002  0.1250012E+03  0.7818608E-02  0.1235067E+00
          4   -1    0    0  501    0  0.00000000000E+00  0.00000000000E+00  0.10872291125E+03  0.10873032848E+03  0.12700000000E+01 0. -1.
         -4   -1    0    0    0  501 -0.00000000000E+00 -0.00000000000E+00 -0.35909326867E+02  0.35931777802E+02  0.12700000000E+01 0. -1.
         25    2    1    2    0    0  0.00000000000E+00  0.00000000000E+00  0.72813584387E+02  0.14466210628E+03  0.12500122769E+03 0.  0.
    9000005    1    3    3    0    0  0.19470176550E+02 -0.25079812551E+02 -0.25885295854E+02  0.40977229212E+02  0.10000000000E+01 0.  0.
    9000005    1    3    3    0    0 -0.19470176550E+02  0.25079812551E+02  0.98698880240E+02  0.10368487707E+03  0.10000000000E+01 0.  0.
<mgrwt>
<rscale>  0 0.12500123E+03</rscale>
<asrwt>0</asrwt>
<pdfrwt beam="1">  1        4 0.16728899E-01 0.12500123E+03</pdfrwt>
<pdfrwt beam="2">  1       -4 0.55268094E-02 0.12500123E+03</pdfrwt>
<totfact> 0.10037581E+04</totfact>
</mgrwt>
</event>
<event>
 5    1  0.3296424E-002  0.1250051E+03  0.7818608E-02  0.1235061E+00
         -4   -1    0    0    0  501 -0.00000000000E+00  0.00000000000E+00  0.84769098676E+03  0.84769193811E+03  0.12700000000E+01 0.  1.
          4   -1    0    0  501    0  0.00000000000E+00 -0.00000000000E+00 -0.45200139597E+01  0.46950427257E+01  0.12700000000E+01 0.  1.
         25    2    1    2    0    0  0.00000000000E+00  0.00000000000E+00  0.84317097280E+03  0.85238698084E+03  0.12500510279E+03 0.  0.
    9000005    1    3    3    0    0  0.37177031290E+02 -0.45425029787E+02  0.56783345550E+03  0.57086022647E+03  0.10000000000E+01 0.  0.
    9000005    1    3    3    0    0 -0.37177031290E+02  0.45425029787E+02  0.27533751730E+03  0.28152675436E+03  0.10000000000E+01 0.  0.
<mgrwt>
<rscale>  0 0.12500510E+03</rscale>
<asrwt>0</asrwt>
<pdfrwt beam="2">  1        4 0.70892375E-03 0.12500510E+03</pdfrwt>
<pdfrwt beam="1">  1       -4 0.13042752E+00 0.12500510E+03</pdfrwt>
<totfact> 0.36025831E+03</totfact>
</mgrwt>
</event>
<event>
 5    1  0.3296424E-002  0.1250020E+03  0.7818608E-02  0.1235066E+00
          4   -1    0    0  501    0  0.00000000000E+00  0.00000000000E+00  0.10949680423E+02  0.11023084929E+02  0.12700000000E+01 0. -1.
         -4   -1    0    0    0  501 -0.00000000000E+00 -0.00000000000E+00 -0.35549080210E+03  0.35549307065E+03  0.12700000000E+01 0. -1.
         25    2    1    2    0    0  0.00000000000E+00  0.00000000000E+00 -0.34454112168E+03  0.36651615557E+03  0.12500203107E+03 0.  0.
    9000005    1    3    3    0    0 -0.33888685168E+02  0.33853598526E+02 -0.54589653877E+02  0.72632908699E+02  0.10000000000E+01 0.  0.
    9000005    1    3    3    0    0  0.33888685168E+02 -0.33853598526E+02 -0.28995146780E+03  0.29388324688E+03  0.10000000000E+01 0.  0.
<mgrwt>
<rscale>  0 0.12500203E+03</rscale>
<asrwt>0</asrwt>
<pdfrwt beam="1">  1        4 0.16903875E-02 0.12500203E+03</pdfrwt>
<pdfrwt beam="2">  1       -4 0.54696705E-01 0.12500203E+03</pdfrwt>
<totfact> 0.67941947E+03</totfact>
</mgrwt>
</event>
<event>
 5    1  0.3296424E-002  0.1249990E+03  0.7818608E-02  0.1235071E+00
         -4   -1    0    0    0  501 -0.00000000000E+00  0.00000000000E+00  0.14216681798E+02  0.14273294692E+02  0.12700000000E+01 0. -1.
          4   -1    0    0  501    0  0.00000000000E+00 -0.00000000000E+00 -0.27415676205E+03  0.27415970360E+03  0.12700000000E+01 0. -1.
         25    2    1    2    0    0  0.00000000000E+00  0.00000000000E+00 -0.25994008025E+03  0.28843299829E+03  0.12499899672E+03 0.  0.
    9000005    1    3    3    0    0 -0.30904694374E+02  0.49548034655E+02 -0.18131240341E+03  0.19048699562E+03  0.10000000000E+01 0.  0.
    9000005    1    3    3    0    0  0.30904694374E+02 -0.49548034655E+02 -0.78627676843E+02  0.97946002666E+02  0.10000000000E+01 0.  0.
<mgrwt>
<rscale>  0 0.12499900E+03</rscale>
<asrwt>0</asrwt>
<pdfrwt beam="2">  1        4 0.42182541E-01 0.12499900E+03</pdfrwt>
<pdfrwt beam="1">  1       -4 0.21917631E-02 0.12499900E+03</pdfrwt>
<totfact> 0.77074794E+03</totfact>
</mgrwt>
</event>
<event>
 5    1  0.3296424E-002  0.1249975E+03  0.7818608E-02  0.1235073E+00
         -4   -1    0    0    0  501 -0.00000000000E+00  0.00000000000E+00  0.11661085208E+03  0.11661776762E+03  0.12700000000E+01 0.  1.
          4   -1    0    0  501    0  0.00000000000E+00 -0.00000000000E+00 -0.33476875924E+02  0.33500957026E+02  0.12700000000E+01 0.  1.
         25    2    1    2    0    0  0.00000000000E+00  0.00000000000E+00  0.83133976161E+02  0.15011872464E+03  0.12499749396E+03 0.  0.
    9000005    1    3    3    0    0  0.41725715605E+02  0.46513535538E+02  0.42456878890E+02  0.75552173338E+02  0.10000000000E+01 0.  0.
    9000005    1    3    3    0    0 -0.41725715605E+02 -0.46513535538E+02  0.40677097271E+02  0.74566551304E+02  0.10000000000E+01 0.  0.
<mgrwt>
<rscale>  0 0.12499749E+03</rscale>
<asrwt>0</asrwt>
<pdfrwt beam="2">  1        4 0.51526729E-02 0.12499749E+03</pdfrwt>
<pdfrwt beam="1">  1       -4 0.17942516E-01 0.12499749E+03</pdfrwt>
<totfact> 0.99285637E+03</totfact>
</mgrwt>
</event>
<event>
 5    1  0.3296424E-002  0.1250025E+03  0.7818608E-02  0.1235065E+00
         -4   -1    0    0    0  501 -0.00000000000E+00  0.00000000000E+00  0.29607126122E+02  0.29634351979E+02  0.12700000000E+01 0.  1.
          4   -1    0    0  501    0  0.00000000000E+00 -0.00000000000E+00 -0.13185053233E+03  0.13185664858E+03  0.12700000000E+01 0.  1.
         25    2    1    2    0    0  0.00000000000E+00  0.00000000000E+00 -0.10224340621E+03  0.16149100056E+03  0.12500251657E+03 0.  0.
    9000005    1    3    3    0    0  0.22305958028E+02  0.18971724258E+01 -0.12649897866E+03  0.12846846550E+03  0.10000000000E+01 0.  0.
    9000005    1    3    3    0    0 -0.22305958028E+02 -0.18971724258E+01  0.24255572452E+02  0.33022535059E+02  0.10000000000E+01 0.  0.
<mgrwt>
<rscale>  0 0.12500252E+03</rscale>
<asrwt>0</asrwt>
<pdfrwt beam="2">  1        4 0.20287262E-01 0.12500252E+03</pdfrwt>
<pdfrwt beam="1">  1       -4 0.45575073E-02 0.12500252E+03</pdfrwt>
<totfact> 0.97050611E+03</totfact>
</mgrwt>
</event>
<event>
 5    1  0.3296424E-002  0.1249896E+03  0.7818608E-02  0.1235086E+00
          4   -1    0    0  501    0  0.00000000000E+00  0.00000000000E+00  0.15423077982E+02  0.15475278170E+02  0.12700000000E+01 0.  1.
         -4   -1    0    0    0  501 -0.00000000000E+00 -0.00000000000E+00 -0.25274929682E+03  0.25275248751E+03  0.12700000000E+01 0.  1.
         25    2    1    2    0    0  0.00000000000E+00  0.00000000000E+00 -0.23732621884E+03  0.26822776568E+03  0.12498960011E+03 0.  0.
    9000005    1    3    3    0    0 -0.34849575356E+02  0.50967304609E+02 -0.98030120155E+02  0.11585794534E+03  0.10000000000E+01 0.  0.
    9000005    1    3    3    0    0  0.34849575356E+02 -0.50967304609E+02 -0.13929609868E+03  0.15236982034E+03  0.10000000000E+01 0.  0.
<mgrwt>
<rscale>  0 0.12498960E+03</rscale>
<asrwt>0</asrwt>
<pdfrwt beam="1">  1        4 0.23770423E-02 0.12498960E+03</pdfrwt>
<pdfrwt beam="2">  1       -4 0.38888765E-01 0.12498960E+03</pdfrwt>
<totfact> 0.79783558E+03</totfact>
</mgrwt>
</event>
<event>
 5    1  0.3296424E-002  0.1249984E+03  0.7818608E-02  0.1235072E+00
         -4   -1    0    0    0  501 -0.00000000000E+00  0.00000000000E+00  0.18652668831E+03  0.18653101177E+03  0.12700000000E+01 0. -1.
          4   -1    0    0  501    0  0.00000000000E+00 -0.00000000000E+00 -0.20917682493E+02  0.20956200535E+02  0.12700000000E+01 0. -1.
         25    2    1    2    0    0  0.00000000000E+00  0.00000000000E+00  0.16560900582E+03  0.20748721230E+03  0.12499840184E+03 0.  0.
    9000005    1    3    3    0    0 -0.12210021663E+02 -0.41451306991E+02  0.15773756432E+03  0.16355254408E+03  0.10000000000E+01 0.  0.
    9000005    1    3    3    0    0  0.12210021663E+02  0.41451306991E+02  0.78714415001E+01  0.43934668220E+02  0.10000000000E+01 0.  0.
<mgrwt>
<rscale>  0 0.12499840E+03</rscale>
<asrwt>0</asrwt>
<pdfrwt beam="2">  1        4 0.32214006E-02 0.12499840E+03</pdfrwt>
<pdfrwt beam="1">  1       -4 0.28699708E-01 0.12499840E+03</pdfrwt>
<totfact> 0.88891080E+03</totfact>
</mgrwt>
</event>
<event>
 4    1  0.3296424E-002  0.1249189E+03  0.7818608E-02  0.1235196E+00
          4   -1    0    0  501    0  0.00000000000E+00  0.00000000000E+00  0.27977027359E+03  0.27977315612E+03  0.12700000000E+01 0.  1.
         -4   -1    0    0    0  501 -0.00000000000E+00 -0.00000000000E+00 -0.13912356021E+02  0.13970202220E+02  0.12700000000E+01 0.  1.
    9000005    1    1    2    0    0 -0.58936721614E+02 -0.98559822269E+01  0.90244415580E+02  0.10823923542E+03  0.10000000000E+01 0.  0.
    9000005    1    1    2    0    0  0.58936721614E+02  0.98559822269E+01  0.17561350199E+03  0.18550412292E+03  0.10000000000E+01 0.  0.
<mgrwt>
<rscale>  0 0.12491889E+03</rscale>
<asrwt>0</asrwt>
<pdfrwt beam="1">  1        4 0.43046246E-01 0.12491889E+03</pdfrwt>
<pdfrwt beam="2">  1       -4 0.21450342E-02 0.12491889E+03</pdfrwt>
<totfact> 0.76528197E+03</totfact>
</mgrwt>
</event>
<event>
 5    1  0.3296424E-002  0.1250012E+03  0.7818608E-02  0.1235067E+00
         -4   -1    0    0    0  501 -0.00000000000E+00  0.00000000000E+00  0.11607706404E+04  0.11607713351E+04  0.12700000000E+01 0. -1.
          4   -1    0    0  501    0  0.00000000000E+00 -0.00000000000E+00 -0.32447467416E+01  0.34844341603E+01  0.12700000000E+01 0. -1.
         25    2    1    2    0    0  0.00000000000E+00  0.00000000000E+00  0.11575258936E+04  0.11642557693E+04  0.12500120756E+03 0.  0.
    9000005    1    3    3    0    0 -0.91845328302E+01  0.58019859836E+02  0.77736342207E+03  0.77958036773E+03  0.10000000000E+01 0.  0.
    9000005    1    3    3    0    0  0.91845328302E+01 -0.58019859836E+02  0.38016247154E+03  0.38467540154E+03  0.10000000000E+01 0.  0.
<mgrwt>
<rscale>  0 0.12500121E+03</rscale>
<asrwt>0</asrwt>
<pdfrwt beam="2">  1        4 0.51768261E-03 0.12500121E+03</pdfrwt>
<pdfrwt beam="1">  1       -4 0.17859863E+00 0.12500121E+03</pdfrwt>
<totfact> 0.25667299E+03</totfact>
</mgrwt>
</event>
<event>
 5    1  0.3296424E-002  0.1249950E+03  0.7818608E-02  0.1235077E+00
         -4   -1    0    0    0  501 -0.00000000000E+00  0.00000000000E+00  0.19090166612E+02  0.19132364237E+02  0.12700000000E+01 0. -1.
          4   -1    0    0  501    0  0.00000000000E+00 -0.00000000000E+00 -0.20433478385E+03  0.20433873052E+03  0.12700000000E+01 0. -1.
         25    2    1    2    0    0  0.00000000000E+00  0.00000000000E+00 -0.18524461724E+03  0.22347109476E+03  0.12499504781E+03 0.  0.
    9000005    1    3    3    0    0 -0.40721931419E+01  0.61061168746E+02 -0.70015403380E+02  0.92995729988E+02  0.10000000000E+01 0.  0.
    9000005    1    3    3    0    0  0.40721931419E+01 -0.61061168746E+02 -0.11522921386E+03  0.13047536477E+03  0.10000000000E+01 0.  0.
<mgrwt>
<rscale>  0 0.12499505E+03</rscale>
<asrwt>0</asrwt>
<pdfrwt beam="2">  1        4 0.31439669E-01 0.12499505E+03</pdfrwt>
<pdfrwt beam="1">  1       -4 0.29404984E-02 0.12499505E+03</pdfrwt>
<totfact> 0.86331604E+03</totfact>
</mgrwt>
</event>
<event>
 5    1  0.3296424E-002  0.1249936E+03  0.7818608E-02  0.1235079E+00
         -4   -1    0    0    0  501 -0.00000000000E+00  0.00000000000E+00  0.60218899329E+02  0.60232289815E+02  0.12700000000E+01 0.  1.
          4   -1    0    0  501    0  0.00000000000E+00 -0.00000000000E+00 -0.64834075516E+02  0.64846512998E+02  0.12700000000E+01 0.  1.
         25    2    1    2    0    0  0.00000000000E+00  0.00000000000E+00 -0.46151761867E+01  0.12507880281E+03  0.12499362809E+03 0.  0.
    9000005    1    3    3    0    0 -0.44190029346E+02  0.40545493230E+02 -0.19873924332E+02  0.63187566682E+02  0.10000000000E+01 0.  0.
    9000005    1    3    3    0    0  0.44190029346E+02 -0.40545493230E+02  0.15258748145E+02  0.61891236131E+02  0.10000000000E+01 0.  0.
<mgrwt>
<rscale>  0 0.12499363E+03</rscale>
<asrwt>0</asrwt>
<pdfrwt beam="2">  1        4 0.99764599E-02 0.12499363E+03</pdfrwt>
<pdfrwt beam="1">  1       -4 0.92664328E-02 0.12499363E+03</pdfrwt>
<totfact> 0.10452656E+04</totfact>
</mgrwt>
</event>
<event>
 5    1  0.3296424E-002  0.1249961E+03  0.7818608E-02  0.1235075E+00
         -4   -1    0    0    0  501 -0.00000000000E+00  0.00000000000E+00  0.39635553301E+02  0.39655894713E+02  0.12700000000E+01 0. -1.
          4   -1    0    0  501    0  0.00000000000E+00 -0.00000000000E+00 -0.98498338008E+02  0.98506525115E+02  0.12700000000E+01 0. -1.
         25    2    1    2    0    0  0.00000000000E+00  0.00000000000E+00 -0.58862784707E+02  0.13816241983E+03  0.12499610726E+03 0.  0.
    9000005    1    3    3    0    0  0.34769626944E+02  0.18104012401E+02 -0.83222940719E+02  0.91998587407E+02  0.10000000000E+01 0.  0.
    9000005    1    3    3    0    0 -0.34769626944E+02 -0.18104012401E+02  0.24360156012E+02  0.46163832421E+02  0.10000000000E+01 0.  0.
<mgrwt>
<rscale>  0 0.12499611E+03</rscale>
<asrwt>0</asrwt>
<pdfrwt beam="2">  1        4 0.15155785E-01 0.12499611E+03</pdfrwt>
<pdfrwt beam="1">  1       -4 0.60999720E-02 0.12499611E+03</pdfrwt>
<totfact> 0.10172706E+04</totfact>
</mgrwt>
</event>
<event>
 5    1  0.3296424E-002  0.1249924E+03  0.7818608E-02  0.1235081E+00
         -4   -1    0    0    0  501 -0.00000000000E+00  0.00000000000E+00  0.33335385663E+02  0.33359568902E+02  0.12700000000E+01 0. -1.
          4   -1    0    0  501    0  0.00000000000E+00 -0.00000000000E+00 -0.11709592850E+03  0.11710281539E+03  0.12700000000E+01 0. -1.
         25    2    1    2    0    0  0.00000000000E+00  0.00000000000E+00 -0.83760542836E+02  0.15046238429E+03  0.12499240197E+03 0.  0.
    9000005    1    3    3    0    0  0.56651390653E+02 -0.26343456604E+02 -0.43313401839E+02  0.76028998071E+02  0.10000000000E+01 0.  0.
    9000005    1    3    3    0    0 -0.56651390653E+02  0.26343456604E+02 -0.40447140997E+02  0.74433386216E+02  0.10000000000E+01 0.  0.
<mgrwt>
<rscale>  0 0.12499240E+03</rscale>
<asrwt>0</asrwt>
<pdfrwt beam="2">  1        4 0.18017148E-01 0.12499240E+03</pdfrwt>
<pdfrwt beam="1">  1       -4 0.51309109E-02 0.12499240E+03</pdfrwt>
<totfact> 0.99228575E+03</totfact>
</mgrwt>
</event>
<event>
 5    1  0.3296424E-002  0.1249975E+03  0.7818608E-02  0.1235073E+00
          4   -1    0    0  501    0  0.00000000000E+00  0.00000000000E+00  0.59053566152E+03  0.59053702715E+03  0.12700000000E+01 0.  1.
         -4   -1    0    0    0  501 -0.00000000000E+00 -0.00000000000E+00 -0.65521408065E+01  0.66740878889E+01  0.12700000000E+01 0.  1.
         25    2    1    2    0    0  0.00000000000E+00  0.00000000000E+00  0.58398352072E+03  0.59721111503E+03  0.12499745378E+03 0.  0.
    9000005    1    3    3    0    0 -0.58452478756E+02  0.20973827352E+02  0.32526421596E+03  0.33114106343E+03  0.10000000000E+01 0.  0.
    9000005    1    3    3    0    0  0.58452478756E+02 -0.20973827352E+02  0.25871930476E+03  0.26607005160E+03  0.10000000000E+01 0.  0.
<mgrwt>
<rscale>  0 0.12499745E+03</rscale>
<asrwt>0</asrwt>
<pdfrwt beam="1">  1        4 0.90861113E-01 0.12499745E+03</pdfrwt>
<pdfrwt beam="2">  1       -4 0.10175074E-02 0.12499745E+03</pdfrwt>
<totfact> 0.49046871E+03</totfact>
</mgrwt>
</event>
<event>
 5    1  0.3296424E-002  0.1249982E+03  0.7818608E-02  0.1235072E+00
          4   -1    0    0  501    0  0.00000000000E+00  0.00000000000E+00  0.48629772884E+02  0.48646353519E+02  0.12700000000E+01 0.  1.
         -4   -1    0    0    0  501 -0.00000000000E+00 -0.00000000000E+00 -0.80288757031E+02  0.80298800773E+02  0.12700000000E+01 0.  1.
         25    2    1    2    0    0  0.00000000000E+00  0.00000000000E+00 -0.31658984147E+02  0.12894515429E+03  0.12499824614E+03 0.  0.
    9000005    1    3    3    0    0 -0.12428699484E+02  0.57293187750E+02  0.64906801102E+01  0.58992464449E+02  0.10000000000E+01 0.  0.
    9000005    1    3    3    0    0  0.12428699484E+02 -0.57293187750E+02 -0.38149664258E+02  0.69952689844E+02  0.10000000000E+01 0.  0.
<mgrwt>
<rscale>  0 0.12499825E+03</rscale>
<asrwt>0</asrwt>
<pdfrwt beam="1">  1        4 0.74835516E-02 0.12499825E+03</pdfrwt>
<pdfrwt beam="2">  1       -4 0.12354164E-01 0.12499825E+03</pdfrwt>
<totfact> 0.10367536E+04</totfact>
</mgrwt>
</event>
<event>
 5    1  0.3296424E-002  0.1249983E+03  0.7818608E-02  0.1235072E+00
          4   -1    0    0  501    0  0.00000000000E+00  0.00000000000E+00  0.80647286490E+02  0.80657285586E+02  0.12700000000E+01 0.  1.
         -4   -1    0    0    0  501 -0.00000000000E+00 -0.00000000000E+00 -0.48413556470E+02  0.48430211130E+02  0.12700000000E+01 0.  1.
         25    2    1    2    0    0  0.00000000000E+00  0.00000000000E+00  0.32233730020E+02  0.12908749672E+03  0.12499827382E+03 0.  0.
    9000005    1    3    3    0    0  0.28363143624E+02  0.21308520109E+02 -0.37011451474E+02  0.51277368162E+02  0.10000000000E+01 0.  0.
    9000005    1    3    3    0    0 -0.28363143624E+02 -0.21308520109E+02  0.69245181494E+02  0.77810128554E+02  0.10000000000E+01 0.  0.
<mgrwt>
<rscale>  0 0.12499827E+03</rscale>
<asrwt>0</asrwt>
<pdfrwt beam="1">  1        4 0.12409325E-01 0.12499827E+03</pdfrwt>
<pdfrwt beam="2">  1       -4 0.74502898E-02 0.12499827E+03</pdfrwt>
<totfact> 0.10364471E+04</totfact>
</mgrwt>
</event>
<event>
 5    1  0.3296424E-002  0.1249964E+03  0.7818608E-02  0.1235075E+00
          4   -1    0    0  501    0  0.00000000000E+00  0.00000000000E+00  0.15036157875E+03  0.15036694206E+03  0.12700000000E+01 0.  1.
         -4   -1    0    0    0  501 -0.00000000000E+00 -0.00000000000E+00 -0.25956191444E+02  0.25987242529E+02  0.12700000000E+01 0.  1.
         25    2    1    2    0    0  0.00000000000E+00  0.00000000000E+00  0.12440538731E+03  0.17635418459E+03  0.12499639207E+03 0.  0.
    9000005    1    3    3    0    0 -0.21168852814E+02 -0.58785196596E+02  0.60654045007E+02  0.87084630355E+02  0.10000000000E+01 0.  0.
    9000005    1    3    3    0    0  0.21168852814E+02  0.58785196596E+02  0.63751342300E+02  0.89269554235E+02  0.10000000000E+01 0.  0.
<mgrwt>
<rscale>  0 0.12499639E+03</rscale>
<asrwt>0</asrwt>
<pdfrwt beam="1">  1        4 0.23135352E-01 0.12499639E+03</pdfrwt>
<pdfrwt beam="2">  1       -4 0.39960613E-02 0.12499639E+03</pdfrwt>
<totfact> 0.94285038E+03</totfact>
</mgrwt>
</event>
<event>
 5    1  0.3296424E-002  0.1249965E+03  0.7818608E-02  0.1235075E+00
          4   -1    0    0  501    0  0.00000000000E+00  0.00000000000E+00  0.91161800066E+02  0.91170645996E+02  0.12700000000E+01 0.  1.
         -4   -1    0    0    0  501 -0.00000000000E+00 -0.00000000000E+00 -0.42826927662E+02  0.42845753967E+02  0.12700000000E+01 0.  1.
         25    2    1    2    0    0  0.00000000000E+00  0.00000000000E+00  0.48334872404E+02  0.13401639996E+03  0.12499654223E+03 0.  0.
    9000005    1    3    3    0    0  0.84383111960E+01 -0.28457409715E+02 -0.34791708388E+02  0.45743767184E+02  0.10000000000E+01 0.  0.
    9000005    1    3    3    0    0 -0.84383111960E+01  0.28457409715E+02  0.83126580793E+02  0.88272632780E+02  0.10000000000E+01 0.  0.
<mgrwt>
<rscale>  0 0.12499654E+03</rscale>
<asrwt>0</asrwt>
<pdfrwt beam="1">  1        4 0.14027021E-01 0.12499654E+03</pdfrwt>
<pdfrwt beam="2">  1       -4 0.65908868E-02 0.12499654E+03</pdfrwt>
<totfact> 0.10259645E+04</totfact>
</mgrwt>
</event>
<event>
 5    1  0.3296424E-002  0.1250001E+03  0.7818608E-02  0.1235069E+00
          4   -1    0    0  501    0  0.00000000000E+00  0.00000000000E+00  0.40254679024E+01  0.42210534033E+01  0.12700000000E+01 0. -1.
         -4   -1    0    0    0  501 -0.00000000000E+00 -0.00000000000E+00 -0.94717434651E+03  0.94717519793E+03  0.12700000000E+01 0. -1.
         25    2    1    2    0    0  0.00000000000E+00  0.00000000000E+00 -0.94314887861E+03  0.95139625134E+03  0.12500007938E+03 0.  0.
    9000005    1    3    3    0    0 -0.32539394300E+02  0.50424672203E+02 -0.60423493335E+03  0.60720862512E+03  0.10000000000E+01 0.  0.
    9000005    1    3    3    0    0  0.32539394300E+02 -0.50424672203E+02 -0.33891394526E+03  0.34418762622E+03  0.10000000000E+01 0.  0.
<mgrwt>
<rscale>  0 0.12500008E+03</rscale>
<asrwt>0</asrwt>
<pdfrwt beam="1">  1        4 0.63441404E-03 0.12500008E+03</pdfrwt>
<pdfrwt beam="2">  1       -4 0.14573407E+00 0.12500008E+03</pdfrwt>
<totfact> 0.32266432E+03</totfact>
</mgrwt>
</event>
<event>
 5    1  0.3296424E-002  0.1249994E+03  0.7818608E-02  0.1235070E+00
         -4   -1    0    0    0  501 -0.00000000000E+00  0.00000000000E+00  0.75835627690E+01  0.76891692835E+01  0.12700000000E+01 0.  1.
          4   -1    0    0  501    0  0.00000000000E+00 -0.00000000000E+00 -0.51142091771E+03  0.51142249459E+03  0.12700000000E+01 0.  1.
         25    2    1    2    0    0  0.00000000000E+00  0.00000000000E+00 -0.50383735495E+03  0.51911166388E+03  0.12499935734E+03 0.  0.
    9000005    1    3    3    0    0  0.27383303219E+02 -0.23521814448E+02 -0.46376165028E+03  0.46516555044E+03  0.10000000000E+01 0.  0.
    9000005    1    3    3    0    0 -0.27383303219E+02  0.23521814448E+02 -0.40075704669E+02  0.53946113436E+02  0.10000000000E+01 0.  0.
<mgrwt>
<rscale>  0 0.12499936E+03</rscale>
<asrwt>0</asrwt>
<pdfrwt beam="2">  1        4 0.78688359E-01 0.12499936E+03</pdfrwt>
<pdfrwt beam="1">  1       -4 0.11749472E-02 0.12499936E+03</pdfrwt>
<totfact> 0.54412219E+03</totfact>
</mgrwt>
</event>
<event>
 5    1  0.3296424E-002  0.1250005E+03  0.7818608E-02  0.1235069E+00
          4   -1    0    0  501    0  0.00000000000E+00  0.00000000000E+00  0.24160619792E+02  0.24193975463E+02  0.12700000000E+01 0.  1.
         -4   -1    0    0    0  501 -0.00000000000E+00 -0.00000000000E+00 -0.16153219891E+03  0.16153719134E+03  0.12700000000E+01 0.  1.
         25    2    1    2    0    0  0.00000000000E+00  0.00000000000E+00 -0.13737157912E+03  0.18573116680E+03  0.12500046229E+03 0.  0.
    9000005    1    3    3    0    0 -0.40473074996E+02  0.45305699384E+02 -0.90452397524E+02  0.10896473014E+03  0.10000000000E+01 0.  0.
    9000005    1    3    3    0    0  0.40473074996E+02 -0.45305699384E+02 -0.46919181598E+02  0.76766436665E+02  0.10000000000E+01 0.  0.
<mgrwt>
<rscale>  0 0.12500046E+03</rscale>
<asrwt>0</asrwt>
<pdfrwt beam="1">  1        4 0.37199684E-02 0.12500046E+03</pdfrwt>
<pdfrwt beam="2">  1       -4 0.24854057E-01 0.12500046E+03</pdfrwt>
<totfact> 0.92594470E+03</totfact>
</mgrwt>
</event>
<event>
 5    1  0.3296424E-002  0.1250025E+03  0.7818608E-02  0.1235065E+00
         -4   -1    0    0    0  501 -0.00000000000E+00  0.00000000000E+00  0.12632193409E+02  0.12695873752E+02  0.12700000000E+01 0. -1.
          4   -1    0    0  501    0  0.00000000000E+00 -0.00000000000E+00 -0.30839941033E+03  0.30840202527E+03  0.12700000000E+01 0. -1.
         25    2    1    2    0    0  0.00000000000E+00  0.00000000000E+00 -0.29576721692E+03  0.32109789902E+03  0.12500245658E+03 0.  0.
    9000005    1    3    3    0    0  0.18891741255E+02 -0.30839551267E+02 -0.16968234037E+02  0.39961190878E+02  0.10000000000E+01 0.  0.
    9000005    1    3    3    0    0 -0.18891741255E+02  0.30839551267E+02 -0.27879898288E+03  0.28113670814E+03  0.10000000000E+01 0.  0.
<mgrwt>
<rscale>  0 0.12500246E+03</rscale>
<asrwt>0</asrwt>
<pdfrwt beam="2">  1        4 0.47451157E-01 0.12500246E+03</pdfrwt>
<pdfrwt beam="1">  1       -4 0.19485142E-02 0.12500246E+03</pdfrwt>
<totfact> 0.73021761E+03</totfact>
</mgrwt>
</event>
<event>
 5    1  0.3296424E-002  0.1250476E+03  0.7818608E-02  0.1234995E+00
         -4   -1    0    0    0  501 -0.00000000000E+00  0.00000000000E+00  0.26639193099E+03  0.26639495827E+03  0.12700000000E+01 0.  1.
          4   -1    0    0  501    0  0.00000000000E+00 -0.00000000000E+00 -0.14644113943E+02  0.14699080692E+02  0.12700000000E+01 0.  1.
         25    2    1    2    0    0  0.00000000000E+00  0.00000000000E+00  0.25174781704E+03  0.28109403897E+03  0.12504757238E+03 0.  0.
    9000005    1    3    3    0    0 -0.78044573658E+01 -0.34865577095E+02  0.24119136141E+03  0.24382532855E+03  0.10000000000E+01 0.  0.
    9000005    1    3    3    0    0  0.78044573658E+01  0.34865577095E+02  0.10556455632E+02  0.37268710421E+02  0.10000000000E+01 0.  0.
<mgrwt>
<rscale>  0 0.12504757E+03</rscale>
<asrwt>0</asrwt>
<pdfrwt beam="2">  1        4 0.22574016E-02 0.12504757E+03</pdfrwt>
<pdfrwt beam="1">  1       -4 0.40987836E-01 0.12504757E+03</pdfrwt>
<totfact> 0.77950812E+03</totfact>
</mgrwt>
</event>
<event>
 5    1  0.3296424E-002  0.1250021E+03  0.7818608E-02  0.1235066E+00
          4   -1    0    0  501    0  0.00000000000E+00  0.00000000000E+00  0.33143883899E+02  0.33168206764E+02  0.12700000000E+01 0.  1.
         -4   -1    0    0    0  501 -0.00000000000E+00 -0.00000000000E+00 -0.11779027934E+03  0.11779712563E+03  0.12700000000E+01 0.  1.
         25    2    1    2    0    0  0.00000000000E+00  0.00000000000E+00 -0.84646395437E+02  0.15096533239E+03  0.12500207728E+03 0.  0.
    9000005    1    3    3    0    0 -0.35471206868E+02 -0.66323542043E+01 -0.10394189750E+03  0.11003232568E+03  0.10000000000E+01 0.  0.
    9000005    1    3    3    0    0  0.35471206868E+02  0.66323542043E+01  0.19295502058E+02  0.40933006714E+02  0.10000000000E+01 0.  0.
<mgrwt>
<rscale>  0 0.12500208E+03</rscale>
<asrwt>0</asrwt>
<pdfrwt beam="1">  1        4 0.51014567E-02 0.12500208E+03</pdfrwt>
<pdfrwt beam="2">  1       -4 0.18123979E-01 0.12500208E+03</pdfrwt>
<totfact> 0.99106988E+03</totfact>
</mgrwt>
</event>
<event>
 5    1  0.3296424E-002  0.1249981E+03  0.7818608E-02  0.1235072E+00
          4   -1    0    0  501    0  0.00000000000E+00  0.00000000000E+00  0.41041791448E+03  0.41041987943E+03  0.12700000000E+01 0.  1.
         -4   -1    0    0    0  501 -0.00000000000E+00 -0.00000000000E+00 -0.94730798930E+01  0.95578314831E+01  0.12700000000E+01 0.  1.
         25    2    1    2    0    0  0.00000000000E+00  0.00000000000E+00  0.40094483459E+03  0.41997771091E+03  0.12499806909E+03 0.  0.
    9000005    1    3    3    0    0  0.37925672154E+02 -0.41886596109E+02  0.11080181763E+03  0.12438201772E+03  0.10000000000E+01 0.  0.
    9000005    1    3    3    0    0 -0.37925672154E+02  0.41886596109E+02  0.29014301696E+03  0.29559569319E+03  0.10000000000E+01 0.  0.
<mgrwt>
<rscale>  0 0.12499807E+03</rscale>
<asrwt>0</asrwt>
<pdfrwt beam="1">  1        4 0.63147896E-01 0.12499807E+03</pdfrwt>
<pdfrwt beam="2">  1       -4 0.14640672E-02 0.12499807E+03</pdfrwt>
<totfact> 0.62657740E+03</totfact>
</mgrwt>
</event>
<event>
 5    1  0.3296424E-002  0.1250042E+03  0.7818608E-02  0.1235063E+00
          4   -1    0    0  501    0  0.00000000000E+00  0.00000000000E+00  0.29407568558E+02  0.29434978996E+02  0.12700000000E+01 0. -1.
         -4   -1    0    0    0  501 -0.00000000000E+00 -0.00000000000E+00 -0.13274806797E+03  0.13275414288E+03  0.12700000000E+01 0. -1.
         25    2    1    2    0    0  0.00000000000E+00  0.00000000000E+00 -0.10334049942E+03  0.16218912187E+03  0.12500420967E+03 0.  0.
    9000005    1    3    3    0    0 -0.77796069470E+01  0.10438866914E+02 -0.13097546187E+03  0.13162470831E+03  0.10000000000E+01 0.  0.
    9000005    1    3    3    0    0  0.77796069470E+01 -0.10438866914E+02  0.27634962451E+02  0.30564413561E+02  0.10000000000E+01 0.  0.
<mgrwt>
<rscale>  0 0.12500421E+03</rscale>
<asrwt>0</asrwt>
<pdfrwt beam="1">  1        4 0.45268172E-02 0.12500421E+03</pdfrwt>
<pdfrwt beam="2">  1       -4 0.20425355E-01 0.12500421E+03</pdfrwt>
<totfact> 0.96913224E+03</totfact>
</mgrwt>
</event>
<event>
 5    1  0.3296424E-002  0.1250011E+03  0.7818608E-02  0.1235068E+00
         -4   -1    0    0    0  501 -0.00000000000E+00  0.00000000000E+00  0.11090204140E+02  0.11162684618E+02  0.12700000000E+01 0. -1.
          4   -1    0    0  501    0  0.00000000000E+00 -0.00000000000E+00 -0.35101033575E+03  0.35101263325E+03  0.12700000000E+01 0. -1.
         25    2    1    2    0    0  0.00000000000E+00  0.00000000000E+00 -0.33992013161E+03  0.36217531787E+03  0.12500106000E+03 0.  0.
    9000005    1    3    3    0    0 -0.23497048868E+01 -0.58444465795E+02 -0.23370498586E+03  0.24091553937E+03  0.10000000000E+01 0.  0.
    9000005    1    3    3    0    0  0.23497048868E+01  0.58444465795E+02 -0.10621514575E+03  0.12125977850E+03  0.10000000000E+01 0.  0.
<mgrwt>
<rscale>  0 0.12500106E+03</rscale>
<asrwt>0</asrwt>
<pdfrwt beam="2">  1        4 0.54007334E-01 0.12500106E+03</pdfrwt>
<pdfrwt beam="1">  1       -4 0.17119377E-02 0.12500106E+03</pdfrwt>
<totfact> 0.68403969E+03</totfact>
</mgrwt>
</event>
<event>
 5    1  0.3296424E-002  0.1249944E+03  0.7818608E-02  0.1235078E+00
         -4   -1    0    0    0  501 -0.00000000000E+00  0.00000000000E+00  0.22278993012E+03  0.22279354987E+03  0.12700000000E+01 0.  1.
          4   -1    0    0  501    0  0.00000000000E+00 -0.00000000000E+00 -0.17504982668E+02  0.17550991944E+02  0.12700000000E+01 0.  1.
         25    2    1    2    0    0  0.00000000000E+00  0.00000000000E+00  0.20528494745E+03  0.24034454181E+03  0.12499435639E+03 0.  0.
    9000005    1    3    3    0    0  0.37445093284E+02 -0.45516130319E+02  0.14256377948E+03  0.15427016675E+03  0.10000000000E+01 0.  0.
    9000005    1    3    3    0    0 -0.37445093284E+02  0.45516130319E+02  0.62721167975E+02  0.86074375063E+02  0.10000000000E+01 0.  0.
<mgrwt>
<rscale>  0 0.12499436E+03</rscale>
<asrwt>0</asrwt>
<pdfrwt beam="2">  1        4 0.26968917E-02 0.12499436E+03</pdfrwt>
<pdfrwt beam="1">  1       -4 0.34279194E-01 0.12499436E+03</pdfrwt>
<totfact> 0.83756615E+03</totfact>
</mgrwt>
</event>
<event>
 5    1  0.3296424E-002  0.1250080E+03  0.7818608E-02  0.1235057E+00
         -4   -1    0    0    0  501 -0.00000000000E+00  0.00000000000E+00  0.25834561047E+01  0.28787402531E+01  0.12700000000E+01 0. -1.
          4   -1    0    0  501    0  0.00000000000E+00 -0.00000000000E+00 -0.14301725637E+04  0.14301731276E+04  0.12700000000E+01 0. -1.
         25    2    1    2    0    0  0.00000000000E+00  0.00000000000E+00 -0.14275891076E+04  0.14330518679E+04  0.12500798288E+03 0.  0.
    9000005    1    3    3    0    0  0.42042276614E+02  0.29455623833E+02 -0.11224169051E+04  0.11235906263E+04  0.10000000000E+01 0.  0.
    9000005    1    3    3    0    0 -0.42042276614E+02 -0.29455623833E+02 -0.30517220257E+03  0.30946124155E+03  0.10000000000E+01 0.  0.
<mgrwt>
<rscale>  0 0.12500798E+03</rscale>
<asrwt>0</asrwt>
<pdfrwt beam="2">  1        4 0.22004871E+00 0.12500798E+03</pdfrwt>
<pdfrwt beam="1">  1       -4 0.42021347E-03 0.12500798E+03</pdfrwt>
<totfact> 0.19279293E+03</totfact>
</mgrwt>
</event>
<event>
 5    1  0.3296424E-002  0.1250037E+03  0.7818608E-02  0.1235063E+00
         -4   -1    0    0    0  501 -0.00000000000E+00  0.00000000000E+00  0.11284752348E+03  0.11285466962E+03  0.12700000000E+01 0. -1.
          4   -1    0    0  501    0  0.00000000000E+00 -0.00000000000E+00 -0.34597464338E+02  0.34620766003E+02  0.12700000000E+01 0. -1.
         25    2    1    2    0    0  0.00000000000E+00  0.00000000000E+00  0.78250059138E+02  0.14747543562E+03  0.12500372937E+03 0.  0.
    9000005    1    3    3    0    0  0.66371832768E+01 -0.60998921101E+02  0.25137807427E+02  0.66316136344E+02  0.10000000000E+01 0.  0.
    9000005    1    3    3    0    0 -0.66371832768E+01  0.60998921101E+02  0.53112251711E+02  0.81159299277E+02  0.10000000000E+01 0.  0.
<mgrwt>
<rscale>  0 0.12500373E+03</rscale>
<asrwt>0</asrwt>
<pdfrwt beam="2">  1        4 0.53250288E-02 0.12500373E+03</pdfrwt>
<pdfrwt beam="1">  1       -4 0.17363500E-01 0.12500373E+03</pdfrwt>
<totfact> 0.99800954E+03</totfact>
</mgrwt>
</event>
<event>
 5    1  0.3296424E-002  0.1250009E+03  0.7818608E-02  0.1235068E+00
         -4   -1    0    0    0  501 -0.00000000000E+00  0.00000000000E+00  0.72490868540E+03  0.72490979789E+03  0.12700000000E+01 0. -1.
          4   -1    0    0  501    0  0.00000000000E+00 -0.00000000000E+00 -0.53127263116E+01  0.54624134650E+01  0.12700000000E+01 0. -1.
         25    2    1    2    0    0  0.00000000000E+00  0.00000000000E+00  0.71959595909E+03  0.73037221135E+03  0.12500089110E+03 0.  0.
    9000005    1    3    3    0    0 -0.21970064925E+02  0.22746369863E+02  0.67473302327E+03  0.67547445088E+03  0.10000000000E+01 0.  0.
    9000005    1    3    3    0    0  0.21970064925E+02 -0.22746369863E+02  0.44862935820E+02  0.54897760475E+02  0.10000000000E+01 0.  0.
<mgrwt>
<rscale>  0 0.12500089E+03</rscale>
<asrwt>0</asrwt>
<pdfrwt beam="2">  1        4 0.82894230E-03 0.12500089E+03</pdfrwt>
<pdfrwt beam="1">  1       -4 0.11153604E+00 0.12500089E+03</pdfrwt>
<totfact> 0.41530168E+03</totfact>
</mgrwt>
</event>
<event>
 5    1  0.3296424E-002  0.1250027E+03  0.7818608E-02  0.1235065E+00
          4   -1    0    0  501    0  0.00000000000E+00  0.00000000000E+00  0.13110290022E+03  0.13110905135E+03  0.12700000000E+01 0.  1.
         -4   -1    0    0    0  501 -0.00000000000E+00 -0.00000000000E+00 -0.29776179382E+02  0.29803250806E+02  0.12700000000E+01 0.  1.
         25    2    1    2    0    0  0.00000000000E+00  0.00000000000E+00  0.10132672084E+03  0.16091230216E+03  0.12500265849E+03 0.  0.
    9000005    1    3    3    0    0 -0.50218204593E+02  0.16469359078E+02  0.93595505386E+02  0.10749058791E+03  0.10000000000E+01 0.  0.
    9000005    1    3    3    0    0  0.50218204593E+02 -0.16469359078E+02  0.77312154551E+01  0.53421714250E+02  0.10000000000E+01 0.  0.
<mgrwt>
<rscale>  0 0.12500266E+03</rscale>
<asrwt>0</asrwt>
<pdfrwt beam="1">  1        4 0.20172233E-01 0.12500266E+03</pdfrwt>
<pdfrwt beam="2">  1       -4 0.45835061E-02 0.12500266E+03</pdfrwt>
<totfact> 0.97161382E+03</totfact>
</mgrwt>
</event>
<event>
 5    1  0.3296424E-002  0.1249970E+03  0.7818608E-02  0.1235074E+00
          4   -1    0    0  501    0  0.00000000000E+00  0.00000000000E+00  0.73282327640E+02  0.73293331514E+02  0.12700000000E+01 0. -1.
         -4   -1    0    0    0  501 -0.00000000000E+00 -0.00000000000E+00 -0.53278948650E+02  0.53294082873E+02  0.12700000000E+01 0. -1.
         25    2    1    2    0    0  0.00000000000E+00  0.00000000000E+00  0.20003378991E+02  0.12658741439E+03  0.12499695320E+03 0.  0.
    9000005    1    3    3    0    0 -0.32663595348E+02 -0.51097804736E+02 -0.52620289615E+01  0.60881730090E+02  0.10000000000E+01 0.  0.
    9000005    1    3    3    0    0  0.32663595348E+02  0.51097804736E+02  0.25265407952E+02  0.65705684297E+02  0.10000000000E+01 0.  0.
<mgrwt>
<rscale>  0 0.12499695E+03</rscale>
<asrwt>0</asrwt>
<pdfrwt beam="1">  1        4 0.11276215E-01 0.12499695E+03</pdfrwt>
<pdfrwt beam="2">  1       -4 0.81987720E-02 0.12499695E+03</pdfrwt>
<totfact> 0.10418839E+04</totfact>
</mgrwt>
</event>
<event>
 5    1  0.3296424E-002  0.1249971E+03  0.7818608E-02  0.1235074E+00
          4   -1    0    0  501    0  0.00000000000E+00  0.00000000000E+00  0.29576459827E+03  0.29576732492E+03  0.12700000000E+01 0. -1.
         -4   -1    0    0    0  501 -0.00000000000E+00 -0.00000000000E+00 -0.13173358621E+02  0.13234435287E+02  0.12700000000E+01 0. -1.
         25    2    1    2    0    0  0.00000000000E+00  0.00000000000E+00  0.28259123965E+03  0.30900176021E+03  0.12499711630E+03 0.  0.
    9000005    1    3    3    0    0 -0.54848121860E+02  0.21151933842E+02  0.88893018499E+02  0.10657715287E+03  0.10000000000E+01 0.  0.
    9000005    1    3    3    0    0  0.54848121860E+02 -0.21151933842E+02  0.19369822115E+03  0.20242460733E+03  0.10000000000E+01 0.  0.
<mgrwt>
<rscale>  0 0.12499712E+03</rscale>
<asrwt>0</asrwt>
<pdfrwt beam="1">  1        4 0.45507156E-01 0.12499712E+03</pdfrwt>
<pdfrwt beam="2">  1       -4 0.20315784E-02 0.12499712E+03</pdfrwt>
<totfact> 0.74488135E+03</totfact>
</mgrwt>
</event>
<event>
 5    1  0.3296424E-002  0.1249989E+03  0.7818608E-02  0.1235071E+00
         -4   -1    0    0    0  501 -0.00000000000E+00  0.00000000000E+00  0.18411006444E+02  0.18454757063E+02  0.12700000000E+01 0.  1.
          4   -1    0    0  501    0  0.00000000000E+00 -0.00000000000E+00 -0.21186817666E+03  0.21187198301E+03  0.12700000000E+01 0.  1.
         25    2    1    2    0    0  0.00000000000E+00  0.00000000000E+00 -0.19345717022E+03  0.23032674007E+03  0.12499892192E+03 0.  0.
    9000005    1    3    3    0    0 -0.36549237435E+02  0.50273988646E+02 -0.10865054650E+03  0.12517692258E+03  0.10000000000E+01 0.  0.
    9000005    1    3    3    0    0  0.36549237435E+02 -0.50273988646E+02 -0.84806623721E+02  0.10514981749E+03  0.10000000000E+01 0.  0.
<mgrwt>
<rscale>  0 0.12499892E+03</rscale>
<asrwt>0</asrwt>
<pdfrwt beam="2">  1        4 0.32598761E-01 0.12499892E+03</pdfrwt>
<pdfrwt beam="1">  1       -4 0.28361209E-02 0.12499892E+03</pdfrwt>
<totfact> 0.85261502E+03</totfact>
</mgrwt>
</event>
<event>
 5    1  0.3296424E-002  0.1249979E+03  0.7818608E-02  0.1235073E+00
          4   -1    0    0  501    0  0.00000000000E+00  0.00000000000E+00  0.16722931766E+03  0.16723414001E+03  0.12700000000E+01 0.  1.
         -4   -1    0    0    0  501 -0.00000000000E+00 -0.00000000000E+00 -0.23335420426E+02  0.23369953925E+02  0.12700000000E+01 0.  1.
         25    2    1    2    0    0  0.00000000000E+00  0.00000000000E+00  0.14389389724E+03  0.19060409394E+03  0.12499786784E+03 0.  0.
    9000005    1    3    3    0    0  0.16601147306E+02 -0.54897917779E+02  0.34109021070E+02  0.66736832309E+02  0.10000000000E+01 0.  0.
    9000005    1    3    3    0    0 -0.16601147306E+02  0.54897917779E+02  0.10978487617E+03  0.12386726163E+03  0.10000000000E+01 0.  0.
<mgrwt>
<rscale>  0 0.12499787E+03</rscale>
<asrwt>0</asrwt>
<pdfrwt beam="1">  1        4 0.25730614E-01 0.12499787E+03</pdfrwt>
<pdfrwt beam="2">  1       -4 0.35930922E-02 0.12499787E+03</pdfrwt>
<totfact> 0.91746693E+03</totfact>
</mgrwt>
</event>
<event>
 5    1  0.3296424E-002  0.1249991E+03  0.7818608E-02  0.1235071E+00
          4   -1    0    0  501    0  0.00000000000E+00  0.00000000000E+00  0.85200182978E+02  0.85209647808E+02  0.12700000000E+01 0. -1.
         -4   -1    0    0    0  501 -0.00000000000E+00 -0.00000000000E+00 -0.45826473310E+02  0.45844067839E+02  0.12700000000E+01 0. -1.
         25    2    1    2    0    0  0.00000000000E+00  0.00000000000E+00  0.39373709668E+02  0.13105371565E+03  0.12499914948E+03 0.  0.
    9000005    1    3    3    0    0 -0.51452996170E+02 -0.24582507008E+02  0.46488444259E+02  0.73579113309E+02  0.10000000000E+01 0.  0.
    9000005    1    3    3    0    0  0.51452996170E+02  0.24582507008E+02 -0.71147345908E+01  0.57474602338E+02  0.10000000000E+01 0.  0.
<mgrwt>
<rscale>  0 0.12499915E+03</rscale>
<asrwt>0</asrwt>
<pdfrwt beam="1">  1        4 0.13109802E-01 0.12499915E+03</pdfrwt>
<pdfrwt beam="2">  1       -4 0.70523081E-02 0.12499915E+03</pdfrwt>
<totfact> 0.10322136E+04</totfact>
</mgrwt>
</event>
<event>
 5    1  0.3296424E-002  0.1249982E+03  0.7818608E-02  0.1235072E+00
         -4   -1    0    0    0  501 -0.00000000000E+00  0.00000000000E+00  0.81897984435E+02  0.81907830850E+02  0.12700000000E+01 0. -1.
          4   -1    0    0  501    0  0.00000000000E+00 -0.00000000000E+00 -0.47674000502E+02  0.47690913431E+02  0.12700000000E+01 0. -1.
         25    2    1    2    0    0  0.00000000000E+00  0.00000000000E+00  0.34223983933E+02  0.12959874428E+03  0.12499821376E+03 0.  0.
    9000005    1    3    3    0    0 -0.59931097905E+02 -0.11693967211E+01 -0.12026404852E+01  0.59962907943E+02  0.10000000000E+01 0.  0.
    9000005    1    3    3    0    0  0.59931097905E+02  0.11693967211E+01  0.35426624418E+02  0.69635836338E+02  0.10000000000E+01 0.  0.
<mgrwt>
<rscale>  0 0.12499821E+03</rscale>
<asrwt>0</asrwt>
<pdfrwt beam="2">  1        4 0.73365200E-02 0.12499821E+03</pdfrwt>
<pdfrwt beam="1">  1       -4 0.12601748E-01 0.12499821E+03</pdfrwt>
<totfact> 0.10353516E+04</totfact>
</mgrwt>
</event>
<event>
 5    1  0.3296424E-002  0.1249793E+03  0.7818608E-02  0.1235102E+00
         -4   -1    0    0    0  501 -0.00000000000E+00  0.00000000000E+00  0.49653478001E+03  0.49653640417E+03  0.12700000000E+01 0.  1.
          4   -1    0    0  501    0  0.00000000000E+00 -0.00000000000E+00 -0.78114983159E+01  0.79140638069E+01  0.12700000000E+01 0.  1.
         25    2    1    2    0    0  0.00000000000E+00  0.00000000000E+00  0.48872328170E+03  0.50445046797E+03  0.12497931255E+03 0.  0.
    9000005    1    3    3    0    0 -0.45324632411E+02 -0.16903208141E+02  0.40398158838E+03  0.40686873129E+03  0.10000000000E+01 0.  0.
    9000005    1    3    3    0    0  0.45324632411E+02  0.16903208141E+02  0.84741693319E+02  0.97581736689E+02  0.10000000000E+01 0.  0.
<mgrwt>
<rscale>  0 0.12497931E+03</rscale>
<asrwt>0</asrwt>
<pdfrwt beam="2">  1        4 0.12097831E-02 0.12497931E+03</pdfrwt>
<pdfrwt beam="1">  1       -4 0.76398009E-01 0.12497931E+03</pdfrwt>
<totfact> 0.55545955E+03</totfact>
</mgrwt>
</event>
<event>
 5    1  0.3296424E-002  0.1250018E+03  0.7818608E-02  0.1235066E+00
          4   -1    0    0  501    0  0.00000000000E+00  0.00000000000E+00  0.18602095525E+02  0.18645397767E+02  0.12700000000E+01 0. -1.
         -4   -1    0    0    0  501 -0.00000000000E+00 -0.00000000000E+00 -0.20970645565E+03  0.20971030123E+03  0.12700000000E+01 0. -1.
         25    2    1    2    0    0  0.00000000000E+00  0.00000000000E+00 -0.19110436013E+03  0.22835569900E+03  0.12500179521E+03 0.  0.
    9000005    1    3    3    0    0  0.59583197753E+02 -0.42687432381E+01 -0.12908725867E+03  0.14224239866E+03  0.10000000000E+01 0.  0.
    9000005    1    3    3    0    0 -0.59583197753E+02  0.42687432381E+01 -0.62017101455E+02  0.86113300344E+02  0.10000000000E+01 0.  0.
<mgrwt>
<rscale>  0 0.12500180E+03</rscale>
<asrwt>0</asrwt>
<pdfrwt beam="1">  1        4 0.28654878E-02 0.12500180E+03</pdfrwt>
<pdfrwt beam="2">  1       -4 0.32266157E-01 0.12500180E+03</pdfrwt>
<totfact> 0.85559295E+03</totfact>
</mgrwt>
</event>
<event>
 5    1  0.3296424E-002  0.1250010E+03  0.7818608E-02  0.1235068E+00
         -4   -1    0    0    0  501 -0.00000000000E+00  0.00000000000E+00  0.59140270709E+02  0.59153905362E+02  0.12700000000E+01 0.  1.
          4   -1    0    0  501    0  0.00000000000E+00 -0.00000000000E+00 -0.66024330784E+02  0.66036544091E+02  0.12700000000E+01 0.  1.
         25    2    1    2    0    0  0.00000000000E+00  0.00000000000E+00 -0.68840600748E+01  0.12519044945E+03  0.12500103340E+03 0.  0.
    9000005    1    3    3    0    0 -0.28630114335E+02 -0.37676971463E+02 -0.44321487638E+02  0.64843132959E+02  0.10000000000E+01 0.  0.
    9000005    1    3    3    0    0  0.28630114335E+02  0.37676971463E+02  0.37437427564E+02  0.60347316494E+02  0.10000000000E+01 0.  0.
<mgrwt>
<rscale>  0 0.12500103E+03</rscale>
<asrwt>0</asrwt>
<pdfrwt beam="2">  1        4 0.10159578E-01 0.12500103E+03</pdfrwt>
<pdfrwt beam="1">  1       -4 0.91004915E-02 0.12500103E+03</pdfrwt>
<totfact> 0.10448483E+04</totfact>
</mgrwt>
</event>
<event>
 5    1  0.3296424E-002  0.1249996E+03  0.7818608E-02  0.1235070E+00
         -4   -1    0    0    0  501 -0.00000000000E+00  0.00000000000E+00  0.13507555491E+03  0.13508152514E+03  0.12700000000E+01 0.  1.
          4   -1    0    0  501    0  0.00000000000E+00 -0.00000000000E+00 -0.28898277508E+02  0.28926170555E+02  0.12700000000E+01 0.  1.
         25    2    1    2    0    0  0.00000000000E+00  0.00000000000E+00  0.10617727740E+03  0.16400769569E+03  0.12499964004E+03 0.  0.
    9000005    1    3    3    0    0  0.27414577653E+02  0.21401865063E+02 -0.15033063703E+02  0.37902399665E+02  0.10000000000E+01 0.  0.
    9000005    1    3    3    0    0 -0.27414577653E+02 -0.21401865063E+02  0.12121034110E+03  0.12610529603E+03  0.10000000000E+01 0.  0.
<mgrwt>
<rscale>  0 0.12499964E+03</rscale>
<asrwt>0</asrwt>
<pdfrwt beam="2">  1        4 0.44484938E-02 0.12499964E+03</pdfrwt>
<pdfrwt beam="1">  1       -4 0.20783459E-01 0.12499964E+03</pdfrwt>
<totfact> 0.96576431E+03</totfact>
</mgrwt>
</event>
<event>
 5    1  0.3296424E-002  0.1250003E+03  0.7818608E-02  0.1235069E+00
          4   -1    0    0  501    0  0.00000000000E+00  0.00000000000E+00  0.15625873371E+03  0.15626389461E+03  0.12700000000E+01 0. -1.
         -4   -1    0    0    0  501 -0.00000000000E+00 -0.00000000000E+00 -0.24977015771E+02  0.25009282613E+02  0.12700000000E+01 0. -1.
         25    2    1    2    0    0  0.00000000000E+00  0.00000000000E+00  0.13128171794E+03  0.18127317723E+03  0.12500030127E+03 0.  0.
    9000005    1    3    3    0    0  0.54535405590E+01  0.61743832197E+02  0.77172031418E+02  0.98987697984E+02  0.10000000000E+01 0.  0.
    9000005    1    3    3    0    0 -0.54535405590E+01 -0.61743832197E+02  0.54109686517E+02  0.82285479241E+02  0.10000000000E+01 0.  0.
<mgrwt>
<rscale>  0 0.12500030E+03</rscale>
<asrwt>0</asrwt>
<pdfrwt beam="1">  1        4 0.24042684E-01 0.12500030E+03</pdfrwt>
<pdfrwt beam="2">  1       -4 0.38454969E-02 0.12500030E+03</pdfrwt>
<totfact> 0.93387697E+03</totfact>
</mgrwt>
</event>
<event>
 5    1  0.3296424E-002  0.1250033E+03  0.7818608E-02  0.1235064E+00
          4   -1    0    0  501    0  0.00000000000E+00  0.00000000000E+00  0.74646571076E+01  0.75719221955E+01  0.12700000000E+01 0.  1.
         -4   -1    0    0    0  501 -0.00000000000E+00 -0.00000000000E+00 -0.51948609655E+03  0.51948764895E+03  0.12700000000E+01 0.  1.
         25    2    1    2    0    0  0.00000000000E+00  0.00000000000E+00 -0.51202143944E+03  0.52705957114E+03  0.12500334829E+03 0.  0.
    9000005    1    3    3    0    0  0.21543274921E+01 -0.60362524149E+02 -0.32362833993E+03  0.32921813112E+03  0.10000000000E+01 0.  0.
    9000005    1    3    3    0    0 -0.21543274921E+01  0.60362524149E+02 -0.18839309951E+03  0.19784144002E+03  0.10000000000E+01 0.  0.
<mgrwt>
<rscale>  0 0.12500335E+03</rscale>
<asrwt>0</asrwt>
<pdfrwt beam="1">  1        4 0.11567798E-02 0.12500335E+03</pdfrwt>
<pdfrwt beam="2">  1       -4 0.79929280E-01 0.12500335E+03</pdfrwt>
<totfact> 0.53820398E+03</totfact>
</mgrwt>
</event>
<event>
 5    1  0.3296424E-002  0.1250005E+03  0.7818608E-02  0.1235068E+00
         -4   -1    0    0    0  501 -0.00000000000E+00  0.00000000000E+00  0.76145350593E+01  0.77197178815E+01  0.12700000000E+01 0. -1.
          4   -1    0    0  501    0  0.00000000000E+00 -0.00000000000E+00 -0.50937849920E+03  0.50938008240E+03  0.12700000000E+01 0. -1.
         25    2    1    2    0    0  0.00000000000E+00  0.00000000000E+00 -0.50176396414E+03  0.51709980028E+03  0.12500051097E+03 0.  0.
    9000005    1    3    3    0    0 -0.37991901047E+02  0.47805177379E+02 -0.19591375860E+03  0.20521189132E+03  0.10000000000E+01 0.  0.
    9000005    1    3    3    0    0  0.37991901047E+02 -0.47805177379E+02 -0.30585020553E+03  0.31188790896E+03  0.10000000000E+01 0.  0.
<mgrwt>
<rscale>  0 0.12500051E+03</rscale>
<asrwt>0</asrwt>
<pdfrwt beam="2">  1        4 0.78374109E-01 0.12500051E+03</pdfrwt>
<pdfrwt beam="1">  1       -4 0.11796801E-02 0.12500051E+03</pdfrwt>
<totfact> 0.54561018E+03</totfact>
</mgrwt>
</event>
<event>
 5    1  0.3296424E-002  0.1249803E+03  0.7818608E-02  0.1235100E+00
          4   -1    0    0  501    0  0.00000000000E+00  0.00000000000E+00  0.11083605018E+04  0.11083612294E+04  0.12700000000E+01 0.  1.
         -4   -1    0    0    0  501 -0.00000000000E+00 -0.00000000000E+00 -0.34080393487E+01  0.36369811935E+01  0.12700000000E+01 0.  1.
         25    2    1    2    0    0  0.00000000000E+00  0.00000000000E+00  0.11049524624E+04  0.11119982106E+04  0.12498030284E+03 0.  0.
    9000005    1    3    3    0    0 -0.56468297404E+02  0.24053243822E+02  0.65653835052E+03  0.65940187507E+03  0.10000000000E+01 0.  0.
    9000005    1    3    3    0    0  0.56468297404E+02 -0.24053243822E+02  0.44841411190E+03  0.45259633549E+03  0.10000000000E+01 0.  0.
<mgrwt>
<rscale>  0 0.12498030E+03</rscale>
<asrwt>0</asrwt>
<pdfrwt beam="1">  1        4 0.17053463E+00 0.12498030E+03</pdfrwt>
<pdfrwt beam="2">  1       -4 0.54198076E-03 0.12498030E+03</pdfrwt>
<totfact> 0.27146539E+03</totfact>
</mgrwt>
</event>
<event>
 5    1  0.3296424E-002  0.1249998E+03  0.7818608E-02  0.1235070E+00
         -4   -1    0    0    0  501 -0.00000000000E+00  0.00000000000E+00  0.38794191488E+02  0.38814973827E+02  0.12700000000E+01 0.  1.
          4   -1    0    0  501    0  0.00000000000E+00 -0.00000000000E+00 -0.10063956343E+03  0.10064757636E+03  0.12700000000E+01 0.  1.
         25    2    1    2    0    0  0.00000000000E+00  0.00000000000E+00 -0.61845371939E+02  0.13946255019E+03  0.12499981150E+03 0.  0.
    9000005    1    3    3    0    0  0.19547746664E+02  0.42219036077E+01  0.35133090260E+02  0.40438507650E+02  0.10000000000E+01 0.  0.
    9000005    1    3    3    0    0 -0.19547746664E+02 -0.42219036077E+01 -0.96978462199E+02  0.99024042536E+02  0.10000000000E+01 0.  0.
<mgrwt>
<rscale>  0 0.12499981E+03</rscale>
<asrwt>0</asrwt>
<pdfrwt beam="2">  1        4 0.15485225E-01 0.12499981E+03</pdfrwt>
<pdfrwt beam="1">  1       -4 0.59705522E-02 0.12499981E+03</pdfrwt>
<totfact> 0.10144780E+04</totfact>
</mgrwt>
</event>
<event>
 5    1  0.3296424E-002  0.1249743E+03  0.7818608E-02  0.1235109E+00
          4   -1    0    0  501    0  0.00000000000E+00  0.00000000000E+00  0.21661856943E+01  0.25110277701E+01  0.12700000000E+01 0.  1.
         -4   -1    0    0    0  501 -0.00000000000E+00 -0.00000000000E+00 -0.16693002532E+04  0.16693007363E+04  0.12700000000E+01 0.  1.
         25    2    1    2    0    0  0.00000000000E+00  0.00000000000E+00 -0.16671340675E+04  0.16718117641E+04  0.12497429923E+03 0.  0.
    9000005    1    3    3    0    0 -0.22933982469E+01  0.41198170403E+02 -0.20596252476E+03  0.21005739817E+03  0.10000000000E+01 0.  0.
    9000005    1    3    3    0    0  0.22933982469E+01 -0.41198170403E+02 -0.14611715428E+04  0.14617543659E+04  0.10000000000E+01 0.  0.
<mgrwt>
<rscale>  0 0.12497430E+03</rscale>
<asrwt>0</asrwt>
<pdfrwt beam="1">  1        4 0.35982415E-03 0.12497430E+03</pdfrwt>
<pdfrwt beam="2">  1       -4 0.25684104E+00 0.12497430E+03</pdfrwt>
<totfact> 0.14792098E+03</totfact>
</mgrwt>
</event>
<event>
 5    1  0.3296424E-002  0.1249987E+03  0.7818608E-02  0.1235071E+00
          4   -1    0    0  501    0  0.00000000000E+00  0.00000000000E+00  0.63759652168E+02  0.63772299195E+02  0.12700000000E+01 0.  1.
         -4   -1    0    0    0  501 -0.00000000000E+00 -0.00000000000E+00 -0.61238619254E+02  0.61251786816E+02  0.12700000000E+01 0.  1.
         25    2    1    2    0    0  0.00000000000E+00  0.00000000000E+00  0.25210329140E+01  0.12502408601E+03  0.12499866590E+03 0.  0.
    9000005    1    3    3    0    0 -0.41440757717E+02 -0.67687092241E+01 -0.45030801264E+02  0.61578607382E+02  0.10000000000E+01 0.  0.
    9000005    1    3    3    0    0  0.41440757717E+02  0.67687092241E+01  0.47551834178E+02  0.63445478628E+02  0.10000000000E+01 0.  0.
<mgrwt>
<rscale>  0 0.12499867E+03</rscale>
<asrwt>0</asrwt>
<pdfrwt beam="1">  1        4 0.98111630E-02 0.12499867E+03</pdfrwt>
<pdfrwt beam="2">  1       -4 0.94233118E-02 0.12499867E+03</pdfrwt>
<totfact> 0.10452655E+04</totfact>
</mgrwt>
</event>
<event>
 5    1  0.3296424E-002  0.1249925E+03  0.7818608E-02  0.1235081E+00
         -4   -1    0    0    0  501 -0.00000000000E+00  0.00000000000E+00  0.57365407503E+02  0.57379463905E+02  0.12700000000E+01 0.  1.
          4   -1    0    0  501    0  0.00000000000E+00 -0.00000000000E+00 -0.68057716231E+02  0.68069564701E+02  0.12700000000E+01 0.  1.
         25    2    1    2    0    0  0.00000000000E+00  0.00000000000E+00 -0.10692308728E+02  0.12544902861E+03  0.12499253303E+03 0.  0.
    9000005    1    3    3    0    0  0.42808466224E+02 -0.40411310945E+02 -0.26378463433E+02  0.64517146293E+02  0.10000000000E+01 0.  0.
    9000005    1    3    3    0    0 -0.42808466224E+02  0.40411310945E+02  0.15686154705E+02  0.60931882313E+02  0.10000000000E+01 0.  0.
<mgrwt>
<rscale>  0 0.12499253E+03</rscale>
<asrwt>0</asrwt>
<pdfrwt beam="2">  1        4 0.10472411E-01 0.12499253E+03</pdfrwt>
<pdfrwt beam="1">  1       -4 0.88274400E-02 0.12499253E+03</pdfrwt>
<totfact> 0.10444840E+04</totfact>
</mgrwt>
</event>
<event>
 5    1  0.3296424E-002  0.1250346E+03  0.7818608E-02  0.1235015E+00
          4   -1    0    0  501    0  0.00000000000E+00  0.00000000000E+00  0.15189709875E+01  0.19799426408E+01  0.12700000000E+01 0.  1.
         -4   -1    0    0    0  501 -0.00000000000E+00 -0.00000000000E+00 -0.22336110535E+04  0.22336114146E+04  0.12700000000E+01 0.  1.
         25    2    1    2    0    0  0.00000000000E+00  0.00000000000E+00 -0.22320920825E+04  0.22355913572E+04  0.12503460137E+03 0.  0.
    9000005    1    3    3    0    0  0.40557998933E+02  0.23731880650E+02 -0.18530877327E+04  0.18536837105E+04  0.10000000000E+01 0.  0.
    9000005    1    3    3    0    0 -0.40557998933E+02 -0.23731880650E+02 -0.37900434979E+03  0.38190764668E+03  0.10000000000E+01 0.  0.
<mgrwt>
<rscale>  0 0.12503460E+03</rscale>
<asrwt>0</asrwt>
<pdfrwt beam="1">  1        4 0.26917676E-03 0.12503460E+03</pdfrwt>
<pdfrwt beam="2">  1       -4 0.34366567E+00 0.12503460E+03</pdfrwt>
<totfact> 0.70858490E+02</totfact>
</mgrwt>
</event>
<event>
 5    1  0.3296424E-002  0.1250018E+03  0.7818608E-02  0.1235066E+00
          4   -1    0    0  501    0  0.00000000000E+00  0.00000000000E+00  0.83225794634E+02  0.83235483974E+02  0.12700000000E+01 0. -1.
         -4   -1    0    0    0  501 -0.00000000000E+00 -0.00000000000E+00 -0.46915927424E+02  0.46933113534E+02  0.12700000000E+01 0. -1.
         25    2    1    2    0    0  0.00000000000E+00  0.00000000000E+00  0.36309867211E+02  0.13016859751E+03  0.12500182927E+03 0.  0.
    9000005    1    3    3    0    0  0.10641903083E+02 -0.59585764193E+02  0.34342594443E+02  0.69599764287E+02  0.10000000000E+01 0.  0.
    9000005    1    3    3    0    0 -0.10641903083E+02  0.59585764193E+02  0.19672727675E+01  0.60568833222E+02  0.10000000000E+01 0.  0.
<mgrwt>
<rscale>  0 0.12500183E+03</rscale>
<asrwt>0</asrwt>
<pdfrwt beam="1">  1        4 0.12806036E-01 0.12500183E+03</pdfrwt>
<pdfrwt beam="2">  1       -4 0.72199024E-02 0.12500183E+03</pdfrwt>
<totfact> 0.10340475E+04</totfact>
</mgrwt>
</event>
<event>
 5    1  0.3296424E-002  0.1250015E+03  0.7818608E-02  0.1235067E+00
         -4   -1    0    0    0  501 -0.00000000000E+00  0.00000000000E+00  0.16900349845E+02  0.16948000616E+02  0.12700000000E+01 0.  1.
          4   -1    0    0  501    0  0.00000000000E+00 -0.00000000000E+00 -0.23076496373E+03  0.23076845838E+03  0.12700000000E+01 0.  1.
         25    2    1    2    0    0  0.00000000000E+00  0.00000000000E+00 -0.21386461388E+03  0.24771645900E+03  0.12500148394E+03 0.  0.
    9000005    1    3    3    0    0 -0.25548129800E+01  0.56433609891E+02 -0.53977173491E+02  0.78139712392E+02  0.10000000000E+01 0.  0.
    9000005    1    3    3    0    0  0.25548129800E+01 -0.56433609891E+02 -0.15988744039E+03  0.16957674661E+03  0.10000000000E+01 0.  0.
<mgrwt>
<rscale>  0 0.12500148E+03</rscale>
<asrwt>0</asrwt>
<pdfrwt beam="2">  1        4 0.35506234E-01 0.12500148E+03</pdfrwt>
<pdfrwt beam="1">  1       -4 0.26039883E-02 0.12500148E+03</pdfrwt>
<totfact> 0.82658663E+03</totfact>
</mgrwt>
</event>
<event>
 5    1  0.3296424E-002  0.1249994E+03  0.7818608E-02  0.1235070E+00
         -4   -1    0    0    0  501 -0.00000000000E+00  0.00000000000E+00  0.93119483495E+01  0.93981531199E+01  0.12700000000E+01 0. -1.
          4   -1    0    0  501    0  0.00000000000E+00 -0.00000000000E+00 -0.41746396070E+03  0.41746589248E+03  0.12700000000E+01 0. -1.
         25    2    1    2    0    0  0.00000000000E+00  0.00000000000E+00 -0.40815201235E+03  0.42686404560E+03  0.12499939296E+03 0.  0.
    9000005    1    3    3    0    0  0.52659109647E+02  0.33518844257E+02 -0.21415861539E+03  0.22307265026E+03  0.10000000000E+01 0.  0.
    9000005    1    3    3    0    0 -0.52659109647E+02 -0.33518844257E+02 -0.19399339696E+03  0.20379139533E+03  0.10000000000E+01 0.  0.
<mgrwt>
<rscale>  0 0.12499939E+03</rscale>
<asrwt>0</asrwt>
<pdfrwt beam="2">  1        4 0.64231990E-01 0.12499939E+03</pdfrwt>
<pdfrwt beam="1">  1       -4 0.14393875E-02 0.12499939E+03</pdfrwt>
<totfact> 0.62022115E+03</totfact>
</mgrwt>
</event>
<event>
 5    1  0.3296424E-002  0.1249988E+03  0.7818608E-02  0.1235071E+00
         -4   -1    0    0    0  501 -0.00000000000E+00  0.00000000000E+00  0.95486716911E+01  0.96327582272E+01  0.12700000000E+01 0.  1.
          4   -1    0    0  501    0  0.00000000000E+00 -0.00000000000E+00 -0.40720200736E+03  0.40720398782E+03  0.12700000000E+01 0.  1.
         25    2    1    2    0    0  0.00000000000E+00  0.00000000000E+00 -0.39765333567E+03  0.41683674605E+03  0.12499878995E+03 0.  0.
    9000005    1    3    3    0    0  0.22779792510E+01 -0.40125537647E+02 -0.35840390852E+03  0.36065164577E+03  0.10000000000E+01 0.  0.
    9000005    1    3    3    0    0 -0.22779792510E+01  0.40125537647E+02 -0.39249427153E+02  0.56185100274E+02  0.10000000000E+01 0.  0.
<mgrwt>
<rscale>  0 0.12499879E+03</rscale>
<asrwt>0</asrwt>
<pdfrwt beam="2">  1        4 0.62653070E-01 0.12499879E+03</pdfrwt>
<pdfrwt beam="1">  1       -4 0.14756473E-02 0.12499879E+03</pdfrwt>
<totfact> 0.62949245E+03</totfact>
</mgrwt>
</event>
<event>
 5    1  0.3296424E-002  0.1249986E+03  0.7818608E-02  0.1235071E+00
          4   -1    0    0  501    0  0.00000000000E+00  0.00000000000E+00  0.80100683941E+02  0.80110751262E+02  0.12700000000E+01 0.  1.
         -4   -1    0    0    0  501 -0.00000000000E+00 -0.00000000000E+00 -0.48744273491E+02  0.48760815192E+02  0.12700000000E+01 0.  1.
         25    2    1    2    0    0  0.00000000000E+00  0.00000000000E+00  0.31356410450E+02  0.12887156645E+03  0.12499862465E+03 0.  0.
    9000005    1    3    3    0    0  0.60094736652E+01  0.27471619696E+02  0.73213760090E+02  0.78435058035E+02  0.10000000000E+01 0.  0.
    9000005    1    3    3    0    0 -0.60094736652E+01 -0.27471619696E+02 -0.41857349641E+02  0.50436508418E+02  0.10000000000E+01 0.  0.
<mgrwt>
<rscale>  0 0.12499862E+03</rscale>
<asrwt>0</asrwt>
<pdfrwt beam="1">  1        4 0.12325229E-01 0.12499862E+03</pdfrwt>
<pdfrwt beam="2">  1       -4 0.75011659E-02 0.12499862E+03</pdfrwt>
<totfact> 0.10369029E+04</totfact>
</mgrwt>
</event>
<event>
 5    1  0.3296424E-002  0.1249953E+03  0.7818608E-02  0.1235077E+00
         -4   -1    0    0    0  501 -0.00000000000E+00  0.00000000000E+00  0.12213468913E+02  0.12279320946E+02  0.12700000000E+01 0.  1.
          4   -1    0    0  501    0  0.00000000000E+00 -0.00000000000E+00 -0.31888043606E+03  0.31888296506E+03  0.12700000000E+01 0.  1.
         25    2    1    2    0    0  0.00000000000E+00  0.00000000000E+00 -0.30666696715E+03  0.33116228600E+03  0.12499532363E+03 0.  0.
    9000005    1    3    3    0    0  0.59772371857E+02 -0.59884033983E+01 -0.19894317500E+03  0.20781718960E+03  0.10000000000E+01 0.  0.
    9000005    1    3    3    0    0 -0.59772371857E+02  0.59884033983E+01 -0.10772379215E+03  0.12334509641E+03  0.10000000000E+01 0.  0.
<mgrwt>
<rscale>  0 0.12499532E+03</rscale>
<asrwt>0</asrwt>
<pdfrwt beam="2">  1        4 0.49063783E-01 0.12499532E+03</pdfrwt>
<pdfrwt beam="1">  1       -4 0.18842555E-02 0.12499532E+03</pdfrwt>
<totfact> 0.71855342E+03</totfact>
</mgrwt>
</event>
<event>
 5    1  0.3296424E-002  0.1250250E+03  0.7818608E-02  0.1235030E+00
         -4   -1    0    0    0  501 -0.00000000000E+00  0.00000000000E+00  0.60563316894E+03  0.60563450052E+03  0.12700000000E+01 0.  1.
          4   -1    0    0  501    0  0.00000000000E+00 -0.00000000000E+00 -0.63885939094E+01  0.65136036216E+01  0.12700000000E+01 0.  1.
         25    2    1    2    0    0  0.00000000000E+00  0.00000000000E+00  0.59924457503E+03  0.61214810414E+03  0.12502496031E+03 0.  0.
    9000005    1    3    3    0    0  0.16946236297E+02  0.49895533477E+02  0.13502880035E+03  0.14495004695E+03  0.10000000000E+01 0.  0.
    9000005    1    3    3    0    0 -0.16946236297E+02 -0.49895533477E+02  0.46421577468E+03  0.46719805719E+03  0.10000000000E+01 0.  0.
<mgrwt>
<rscale>  0 0.12502496E+03</rscale>
<asrwt>0</asrwt>
<pdfrwt beam="2">  1        4 0.99257923E-03 0.12502496E+03</pdfrwt>
<pdfrwt beam="1">  1       -4 0.93184046E-01 0.12502496E+03</pdfrwt>
<totfact> 0.48083345E+03</totfact>
</mgrwt>
</event>
<event>
 5    1  0.3296424E-002  0.1249968E+03  0.7818608E-02  0.1235074E+00
          4   -1    0    0  501    0  0.00000000000E+00  0.00000000000E+00  0.10761283333E+03  0.10762032706E+03  0.12700000000E+01 0. -1.
         -4   -1    0    0    0  501 -0.00000000000E+00 -0.00000000000E+00 -0.36277352833E+02  0.36299576149E+02  0.12700000000E+01 0. -1.
         25    2    1    2    0    0  0.00000000000E+00  0.00000000000E+00  0.71335480497E+02  0.14391990321E+03  0.12499675101E+03 0.  0.
    9000005    1    3    3    0    0  0.55967916087E+02 -0.19478619944E+02  0.12835874084E+02  0.60643086412E+02  0.10000000000E+01 0.  0.
    9000005    1    3    3    0    0 -0.55967916087E+02  0.19478619944E+02  0.58499606413E+02  0.83276816801E+02  0.10000000000E+01 0.  0.
<mgrwt>
<rscale>  0 0.12499675E+03</rscale>
<asrwt>0</asrwt>
<pdfrwt beam="1">  1        4 0.16558107E-01 0.12499675E+03</pdfrwt>
<pdfrwt beam="2">  1       -4 0.55834171E-02 0.12499675E+03</pdfrwt>
<totfact> 0.10053715E+04</totfact>
</mgrwt>
</event>
<event>
 5    1  0.3296424E-002  0.1250212E+03  0.7818608E-02  0.1235036E+00
          4   -1    0    0  501    0  0.00000000000E+00  0.00000000000E+00  0.95926823033E+01  0.96763864005E+01  0.12700000000E+01 0.  1.
         -4   -1    0    0    0  501 -0.00000000000E+00 -0.00000000000E+00 -0.40549556603E+03  0.40549755483E+03  0.12700000000E+01 0.  1.
         25    2    1    2    0    0  0.00000000000E+00  0.00000000000E+00 -0.39590288373E+03  0.41517394123E+03  0.12502123072E+03 0.  0.
    9000005    1    3    3    0    0  0.34351086626E+01 -0.24788575199E+02 -0.77545842639E+01  0.26218447876E+02  0.10000000000E+01 0.  0.
    9000005    1    3    3    0    0 -0.34351086626E+01  0.24788575199E+02 -0.38814829946E+03  0.38895549335E+03  0.10000000000E+01 0.  0.
<mgrwt>
<rscale>  0 0.12502123E+03</rscale>
<asrwt>0</asrwt>
<pdfrwt beam="1">  1        4 0.14823894E-02 0.12502123E+03</pdfrwt>
<pdfrwt beam="2">  1       -4 0.62390512E-01 0.12502123E+03</pdfrwt>
<totfact> 0.63073727E+03</totfact>
</mgrwt>
</event>
<event>
 5    1  0.3296424E-002  0.1249978E+03  0.7818608E-02  0.1235073E+00
         -4   -1    0    0    0  501 -0.00000000000E+00  0.00000000000E+00  0.17726230177E+03  0.17726685118E+03  0.12700000000E+01 0. -1.
          4   -1    0    0  501    0  0.00000000000E+00 -0.00000000000E+00 -0.22012625605E+02  0.22049230962E+02  0.12700000000E+01 0. -1.
         25    2    1    2    0    0  0.00000000000E+00  0.00000000000E+00  0.15524967616E+03  0.19931608214E+03  0.12499775459E+03 0.  0.
    9000005    1    3    3    0    0 -0.42432601004E+02  0.14280257440E+02  0.14714201890E+03  0.15380580323E+03  0.10000000000E+01 0.  0.
    9000005    1    3    3    0    0  0.42432601004E+02 -0.14280257440E+02  0.81076572589E+01  0.45510278913E+02  0.10000000000E+01 0.  0.
<mgrwt>
<rscale>  0 0.12499775E+03</rscale>
<asrwt>0</asrwt>
<pdfrwt beam="2">  1        4 0.33897236E-02 0.12499775E+03</pdfrwt>
<pdfrwt beam="1">  1       -4 0.27274288E-01 0.12499775E+03</pdfrwt>
<totfact> 0.90255518E+03</totfact>
</mgrwt>
</event>
<event>
 5    1  0.3296424E-002  0.1250129E+03  0.7818608E-02  0.1235049E+00
          4   -1    0    0  501    0  0.00000000000E+00  0.00000000000E+00  0.37911741397E+02  0.37933007207E+02  0.12700000000E+01 0.  1.
         -4   -1    0    0    0  501 -0.00000000000E+00 -0.00000000000E+00 -0.10300260800E+03  0.10301043711E+03  0.12700000000E+01 0.  1.
         25    2    1    2    0    0  0.00000000000E+00  0.00000000000E+00 -0.65090866601E+02  0.14094344432E+03  0.12501293366E+03 0.  0.
    9000005    1    3    3    0    0  0.23294594883E+02  0.24831682002E+02 -0.91634083696E+02  0.97760195768E+02  0.10000000000E+01 0.  0.
    9000005    1    3    3    0    0 -0.23294594883E+02 -0.24831682002E+02  0.26543217096E+02  0.43183248553E+02  0.10000000000E+01 0.  0.
<mgrwt>
<rscale>  0 0.12501293E+03</rscale>
<asrwt>0</asrwt>
<pdfrwt beam="1">  1        4 0.58348137E-02 0.12501293E+03</pdfrwt>
<pdfrwt beam="2">  1       -4 0.15848793E-01 0.12501293E+03</pdfrwt>
<totfact> 0.10111124E+04</totfact>
</mgrwt>
</event>
<event>
 5    1  0.3296424E-002  0.1249957E+03  0.7818608E-02  0.1235076E+00
         -4   -1    0    0    0  501 -0.00000000000E+00  0.00000000000E+00  0.89415676671E+01  0.90313084514E+01  0.12700000000E+01 0.  1.
          4   -1    0    0  501    0  0.00000000000E+00 -0.00000000000E+00 -0.43456254066E+03  0.43456439643E+03  0.12700000000E+01 0.  1.
         25    2    1    2    0    0  0.00000000000E+00  0.00000000000E+00 -0.42562097299E+03  0.44359570488E+03  0.12499574688E+03 0.  0.
    9000005    1    3    3    0    0 -0.18145954989E+02 -0.15171541746E+02 -0.75408354191E+01  0.24845835873E+02  0.10000000000E+01 0.  0.
    9000005    1    3    3    0    0  0.18145954989E+02  0.15171541746E+02 -0.41808013757E+03  0.41874986901E+03  0.10000000000E+01 0.  0.
<mgrwt>
<rscale>  0 0.12499575E+03</rscale>
<asrwt>0</asrwt>
<pdfrwt beam="2">  1        4 0.66862805E-01 0.12499575E+03</pdfrwt>
<pdfrwt beam="1">  1       -4 0.13826720E-02 0.12499575E+03</pdfrwt>
<totfact> 0.60528321E+03</totfact>
</mgrwt>
</event>
<event>
 5    1  0.3296424E-002  0.1249999E+03  0.7818608E-02  0.1235069E+00
         -4   -1    0    0    0  501 -0.00000000000E+00  0.00000000000E+00  0.26734909578E+02  0.26765057260E+02  0.12700000000E+01 0.  1.
          4   -1    0    0  501    0  0.00000000000E+00 -0.00000000000E+00 -0.14599504794E+03  0.14600057166E+03  0.12700000000E+01 0.  1.
         25    2    1    2    0    0  0.00000000000E+00  0.00000000000E+00 -0.11926013837E+03  0.17276562892E+03  0.12499992773E+03 0.  0.
    9000005    1    3    3    0    0  0.15612900016E+02 -0.42810092467E+02 -0.11873560722E+03  0.12718337583E+03  0.10000000000E+01 0.  0.
    9000005    1    3    3    0    0 -0.15612900016E+02  0.42810092467E+02 -0.52453114377E+00  0.45582253091E+02  0.10000000000E+01 0.  0.
<mgrwt>
<rscale>  0 0.12499993E+03</rscale>
<asrwt>0</asrwt>
<pdfrwt beam="2">  1        4 0.22463520E-01 0.12499993E+03</pdfrwt>
<pdfrwt beam="1">  1       -4 0.41158071E-02 0.12499993E+03</pdfrwt>
<totfact> 0.94935815E+03</totfact>
</mgrwt>
</event>
<event>
 5    1  0.3296424E-002  0.1249994E+03  0.7818608E-02  0.1235070E+00
         -4   -1    0    0    0  501 -0.00000000000E+00  0.00000000000E+00  0.52725550369E+02  0.52740843392E+02  0.12700000000E+01 0. -1.
          4   -1    0    0  501    0  0.00000000000E+00 -0.00000000000E+00 -0.74054327916E+02  0.74065217093E+02  0.12700000000E+01 0. -1.
         25    2    1    2    0    0  0.00000000000E+00  0.00000000000E+00 -0.21328777547E+02  0.12680606049E+03  0.12499944090E+03 0.  0.
    9000005    1    3    3    0    0 -0.14190089363E+02 -0.57204036206E+02 -0.31738528056E+02  0.66947700166E+02  0.10000000000E+01 0.  0.
    9000005    1    3    3    0    0  0.14190089363E+02  0.57204036206E+02  0.10409750509E+02  0.59858360319E+02  0.10000000000E+01 0.  0.
<mgrwt>
<rscale>  0 0.12499944E+03</rscale>
<asrwt>0</asrwt>
<pdfrwt beam="2">  1        4 0.11394988E-01 0.12499944E+03</pdfrwt>
<pdfrwt beam="1">  1       -4 0.81136371E-02 0.12499944E+03</pdfrwt>
<totfact> 0.10413493E+04</totfact>
</mgrwt>
</event>
<event>
 5    1  0.3296424E-002  0.1250016E+03  0.7818608E-02  0.1235067E+00
         -4   -1    0    0    0  501 -0.00000000000E+00  0.00000000000E+00  0.23511636621E+03  0.23511979619E+03  0.12700000000E+01 0. -1.
          4   -1    0    0  501    0  0.00000000000E+00 -0.00000000000E+00 -0.16586712972E+02  0.16635262162E+02  0.12700000000E+01 0. -1.
         25    2    1    2    0    0  0.00000000000E+00  0.00000000000E+00  0.21852965324E+03  0.25175505835E+03  0.12500160023E+03 0.  0.
    9000005    1    3    3    0    0  0.24335368045E+02 -0.29825464707E+02  0.20841453697E+03  0.21194194418E+03  0.10000000000E+01 0.  0.
    9000005    1    3    3    0    0 -0.24335368045E+02  0.29825464707E+02  0.10115116271E+02  0.39813114172E+02  0.10000000000E+01 0.  0.
<mgrwt>
<rscale>  0 0.12500160E+03</rscale>
<asrwt>0</asrwt>
<pdfrwt beam="2">  1        4 0.25558004E-02 0.12500160E+03</pdfrwt>
<pdfrwt beam="1">  1       -4 0.36175748E-01 0.12500160E+03</pdfrwt>
<totfact> 0.82074300E+03</totfact>
</mgrwt>
</event>
<event>
 5    1  0.3296424E-002  0.1249991E+03  0.7818608E-02  0.1235071E+00
         -4   -1    0    0    0  501 -0.00000000000E+00  0.00000000000E+00  0.81309387947E+02  0.81319305631E+02  0.12700000000E+01 0. -1.
          4   -1    0    0  501    0  0.00000000000E+00 -0.00000000000E+00 -0.48019850628E+02  0.48036641789E+02  0.12700000000E+01 0. -1.
         25    2    1    2    0    0  0.00000000000E+00  0.00000000000E+00  0.33289537319E+02  0.12935594742E+03  0.12499907135E+03 0.  0.
    9000005    1    3    3    0    0  0.18240210753E+02  0.59764428814E+02  0.15779119924E+02  0.64455200452E+02  0.10000000000E+01 0.  0.
    9000005    1    3    3    0    0 -0.18240210753E+02 -0.59764428814E+02  0.17510417394E+02  0.64900746968E+02  0.10000000000E+01 0.  0.
<mgrwt>
<rscale>  0 0.12499907E+03</rscale>
<asrwt>0</asrwt>
<pdfrwt beam="2">  1        4 0.73897238E-02 0.12499907E+03</pdfrwt>
<pdfrwt beam="1">  1       -4 0.12511191E-01 0.12499907E+03</pdfrwt>
<totfact> 0.10358522E+04</totfact>
</mgrwt>
</event>
<event>
 5    1  0.3296424E-002  0.1249992E+03  0.7818608E-02  0.1235070E+00
         -4   -1    0    0    0  501 -0.00000000000E+00  0.00000000000E+00  0.12850191511E+02  0.12912796826E+02  0.12700000000E+01 0.  1.
          4   -1    0    0  501    0  0.00000000000E+00 -0.00000000000E+00 -0.30317742020E+03  0.30318008018E+03  0.12700000000E+01 0.  1.
         25    2    1    2    0    0  0.00000000000E+00  0.00000000000E+00 -0.29032722869E+03  0.31609287700E+03  0.12499922870E+03 0.  0.
    9000005    1    3    3    0    0  0.19243586555E+02  0.55442197360E+02 -0.90865983339E+02  0.10817476508E+03  0.10000000000E+01 0.  0.
    9000005    1    3    3    0    0 -0.19243586555E+02 -0.55442197360E+02 -0.19946124535E+03  0.20791811193E+03  0.10000000000E+01 0.  0.
<mgrwt>
<rscale>  0 0.12499923E+03</rscale>
<asrwt>0</asrwt>
<pdfrwt beam="2">  1        4 0.46647695E-01 0.12499923E+03</pdfrwt>
<pdfrwt beam="1">  1       -4 0.19819732E-02 0.12499923E+03</pdfrwt>
<totfact> 0.73624509E+03</totfact>
</mgrwt>
</event>
<event>
 5    1  0.3296424E-002  0.1250031E+03  0.7818608E-02  0.1235064E+00
         -4   -1    0    0    0  501 -0.00000000000E+00  0.00000000000E+00  0.85782886523E+02  0.85792287068E+02  0.12700000000E+01 0. -1.
          4   -1    0    0  501    0  0.00000000000E+00 -0.00000000000E+00 -0.45517962992E+02  0.45535676727E+02  0.12700000000E+01 0. -1.
         25    2    1    2    0    0  0.00000000000E+00  0.00000000000E+00  0.40264923531E+02  0.13132796379E+03  0.12500307999E+03 0.  0.
    9000005    1    3    3    0    0 -0.13443293978E+02  0.57796198627E+02  0.40728460740E+02  0.71978679086E+02  0.10000000000E+01 0.  0.
    9000005    1    3    3    0    0  0.13443293978E+02 -0.57796198627E+02 -0.46353720895E+00  0.59349284709E+02  0.10000000000E+01 0.  0.
<mgrwt>
<rscale>  0 0.12500308E+03</rscale>
<asrwt>0</asrwt>
<pdfrwt beam="2">  1        4 0.70048493E-02 0.12500308E+03</pdfrwt>
<pdfrwt beam="1">  1       -4 0.13199453E-01 0.12500308E+03</pdfrwt>
<totfact> 0.10315347E+04</totfact>
</mgrwt>
</event>
<event>
 5    1  0.3296424E-002  0.1250010E+03  0.7818608E-02  0.1235068E+00
          4   -1    0    0  501    0  0.00000000000E+00  0.00000000000E+00  0.14325101467E+02  0.14381287565E+02  0.12700000000E+01 0.  1.
         -4   -1    0    0    0  501 -0.00000000000E+00 -0.00000000000E+00 -0.27209874499E+03  0.27210170879E+03  0.12700000000E+01 0.  1.
         25    2    1    2    0    0  0.00000000000E+00  0.00000000000E+00 -0.25777364353E+03  0.28648299636E+03  0.12500102361E+03 0.  0.
    9000005    1    3    3    0    0 -0.16516774092E+02 -0.19905991561E+02 -0.25926565625E+03  0.26055466381E+03  0.10000000000E+01 0.  0.
    9000005    1    3    3    0    0  0.16516774092E+02  0.19905991561E+02  0.14920127201E+01  0.25928332542E+02  0.10000000000E+01 0.  0.
<mgrwt>
<rscale>  0 0.12500102E+03</rscale>
<asrwt>0</asrwt>
<pdfrwt beam="1">  1        4 0.22084120E-02 0.12500102E+03</pdfrwt>
<pdfrwt beam="2">  1       -4 0.41865892E-01 0.12500102E+03</pdfrwt>
<totfact> 0.77324529E+03</totfact>
</mgrwt>
</event>
<event>
 5    1  0.3296424E-002  0.1250022E+03  0.7818608E-02  0.1235066E+00
         -4   -1    0    0    0  501 -0.00000000000E+00  0.00000000000E+00  0.54961519052E+02  0.54976190088E+02  0.12700000000E+01 0. -1.
          4   -1    0    0  501    0  0.00000000000E+00 -0.00000000000E+00 -0.71045157273E+02  0.71056507597E+02  0.12700000000E+01 0. -1.
         25    2    1    2    0    0  0.00000000000E+00  0.00000000000E+00 -0.16083638220E+02  0.12603269768E+03  0.12500222985E+03 0.  0.
    9000005    1    3    3    0    0 -0.42300628887E+02  0.33507072253E-01  0.38337879886E+02  0.57097612569E+02  0.10000000000E+01 0.  0.
    9000005    1    3    3    0    0  0.42300628887E+02 -0.33507072253E-01 -0.54421518106E+02  0.68935085116E+02  0.10000000000E+01 0.  0.
<mgrwt>
<rscale>  0 0.12500223E+03</rscale>
<asrwt>0</asrwt>
<pdfrwt beam="2">  1        4 0.10932026E-01 0.12500223E+03</pdfrwt>
<pdfrwt beam="1">  1       -4 0.84576200E-02 0.12500223E+03</pdfrwt>
<totfact> 0.10429716E+04</totfact>
</mgrwt>
</event>
<event>
 5    1  0.3296424E-002  0.1249990E+03  0.7818608E-02  0.1235071E+00
          4   -1    0    0  501    0  0.00000000000E+00  0.00000000000E+00  0.12861880243E+03  0.12862507235E+03  0.12700000000E+01 0.  1.
         -4   -1    0    0    0  501 -0.00000000000E+00 -0.00000000000E+00 -0.30349964293E+02  0.30376524366E+02  0.12700000000E+01 0.  1.
         25    2    1    2    0    0  0.00000000000E+00  0.00000000000E+00  0.98268838136E+02  0.15900159672E+03  0.12499897284E+03 0.  0.
    9000005    1    3    3    0    0 -0.46284072256E+02 -0.35462759307E+02  0.77729862220E+02  0.97173834559E+02  0.10000000000E+01 0.  0.
    9000005    1    3    3    0    0  0.46284072256E+02  0.35462759307E+02  0.20538975916E+02  0.61827762162E+02  0.10000000000E+01 0.  0.
<mgrwt>
<rscale>  0 0.12499897E+03</rscale>
<asrwt>0</asrwt>
<pdfrwt beam="1">  1        4 0.19790033E-01 0.12499897E+03</pdfrwt>
<pdfrwt beam="2">  1       -4 0.46717507E-02 0.12499897E+03</pdfrwt>
<totfact> 0.97537867E+03</totfact>
</mgrwt>
</event>
<event>
 5    1  0.3296424E-002  0.1250070E+03  0.7818608E-02  0.1235058E+00
          4   -1    0    0  501    0  0.00000000000E+00  0.00000000000E+00  0.74739111186E+01  0.75810452715E+01  0.12700000000E+01 0. -1.
         -4   -1    0    0    0  501 -0.00000000000E+00 -0.00000000000E+00 -0.51888252636E+03  0.51888408056E+03  0.12700000000E+01 0. -1.
         25    2    1    2    0    0  0.00000000000E+00  0.00000000000E+00 -0.51140861524E+03  0.52646512583E+03  0.12500702771E+03 0.  0.
    9000005    1    3    3    0    0 -0.31336369685E+01  0.61993664680E+02 -0.22514416248E+03  0.23354641518E+03  0.10000000000E+01 0.  0.
    9000005    1    3    3    0    0  0.31336369685E+01 -0.61993664680E+02 -0.28626445275E+03  0.29291871065E+03  0.10000000000E+01 0.  0.
<mgrwt>
<rscale>  0 0.12500703E+03</rscale>
<asrwt>0</asrwt>
<pdfrwt beam="1">  1        4 0.11581935E-02 0.12500703E+03</pdfrwt>
<pdfrwt beam="2">  1       -4 0.79836414E-01 0.12500703E+03</pdfrwt>
<totfact> 0.53859612E+03</totfact>
</mgrwt>
</event>
<event>
 5    1  0.3296424E-002  0.1250084E+03  0.7818608E-02  0.1235056E+00
          4   -1    0    0  501    0  0.00000000000E+00  0.00000000000E+00  0.60949298620E+01  0.62258389011E+01  0.12700000000E+01 0. -1.
         -4   -1    0    0    0  501 -0.00000000000E+00 -0.00000000000E+00 -0.63404531724E+03  0.63404658915E+03  0.12700000000E+01 0. -1.
         25    2    1    2    0    0  0.00000000000E+00  0.00000000000E+00 -0.62795038737E+03  0.64027242805E+03  0.12500837218E+03 0.  0.
    9000005    1    3    3    0    0 -0.19873058083E+02  0.59003054383E+02 -0.28616856768E+03  0.29286472644E+03  0.10000000000E+01 0.  0.
    9000005    1    3    3    0    0  0.19873058083E+02 -0.59003054383E+02 -0.34178181969E+03  0.34740770161E+03  0.10000000000E+01 0.  0.
<mgrwt>
<rscale>  0 0.12500837E+03</rscale>
<asrwt>0</asrwt>
<pdfrwt beam="1">  1        4 0.94784978E-03 0.12500837E+03</pdfrwt>
<pdfrwt beam="2">  1       -4 0.97555550E-01 0.12500837E+03</pdfrwt>
<totfact> 0.46411778E+03</totfact>
</mgrwt>
</event>
<event>
 5    1  0.3296424E-002  0.1250036E+03  0.7818608E-02  0.1235064E+00
         -4   -1    0    0    0  501 -0.00000000000E+00  0.00000000000E+00  0.70757184169E+02  0.70768580680E+02  0.12700000000E+01 0. -1.
          4   -1    0    0  501    0  0.00000000000E+00 -0.00000000000E+00 -0.55186402368E+02  0.55201013635E+02  0.12700000000E+01 0. -1.
         25    2    1    2    0    0  0.00000000000E+00  0.00000000000E+00  0.15570781801E+02  0.12596959432E+03  0.12500355773E+03 0.  0.
    9000005    1    3    3    0    0 -0.57165554149E+02 -0.24091915943E+02  0.16711552991E+00  0.62043121477E+02  0.10000000000E+01 0.  0.
    9000005    1    3    3    0    0  0.57165554149E+02  0.24091915943E+02  0.15403666271E+02  0.63926472839E+02  0.10000000000E+01 0.  0.
<mgrwt>
<rscale>  0 0.12500356E+03</rscale>
<asrwt>0</asrwt>
<pdfrwt beam="2">  1        4 0.84922163E-02 0.12500356E+03</pdfrwt>
<pdfrwt beam="1">  1       -4 0.10887721E-01 0.12500356E+03</pdfrwt>
<totfact> 0.10430786E+04</totfact>
</mgrwt>
</event>
<event>
 5    1  0.3296424E-002  0.1250007E+03  0.7818608E-02  0.1235068E+00
          4   -1    0    0  501    0  0.00000000000E+00  0.00000000000E+00  0.23967823529E+02  0.24001447138E+02  0.12700000000E+01 0. -1.
         -4   -1    0    0    0  501 -0.00000000000E+00 -0.00000000000E+00 -0.16283044931E+03  0.16283540193E+03  0.12700000000E+01 0. -1.
         25    2    1    2    0    0  0.00000000000E+00  0.00000000000E+00 -0.13886262578E+03  0.18683684907E+03  0.12500071732E+03 0.  0.
    9000005    1    3    3    0    0  0.45942700072E+02 -0.82976758492E+01 -0.73395267018E+01  0.47269988011E+02  0.10000000000E+01 0.  0.
    9000005    1    3    3    0    0 -0.45942700072E+02  0.82976758492E+01 -0.13152309907E+03  0.13956686105E+03  0.10000000000E+01 0.  0.
<mgrwt>
<rscale>  0 0.12500072E+03</rscale>
<asrwt>0</asrwt>
<pdfrwt beam="1">  1        4 0.36903250E-02 0.12500072E+03</pdfrwt>
<pdfrwt beam="2">  1       -4 0.25053805E-01 0.12500072E+03</pdfrwt>
<totfact> 0.92399139E+03</totfact>
</mgrwt>
</event>
<event>
 5    1  0.3296424E-002  0.1249983E+03  0.7818608E-02  0.1235072E+00
          4   -1    0    0  501    0  0.00000000000E+00  0.00000000000E+00  0.38951134625E+02  0.38971833272E+02  0.12700000000E+01 0. -1.
         -4   -1    0    0    0  501 -0.00000000000E+00 -0.00000000000E+00 -0.10023188385E+03  0.10023992937E+03  0.12700000000E+01 0. -1.
         25    2    1    2    0    0  0.00000000000E+00  0.00000000000E+00 -0.61280749220E+02  0.13921176264E+03  0.12499833852E+03 0.  0.
    9000005    1    3    3    0    0 -0.26673114191E+02 -0.47275164736E+02  0.38441597431E+01  0.54425855856E+02  0.10000000000E+01 0.  0.
    9000005    1    3    3    0    0  0.26673114191E+02  0.47275164736E+02 -0.65124908963E+02  0.84785906783E+02  0.10000000000E+01 0.  0.
<mgrwt>
<rscale>  0 0.12499834E+03</rscale>
<asrwt>0</asrwt>
<pdfrwt beam="1">  1        4 0.59946934E-02 0.12499834E+03</pdfrwt>
<pdfrwt beam="2">  1       -4 0.15422501E-01 0.12499834E+03</pdfrwt>
<totfact> 0.10150328E+04</totfact>
</mgrwt>
</event>
<event>
 5    1  0.3296424E-002  0.1249995E+03  0.7818608E-02  0.1235070E+00
         -4   -1    0    0    0  501 -0.00000000000E+00  0.00000000000E+00  0.66667412665E+03  0.66667533631E+03  0.12700000000E+01 0. -1.
          4   -1    0    0  501    0  0.00000000000E+00 -0.00000000000E+00 -0.57892133523E+01  0.59268787096E+01  0.12700000000E+01 0. -1.
         25    2    1    2    0    0  0.00000000000E+00  0.00000000000E+00  0.66088491330E+03  0.67260221502E+03  0.12499948410E+03 0.  0.
    9000005    1    3    3    0    0 -0.36001615280E+02  0.27700111027E+02  0.56136797765E+03  0.56320370984E+03  0.10000000000E+01 0.  0.
    9000005    1    3    3    0    0  0.36001615280E+02 -0.27700111027E+02  0.99516935653E+02  0.10939850518E+03  0.10000000000E+01 0.  0.
<mgrwt>
<rscale>  0 0.12499948E+03</rscale>
<asrwt>0</asrwt>
<pdfrwt beam="2">  1        4 0.90133067E-03 0.12499948E+03</pdfrwt>
<pdfrwt beam="1">  1       -4 0.10257596E+00 0.12499948E+03</pdfrwt>
<totfact> 0.44573471E+03</totfact>
</mgrwt>
</event>
<event>
 5    1  0.3296424E-002  0.1250015E+03  0.7818608E-02  0.1235067E+00
          4   -1    0    0  501    0  0.00000000000E+00  0.00000000000E+00  0.11301986196E+04  0.11301993331E+04  0.12700000000E+01 0.  1.
         -4   -1    0    0    0  501 -0.00000000000E+00 -0.00000000000E+00 -0.33389340544E+01  0.35723074643E+01  0.12700000000E+01 0.  1.
         25    2    1    2    0    0  0.00000000000E+00  0.00000000000E+00  0.11268596855E+04  0.11337716406E+04  0.12500152857E+03 0.  0.
    9000005    1    3    3    0    0  0.52984657751E+02 -0.28915690612E+02  0.71020083049E+03  0.71276202953E+03  0.10000000000E+01 0.  0.
    9000005    1    3    3    0    0 -0.52984657751E+02  0.28915690612E+02  0.41665885501E+03  0.42100961103E+03  0.10000000000E+01 0.  0.
<mgrwt>
<rscale>  0 0.12500153E+03</rscale>
<asrwt>0</asrwt>
<pdfrwt beam="1">  1        4 0.17389485E+00 0.12500153E+03</pdfrwt>
<pdfrwt beam="2">  1       -4 0.53168845E-03 0.12500153E+03</pdfrwt>
<totfact> 0.26513925E+03</totfact>
</mgrwt>
</event>
<event>
 5    1  0.3296424E-002  0.1249773E+03  0.7818608E-02  0.1235105E+00
          4   -1    0    0  501    0  0.00000000000E+00  0.00000000000E+00  0.17551606748E+02  0.17597494124E+02  0.12700000000E+01 0.  1.
         -4   -1    0    0    0  501 -0.00000000000E+00 -0.00000000000E+00 -0.22213909711E+03  0.22214272747E+03  0.12700000000E+01 0.  1.
         25    2    1    2    0    0  0.00000000000E+00  0.00000000000E+00 -0.20458749036E+03  0.23974022159E+03  0.12497732848E+03 0.  0.
    9000005    1    3    3    0    0  0.29431661203E+02 -0.54910681990E+02 -0.11137822183E+03  0.12762254494E+03  0.10000000000E+01 0.  0.
    9000005    1    3    3    0    0 -0.29431661203E+02  0.54910681990E+02 -0.93209268531E+02  0.11211767665E+03  0.10000000000E+01 0.  0.
<mgrwt>
<rscale>  0 0.12497733E+03</rscale>
<asrwt>0</asrwt>
<pdfrwt beam="1">  1        4 0.27040564E-02 0.12497733E+03</pdfrwt>
<pdfrwt beam="2">  1       -4 0.34179053E-01 0.12497733E+03</pdfrwt>
<totfact> 0.83878461E+03</totfact>
</mgrwt>
</event>
<event>
 5    1  0.3296424E-002  0.1250058E+03  0.7818608E-02  0.1235060E+00
          4   -1    0    0  501    0  0.00000000000E+00  0.00000000000E+00  0.48737642629E+02  0.48754186580E+02  0.12700000000E+01 0. -1.
         -4   -1    0    0    0  501 -0.00000000000E+00 -0.00000000000E+00 -0.80120761088E+02  0.80130825887E+02  0.12700000000E+01 0. -1.
         25    2    1    2    0    0  0.00000000000E+00  0.00000000000E+00 -0.31383118458E+02  0.12888501247E+03  0.12500578512E+03 0.  0.
    9000005    1    3    3    0    0 -0.25100968620E+02  0.56799977771E+02 -0.84511363839E+01  0.62679484734E+02  0.10000000000E+01 0.  0.
    9000005    1    3    3    0    0  0.25100968620E+02 -0.56799977771E+02 -0.22931982075E+02  0.66205527732E+02  0.10000000000E+01 0.  0.
<mgrwt>
<rscale>  0 0.12500579E+03</rscale>
<asrwt>0</asrwt>
<pdfrwt beam="1">  1        4 0.75001457E-02 0.12500579E+03</pdfrwt>
<pdfrwt beam="2">  1       -4 0.12328318E-01 0.12500579E+03</pdfrwt>
<totfact> 0.10367064E+04</totfact>
</mgrwt>
</event>
<event>
 5    1  0.3296424E-002  0.1249998E+03  0.7818608E-02  0.1235070E+00
          4   -1    0    0  501    0  0.00000000000E+00  0.00000000000E+00  0.33249652615E+02  0.33273898164E+02  0.12700000000E+01 0. -1.
         -4   -1    0    0    0  501 -0.00000000000E+00 -0.00000000000E+00 -0.11741164880E+03  0.11741851717E+03  0.12700000000E+01 0. -1.
         25    2    1    2    0    0  0.00000000000E+00  0.00000000000E+00 -0.84161996186E+02  0.15069241533E+03  0.12499984975E+03 0.  0.
    9000005    1    3    3    0    0 -0.41123648466E+02 -0.33086585175E+02 -0.17473433902E+01  0.52819785976E+02  0.10000000000E+01 0.  0.
    9000005    1    3    3    0    0  0.41123648466E+02  0.33086585175E+02 -0.82414652796E+02  0.97872629356E+02  0.10000000000E+01 0.  0.
<mgrwt>
<rscale>  0 0.12499985E+03</rscale>
<asrwt>0</asrwt>
<pdfrwt beam="1">  1        4 0.51177246E-02 0.12499985E+03</pdfrwt>
<pdfrwt beam="2">  1       -4 0.18065724E-01 0.12499985E+03</pdfrwt>
<totfact> 0.99166190E+03</totfact>
</mgrwt>
</event>
<event>
 5    1  0.3296424E-002  0.1250004E+03  0.7818608E-02  0.1235069E+00
          4   -1    0    0  501    0  0.00000000000E+00  0.00000000000E+00  0.71248428269E+02  0.71259746216E+02  0.12700000000E+01 0. -1.
         -4   -1    0    0    0  501 -0.00000000000E+00 -0.00000000000E+00 -0.54803087973E+02  0.54817801409E+02  0.12700000000E+01 0. -1.
         25    2    1    2    0    0  0.00000000000E+00  0.00000000000E+00  0.16445340297E+02  0.12607754763E+03  0.12500039519E+03 0.  0.
    9000005    1    3    3    0    0  0.90550443378E+01 -0.96328506796E+01  0.69826718337E+02  0.71074300798E+02  0.10000000000E+01 0.  0.
    9000005    1    3    3    0    0 -0.90550443378E+01  0.96328506796E+01 -0.53381378040E+02  0.55003246828E+02  0.10000000000E+01 0.  0.
<mgrwt>
<rscale>  0 0.12500040E+03</rscale>
<asrwt>0</asrwt>
<pdfrwt beam="1">  1        4 0.10963299E-01 0.12500040E+03</pdfrwt>
<pdfrwt beam="2">  1       -4 0.84332467E-02 0.12500040E+03</pdfrwt>
<totfact> 0.10429165E+04</totfact>
</mgrwt>
</event>
<event>
 4    1  0.3296424E-002  0.1253549E+03  0.7818608E-02  0.1234516E+00
         -4   -1    0    0    0  501 -0.00000000000E+00  0.00000000000E+00  0.70492917334E+02  0.70504356563E+02  0.12700000000E+01 0. -1.
          4   -1    0    0  501    0  0.00000000000E+00 -0.00000000000E+00 -0.55705239314E+02  0.55719714528E+02  0.12700000000E+01 0. -1.
    9000005    1    1    2    0    0 -0.16420016013E+02  0.60436929718E+02  0.96945842480E+01  0.63381577476E+02  0.10000000000E+01 0.  0.
    9000005    1    1    2    0    0  0.16420016013E+02 -0.60436929718E+02  0.50930937719E+01  0.62842493615E+02  0.10000000000E+01 0.  0.
<mgrwt>
<rscale>  0 0.12535486E+03</rscale>
<asrwt>0</asrwt>
<pdfrwt beam="2">  1        4 0.85720302E-02 0.12535486E+03</pdfrwt>
<pdfrwt beam="1">  1       -4 0.10847058E-01 0.12535486E+03</pdfrwt>
<totfact> 0.10342998E+04</totfact>
</mgrwt>
</event>
<event>
 5    1  0.3296424E-002  0.1250078E+03  0.7818608E-02  0.1235057E+00
          4   -1    0    0  501    0  0.00000000000E+00  0.00000000000E+00  0.89389006010E+01  0.90286678948E+01  0.12700000000E+01 0.  1.
         -4   -1    0    0    0  501 -0.00000000000E+00 -0.00000000000E+00 -0.43477488497E+03  0.43477673984E+03  0.12700000000E+01 0.  1.
         25    2    1    2    0    0  0.00000000000E+00  0.00000000000E+00 -0.42583598437E+03  0.44380540773E+03  0.12500781714E+03 0.  0.
    9000005    1    3    3    0    0 -0.48168577186E+02 -0.39748377534E+02 -0.22131427801E+03  0.22995902895E+03  0.10000000000E+01 0.  0.
    9000005    1    3    3    0    0  0.48168577186E+02  0.39748377534E+02 -0.20452170636E+03  0.21384637878E+03  0.10000000000E+01 0.  0.
<mgrwt>
<rscale>  0 0.12500782E+03</rscale>
<asrwt>0</asrwt>
<pdfrwt beam="1">  1        4 0.13822637E-02 0.12500782E+03</pdfrwt>
<pdfrwt beam="2">  1       -4 0.66895475E-01 0.12500782E+03</pdfrwt>
<totfact> 0.60493802E+03</totfact>
</mgrwt>
</event>
<event>
 5    1  0.3296424E-002  0.1250040E+03  0.7818608E-02  0.1235063E+00
          4   -1    0    0  501    0  0.00000000000E+00  0.00000000000E+00  0.68606175598E+03  0.68606293145E+03  0.12700000000E+01 0. -1.
         -4   -1    0    0    0  501 -0.00000000000E+00 -0.00000000000E+00 -0.56220866373E+01  0.57637451503E+01  0.12700000000E+01 0. -1.
         25    2    1    2    0    0  0.00000000000E+00  0.00000000000E+00  0.68043966934E+03  0.69182667661E+03  0.12500402733E+03 0.  0.
    9000005    1    3    3    0    0  0.53238200986E+02  0.25530207185E+02  0.22687814541E+03  0.23443717791E+03  0.10000000000E+01 0.  0.
    9000005    1    3    3    0    0 -0.53238200986E+02 -0.25530207185E+02  0.45356152393E+03  0.45738949869E+03  0.10000000000E+01 0.  0.
<mgrwt>
<rscale>  0 0.12500403E+03</rscale>
<asrwt>0</asrwt>
<pdfrwt beam="1">  1        4 0.10555896E+00 0.12500403E+03</pdfrwt>
<pdfrwt beam="2">  1       -4 0.87592359E-03 0.12500403E+03</pdfrwt>
<totfact> 0.43517836E+03</totfact>
</mgrwt>
</event>
<event>
 5    1  0.3296424E-002  0.1250367E+03  0.7818608E-02  0.1235012E+00
          4   -1    0    0  501    0  0.00000000000E+00  0.00000000000E+00  0.15723468076E+02  0.15774674271E+02  0.12700000000E+01 0.  1.
         -4   -1    0    0    0  501 -0.00000000000E+00 -0.00000000000E+00 -0.24812343165E+03  0.24812668182E+03  0.12700000000E+01 0.  1.
         25    2    1    2    0    0  0.00000000000E+00  0.00000000000E+00 -0.23239996357E+03  0.26390135609E+03  0.12503672533E+03 0.  0.
    9000005    1    3    3    0    0  0.23705761538E+02 -0.38837794168E+02 -0.20666553187E+03  0.21161753105E+03  0.10000000000E+01 0.  0.
    9000005    1    3    3    0    0 -0.23705761538E+02  0.38837794168E+02 -0.25734431702E+02  0.52283825042E+02  0.10000000000E+01 0.  0.
<mgrwt>
<rscale>  0 0.12503673E+03</rscale>
<asrwt>0</asrwt>
<pdfrwt beam="1">  1        4 0.24231842E-02 0.12503673E+03</pdfrwt>
<pdfrwt beam="2">  1       -4 0.38177022E-01 0.12503673E+03</pdfrwt>
<totfact> 0.80296019E+03</totfact>
</mgrwt>
</event>
<event>
 5    1  0.3296424E-002  0.1250016E+03  0.7818608E-02  0.1235067E+00
          4   -1    0    0  501    0  0.00000000000E+00  0.00000000000E+00  0.86975316497E+01  0.87897643198E+01  0.12700000000E+01 0.  1.
         -4   -1    0    0    0  501 -0.00000000000E+00 -0.00000000000E+00 -0.44667121232E+03  0.44667301778E+03  0.12700000000E+01 0.  1.
         25    2    1    2    0    0  0.00000000000E+00  0.00000000000E+00 -0.43797368067E+03  0.45546278210E+03  0.12500160367E+03 0.  0.
    9000005    1    3    3    0    0  0.12015087132E+02 -0.36298926080E+02 -0.39909461107E+03  0.40092328809E+03  0.10000000000E+01 0.  0.
    9000005    1    3    3    0    0 -0.12015087132E+02  0.36298926080E+02 -0.38879069598E+02  0.54539494004E+02  0.10000000000E+01 0.  0.
<mgrwt>
<rscale>  0 0.12500160E+03</rscale>
<asrwt>0</asrwt>
<pdfrwt beam="1">  1        4 0.13453158E-02 0.12500160E+03</pdfrwt>
<pdfrwt beam="2">  1       -4 0.68725864E-01 0.12500160E+03</pdfrwt>
<totfact> 0.59491366E+03</totfact>
</mgrwt>
</event>
<event>
 5    1  0.3296424E-002  0.1249936E+03  0.7818608E-02  0.1235079E+00
          4   -1    0    0  501    0  0.00000000000E+00  0.00000000000E+00  0.58263640323E+02  0.58277480073E+02  0.12700000000E+01 0. -1.
         -4   -1    0    0    0  501 -0.00000000000E+00 -0.00000000000E+00 -0.67009652331E+02  0.67021686084E+02  0.12700000000E+01 0. -1.
         25    2    1    2    0    0  0.00000000000E+00  0.00000000000E+00 -0.87460120083E+01  0.12529916616E+03  0.12499355309E+03 0.  0.
    9000005    1    3    3    0    0  0.10804645516E+02 -0.54191605399E+02 -0.33622706711E+02  0.64691242584E+02  0.10000000000E+01 0.  0.
    9000005    1    3    3    0    0 -0.10804645516E+02  0.54191605399E+02  0.24876694703E+02  0.60607923573E+02  0.10000000000E+01 0.  0.
<mgrwt>
<rscale>  0 0.12499355E+03</rscale>
<asrwt>0</asrwt>
<pdfrwt beam="1">  1        4 0.89656272E-02 0.12499355E+03</pdfrwt>
<pdfrwt beam="2">  1       -4 0.10311168E-01 0.12499355E+03</pdfrwt>
<totfact> 0.10447890E+04</totfact>
</mgrwt>
</event>
<event>
 5    1  0.3296424E-002  0.1249943E+03  0.7818608E-02  0.1235078E+00
         -4   -1    0    0    0  501 -0.00000000000E+00  0.00000000000E+00  0.24140808156E+01  0.27277621202E+01  0.12700000000E+01 0. -1.
          4   -1    0    0  501    0  0.00000000000E+00 -0.00000000000E+00 -0.15189451395E+04  0.15189456704E+04  0.12700000000E+01 0. -1.
         25    2    1    2    0    0  0.00000000000E+00  0.00000000000E+00 -0.15165310586E+04  0.15216734325E+04  0.12499433334E+03 0.  0.
    9000005    1    3    3    0    0  0.40631301388E+02 -0.27934885559E+02 -0.12255982077E+04  0.12265900812E+04  0.10000000000E+01 0.  0.
    9000005    1    3    3    0    0 -0.40631301388E+02  0.27934885559E+02 -0.29093285094E+03  0.29508335134E+03  0.10000000000E+01 0.  0.
<mgrwt>
<rscale>  0 0.12499433E+03</rscale>
<asrwt>0</asrwt>
<pdfrwt beam="2">  1        4 0.23370732E+00 0.12499433E+03</pdfrwt>
<pdfrwt beam="1">  1       -4 0.39556843E-03 0.12499433E+03</pdfrwt>
<totfact> 0.17510526E+03</totfact>
</mgrwt>
</event>
<event>
 5    1  0.3296424E-002  0.1250006E+03  0.7818608E-02  0.1235068E+00
         -4   -1    0    0    0  501 -0.00000000000E+00  0.00000000000E+00  0.49954214517E+02  0.49970355693E+02  0.12700000000E+01 0.  1.
          4   -1    0    0  501    0  0.00000000000E+00 -0.00000000000E+00 -0.78163381315E+02  0.78173698126E+02  0.12700000000E+01 0.  1.
         25    2    1    2    0    0  0.00000000000E+00  0.00000000000E+00 -0.28209166798E+02  0.12814405382E+03  0.12500056575E+03 0.  0.
    9000005    1    3    3    0    0  0.30257375985E+02  0.19722493941E+02 -0.66385108490E+02  0.75580871905E+02  0.10000000000E+01 0.  0.
    9000005    1    3    3    0    0 -0.30257375985E+02 -0.19722493941E+02  0.38175941692E+02  0.52563181913E+02  0.10000000000E+01 0.  0.
<mgrwt>
<rscale>  0 0.12500057E+03</rscale>
<asrwt>0</asrwt>
<pdfrwt beam="2">  1        4 0.12027171E-01 0.12500057E+03</pdfrwt>
<pdfrwt beam="1">  1       -4 0.76872990E-02 0.12500057E+03</pdfrwt>
<totfact> 0.10384245E+04</totfact>
</mgrwt>
</event>
<event>
 5    1  0.3296424E-002  0.1250024E+03  0.7818608E-02  0.1235066E+00
         -4   -1    0    0    0  501 -0.00000000000E+00  0.00000000000E+00  0.25551506657E+03  0.25551822273E+03  0.12700000000E+01 0.  1.
          4   -1    0    0  501    0  0.00000000000E+00 -0.00000000000E+00 -0.15258707266E+02  0.15311467840E+02  0.12700000000E+01 0.  1.
         25    2    1    2    0    0  0.00000000000E+00  0.00000000000E+00  0.24025635931E+03  0.27082969057E+03  0.12500241240E+03 0.  0.
    9000005    1    3    3    0    0 -0.47890807356E+02  0.32951083664E+02  0.16982298230E+03  0.17949971772E+03  0.10000000000E+01 0.  0.
    9000005    1    3    3    0    0  0.47890807356E+02 -0.32951083664E+02  0.70433377002E+02  0.91329972844E+02  0.10000000000E+01 0.  0.
<mgrwt>
<rscale>  0 0.12500241E+03</rscale>
<asrwt>0</asrwt>
<pdfrwt beam="2">  1        4 0.23517949E-02 0.12500241E+03</pdfrwt>
<pdfrwt beam="1">  1       -4 0.39314308E-01 0.12500241E+03</pdfrwt>
<totfact> 0.79405627E+03</totfact>
</mgrwt>
</event>
<event>
 5    1  0.3296424E-002  0.1250062E+03  0.7818608E-02  0.1235060E+00
          4   -1    0    0  501    0  0.00000000000E+00  0.00000000000E+00  0.11789234429E+02  0.11857442744E+02  0.12700000000E+01 0. -1.
         -4   -1    0    0    0  501 -0.00000000000E+00 -0.00000000000E+00 -0.33034776676E+03  0.33035020796E+03  0.12700000000E+01 0. -1.
         25    2    1    2    0    0  0.00000000000E+00  0.00000000000E+00 -0.31855853233E+03  0.34220765071E+03  0.12500615058E+03 0.  0.
    9000005    1    3    3    0    0 -0.11873500180E+02 -0.13292904782E+02  0.46972712913E+01  0.18459297973E+02  0.10000000000E+01 0.  0.
    9000005    1    3    3    0    0  0.11873500180E+02  0.13292904782E+02 -0.32325580362E+03  0.32374835273E+03  0.10000000000E+01 0.  0.
<mgrwt>
<rscale>  0 0.12500615E+03</rscale>
<asrwt>0</asrwt>
<pdfrwt beam="1">  1        4 0.18191632E-02 0.12500615E+03</pdfrwt>
<pdfrwt beam="2">  1       -4 0.50828161E-01 0.12500615E+03</pdfrwt>
<totfact> 0.70580795E+03</totfact>
</mgrwt>
</event>
<event>
 5    1  0.3296424E-002  0.1250010E+03  0.7818608E-02  0.1235068E+00
          4   -1    0    0  501    0  0.00000000000E+00  0.00000000000E+00  0.61187195329E+02  0.61200373955E+02  0.12700000000E+01 0. -1.
         -4   -1    0    0    0  501 -0.00000000000E+00 -0.00000000000E+00 -0.63815620579E+02  0.63828256517E+02  0.12700000000E+01 0. -1.
         25    2    1    2    0    0  0.00000000000E+00  0.00000000000E+00 -0.26284252506E+01  0.12502863047E+03  0.12500099927E+03 0.  0.
    9000005    1    3    3    0    0  0.14699702307E+02  0.38983792661E+02 -0.47902347884E+02  0.63493718358E+02  0.10000000000E+01 0.  0.
    9000005    1    3    3    0    0 -0.14699702307E+02 -0.38983792661E+02  0.45273922633E+02  0.61534912113E+02  0.10000000000E+01 0.  0.
<mgrwt>
<rscale>  0 0.12500100E+03</rscale>
<asrwt>0</asrwt>
<pdfrwt beam="1">  1        4 0.94154004E-02 0.12500100E+03</pdfrwt>
<pdfrwt beam="2">  1       -4 0.98197735E-02 0.12500100E+03</pdfrwt>
<totfact> 0.10452005E+04</totfact>
</mgrwt>
</event>
<event>
 5    1  0.3296424E-002  0.1249988E+03  0.7818608E-02  0.1235071E+00
         -4   -1    0    0    0  501 -0.00000000000E+00  0.00000000000E+00  0.65972745481E+02  0.65984968335E+02  0.12700000000E+01 0.  1.
          4   -1    0    0  501    0  0.00000000000E+00 -0.00000000000E+00 -0.59184378265E+02  0.59198002758E+02  0.12700000000E+01 0.  1.
         25    2    1    2    0    0  0.00000000000E+00  0.00000000000E+00  0.67883672158E+01  0.12518297109E+03  0.12499877728E+03 0.  0.
    9000005    1    3    3    0    0  0.35952830809E+01  0.62357199012E+02  0.53534026502E+01  0.62697729217E+02  0.10000000000E+01 0.  0.
    9000005    1    3    3    0    0 -0.35952830809E+01 -0.62357199012E+02  0.14349645656E+01  0.62485241877E+02  0.10000000000E+01 0.  0.
<mgrwt>
<rscale>  0 0.12499878E+03</rscale>
<asrwt>0</asrwt>
<pdfrwt beam="2">  1        4 0.91072772E-02 0.12499878E+03</pdfrwt>
<pdfrwt beam="1">  1       -4 0.10151641E-01 0.12499878E+03</pdfrwt>
<totfact> 0.10449179E+04</totfact>
</mgrwt>
</event>
<event>
 5    1  0.3296424E-002  0.1250067E+03  0.7818608E-02  0.1235059E+00
         -4   -1    0    0    0  501 -0.00000000000E+00  0.00000000000E+00  0.11768546264E+03  0.11769231503E+03  0.12700000000E+01 0. -1.
          4   -1    0    0  501    0  0.00000000000E+00 -0.00000000000E+00 -0.33175881484E+02  0.33200180907E+02  0.12700000000E+01 0. -1.
         25    2    1    2    0    0  0.00000000000E+00  0.00000000000E+00  0.84509581156E+02  0.15089249594E+03  0.12500670391E+03 0.  0.
    9000005    1    3    3    0    0 -0.34530867576E+02 -0.52089201404E+02  0.42323996512E+02  0.75485007778E+02  0.10000000000E+01 0.  0.
    9000005    1    3    3    0    0  0.34530867576E+02  0.52089201404E+02  0.42185584644E+02  0.75407488157E+02  0.10000000000E+01 0.  0.
<mgrwt>
<rscale>  0 0.12500670E+03</rscale>
<asrwt>0</asrwt>
<pdfrwt beam="2">  1        4 0.51063781E-02 0.12500670E+03</pdfrwt>
<pdfrwt beam="1">  1       -4 0.18107852E-01 0.12500670E+03</pdfrwt>
<totfact> 0.99111136E+03</totfact>
</mgrwt>
</event>
<event>
 5    1  0.3296424E-002  0.1249986E+03  0.7818608E-02  0.1235071E+00
         -4   -1    0    0    0  501 -0.00000000000E+00  0.00000000000E+00  0.70828292115E+01  0.71957883265E+01  0.12700000000E+01 0. -1.
          4   -1    0    0  501    0  0.00000000000E+00 -0.00000000000E+00 -0.54702095321E+03  0.54702242747E+03  0.12700000000E+01 0. -1.
         25    2    1    2    0    0  0.00000000000E+00  0.00000000000E+00 -0.53993812400E+03  0.55421821579E+03  0.12499861187E+03 0.  0.
    9000005    1    3    3    0    0  0.25448217723E+02 -0.18263731501E+02 -0.50972168470E+03  0.51068421899E+03  0.10000000000E+01 0.  0.
    9000005    1    3    3    0    0 -0.25448217723E+02  0.18263731501E+02 -0.30216439298E+02  0.43533996801E+02  0.10000000000E+01 0.  0.
<mgrwt>
<rscale>  0 0.12499861E+03</rscale>
<asrwt>0</asrwt>
<pdfrwt beam="2">  1        4 0.84165839E-01 0.12499861E+03</pdfrwt>
<pdfrwt beam="1">  1       -4 0.10984690E-02 0.12499861E+03</pdfrwt>
<totfact> 0.51892772E+03</totfact>
</mgrwt>
</event>
<event>
 5    1  0.3296424E-002  0.1250032E+03  0.7818608E-02  0.1235064E+00
          4   -1    0    0  501    0  0.00000000000E+00  0.00000000000E+00  0.31144494115E+03  0.31144753053E+03  0.12700000000E+01 0.  1.
         -4   -1    0    0    0  501 -0.00000000000E+00 -0.00000000000E+00 -0.12508192377E+02  0.12572500807E+02  0.12700000000E+01 0.  1.
         25    2    1    2    0    0  0.00000000000E+00  0.00000000000E+00  0.29893674878E+03  0.32402003133E+03  0.12500320370E+03 0.  0.
    9000005    1    3    3    0    0 -0.56826331906E+02 -0.17860357205E+02  0.10047671257E+03  0.11681093325E+03  0.10000000000E+01 0.  0.
    9000005    1    3    3    0    0  0.56826331906E+02  0.17860357205E+02  0.19846003621E+03  0.20720909808E+03  0.10000000000E+01 0.  0.
<mgrwt>
<rscale>  0 0.12500320E+03</rscale>
<asrwt>0</asrwt>
<pdfrwt beam="1">  1        4 0.47919751E-01 0.12500320E+03</pdfrwt>
<pdfrwt beam="2">  1       -4 0.19294833E-02 0.12500320E+03</pdfrwt>
<totfact> 0.72675372E+03</totfact>
</mgrwt>
</event>
<event>
 5    1  0.3296424E-002  0.1249979E+03  0.7818608E-02  0.1235072E+00
         -4   -1    0    0    0  501 -0.00000000000E+00  0.00000000000E+00  0.10779140601E+03  0.10779888733E+03  0.12700000000E+01 0. -1.
          4   -1    0    0  501    0  0.00000000000E+00 -0.00000000000E+00 -0.36217912715E+02  0.36240172481E+02  0.12700000000E+01 0. -1.
         25    2    1    2    0    0  0.00000000000E+00  0.00000000000E+00  0.71573493298E+02  0.14403905981E+03  0.12499794322E+03 0.  0.
    9000005    1    3    3    0    0  0.47150065275E+02  0.16223160475E+02 -0.76181059500E+01  0.50451512658E+02  0.10000000000E+01 0.  0.
    9000005    1    3    3    0    0 -0.47150065275E+02 -0.16223160475E+02  0.79191599248E+02  0.93587547156E+02  0.10000000000E+01 0.  0.
<mgrwt>
<rscale>  0 0.12499794E+03</rscale>
<asrwt>0</asrwt>
<pdfrwt beam="2">  1        4 0.55742745E-02 0.12499794E+03</pdfrwt>
<pdfrwt beam="1">  1       -4 0.16585581E-01 0.12499794E+03</pdfrwt>
<totfact> 0.10051015E+04</totfact>
</mgrwt>
</event>
<event>
 5    1  0.3296424E-002  0.1249940E+03  0.7818608E-02  0.1235079E+00
         -4   -1    0    0    0  501 -0.00000000000E+00  0.00000000000E+00  0.19680020614E+03  0.19680430391E+03  0.12700000000E+01 0.  1.
          4   -1    0    0  501    0  0.00000000000E+00 -0.00000000000E+00 -0.19822276151E+02  0.19862918512E+02  0.12700000000E+01 0.  1.
         25    2    1    2    0    0  0.00000000000E+00  0.00000000000E+00  0.17697792999E+03  0.21666722242E+03  0.12499399013E+03 0.  0.
    9000005    1    3    3    0    0  0.46900790936E+02  0.40361684171E+02  0.10361296767E+03  0.12068718577E+03  0.10000000000E+01 0.  0.
    9000005    1    3    3    0    0 -0.46900790936E+02 -0.40361684171E+02  0.73364962323E+02  0.95980036655E+02  0.10000000000E+01 0.  0.
<mgrwt>
<rscale>  0 0.12499399E+03</rscale>
<asrwt>0</asrwt>
<pdfrwt beam="2">  1        4 0.30530223E-02 0.12499399E+03</pdfrwt>
<pdfrwt beam="1">  1       -4 0.30280398E-01 0.12499399E+03</pdfrwt>
<totfact> 0.87410215E+03</totfact>
</mgrwt>
</event>
<event>
 5    1  0.3296424E-002  0.1249984E+03  0.7818608E-02  0.1235072E+00
         -4   -1    0    0    0  501 -0.00000000000E+00  0.00000000000E+00  0.13913443272E+02  0.13971284969E+02  0.12700000000E+01 0.  1.
          4   -1    0    0  501    0  0.00000000000E+00 -0.00000000000E+00 -0.28010504227E+03  0.28010792136E+03  0.12700000000E+01 0.  1.
         25    2    1    2    0    0  0.00000000000E+00  0.00000000000E+00 -0.26619159900E+03  0.29407920633E+03  0.12499844885E+03 0.  0.
    9000005    1    3    3    0    0 -0.31517007425E+02  0.30999346939E+02 -0.29181800640E+02  0.52979795737E+02  0.10000000000E+01 0.  0.
    9000005    1    3    3    0    0  0.31517007425E+02 -0.30999346939E+02 -0.23700979836E+03  0.24109941059E+03  0.10000000000E+01 0.  0.
<mgrwt>
<rscale>  0 0.12499845E+03</rscale>
<asrwt>0</asrwt>
<pdfrwt beam="2">  1        4 0.43097750E-01 0.12499845E+03</pdfrwt>
<pdfrwt beam="1">  1       -4 0.21452008E-02 0.12499845E+03</pdfrwt>
<totfact> 0.76350217E+03</totfact>
</mgrwt>
</event>
<event>
 5    1  0.3296424E-002  0.1250002E+03  0.7818608E-02  0.1235069E+00
          4   -1    0    0  501    0  0.00000000000E+00  0.00000000000E+00  0.99075712643E+02  0.99083852043E+02  0.12700000000E+01 0.  1.
         -4   -1    0    0    0  501 -0.00000000000E+00 -0.00000000000E+00 -0.39407031122E+02  0.39427490433E+02  0.12700000000E+01 0.  1.
         25    2    1    2    0    0  0.00000000000E+00  0.00000000000E+00  0.59668681520E+02  0.13851134248E+03  0.12500016176E+03 0.  0.
    9000005    1    3    3    0    0 -0.12854922820E+02  0.49963274779E+02 -0.92434029521E+01  0.52421544859E+02  0.10000000000E+01 0.  0.
    9000005    1    3    3    0    0  0.12854922820E+02 -0.49963274779E+02  0.68912084473E+02  0.86089797617E+02  0.10000000000E+01 0.  0.
<mgrwt>
<rscale>  0 0.12500016E+03</rscale>
<asrwt>0</asrwt>
<pdfrwt beam="1">  1        4 0.15244617E-01 0.12500016E+03</pdfrwt>
<pdfrwt beam="2">  1       -4 0.60648201E-02 0.12500016E+03</pdfrwt>
<totfact> 0.10164495E+04</totfact>
</mgrwt>
</event>
<event>
 5    1  0.3296424E-002  0.1250011E+03  0.7818608E-02  0.1235068E+00
          4   -1    0    0  501    0  0.00000000000E+00  0.00000000000E+00  0.53260378151E+02  0.53275517649E+02  0.12700000000E+01 0.  1.
         -4   -1    0    0    0  501 -0.00000000000E+00 -0.00000000000E+00 -0.73312769272E+02  0.73323768577E+02  0.12700000000E+01 0.  1.
         25    2    1    2    0    0  0.00000000000E+00  0.00000000000E+00 -0.20052391122E+02  0.12659928623E+03  0.12500112353E+03 0.  0.
    9000005    1    3    3    0    0  0.58657890390E+02  0.79607301096E+01  0.10259840960E+02  0.60086484882E+02  0.10000000000E+01 0.  0.
    9000005    1    3    3    0    0 -0.58657890390E+02 -0.79607301096E+01 -0.30312232082E+02  0.66512801344E+02  0.10000000000E+01 0.  0.
<mgrwt>
<rscale>  0 0.12500112E+03</rscale>
<asrwt>0</asrwt>
<pdfrwt beam="1">  1        4 0.81959150E-02 0.12500112E+03</pdfrwt>
<pdfrwt beam="2">  1       -4 0.11280898E-01 0.12500112E+03</pdfrwt>
<totfact> 0.10417600E+04</totfact>
</mgrwt>
</event>
<event>
 5    1  0.3296424E-002  0.1249973E+03  0.7818608E-02  0.1235074E+00
          4   -1    0    0  501    0  0.00000000000E+00  0.00000000000E+00  0.29107246235E+03  0.29107523295E+03  0.12700000000E+01 0.  1.
         -4   -1    0    0    0  501 -0.00000000000E+00 -0.00000000000E+00 -0.13386727936E+02  0.13446835495E+02  0.12700000000E+01 0.  1.
         25    2    1    2    0    0  0.00000000000E+00  0.00000000000E+00  0.27768573441E+03  0.30452206844E+03  0.12499729227E+03 0.  0.
    9000005    1    3    3    0    0 -0.43412141096E+02 -0.41612662696E+02  0.18024823676E+03  0.19001751115E+03  0.10000000000E+01 0.  0.
    9000005    1    3    3    0    0  0.43412141096E+02  0.41612662696E+02  0.97437497652E+02  0.11450455729E+03  0.10000000000E+01 0.  0.
<mgrwt>
<rscale>  0 0.12499729E+03</rscale>
<asrwt>0</asrwt>
<pdfrwt beam="1">  1        4 0.44785214E-01 0.12499729E+03</pdfrwt>
<pdfrwt beam="2">  1       -4 0.20643335E-02 0.12499729E+03</pdfrwt>
<totfact> 0.75039587E+03</totfact>
</mgrwt>
</event>
<event>
 5    1  0.3296424E-002  0.1250015E+03  0.7818608E-02  0.1235067E+00
         -4   -1    0    0    0  501 -0.00000000000E+00  0.00000000000E+00  0.35889849240E+03  0.35890073941E+03  0.12700000000E+01 0.  1.
          4   -1    0    0  501    0  0.00000000000E+00 -0.00000000000E+00 -0.10844918719E+02  0.10919027522E+02  0.12700000000E+01 0.  1.
         25    2    1    2    0    0  0.00000000000E+00  0.00000000000E+00  0.34805357368E+03  0.36981976693E+03  0.12500147943E+03 0.  0.
    9000005    1    3    3    0    0  0.12831823691E+02 -0.48846026347E+02  0.28292103586E+03  0.28739502870E+03  0.10000000000E+01 0.  0.
    9000005    1    3    3    0    0 -0.12831823691E+02  0.48846026347E+02  0.65132537822E+02  0.82424738230E+02  0.10000000000E+01 0.  0.
<mgrwt>
<rscale>  0 0.12500148E+03</rscale>
<asrwt>0</asrwt>
<pdfrwt beam="2">  1        4 0.16743228E-02 0.12500148E+03</pdfrwt>
<pdfrwt beam="1">  1       -4 0.55221020E-01 0.12500148E+03</pdfrwt>
<totfact> 0.67595588E+03</totfact>
</mgrwt>
</event>
<event>
 5    1  0.3296424E-002  0.1250112E+03  0.7818608E-02  0.1235052E+00
          4   -1    0    0  501    0  0.00000000000E+00  0.00000000000E+00  0.18337480150E+02  0.18381405775E+02  0.12700000000E+01 0.  1.
         -4   -1    0    0    0  501 -0.00000000000E+00 -0.00000000000E+00 -0.21275741398E+03  0.21276120441E+03  0.12700000000E+01 0.  1.
         25    2    1    2    0    0  0.00000000000E+00  0.00000000000E+00 -0.19441993383E+03  0.23114261019E+03  0.12501118180E+03 0.  0.
    9000005    1    3    3    0    0 -0.46079203539E+02  0.27961383607E+02 -0.38716350568E+02  0.66370835262E+02  0.10000000000E+01 0.  0.
    9000005    1    3    3    0    0  0.46079203539E+02 -0.27961383607E+02 -0.15570358326E+03  0.16477177493E+03  0.10000000000E+01 0.  0.
<mgrwt>
<rscale>  0 0.12501118E+03</rscale>
<asrwt>0</asrwt>
<pdfrwt beam="1">  1        4 0.28248214E-02 0.12501118E+03</pdfrwt>
<pdfrwt beam="2">  1       -4 0.32735579E-01 0.12501118E+03</pdfrwt>
<totfact> 0.85113223E+03</totfact>
</mgrwt>
</event>
<event>
 5    1  0.3296424E-002  0.1249990E+03  0.7818608E-02  0.1235071E+00
          4   -1    0    0  501    0  0.00000000000E+00  0.00000000000E+00  0.12756877904E+03  0.12757510057E+03  0.12700000000E+01 0. -1.
         -4   -1    0    0    0  501 -0.00000000000E+00 -0.00000000000E+00 -0.30599995547E+02  0.30626338787E+02  0.12700000000E+01 0. -1.
         25    2    1    2    0    0  0.00000000000E+00  0.00000000000E+00  0.96968783494E+02  0.15820143936E+03  0.12499900177E+03 0.  0.
    9000005    1    3    3    0    0  0.13275970635E+02 -0.18704139308E+02 -0.25086133124E+02  0.34006033269E+02  0.10000000000E+01 0.  0.
    9000005    1    3    3    0    0 -0.13275970635E+02  0.18704139308E+02  0.12205491662E+03  0.12419540609E+03  0.10000000000E+01 0.  0.
<mgrwt>
<rscale>  0 0.12499900E+03</rscale>
<asrwt>0</asrwt>
<pdfrwt beam="1">  1        4 0.19628479E-01 0.12499900E+03</pdfrwt>
<pdfrwt beam="2">  1       -4 0.47102043E-02 0.12499900E+03</pdfrwt>
<totfact> 0.97692850E+03</totfact>
</mgrwt>
</event>
<event>
 5    1  0.3296424E-002  0.1250026E+03  0.7818608E-02  0.1235065E+00
         -4   -1    0    0    0  501 -0.00000000000E+00  0.00000000000E+00  0.15093067759E+02  0.15146405329E+02  0.12700000000E+01 0. -1.
          4   -1    0    0  501    0  0.00000000000E+00 -0.00000000000E+00 -0.25831022661E+03  0.25831334861E+03  0.12700000000E+01 0. -1.
         25    2    1    2    0    0  0.00000000000E+00  0.00000000000E+00 -0.24321715885E+03  0.27345975394E+03  0.12500260264E+03 0.  0.
    9000005    1    3    3    0    0 -0.40687712933E+02  0.28904188103E+02 -0.39332928918E+02  0.63553295516E+02  0.10000000000E+01 0.  0.
    9000005    1    3    3    0    0  0.40687712933E+02 -0.28904188103E+02 -0.20388422993E+03  0.20990645842E+03  0.10000000000E+01 0.  0.
<mgrwt>
<rscale>  0 0.12500260E+03</rscale>
<asrwt>0</asrwt>
<pdfrwt beam="2">  1        4 0.39744375E-01 0.12500260E+03</pdfrwt>
<pdfrwt beam="1">  1       -4 0.23263537E-02 0.12500260E+03</pdfrwt>
<totfact> 0.79048789E+03</totfact>
</mgrwt>
</event>
<event>
 5    1  0.3296424E-002  0.1249958E+03  0.7818608E-02  0.1235076E+00
          4   -1    0    0  501    0  0.00000000000E+00  0.00000000000E+00  0.19905104745E+03  0.19905509888E+03  0.12700000000E+01 0. -1.
         -4   -1    0    0    0  501 -0.00000000000E+00 -0.00000000000E+00 -0.19598254909E+02  0.19639360873E+02  0.12700000000E+01 0. -1.
         25    2    1    2    0    0  0.00000000000E+00  0.00000000000E+00  0.17945279254E+03  0.21869445976E+03  0.12499584784E+03 0.  0.
    9000005    1    3    3    0    0 -0.54073986722E+02 -0.26256865579E+02  0.59850929234E+02  0.84832498255E+02  0.10000000000E+01 0.  0.
    9000005    1    3    3    0    0  0.54073986722E+02  0.26256865579E+02  0.11960186331E+03  0.13386196150E+03  0.10000000000E+01 0.  0.
<mgrwt>
<rscale>  0 0.12499585E+03</rscale>
<asrwt>0</asrwt>
<pdfrwt beam="1">  1        4 0.30626712E-01 0.12499585E+03</pdfrwt>
<pdfrwt beam="2">  1       -4 0.30185898E-02 0.12499585E+03</pdfrwt>
<totfact> 0.87083433E+03</totfact>
</mgrwt>
</event>
<event>
 5    1  0.3296424E-002  0.1249958E+03  0.7818608E-02  0.1235076E+00
         -4   -1    0    0    0  501 -0.00000000000E+00  0.00000000000E+00  0.22570661216E+03  0.22571018513E+03  0.12700000000E+01 0.  1.
          4   -1    0    0  501    0  0.00000000000E+00 -0.00000000000E+00 -0.17278569440E+02  0.17325179996E+02  0.12700000000E+01 0.  1.
         25    2    1    2    0    0  0.00000000000E+00  0.00000000000E+00  0.20842804272E+03  0.24303536512E+03  0.12499575877E+03 0.  0.
    9000005    1    3    3    0    0  0.51300310608E+02  0.35634901451E+02  0.10780810059E+03  0.12459997842E+03  0.10000000000E+01 0.  0.
    9000005    1    3    3    0    0 -0.51300310608E+02 -0.35634901451E+02  0.10061994212E+03  0.11843538670E+03  0.10000000000E+01 0.  0.
<mgrwt>
<rscale>  0 0.12499576E+03</rscale>
<asrwt>0</asrwt>
<pdfrwt beam="2">  1        4 0.26621020E-02 0.12499576E+03</pdfrwt>
<pdfrwt beam="1">  1       -4 0.34727951E-01 0.12499576E+03</pdfrwt>
<totfact> 0.83355252E+03</totfact>
</mgrwt>
</event>
<event>
 5    1  0.3296424E-002  0.1250022E+03  0.7818608E-02  0.1235066E+00
          4   -1    0    0  501    0  0.00000000000E+00  0.00000000000E+00  0.61844655629E+03  0.61844786028E+03  0.12700000000E+01 0.  1.
         -4   -1    0    0    0  501 -0.00000000000E+00 -0.00000000000E+00 -0.62512889187E+01  0.63789899785E+01  0.12700000000E+01 0.  1.
         25    2    1    2    0    0  0.00000000000E+00  0.00000000000E+00  0.61219526737E+03  0.62482685026E+03  0.12500218964E+03 0.  0.
    9000005    1    3    3    0    0  0.42391030160E+02  0.23143063719E+02  0.10786420937E+03  0.11818751414E+03  0.10000000000E+01 0.  0.
    9000005    1    3    3    0    0 -0.42391030160E+02 -0.23143063719E+02  0.50433105800E+03  0.50663933611E+03  0.10000000000E+01 0.  0.
<mgrwt>
<rscale>  0 0.12500219E+03</rscale>
<asrwt>0</asrwt>
<pdfrwt beam="1">  1        4 0.95155556E-01 0.12500219E+03</pdfrwt>
<pdfrwt beam="2">  1       -4 0.97166014E-03 0.12500219E+03</pdfrwt>
<totfact> 0.47334779E+03</totfact>
</mgrwt>
</event>
<event>
 5    1  0.3296424E-002  0.1249981E+03  0.7818608E-02  0.1235072E+00
         -4   -1    0    0    0  501 -0.00000000000E+00  0.00000000000E+00  0.29778891814E+01  0.32373946279E+01  0.12700000000E+01 0. -1.
          4   -1    0    0  501    0  0.00000000000E+00 -0.00000000000E+00 -0.12566834069E+04  0.12566840486E+04  0.12700000000E+01 0. -1.
         25    2    1    2    0    0  0.00000000000E+00  0.00000000000E+00 -0.12537055177E+04  0.12599214432E+04  0.12499807206E+03 0.  0.
    9000005    1    3    3    0    0 -0.13657186382E+02  0.34228637405E+01 -0.13168079018E+02  0.19303705372E+02  0.10000000000E+01 0.  0.
    9000005    1    3    3    0    0  0.13657186382E+02 -0.34228637405E+01 -0.12405374387E+04  0.12406177379E+04  0.10000000000E+01 0.  0.
<mgrwt>
<rscale>  0 0.12499807E+03</rscale>
<asrwt>0</asrwt>
<pdfrwt beam="2">  1        4 0.19335551E+00 0.12499807E+03</pdfrwt>
<pdfrwt beam="1">  1       -4 0.47814912E-03 0.12499807E+03</pdfrwt>
<totfact> 0.23195682E+03</totfact>
</mgrwt>
</event>
<event>
 5    1  0.3296424E-002  0.1250004E+03  0.7818608E-02  0.1235069E+00
          4   -1    0    0  501    0  0.00000000000E+00  0.00000000000E+00  0.18261730844E+02  0.18305838233E+02  0.12700000000E+01 0.  1.
         -4   -1    0    0    0  501 -0.00000000000E+00 -0.00000000000E+00 -0.21360099730E+03  0.21360477276E+03  0.12700000000E+01 0.  1.
         25    2    1    2    0    0  0.00000000000E+00  0.00000000000E+00 -0.19533926645E+03  0.23191061099E+03  0.12500040989E+03 0.  0.
    9000005    1    3    3    0    0 -0.54000449607E+02 -0.13020437683E+02 -0.44552406083E+02  0.71214445466E+02  0.10000000000E+01 0.  0.
    9000005    1    3    3    0    0  0.54000449607E+02  0.13020437683E+02 -0.15078686037E+03  0.16069616553E+03  0.10000000000E+01 0.  0.
<mgrwt>
<rscale>  0 0.12500041E+03</rscale>
<asrwt>0</asrwt>
<pdfrwt beam="1">  1        4 0.28131805E-02 0.12500041E+03</pdfrwt>
<pdfrwt beam="2">  1       -4 0.32865373E-01 0.12500041E+03</pdfrwt>
<totfact> 0.85016305E+03</totfact>
</mgrwt>
</event>
<event>
 5    1  0.3296424E-002  0.1250028E+03  0.7818608E-02  0.1235065E+00
         -4   -1    0    0    0  501 -0.00000000000E+00  0.00000000000E+00  0.58705232013E+02  0.58718967683E+02  0.12700000000E+01 0.  1.
          4   -1    0    0  501    0  0.00000000000E+00 -0.00000000000E+00 -0.66515440856E+02  0.66527564004E+02  0.12700000000E+01 0.  1.
         25    2    1    2    0    0  0.00000000000E+00  0.00000000000E+00 -0.78102088432E+01  0.12524653169E+03  0.12500277732E+03 0.  0.
    9000005    1    3    3    0    0  0.37122554067E+02 -0.38818293725E+01 -0.54125402430E+02  0.65754937518E+02  0.10000000000E+01 0.  0.
    9000005    1    3    3    0    0 -0.37122554067E+02  0.38818293725E+01  0.46315193587E+02  0.59491594169E+02  0.10000000000E+01 0.  0.
<mgrwt>
<rscale>  0 0.12500278E+03</rscale>
<asrwt>0</asrwt>
<pdfrwt beam="2">  1        4 0.10235134E-01 0.12500278E+03</pdfrwt>
<pdfrwt beam="1">  1       -4 0.90335633E-02 0.12500278E+03</pdfrwt>
<totfact> 0.10446855E+04</totfact>
</mgrwt>
</event>
<event>
 5    1  0.3296424E-002  0.1249909E+03  0.7818608E-02  0.1235084E+00
         -4   -1    0    0    0  501 -0.00000000000E+00  0.00000000000E+00  0.11328202029E+03  0.11328913902E+03  0.12700000000E+01 0. -1.
          4   -1    0    0  501    0  0.00000000000E+00 -0.00000000000E+00 -0.34457578056E+02  0.34480974253E+02  0.12700000000E+01 0. -1.
         25    2    1    2    0    0  0.00000000000E+00  0.00000000000E+00  0.78824442235E+02  0.14777011328E+03  0.12499085440E+03 0.  0.
    9000005    1    3    3    0    0 -0.17547893649E+01 -0.37134137709E+02  0.98791824903E+02  0.10555968992E+03  0.10000000000E+01 0.  0.
    9000005    1    3    3    0    0  0.17547893649E+01  0.37134137709E+02 -0.19967382669E+02  0.42210423354E+02  0.10000000000E+01 0.  0.
<mgrwt>
<rscale>  0 0.12499085E+03</rscale>
<asrwt>0</asrwt>
<pdfrwt beam="2">  1        4 0.53035131E-02 0.12499085E+03</pdfrwt>
<pdfrwt beam="1">  1       -4 0.17430351E-01 0.12499085E+03</pdfrwt>
<totfact> 0.99770602E+03</totfact>
</mgrwt>
</event>
<event>
 5    1  0.3296424E-002  0.1249952E+03  0.7818608E-02  0.1235077E+00
          4   -1    0    0  501    0  0.00000000000E+00  0.00000000000E+00  0.29983884278E+02  0.30010768340E+02  0.12700000000E+01 0.  1.
         -4   -1    0    0    0  501 -0.00000000000E+00 -0.00000000000E+00 -0.13017995376E+03  0.13018614850E+03  0.12700000000E+01 0.  1.
         25    2    1    2    0    0  0.00000000000E+00  0.00000000000E+00 -0.10019606948E+03  0.16019691684E+03  0.12499519921E+03 0.  0.
    9000005    1    3    3    0    0 -0.12177659396E+02 -0.14570440804E+02  0.26202843886E+02  0.32375641481E+02  0.10000000000E+01 0.  0.
    9000005    1    3    3    0    0  0.12177659396E+02  0.14570440804E+02 -0.12639891337E+03  0.12782127536E+03  0.10000000000E+01 0.  0.
<mgrwt>
<rscale>  0 0.12499520E+03</rscale>
<asrwt>0</asrwt>
<pdfrwt beam="1">  1        4 0.46154499E-02 0.12499520E+03</pdfrwt>
<pdfrwt beam="2">  1       -4 0.20030229E-01 0.12499520E+03</pdfrwt>
<totfact> 0.97315335E+03</totfact>
</mgrwt>
</event>
<event>
 5    1  0.3296424E-002  0.1250002E+03  0.7818608E-02  0.1235069E+00
          4   -1    0    0  501    0  0.00000000000E+00  0.00000000000E+00  0.70961811696E+02  0.70973175350E+02  0.12700000000E+01 0. -1.
         -4   -1    0    0    0  501 -0.00000000000E+00 -0.00000000000E+00 -0.55024292932E+02  0.55038947234E+02  0.12700000000E+01 0. -1.
         25    2    1    2    0    0  0.00000000000E+00  0.00000000000E+00  0.15937518765E+02  0.12601212258E+03  0.12500020213E+03 0.  0.
    9000005    1    3    3    0    0 -0.20021890714E+02  0.17171422860E+01  0.67620734611E+02  0.70550609031E+02  0.10000000000E+01 0.  0.
    9000005    1    3    3    0    0  0.20021890714E+02 -0.17171422860E+01 -0.51683215846E+02  0.55461513553E+02  0.10000000000E+01 0.  0.
<mgrwt>
<rscale>  0 0.12500020E+03</rscale>
<asrwt>0</asrwt>
<pdfrwt beam="1">  1        4 0.10919203E-01 0.12500020E+03</pdfrwt>
<pdfrwt beam="2">  1       -4 0.84672772E-02 0.12500020E+03</pdfrwt>
<totfact> 0.10430644E+04</totfact>
</mgrwt>
</event>
<event>
 5    1  0.3296424E-002  0.1250055E+03  0.7818608E-02  0.1235061E+00
          4   -1    0    0  501    0  0.00000000000E+00  0.00000000000E+00  0.76202674371E+01  0.77253722120E+01  0.12700000000E+01 0. -1.
         -4   -1    0    0    0  501 -0.00000000000E+00 -0.00000000000E+00 -0.50904085428E+03  0.50904243853E+03  0.12700000000E+01 0. -1.
         25    2    1    2    0    0  0.00000000000E+00  0.00000000000E+00 -0.50142058684E+03  0.51676781074E+03  0.12500546112E+03 0.  0.
    9000005    1    3    3    0    0  0.43745854090E+01  0.16576481010E+02 -0.49914986704E+03  0.49944519868E+03  0.10000000000E+01 0.  0.
    9000005    1    3    3    0    0 -0.43745854090E+01 -0.16576481010E+02 -0.22707198019E+01  0.17322612061E+02  0.10000000000E+01 0.  0.
<mgrwt>
<rscale>  0 0.12500546E+03</rscale>
<asrwt>0</asrwt>
<pdfrwt beam="1">  1        4 0.11805561E-02 0.12500546E+03</pdfrwt>
<pdfrwt beam="2">  1       -4 0.78322158E-01 0.12500546E+03</pdfrwt>
<totfact> 0.54579923E+03</totfact>
</mgrwt>
</event>
<event>
 5    1  0.3296424E-002  0.1249990E+03  0.7818608E-02  0.1235071E+00
         -4   -1    0    0    0  501 -0.00000000000E+00  0.00000000000E+00  0.75589540809E+03  0.75589647497E+03  0.12700000000E+01 0. -1.
          4   -1    0    0  501    0  0.00000000000E+00 -0.00000000000E+00 -0.50885124186E+01  0.52446028099E+01  0.12700000000E+01 0. -1.
         25    2    1    2    0    0  0.00000000000E+00  0.00000000000E+00  0.75080689567E+03  0.76114107778E+03  0.12499898278E+03 0.  0.
    9000005    1    3    3    0    0 -0.44714013165E+02  0.37291757779E+02  0.51361146229E+03  0.51690207232E+03  0.10000000000E+01 0.  0.
    9000005    1    3    3    0    0  0.44714013165E+02 -0.37291757779E+02  0.23719543338E+03  0.24423900546E+03  0.10000000000E+01 0.  0.
<mgrwt>
<rscale>  0 0.12499898E+03</rscale>
<asrwt>0</asrwt>
<pdfrwt beam="2">  1        4 0.79493667E-03 0.12499898E+03</pdfrwt>
<pdfrwt beam="1">  1       -4 0.11630375E+00 0.12499898E+03</pdfrwt>
<totfact> 0.40047717E+03</totfact>
</mgrwt>
</event>
<event>
 5    1  0.3296424E-002  0.1249999E+03  0.7818608E-02  0.1235069E+00
         -4   -1    0    0    0  501 -0.00000000000E+00  0.00000000000E+00  0.45441518115E+03  0.45441695584E+03  0.12700000000E+01 0. -1.
          4   -1    0    0  501    0  0.00000000000E+00 -0.00000000000E+00 -0.85474885269E+01  0.86413228222E+01  0.12700000000E+01 0. -1.
         25    2    1    2    0    0  0.00000000000E+00  0.00000000000E+00  0.44586769262E+03  0.46305827866E+03  0.12499988047E+03 0.  0.
    9000005    1    3    3    0    0 -0.23865844061E+02 -0.12542957314E+02  0.14087870323E+02  0.30436366097E+02  0.10000000000E+01 0.  0.
    9000005    1    3    3    0    0  0.23865844061E+02  0.12542957314E+02  0.43177982230E+03  0.43262191257E+03  0.10000000000E+01 0.  0.
<mgrwt>
<rscale>  0 0.12499988E+03</rscale>
<asrwt>0</asrwt>
<pdfrwt beam="2">  1        4 0.13223525E-02 0.12499988E+03</pdfrwt>
<pdfrwt beam="1">  1       -4 0.69917395E-01 0.12499988E+03</pdfrwt>
<totfact> 0.58849164E+03</totfact>
</mgrwt>
</event>
<event>
 5    1  0.3296424E-002  0.1249902E+03  0.7818608E-02  0.1235085E+00
         -4   -1    0    0    0  501 -0.00000000000E+00  0.00000000000E+00  0.12985916585E+02  0.13047870691E+02  0.12700000000E+01 0.  1.
          4   -1    0    0  501    0  0.00000000000E+00 -0.00000000000E+00 -0.29998040538E+03  0.29998309371E+03  0.12700000000E+01 0.  1.
         25    2    1    2    0    0  0.00000000000E+00  0.00000000000E+00 -0.28699448880E+03  0.31303096440E+03  0.12499019192E+03 0.  0.
    9000005    1    3    3    0    0 -0.54849594055E+02 -0.27773252569E+02 -0.17147598834E+03  0.18216708293E+03  0.10000000000E+01 0.  0.
    9000005    1    3    3    0    0  0.54849594055E+02  0.27773252569E+02 -0.11551850045E+03  0.13086388147E+03  0.10000000000E+01 0.  0.
<mgrwt>
<rscale>  0 0.12499019E+03</rscale>
<asrwt>0</asrwt>
<pdfrwt beam="2">  1        4 0.46155799E-01 0.12499019E+03</pdfrwt>
<pdfrwt beam="1">  1       -4 0.20028060E-02 0.12499019E+03</pdfrwt>
<totfact> 0.74008837E+03</totfact>
</mgrwt>
</event>
<event>
 5    1  0.3296424E-002  0.1249901E+03  0.7818608E-02  0.1235085E+00
          4   -1    0    0  501    0  0.00000000000E+00  0.00000000000E+00  0.21389960376E+03  0.21390337396E+03  0.12700000000E+01 0.  1.
         -4   -1    0    0    0  501 -0.00000000000E+00 -0.00000000000E+00 -0.18233168467E+02  0.18277344784E+02  0.12700000000E+01 0.  1.
         25    2    1    2    0    0  0.00000000000E+00  0.00000000000E+00  0.19566643529E+03  0.23218071874E+03  0.12499012862E+03 0.  0.
    9000005    1    3    3    0    0 -0.14658804104E+01 -0.55959283231E+02  0.14941421097E+03  0.15955938276E+03  0.10000000000E+01 0.  0.
    9000005    1    3    3    0    0  0.14658804104E+01  0.55959283231E+02  0.46252224320E+02  0.72621335980E+02  0.10000000000E+01 0.  0.
<mgrwt>
<rscale>  0 0.12499013E+03</rscale>
<asrwt>0</asrwt>
<pdfrwt beam="1">  1        4 0.32911320E-01 0.12499013E+03</pdfrwt>
<pdfrwt beam="2">  1       -4 0.28087910E-02 0.12499013E+03</pdfrwt>
<totfact> 0.84994581E+03</totfact>
</mgrwt>
</event>
<event>
 5    1  0.3296424E-002  0.1250021E+03  0.7818608E-02  0.1235066E+00
          4   -1    0    0  501    0  0.00000000000E+00  0.00000000000E+00  0.24827679717E+03  0.24828004534E+03  0.12700000000E+01 0.  1.
         -4   -1    0    0    0  501 -0.00000000000E+00 -0.00000000000E+00 -0.15704990206E+02  0.15756256452E+02  0.12700000000E+01 0.  1.
         25    2    1    2    0    0  0.00000000000E+00  0.00000000000E+00  0.23257180696E+03  0.26403630179E+03  0.12500209306E+03 0.  0.
    9000005    1    3    3    0    0 -0.59633086035E+02 -0.84925535180E+01  0.81121303657E+02  0.10104402171E+03  0.10000000000E+01 0.  0.
    9000005    1    3    3    0    0  0.59633086035E+02  0.84925535180E+01  0.15145050330E+03  0.16299228008E+03  0.10000000000E+01 0.  0.
<mgrwt>
<rscale>  0 0.12500209E+03</rscale>
<asrwt>0</asrwt>
<pdfrwt beam="1">  1        4 0.38200620E-01 0.12500209E+03</pdfrwt>
<pdfrwt beam="2">  1       -4 0.24203460E-02 0.12500209E+03</pdfrwt>
<totfact> 0.80339199E+03</totfact>
</mgrwt>
</event>
<event>
 5    1  0.3296424E-002  0.1250073E+03  0.7818608E-02  0.1235058E+00
         -4   -1    0    0    0  501 -0.00000000000E+00  0.00000000000E+00  0.32702057013E+03  0.32702303617E+03  0.12700000000E+01 0. -1.
          4   -1    0    0  501    0  0.00000000000E+00 -0.00000000000E+00 -0.11910096072E+02  0.11977616142E+02  0.12700000000E+01 0. -1.
         25    2    1    2    0    0  0.00000000000E+00  0.00000000000E+00  0.31511047406E+03  0.33900065232E+03  0.12500732542E+03 0.  0.
    9000005    1    3    3    0    0 -0.39150361261E+01  0.19218427312E+02  0.31847155289E+03  0.31907648842E+03  0.10000000000E+01 0.  0.
    9000005    1    3    3    0    0  0.39150361261E+01 -0.19218427312E+02 -0.33610788351E+01  0.19924163901E+02  0.10000000000E+01 0.  0.
<mgrwt>
<rscale>  0 0.12500733E+03</rscale>
<asrwt>0</asrwt>
<pdfrwt beam="2">  1        4 0.18377061E-02 0.12500733E+03</pdfrwt>
<pdfrwt beam="1">  1       -4 0.50316237E-01 0.12500733E+03</pdfrwt>
<totfact> 0.70940306E+03</totfact>
</mgrwt>
</event>
<event>
 5    1  0.3296424E-002  0.1249588E+03  0.7818608E-02  0.1235134E+00
         -4   -1    0    0    0  501 -0.00000000000E+00  0.00000000000E+00  0.12951703548E+02  0.13013820530E+02  0.12700000000E+01 0.  1.
          4   -1    0    0  501    0  0.00000000000E+00 -0.00000000000E+00 -0.30061807883E+03  0.30062076146E+03  0.12700000000E+01 0.  1.
         25    2    1    2    0    0  0.00000000000E+00  0.00000000000E+00 -0.28766637528E+03  0.31363458199E+03  0.12495882342E+03 0.  0.
    9000005    1    3    3    0    0 -0.22992361497E+02  0.33967116724E+02 -0.25567368525E+02  0.48343603910E+02  0.10000000000E+01 0.  0.
    9000005    1    3    3    0    0  0.22992361497E+02 -0.33967116724E+02 -0.26209900676E+03  0.26529097808E+03  0.10000000000E+01 0.  0.
<mgrwt>
<rscale>  0 0.12495882E+03</rscale>
<asrwt>0</asrwt>
<pdfrwt beam="2">  1        4 0.46253914E-01 0.12495882E+03</pdfrwt>
<pdfrwt beam="1">  1       -4 0.19975546E-02 0.12495882E+03</pdfrwt>
<totfact> 0.73987199E+03</totfact>
</mgrwt>
</event>
<event>
 5    1  0.3296424E-002  0.1249984E+03  0.7818608E-02  0.1235072E+00
         -4   -1    0    0    0  501 -0.00000000000E+00  0.00000000000E+00  0.37917430591E+02  0.37938693212E+02  0.12700000000E+01 0.  1.
          4   -1    0    0  501    0  0.00000000000E+00 -0.00000000000E+00 -0.10296324253E+03  0.10297107464E+03  0.12700000000E+01 0.  1.
         25    2    1    2    0    0  0.00000000000E+00  0.00000000000E+00 -0.65045811943E+02  0.14090976785E+03  0.12499842009E+03 0.  0.
    9000005    1    3    3    0    0  0.43957781878E+02 -0.50704635698E+01 -0.82266463915E+02  0.93417167981E+02  0.10000000000E+01 0.  0.
    9000005    1    3    3    0    0 -0.43957781878E+02  0.50704635698E+01  0.17220651972E+02  0.47492599874E+02  0.10000000000E+01 0.  0.
<mgrwt>
<rscale>  0 0.12499842E+03</rscale>
<asrwt>0</asrwt>
<pdfrwt beam="2">  1        4 0.15842737E-01 0.12499842E+03</pdfrwt>
<pdfrwt beam="1">  1       -4 0.58356890E-02 0.12499842E+03</pdfrwt>
<totfact> 0.10115125E+04</totfact>
</mgrwt>
</event>
<event>
 5    1  0.3296424E-002  0.1250008E+03  0.7818608E-02  0.1235068E+00
          4   -1    0    0  501    0  0.00000000000E+00  0.00000000000E+00  0.52675115360E+02  0.52690423021E+02  0.12700000000E+01 0.  1.
         -4   -1    0    0    0  501 -0.00000000000E+00 -0.00000000000E+00 -0.74126873858E+02  0.74137752380E+02  0.12700000000E+01 0.  1.
         25    2    1    2    0    0  0.00000000000E+00  0.00000000000E+00 -0.21451758499E+02  0.12682817540E+03  0.12500083253E+03 0.  0.
    9000005    1    3    3    0    0 -0.12038317686E+02 -0.49588307750E+02 -0.47327896026E+02  0.69604964625E+02  0.10000000000E+01 0.  0.
    9000005    1    3    3    0    0  0.12038317686E+02  0.49588307750E+02  0.25876137527E+02  0.57223210776E+02  0.10000000000E+01 0.  0.
<mgrwt>
<rscale>  0 0.12500083E+03</rscale>
<asrwt>0</asrwt>
<pdfrwt beam="1">  1        4 0.81058782E-02 0.12500083E+03</pdfrwt>
<pdfrwt beam="2">  1       -4 0.11406149E-01 0.12500083E+03</pdfrwt>
<totfact> 0.10412685E+04</totfact>
</mgrwt>
</event>
<event>
 5    1  0.3296424E-002  0.1249836E+03  0.7818608E-02  0.1235095E+00
         -4   -1    0    0    0  501 -0.00000000000E+00  0.00000000000E+00  0.63931466887E+02  0.63944079932E+02  0.12700000000E+01 0. -1.
          4   -1    0    0  501    0  0.00000000000E+00 -0.00000000000E+00 -0.61059348615E+02  0.61072554829E+02  0.12700000000E+01 0. -1.
         25    2    1    2    0    0  0.00000000000E+00  0.00000000000E+00  0.28721182714E+01  0.12501663476E+03  0.12498363854E+03 0.  0.
    9000005    1    3    3    0    0 -0.26302170333E+02 -0.46091392040E+02  0.34429716773E+02  0.63266310004E+02  0.10000000000E+01 0.  0.
    9000005    1    3    3    0    0  0.26302170333E+02  0.46091392040E+02 -0.31557598502E+02  0.61750324757E+02  0.10000000000E+01 0.  0.
<mgrwt>
<rscale>  0 0.12498364E+03</rscale>
<asrwt>0</asrwt>
<pdfrwt beam="2">  1        4 0.93957321E-02 0.12498364E+03</pdfrwt>
<pdfrwt beam="1">  1       -4 0.98375964E-02 0.12498364E+03</pdfrwt>
<totfact> 0.10456367E+04</totfact>
</mgrwt>
</event>
<event>
 5    1  0.3296424E-002  0.1250020E+03  0.7818608E-02  0.1235066E+00
         -4   -1    0    0    0  501 -0.00000000000E+00  0.00000000000E+00  0.11150260132E+02  0.11222352740E+02  0.12700000000E+01 0.  1.
          4   -1    0    0  501    0  0.00000000000E+00 -0.00000000000E+00 -0.34913712474E+03  0.34913943457E+03  0.12700000000E+01 0.  1.
         25    2    1    2    0    0  0.00000000000E+00  0.00000000000E+00 -0.33798686461E+03  0.36036178731E+03  0.12500198841E+03 0.  0.
    9000005    1    3    3    0    0  0.31623375584E+01  0.58156024480E+02 -0.23430447119E+03  0.24143675939E+03  0.10000000000E+01 0.  0.
    9000005    1    3    3    0    0 -0.31623375584E+01 -0.58156024480E+02 -0.10368239341E+03  0.11892502792E+03  0.10000000000E+01 0.  0.
<mgrwt>
<rscale>  0 0.12500199E+03</rscale>
<asrwt>0</asrwt>
<pdfrwt beam="2">  1        4 0.53719119E-01 0.12500199E+03</pdfrwt>
<pdfrwt beam="1">  1       -4 0.17211482E-02 0.12500199E+03</pdfrwt>
<totfact> 0.68596463E+03</totfact>
</mgrwt>
</event>
<event>
 5    1  0.3296424E-002  0.1249976E+03  0.7818608E-02  0.1235073E+00
          4   -1    0    0  501    0  0.00000000000E+00  0.00000000000E+00  0.10916197487E+02  0.10989825639E+02  0.12700000000E+01 0. -1.
         -4   -1    0    0    0  501 -0.00000000000E+00 -0.00000000000E+00 -0.35654843196E+03  0.35655069378E+03  0.12700000000E+01 0. -1.
         25    2    1    2    0    0  0.00000000000E+00  0.00000000000E+00 -0.34563223447E+03  0.36754051941E+03  0.12499756760E+03 0.  0.
    9000005    1    3    3    0    0  0.46066088276E+02  0.41588052864E+02 -0.19431256684E+03  0.20398535305E+03  0.10000000000E+01 0.  0.
    9000005    1    3    3    0    0 -0.46066088276E+02 -0.41588052864E+02 -0.15131966763E+03  0.16355516636E+03  0.10000000000E+01 0.  0.
<mgrwt>
<rscale>  0 0.12499757E+03</rscale>
<asrwt>0</asrwt>
<pdfrwt beam="1">  1        4 0.16852530E-02 0.12499757E+03</pdfrwt>
<pdfrwt beam="2">  1       -4 0.54859434E-01 0.12499757E+03</pdfrwt>
<totfact> 0.67840684E+03</totfact>
</mgrwt>
</event>
<event>
 5    1  0.3296424E-002  0.1249975E+03  0.7818608E-02  0.1235073E+00
          4   -1    0    0  501    0  0.00000000000E+00  0.00000000000E+00  0.33316506289E+02  0.33340703221E+02  0.12700000000E+01 0. -1.
         -4   -1    0    0    0  501 -0.00000000000E+00 -0.00000000000E+00 -0.11717188448E+03  0.11717876690E+03  0.12700000000E+01 0. -1.
         25    2    1    2    0    0  0.00000000000E+00  0.00000000000E+00 -0.83855378190E+02  0.15051947012E+03  0.12499754571E+03 0.  0.
    9000005    1    3    3    0    0  0.42644261368E+02 -0.42431880166E+02 -0.21559638700E+02  0.63912561386E+02  0.10000000000E+01 0.  0.
    9000005    1    3    3    0    0 -0.42644261368E+02  0.42431880166E+02 -0.62295739490E+02  0.86606908735E+02  0.10000000000E+01 0.  0.
<mgrwt>
<rscale>  0 0.12499755E+03</rscale>
<asrwt>0</asrwt>
<pdfrwt beam="1">  1        4 0.51280071E-02 0.12499755E+03</pdfrwt>
<pdfrwt beam="2">  1       -4 0.18028834E-01 0.12499755E+03</pdfrwt>
<totfact> 0.99205730E+03</totfact>
</mgrwt>
</event>
<event>
 5    1  0.3296424E-002  0.1249988E+03  0.7818608E-02  0.1235071E+00
         -4   -1    0    0    0  501 -0.00000000000E+00  0.00000000000E+00  0.79122053832E+03  0.79122155757E+03  0.12700000000E+01 0. -1.
          4   -1    0    0  501    0  0.00000000000E+00 -0.00000000000E+00 -0.48541826219E+01  0.50175680291E+01  0.12700000000E+01 0. -1.
         25    2    1    2    0    0  0.00000000000E+00  0.00000000000E+00  0.78636635570E+03  0.79623912560E+03  0.12499879902E+03 0.  0.
    9000005    1    3    3    0    0 -0.59997284379E+02  0.13937999562E+02  0.46036541310E+03  0.46446878855E+03  0.10000000000E+01 0.  0.
    9000005    1    3    3    0    0  0.59997284379E+02 -0.13937999562E+02  0.32600094261E+03  0.33177033705E+03  0.10000000000E+01 0.  0.
<mgrwt>
<rscale>  0 0.12499880E+03</rscale>
<asrwt>0</asrwt>
<pdfrwt beam="2">  1        4 0.75944394E-03 0.12499880E+03</pdfrwt>
<pdfrwt beam="1">  1       -4 0.12173887E+00 0.12499880E+03</pdfrwt>
<totfact> 0.38434185E+03</totfact>
</mgrwt>
</event>
<event>
 5    1  0.3296424E-002  0.1249952E+03  0.7818608E-02  0.1235077E+00
          4   -1    0    0  501    0  0.00000000000E+00  0.00000000000E+00  0.38169189791E+02  0.38190312244E+02  0.12700000000E+01 0.  1.
         -4   -1    0    0    0  501 -0.00000000000E+00 -0.00000000000E+00 -0.10227909436E+03  0.10228697885E+03  0.12700000000E+01 0.  1.
         25    2    1    2    0    0  0.00000000000E+00  0.00000000000E+00 -0.64109904564E+02  0.14047729109E+03  0.12499515771E+03 0.  0.
    9000005    1    3    3    0    0 -0.20119682258E+01 -0.45479963167E+02 -0.80164540968E+02  0.92194515533E+02  0.10000000000E+01 0.  0.
    9000005    1    3    3    0    0  0.20119682258E+01  0.45479963167E+02  0.16054636404E+02  0.48282775561E+02  0.10000000000E+01 0.  0.
<mgrwt>
<rscale>  0 0.12499516E+03</rscale>
<asrwt>0</asrwt>
<pdfrwt beam="1">  1        4 0.58744144E-02 0.12499516E+03</pdfrwt>
<pdfrwt beam="2">  1       -4 0.15737476E-01 0.12499516E+03</pdfrwt>
<totfact> 0.10124808E+04</totfact>
</mgrwt>
</event>
<event>
 5    1  0.3296424E-002  0.1250609E+03  0.7818608E-02  0.1234974E+00
          4   -1    0    0  501    0  0.00000000000E+00  0.00000000000E+00  0.55844588087E+03  0.55844732497E+03  0.12700000000E+01 0. -1.
         -4   -1    0    0    0  501 -0.00000000000E+00 -0.00000000000E+00 -0.69426161599E+01  0.70578197160E+01  0.12700000000E+01 0. -1.
         25    2    1    2    0    0  0.00000000000E+00  0.00000000000E+00  0.55150326471E+03  0.56550514468E+03  0.12506085589E+03 0.  0.
    9000005    1    3    3    0    0 -0.11707803791E+02  0.51280579717E+01 -0.99400052186E+00  0.12859147919E+02  0.10000000000E+01 0.  0.
    9000005    1    3    3    0    0  0.11707803791E+02 -0.51280579717E+01  0.55249726523E+03  0.55264599676E+03  0.10000000000E+01 0.  0.
<mgrwt>
<rscale>  0 0.12506086E+03</rscale>
<asrwt>0</asrwt>
<pdfrwt beam="1">  1        4 0.85923740E-01 0.12506086E+03</pdfrwt>
<pdfrwt beam="2">  1       -4 0.10770675E-02 0.12506086E+03</pdfrwt>
<totfact> 0.51051803E+03</totfact>
</mgrwt>
</event>
<event>
 5    1  0.3296424E-002  0.1249992E+03  0.7818608E-02  0.1235071E+00
         -4   -1    0    0    0  501 -0.00000000000E+00  0.00000000000E+00  0.94014170091E+03  0.94014255871E+03  0.12700000000E+01 0.  1.
          4   -1    0    0  501    0  0.00000000000E+00 -0.00000000000E+00 -0.40569789118E+01  0.42511148998E+01  0.12700000000E+01 0.  1.
         25    2    1    2    0    0  0.00000000000E+00  0.00000000000E+00  0.93608472200E+03  0.94439367361E+03  0.12499921595E+03 0.  0.
    9000005    1    3    3    0    0 -0.30260329013E+02 -0.36246144151E+02  0.77731953606E+03  0.77875293361E+03  0.10000000000E+01 0.  0.
    9000005    1    3    3    0    0  0.30260329013E+02  0.36246144151E+02  0.15876518595E+03  0.16564074000E+03  0.10000000000E+01 0.  0.
<mgrwt>
<rscale>  0 0.12499922E+03</rscale>
<asrwt>0</asrwt>
<pdfrwt beam="2">  1        4 0.63914997E-03 0.12499922E+03</pdfrwt>
<pdfrwt beam="1">  1       -4 0.14465222E+00 0.12499922E+03</pdfrwt>
<totfact> 0.32516405E+03</totfact>
</mgrwt>
</event>
<event>
 5    1  0.3296424E-002  0.1250021E+03  0.7818608E-02  0.1235066E+00
          4   -1    0    0  501    0  0.00000000000E+00  0.00000000000E+00  0.89905382011E+03  0.89905471711E+03  0.12700000000E+01 0. -1.
         -4   -1    0    0    0  501 -0.00000000000E+00 -0.00000000000E+00 -0.42512712432E+01  0.44369141510E+01  0.12700000000E+01 0. -1.
         25    2    1    2    0    0  0.00000000000E+00  0.00000000000E+00  0.89480254887E+03  0.90349163126E+03  0.12500210517E+03 0.  0.
    9000005    1    3    3    0    0  0.12370136421E+02 -0.59462505585E+02  0.34103408384E+03  0.34640158225E+03  0.10000000000E+01 0.  0.
    9000005    1    3    3    0    0 -0.12370136421E+02  0.59462505585E+02  0.55376846503E+03  0.55709004901E+03  0.10000000000E+01 0.  0.
<mgrwt>
<rscale>  0 0.12500211E+03</rscale>
<asrwt>0</asrwt>
<pdfrwt beam="1">  1        4 0.13833056E+00 0.12500211E+03</pdfrwt>
<pdfrwt beam="2">  1       -4 0.66838980E-03 0.12500211E+03</pdfrwt>
<totfact> 0.34024948E+03</totfact>
</mgrwt>
</event>
<event>
 5    1  0.3296424E-002  0.1249990E+03  0.7818608E-02  0.1235071E+00
          4   -1    0    0  501    0  0.00000000000E+00  0.00000000000E+00  0.30501684023E+01  0.33040017074E+01  0.12700000000E+01 0. -1.
         -4   -1    0    0    0  501 -0.00000000000E+00 -0.00000000000E+00 -0.12292328267E+04  0.12292334828E+04  0.12700000000E+01 0. -1.
         25    2    1    2    0    0  0.00000000000E+00  0.00000000000E+00 -0.12261826583E+04  0.12325374845E+04  0.12499895642E+03 0.  0.
    9000005    1    3    3    0    0  0.30776864071E+02  0.54213199728E+02 -0.65595665711E+03  0.65891306133E+03  0.10000000000E+01 0.  0.
    9000005    1    3    3    0    0 -0.30776864071E+02 -0.54213199728E+02 -0.57022600123E+03  0.57362442318E+03  0.10000000000E+01 0.  0.
<mgrwt>
<rscale>  0 0.12499896E+03</rscale>
<asrwt>0</asrwt>
<pdfrwt beam="1">  1        4 0.48883376E-03 0.12499896E+03</pdfrwt>
<pdfrwt beam="2">  1       -4 0.18913194E+00 0.12499896E+03</pdfrwt>
<totfact> 0.23877227E+03</totfact>
</mgrwt>
</event>
<event>
 5    1  0.3296424E-002  0.1250001E+03  0.7818608E-02  0.1235069E+00
         -4   -1    0    0    0  501 -0.00000000000E+00  0.00000000000E+00  0.12702811873E+02  0.12766139960E+02  0.12700000000E+01 0.  1.
          4   -1    0    0  501    0  0.00000000000E+00 -0.00000000000E+00 -0.30668179655E+03  0.30668442614E+03  0.12700000000E+01 0.  1.
         25    2    1    2    0    0  0.00000000000E+00  0.00000000000E+00 -0.29397898468E+03  0.31945056610E+03  0.12500008299E+03 0.  0.
    9000005    1    3    3    0    0  0.37728015762E+02 -0.10881686379E+01 -0.19704361181E+02  0.42589307741E+02  0.10000000000E+01 0.  0.
    9000005    1    3    3    0    0 -0.37728015762E+02  0.10881686379E+01 -0.27427462350E+03  0.27686125836E+03  0.10000000000E+01 0.  0.
<mgrwt>
<rscale>  0 0.12500008E+03</rscale>
<asrwt>0</asrwt>
<pdfrwt beam="2">  1        4 0.47186883E-01 0.12500008E+03</pdfrwt>
<pdfrwt beam="1">  1       -4 0.19593526E-02 0.12500008E+03</pdfrwt>
<totfact> 0.73221388E+03</totfact>
</mgrwt>
</event>
<event>
 5    1  0.3296424E-002  0.1249993E+03  0.7818608E-02  0.1235070E+00
         -4   -1    0    0    0  501 -0.00000000000E+00  0.00000000000E+00  0.70033865255E+02  0.70045379452E+02  0.12700000000E+01 0.  1.
          4   -1    0    0  501    0  0.00000000000E+00 -0.00000000000E+00 -0.55752614170E+02  0.55767077087E+02  0.12700000000E+01 0.  1.
         25    2    1    2    0    0  0.00000000000E+00  0.00000000000E+00  0.14281251085E+02  0.12581245654E+03  0.12499928035E+03 0.  0.
    9000005    1    3    3    0    0  0.43674756235E+02 -0.44230134880E+02  0.13618006830E+02  0.63641490191E+02  0.10000000000E+01 0.  0.
    9000005    1    3    3    0    0 -0.43674756235E+02  0.44230134880E+02  0.66324425509E+00  0.62170966348E+02  0.10000000000E+01 0.  0.
<mgrwt>
<rscale>  0 0.12499928E+03</rscale>
<asrwt>0</asrwt>
<pdfrwt beam="2">  1        4 0.85793235E-02 0.12499928E+03</pdfrwt>
<pdfrwt beam="1">  1       -4 0.10776439E-01 0.12499928E+03</pdfrwt>
<totfact> 0.10435241E+04</totfact>
</mgrwt>
</event>
<event>
 5    1  0.3296424E-002  0.1249986E+03  0.7818608E-02  0.1235072E+00
         -4   -1    0    0    0  501 -0.00000000000E+00  0.00000000000E+00  0.17586970181E+03  0.17587428724E+03  0.12700000000E+01 0.  1.
          4   -1    0    0  501    0  0.00000000000E+00 -0.00000000000E+00 -0.22187502282E+02  0.22223819598E+02  0.12700000000E+01 0.  1.
         25    2    1    2    0    0  0.00000000000E+00  0.00000000000E+00  0.15368219952E+03  0.19809810684E+03  0.12499856593E+03 0.  0.
    9000005    1    3    3    0    0  0.58575855793E+02 -0.82901646008E+01  0.10874656058E+03  0.12380093759E+03  0.10000000000E+01 0.  0.
    9000005    1    3    3    0    0 -0.58575855793E+02  0.82901646008E+01  0.44935638944E+02  0.74297169248E+02  0.10000000000E+01 0.  0.
<mgrwt>
<rscale>  0 0.12499857E+03</rscale>
<asrwt>0</asrwt>
<pdfrwt beam="2">  1        4 0.34166082E-02 0.12499857E+03</pdfrwt>
<pdfrwt beam="1">  1       -4 0.27060024E-01 0.12499857E+03</pdfrwt>
<totfact> 0.90459952E+03</totfact>
</mgrwt>
</event>
<event>
 5    1  0.3296424E-002  0.1250028E+03  0.7818608E-02  0.1235065E+00
          4   -1    0    0  501    0  0.00000000000E+00  0.00000000000E+00  0.10243706537E+03  0.10244493771E+03  0.12700000000E+01 0.  1.
         -4   -1    0    0    0  501 -0.00000000000E+00 -0.00000000000E+00 -0.38114955463E+02  0.38136107955E+02  0.12700000000E+01 0.  1.
         25    2    1    2    0    0  0.00000000000E+00  0.00000000000E+00  0.64322109906E+02  0.14058104566E+03  0.12500278627E+03 0.  0.
    9000005    1    3    3    0    0  0.28139545488E+02 -0.50474125300E+02  0.58915576076E+02  0.82531911703E+02  0.10000000000E+01 0.  0.
    9000005    1    3    3    0    0 -0.28139545488E+02  0.50474125300E+02  0.54065338303E+01  0.58049133957E+02  0.10000000000E+01 0.  0.
<mgrwt>
<rscale>  0 0.12500279E+03</rscale>
<asrwt>0</asrwt>
<pdfrwt beam="1">  1        4 0.15761781E-01 0.12500279E+03</pdfrwt>
<pdfrwt beam="2">  1       -4 0.58660721E-02 0.12500279E+03</pdfrwt>
<totfact> 0.10120922E+04</totfact>
</mgrwt>
</event>
<event>
 5    1  0.3296424E-002  0.1250102E+03  0.7818608E-02  0.1235053E+00
          4   -1    0    0  501    0  0.00000000000E+00  0.00000000000E+00  0.30607943259E+02  0.30634279664E+02  0.12700000000E+01 0.  1.
         -4   -1    0    0    0  501 -0.00000000000E+00 -0.00000000000E+00 -0.12755846370E+03  0.12756478574E+03  0.12700000000E+01 0.  1.
         25    2    1    2    0    0  0.00000000000E+00  0.00000000000E+00 -0.96950520436E+02  0.15819906540E+03  0.12501016311E+03 0.  0.
    9000005    1    3    3    0    0  0.26792647667E+02  0.56391137032E+02 -0.44878304205E+02  0.76895178607E+02  0.10000000000E+01 0.  0.
    9000005    1    3    3    0    0 -0.26792647667E+02 -0.56391137032E+02 -0.52072216232E+02  0.81303886795E+02  0.10000000000E+01 0.  0.
<mgrwt>
<rscale>  0 0.12501016E+03</rscale>
<asrwt>0</asrwt>
<pdfrwt beam="1">  1        4 0.47114266E-02 0.12501016E+03</pdfrwt>
<pdfrwt beam="2">  1       -4 0.19626891E-01 0.12501016E+03</pdfrwt>
<totfact> 0.97668801E+03</totfact>
</mgrwt>
</event>
<event>
 5    1  0.3296424E-002  0.1249986E+03  0.7818608E-02  0.1235072E+00
         -4   -1    0    0    0  501 -0.00000000000E+00  0.00000000000E+00  0.21817421713E+03  0.21817791346E+03  0.12700000000E+01 0.  1.
          4   -1    0    0  501    0  0.00000000000E+00 -0.00000000000E+00 -0.17877484270E+02  0.17922537316E+02  0.12700000000E+01 0.  1.
         25    2    1    2    0    0  0.00000000000E+00  0.00000000000E+00  0.20029673286E+03  0.23610045077E+03  0.12499856663E+03 0.  0.
    9000005    1    3    3    0    0  0.23044681271E+01  0.48151346173E+01 -0.17455305496E+02  0.18280694316E+02  0.10000000000E+01 0.  0.
    9000005    1    3    3    0    0 -0.23044681271E+01 -0.48151346173E+01  0.21775203835E+03  0.21781975646E+03  0.10000000000E+01 0.  0.
<mgrwt>
<rscale>  0 0.12499857E+03</rscale>
<asrwt>0</asrwt>
<pdfrwt beam="2">  1        4 0.27541320E-02 0.12499857E+03</pdfrwt>
<pdfrwt beam="1">  1       -4 0.33569016E-01 0.12499857E+03</pdfrwt>
<totfact> 0.84384280E+03</totfact>
</mgrwt>
</event>
<event>
 4    1  0.3296424E-002  0.1250804E+03  0.7818608E-02  0.1234944E+00
         -4   -1    0    0    0  501 -0.00000000000E+00  0.00000000000E+00  0.17258285252E+02  0.17304950443E+02  0.12700000000E+01 0.  1.
          4   -1    0    0  501    0  0.00000000000E+00 -0.00000000000E+00 -0.22627738106E+03  0.22628094502E+03  0.12700000000E+01 0.  1.
    9000005    1    1    2    0    0  0.22286844792E+02  0.54596881522E+02 -0.63997590999E+02  0.87029963670E+02  0.10000000000E+01 0.  0.
    9000005    1    1    2    0    0 -0.22286844792E+02 -0.54596881522E+02 -0.14502150481E+03  0.15655593180E+03  0.10000000000E+01 0.  0.
<mgrwt>
<rscale>  0 0.12508040E+03</rscale>
<asrwt>0</asrwt>
<pdfrwt beam="2">  1        4 0.34815766E-01 0.12508040E+03</pdfrwt>
<pdfrwt beam="1">  1       -4 0.26589848E-02 0.12508040E+03</pdfrwt>
<totfact> 0.83117169E+03</totfact>
</mgrwt>
</event>
<event>
 5    1  0.3296424E-002  0.1250005E+03  0.7818608E-02  0.1235069E+00
         -4   -1    0    0    0  501 -0.00000000000E+00  0.00000000000E+00  0.44637103843E+02  0.44655166997E+02  0.12700000000E+01 0.  1.
          4   -1    0    0  501    0  0.00000000000E+00 -0.00000000000E+00 -0.87471549291E+02  0.87480768375E+02  0.12700000000E+01 0.  1.
         25    2    1    2    0    0  0.00000000000E+00  0.00000000000E+00 -0.42834445448E+02  0.13213593537E+03  0.12500046280E+03 0.  0.
    9000005    1    3    3    0    0 -0.38735622048E+02  0.45105453540E+02 -0.41759657481E+02  0.72662365413E+02  0.10000000000E+01 0.  0.
    9000005    1    3    3    0    0  0.38735622048E+02 -0.45105453540E+02 -0.10747879672E+01  0.59473569959E+02  0.10000000000E+01 0.  0.
<mgrwt>
<rscale>  0 0.12500046E+03</rscale>
<asrwt>0</asrwt>
<pdfrwt beam="2">  1        4 0.13459260E-01 0.12500046E+03</pdfrwt>
<pdfrwt beam="1">  1       -4 0.68693454E-02 0.12500046E+03</pdfrwt>
<totfact> 0.10298690E+04</totfact>
</mgrwt>
</event>
<event>
 5    1  0.3296424E-002  0.1250017E+03  0.7818608E-02  0.1235067E+00
         -4   -1    0    0    0  501 -0.00000000000E+00  0.00000000000E+00  0.88664176189E+03  0.88664267145E+03  0.12700000000E+01 0. -1.
          4   -1    0    0  501    0  0.00000000000E+00 -0.00000000000E+00 -0.43133372263E+01  0.44964183555E+01  0.12700000000E+01 0. -1.
         25    2    1    2    0    0  0.00000000000E+00  0.00000000000E+00  0.88232842467E+03  0.89113908980E+03  0.12500171359E+03 0.  0.
    9000005    1    3    3    0    0  0.34379485913E+02  0.50262038589E+02  0.34106930650E+03  0.34646427436E+03  0.10000000000E+01 0.  0.
    9000005    1    3    3    0    0 -0.34379485913E+02 -0.50262038589E+02  0.54125911817E+03  0.54467481544E+03  0.10000000000E+01 0.  0.
<mgrwt>
<rscale>  0 0.12500171E+03</rscale>
<asrwt>0</asrwt>
<pdfrwt beam="2">  1        4 0.67774284E-03 0.12500171E+03</pdfrwt>
<pdfrwt beam="1">  1       -4 0.13642071E+00 0.12500171E+03</pdfrwt>
<totfact> 0.34499027E+03</totfact>
</mgrwt>
</event>
<event>
 5    1  0.3296424E-002  0.1249977E+03  0.7818608E-02  0.1235073E+00
          4   -1    0    0  501    0  0.00000000000E+00  0.00000000000E+00  0.15525835744E+03  0.15526355160E+03  0.12700000000E+01 0. -1.
         -4   -1    0    0    0  501 -0.00000000000E+00 -0.00000000000E+00 -0.25137087291E+02  0.25169148922E+02  0.12700000000E+01 0. -1.
         25    2    1    2    0    0  0.00000000000E+00  0.00000000000E+00  0.13012127015E+03  0.18043270052E+03  0.12499765787E+03 0.  0.
    9000005    1    3    3    0    0 -0.42889043998E+02  0.19490618605E+02  0.12432721536E+03  0.13295717652E+03  0.10000000000E+01 0.  0.
    9000005    1    3    3    0    0  0.42889043998E+02 -0.19490618605E+02  0.57940547926E+01  0.47475524005E+02  0.10000000000E+01 0.  0.
<mgrwt>
<rscale>  0 0.12499766E+03</rscale>
<asrwt>0</asrwt>
<pdfrwt beam="1">  1        4 0.23888767E-01 0.12499766E+03</pdfrwt>
<pdfrwt beam="2">  1       -4 0.38701100E-02 0.12499766E+03</pdfrwt>
<totfact> 0.93544086E+03</totfact>
</mgrwt>
</event>
<event>
 5    1  0.3296424E-002  0.1250013E+03  0.7818608E-02  0.1235067E+00
         -4   -1    0    0    0  501 -0.00000000000E+00  0.00000000000E+00  0.84211774632E+02  0.84221350540E+02  0.12700000000E+01 0.  1.
          4   -1    0    0  501    0  0.00000000000E+00 -0.00000000000E+00 -0.46366061976E+02  0.46383451824E+02  0.12700000000E+01 0.  1.
         25    2    1    2    0    0  0.00000000000E+00  0.00000000000E+00  0.37845712657E+02  0.13060480236E+03  0.12500126573E+03 0.  0.
    9000005    1    3    3    0    0  0.38517967914E+02 -0.38515111075E+02  0.50927375491E+02  0.74576438691E+02  0.10000000000E+01 0.  0.
    9000005    1    3    3    0    0 -0.38517967914E+02  0.38515111075E+02 -0.13081662834E+02  0.56028363673E+02  0.10000000000E+01 0.  0.
<mgrwt>
<rscale>  0 0.12500127E+03</rscale>
<asrwt>0</asrwt>
<pdfrwt beam="2">  1        4 0.71353147E-02 0.12500127E+03</pdfrwt>
<pdfrwt beam="1">  1       -4 0.12957732E-01 0.12500127E+03</pdfrwt>
<totfact> 0.10331274E+04</totfact>
</mgrwt>
</event>
<event>
 5    1  0.3296424E-002  0.1250022E+03  0.7818608E-02  0.1235066E+00
         -4   -1    0    0    0  501 -0.00000000000E+00  0.00000000000E+00  0.21961073591E+04  0.21961077263E+04  0.12700000000E+01 0. -1.
          4   -1    0    0  501    0  0.00000000000E+00 -0.00000000000E+00 -0.15516775099E+01  0.20051441581E+01  0.12700000000E+01 0. -1.
         25    2    1    2    0    0  0.00000000000E+00  0.00000000000E+00  0.21945556816E+04  0.21981128705E+04  0.12500220699E+03 0.  0.
    9000005    1    3    3    0    0 -0.47705433489E+02 -0.13205712547E+02  0.42647952019E+03  0.42934366231E+03  0.10000000000E+01 0.  0.
    9000005    1    3    3    0    0  0.47705433489E+02  0.13205712547E+02  0.17680761614E+04  0.17687692081E+04  0.10000000000E+01 0.  0.
<mgrwt>
<rscale>  0 0.12500221E+03</rscale>
<asrwt>0</asrwt>
<pdfrwt beam="2">  1        4 0.27362951E-03 0.12500221E+03</pdfrwt>
<pdfrwt beam="1">  1       -4 0.33789808E+00 0.12500221E+03</pdfrwt>
<totfact> 0.74916430E+02</totfact>
</mgrwt>
</event>
<event>
 5    1  0.3296424E-002  0.1250004E+03  0.7818608E-02  0.1235069E+00
          4   -1    0    0  501    0  0.00000000000E+00  0.00000000000E+00  0.17565098994E+04  0.17565103585E+04  0.12700000000E+01 0.  1.
         -4   -1    0    0    0  501 -0.00000000000E+00 -0.00000000000E+00 -0.20420718745E+01  0.24047780647E+01  0.12700000000E+01 0.  1.
         25    2    1    2    0    0  0.00000000000E+00  0.00000000000E+00  0.17544678275E+04  0.17589151366E+04  0.12500039955E+03 0.  0.
    9000005    1    3    3    0    0 -0.48574930317E+02  0.19609745841E+02  0.13567339881E+04  0.13577452561E+04  0.10000000000E+01 0.  0.
    9000005    1    3    3    0    0  0.48574930317E+02 -0.19609745841E+02  0.39773383944E+03  0.40116988051E+03  0.10000000000E+01 0.  0.
<mgrwt>
<rscale>  0 0.12500040E+03</rscale>
<asrwt>0</asrwt>
<pdfrwt beam="1">  1        4 0.27026023E+00 0.12500040E+03</pdfrwt>
<pdfrwt beam="2">  1       -4 0.34210070E-03 0.12500040E+03</pdfrwt>
<totfact> 0.13347098E+03</totfact>
</mgrwt>
</event>
<event>
 5    1  0.3296424E-002  0.1249963E+03  0.7818608E-02  0.1235075E+00
         -4   -1    0    0    0  501 -0.00000000000E+00  0.00000000000E+00  0.30381197032E+02  0.30407729824E+02  0.12700000000E+01 0. -1.
          4   -1    0    0  501    0  0.00000000000E+00 -0.00000000000E+00 -0.12848118760E+03  0.12848746424E+03  0.12700000000E+01 0. -1.
         25    2    1    2    0    0  0.00000000000E+00  0.00000000000E+00 -0.98099990569E+02  0.15889519407E+03  0.12499629814E+03 0.  0.
    9000005    1    3    3    0    0 -0.22237489620E+02 -0.45936936891E+02 -0.32107826962E+01  0.51147015955E+02  0.10000000000E+01 0.  0.
    9000005    1    3    3    0    0  0.22237489620E+02  0.45936936891E+02 -0.94889207873E+02  0.10774817811E+03  0.10000000000E+01 0.  0.
<mgrwt>
<rscale>  0 0.12499630E+03</rscale>
<asrwt>0</asrwt>
<pdfrwt beam="2">  1        4 0.19768860E-01 0.12499630E+03</pdfrwt>
<pdfrwt beam="1">  1       -4 0.46765542E-02 0.12499630E+03</pdfrwt>
<totfact> 0.97564325E+03</totfact>
</mgrwt>
</event>
<event>
 5    1  0.3296424E-002  0.1250005E+03  0.7818608E-02  0.1235068E+00
         -4   -1    0    0    0  501 -0.00000000000E+00  0.00000000000E+00  0.95999573270E+03  0.95999657276E+03  0.12700000000E+01 0. -1.
          4   -1    0    0  501    0  0.00000000000E+00 -0.00000000000E+00 -0.39691058548E+01  0.41673374337E+01  0.12700000000E+01 0. -1.
         25    2    1    2    0    0  0.00000000000E+00  0.00000000000E+00  0.95602662685E+03  0.96416391019E+03  0.12500053790E+03 0.  0.
    9000005    1    3    3    0    0 -0.31647394403E+02 -0.27776970329E+02  0.83417688092E+03  0.83523959815E+03  0.10000000000E+01 0.  0.
    9000005    1    3    3    0    0  0.31647394403E+02  0.27776970329E+02  0.12184974592E+03  0.12892431204E+03  0.10000000000E+01 0.  0.
<mgrwt>
<rscale>  0 0.12500054E+03</rscale>
<asrwt>0</asrwt>
<pdfrwt beam="2">  1        4 0.62594426E-03 0.12500054E+03</pdfrwt>
<pdfrwt beam="1">  1       -4 0.14770711E+00 0.12500054E+03</pdfrwt>
<totfact> 0.31817967E+03</totfact>
</mgrwt>
</event>
<event>
 5    1  0.3296424E-002  0.1249976E+03  0.7818608E-02  0.1235073E+00
          4   -1    0    0  501    0  0.00000000000E+00  0.00000000000E+00  0.42820324162E+02  0.42839153368E+02  0.12700000000E+01 0. -1.
         -4   -1    0    0    0  501 -0.00000000000E+00 -0.00000000000E+00 -0.91177330661E+02  0.91186175084E+02  0.12700000000E+01 0. -1.
         25    2    1    2    0    0  0.00000000000E+00  0.00000000000E+00 -0.48357006499E+02  0.13402532845E+03  0.12499755433E+03 0.  0.
    9000005    1    3    3    0    0  0.36581572498E+02 -0.49347020184E+02 -0.11870922115E+02  0.62572027611E+02  0.10000000000E+01 0.  0.
    9000005    1    3    3    0    0 -0.36581572498E+02  0.49347020184E+02 -0.36486084384E+02  0.71453300842E+02  0.10000000000E+01 0.  0.
<mgrwt>
<rscale>  0 0.12499755E+03</rscale>
<asrwt>0</asrwt>
<pdfrwt beam="1">  1        4 0.65898709E-02 0.12499755E+03</pdfrwt>
<pdfrwt beam="2">  1       -4 0.14029410E-01 0.12499755E+03</pdfrwt>
<totfact> 0.10259221E+04</totfact>
</mgrwt>
</event>
<event>
 5    1  0.3296424E-002  0.1249993E+03  0.7818608E-02  0.1235070E+00
          4   -1    0    0  501    0  0.00000000000E+00  0.00000000000E+00  0.81877013964E+01  0.82856112724E+01  0.12700000000E+01 0. -1.
         -4   -1    0    0    0  501 -0.00000000000E+00 -0.00000000000E+00 -0.47414810542E+03  0.47414980625E+03  0.12700000000E+01 0. -1.
         25    2    1    2    0    0  0.00000000000E+00  0.00000000000E+00 -0.46596040402E+03  0.48243541753E+03  0.12499933587E+03 0.  0.
    9000005    1    3    3    0    0  0.40751683286E+02  0.46166315328E+02 -0.19192042625E+03  0.20156011106E+03  0.10000000000E+01 0.  0.
    9000005    1    3    3    0    0 -0.40751683286E+02 -0.46166315328E+02 -0.27403997777E+03  0.28087530646E+03  0.10000000000E+01 0.  0.
<mgrwt>
<rscale>  0 0.12499934E+03</rscale>
<asrwt>0</asrwt>
<pdfrwt beam="1">  1        4 0.12673091E-02 0.12499934E+03</pdfrwt>
<pdfrwt beam="2">  1       -4 0.72953504E-01 0.12499934E+03</pdfrwt>
<totfact> 0.57254234E+03</totfact>
</mgrwt>
</event>
<event>
 5    1  0.3296424E-002  0.1250132E+03  0.7818608E-02  0.1235049E+00
          4   -1    0    0  501    0  0.00000000000E+00  0.00000000000E+00  0.18027110210E+03  0.18027557558E+03  0.12700000000E+01 0.  1.
         -4   -1    0    0    0  501 -0.00000000000E+00 -0.00000000000E+00 -0.21649979262E+02  0.21687196731E+02  0.12700000000E+01 0.  1.
         25    2    1    2    0    0  0.00000000000E+00  0.00000000000E+00  0.15862112284E+03  0.20196277232E+03  0.12501320247E+03 0.  0.
    9000005    1    3    3    0    0  0.16358497489E+02  0.13733072723E+02 -0.15578746305E+02  0.26455529913E+02  0.10000000000E+01 0.  0.
    9000005    1    3    3    0    0 -0.16358497489E+02 -0.13733072723E+02  0.17419986914E+03  0.17550724240E+03  0.10000000000E+01 0.  0.
<mgrwt>
<rscale>  0 0.12501320E+03</rscale>
<asrwt>0</asrwt>
<pdfrwt beam="1">  1        4 0.27737222E-01 0.12501320E+03</pdfrwt>
<pdfrwt beam="2">  1       -4 0.33339731E-02 0.12501320E+03</pdfrwt>
<totfact> 0.89779000E+03</totfact>
</mgrwt>
</event>
<event>
 5    1  0.3296424E-002  0.1250007E+03  0.7818608E-02  0.1235068E+00
          4   -1    0    0  501    0  0.00000000000E+00  0.00000000000E+00  0.19166798516E+02  0.19208827797E+02  0.12700000000E+01 0.  1.
         -4   -1    0    0    0  501 -0.00000000000E+00 -0.00000000000E+00 -0.20353785780E+03  0.20354181992E+03  0.12700000000E+01 0.  1.
         25    2    1    2    0    0  0.00000000000E+00  0.00000000000E+00 -0.18437105929E+03  0.22275064772E+03  0.12500065423E+03 0.  0.
    9000005    1    3    3    0    0  0.32569540195E+02  0.25952374285E+02 -0.17521564132E+03  0.18009947707E+03  0.10000000000E+01 0.  0.
    9000005    1    3    3    0    0 -0.32569540195E+02 -0.25952374285E+02 -0.91554179671E+01  0.42651170649E+02  0.10000000000E+01 0.  0.
<mgrwt>
<rscale>  0 0.12500065E+03</rscale>
<asrwt>0</asrwt>
<pdfrwt beam="1">  1        4 0.29522762E-02 0.12500065E+03</pdfrwt>
<pdfrwt beam="2">  1       -4 0.31317053E-01 0.12500065E+03</pdfrwt>
<totfact> 0.86433696E+03</totfact>
</mgrwt>
</event>
<event>
 5    1  0.3296424E-002  0.1250013E+03  0.7818608E-02  0.1235067E+00
         -4   -1    0    0    0  501 -0.00000000000E+00  0.00000000000E+00  0.14929346094E+02  0.14983266493E+02  0.12700000000E+01 0.  1.
          4   -1    0    0  501    0  0.00000000000E+00 -0.00000000000E+00 -0.26112753708E+03  0.26113062540E+03  0.12700000000E+01 0.  1.
         25    2    1    2    0    0  0.00000000000E+00  0.00000000000E+00 -0.24619819099E+03  0.27611389190E+03  0.12500132820E+03 0.  0.
    9000005    1    3    3    0    0  0.37524873931E+02 -0.28862749635E+02 -0.21320867809E+03  0.21840355971E+03  0.10000000000E+01 0.  0.
    9000005    1    3    3    0    0 -0.37524873931E+02  0.28862749635E+02 -0.32989512899E+02  0.57710332189E+02  0.10000000000E+01 0.  0.
<mgrwt>
<rscale>  0 0.12500133E+03</rscale>
<asrwt>0</asrwt>
<pdfrwt beam="2">  1        4 0.40177849E-01 0.12500133E+03</pdfrwt>
<pdfrwt beam="1">  1       -4 0.23012080E-02 0.12500133E+03</pdfrwt>
<totfact> 0.78693890E+03</totfact>
</mgrwt>
</event>
<event>
 5    1  0.3296424E-002  0.1250031E+03  0.7818608E-02  0.1235064E+00
         -4   -1    0    0    0  501 -0.00000000000E+00  0.00000000000E+00  0.24641259699E+02  0.24673965622E+02  0.12700000000E+01 0. -1.
          4   -1    0    0  501    0  0.00000000000E+00 -0.00000000000E+00 -0.15839219302E+03  0.15839728442E+03  0.12700000000E+01 0. -1.
         25    2    1    2    0    0  0.00000000000E+00  0.00000000000E+00 -0.13375093332E+03  0.18307125004E+03  0.12500308166E+03 0.  0.
    9000005    1    3    3    0    0 -0.12862139559E+02 -0.54802687516E+02 -0.10662544767E+03  0.12057676096E+03  0.10000000000E+01 0.  0.
    9000005    1    3    3    0    0  0.12862139559E+02  0.54802687516E+02 -0.27125485651E+02  0.62494489075E+02  0.10000000000E+01 0.  0.
<mgrwt>
<rscale>  0 0.12500308E+03</rscale>
<asrwt>0</asrwt>
<pdfrwt beam="2">  1        4 0.24370937E-01 0.12500308E+03</pdfrwt>
<pdfrwt beam="1">  1       -4 0.37938706E-02 0.12500308E+03</pdfrwt>
<totfact> 0.93060643E+03</totfact>
</mgrwt>
</event>
<event>
 5    1  0.3296424E-002  0.1249977E+03  0.7818608E-02  0.1235073E+00
          4   -1    0    0  501    0  0.00000000000E+00  0.00000000000E+00  0.76922117894E+02  0.76932601161E+02  0.12700000000E+01 0.  1.
         -4   -1    0    0    0  501 -0.00000000000E+00 -0.00000000000E+00 -0.50758121183E+02  0.50774006796E+02  0.12700000000E+01 0.  1.
         25    2    1    2    0    0  0.00000000000E+00  0.00000000000E+00  0.26163996711E+02  0.12770660796E+03  0.12499769195E+03 0.  0.
    9000005    1    3    3    0    0 -0.38391881069E+02 -0.31927824410E+02 -0.25305992912E+02  0.55988532583E+02  0.10000000000E+01 0.  0.
    9000005    1    3    3    0    0  0.38391881069E+02  0.31927824410E+02  0.51469989623E+02  0.71718075373E+02  0.10000000000E+01 0.  0.
<mgrwt>
<rscale>  0 0.12499769E+03</rscale>
<asrwt>0</asrwt>
<pdfrwt beam="1">  1        4 0.11836200E-01 0.12499769E+03</pdfrwt>
<pdfrwt beam="2">  1       -4 0.78109702E-02 0.12499769E+03</pdfrwt>
<totfact> 0.10394370E+04</totfact>
</mgrwt>
</event>
<event>
 5    1  0.3296424E-002  0.1250210E+03  0.7818608E-02  0.1235037E+00
         -4   -1    0    0    0  501 -0.00000000000E+00  0.00000000000E+00  0.61810682207E+03  0.61810812678E+03  0.12700000000E+01 0.  1.
          4   -1    0    0  501    0  0.00000000000E+00 -0.00000000000E+00 -0.62567119037E+01  0.63843044920E+01  0.12700000000E+01 0.  1.
         25    2    1    2    0    0  0.00000000000E+00  0.00000000000E+00  0.61185011017E+03  0.62449243127E+03  0.12502095586E+03 0.  0.
    9000005    1    3    3    0    0  0.43775749753E+02  0.37184017042E+02  0.42905127670E+03  0.43287985103E+03  0.10000000000E+01 0.  0.
    9000005    1    3    3    0    0 -0.43775749753E+02 -0.37184017042E+02  0.18279883347E+03  0.19161258024E+03  0.10000000000E+01 0.  0.
<mgrwt>
<rscale>  0 0.12502096E+03</rscale>
<asrwt>0</asrwt>
<pdfrwt beam="2">  1        4 0.97248615E-03 0.12502096E+03</pdfrwt>
<pdfrwt beam="1">  1       -4 0.95103281E-01 0.12502096E+03</pdfrwt>
<totfact> 0.47335451E+03</totfact>
</mgrwt>
</event>
<event>
 5    1  0.3296424E-002  0.1250009E+03  0.7818608E-02  0.1235068E+00
          4   -1    0    0  501    0  0.00000000000E+00  0.00000000000E+00  0.27805428357E+02  0.27834416576E+02  0.12700000000E+01 0.  1.
         -4   -1    0    0    0  501 -0.00000000000E+00 -0.00000000000E+00 -0.14038208479E+03  0.14038782935E+03  0.12700000000E+01 0.  1.
         25    2    1    2    0    0  0.00000000000E+00  0.00000000000E+00 -0.11257665643E+03  0.16822224593E+03  0.12500088180E+03 0.  0.
    9000005    1    3    3    0    0 -0.62029190001E+02  0.36621109099E+01 -0.65242862122E+02  0.90103621051E+02  0.10000000000E+01 0.  0.
    9000005    1    3    3    0    0  0.62029190001E+02 -0.36621109099E+01 -0.47333794309E+02  0.78118624874E+02  0.10000000000E+01 0.  0.
<mgrwt>
<rscale>  0 0.12500088E+03</rscale>
<asrwt>0</asrwt>
<pdfrwt beam="1">  1        4 0.42804300E-02 0.12500088E+03</pdfrwt>
<pdfrwt beam="2">  1       -4 0.21599915E-01 0.12500088E+03</pdfrwt>
<totfact> 0.95778710E+03</totfact>
</mgrwt>
</event>
<event>
 5    1  0.3296424E-002  0.1249896E+03  0.7818608E-02  0.1235085E+00
          4   -1    0    0  501    0  0.00000000000E+00  0.00000000000E+00  0.39418356833E+02  0.39438810268E+02  0.12700000000E+01 0.  1.
         -4   -1    0    0    0  501 -0.00000000000E+00 -0.00000000000E+00 -0.99030587367E+02  0.99038730476E+02  0.12700000000E+01 0.  1.
         25    2    1    2    0    0  0.00000000000E+00  0.00000000000E+00 -0.59612230534E+02  0.13847754074E+03  0.12498964462E+03 0.  0.
    9000005    1    3    3    0    0 -0.15437310462E+02 -0.16985368410E+02 -0.94196586138E+02  0.96957775007E+02  0.10000000000E+01 0.  0.
    9000005    1    3    3    0    0  0.15437310462E+02  0.16985368410E+02  0.34584355604E+02  0.41519765737E+02  0.10000000000E+01 0.  0.
<mgrwt>
<rscale>  0 0.12498964E+03</rscale>
<asrwt>0</asrwt>
<pdfrwt beam="1">  1        4 0.60665623E-02 0.12498964E+03</pdfrwt>
<pdfrwt beam="2">  1       -4 0.15237675E-01 0.12498964E+03</pdfrwt>
<totfact> 0.10167610E+04</totfact>
</mgrwt>
</event>
<event>
 5    1  0.3296424E-002  0.1249807E+03  0.7818608E-02  0.1235100E+00
         -4   -1    0    0    0  501 -0.00000000000E+00  0.00000000000E+00  0.35607576337E+03  0.35607802819E+03  0.12700000000E+01 0.  1.
          4   -1    0    0  501    0  0.00000000000E+00 -0.00000000000E+00 -0.10927806914E+02  0.11001357368E+02  0.12700000000E+01 0.  1.
         25    2    1    2    0    0  0.00000000000E+00  0.00000000000E+00  0.34514795646E+03  0.36707938556E+03  0.12498065233E+03 0.  0.
    9000005    1    3    3    0    0  0.34940866021E+02  0.31381607651E+02  0.29361526973E+03  0.29734928289E+03  0.10000000000E+01 0.  0.
    9000005    1    3    3    0    0 -0.34940866021E+02 -0.31381607651E+02  0.51532686735E+02  0.69730102676E+02  0.10000000000E+01 0.  0.
<mgrwt>
<rscale>  0 0.12498065E+03</rscale>
<asrwt>0</asrwt>
<pdfrwt beam="2">  1        4 0.16870336E-02 0.12498065E+03</pdfrwt>
<pdfrwt beam="1">  1       -4 0.54786698E-01 0.12498065E+03</pdfrwt>
<totfact> 0.67914660E+03</totfact>
</mgrwt>
</event>
<event>
 5    1  0.3296424E-002  0.1249994E+03  0.7818608E-02  0.1235070E+00
         -4   -1    0    0    0  501 -0.00000000000E+00  0.00000000000E+00  0.34140201211E+03  0.34140437428E+03  0.12700000000E+01 0. -1.
          4   -1    0    0  501    0  0.00000000000E+00 -0.00000000000E+00 -0.11404037654E+02  0.11474535930E+02  0.12700000000E+01 0. -1.
         25    2    1    2    0    0  0.00000000000E+00  0.00000000000E+00  0.32999797446E+03  0.35287891021E+03  0.12499944849E+03 0.  0.
    9000005    1    3    3    0    0  0.35138643380E+02  0.31664532795E+01  0.31061071968E+03  0.31260961256E+03  0.10000000000E+01 0.  0.
    9000005    1    3    3    0    0 -0.35138643380E+02 -0.31664532795E+01  0.19387254776E+02  0.40269297643E+02  0.10000000000E+01 0.  0.
<mgrwt>
<rscale>  0 0.12499945E+03</rscale>
<asrwt>0</asrwt>
<pdfrwt beam="2">  1        4 0.17600719E-02 0.12499945E+03</pdfrwt>
<pdfrwt beam="1">  1       -4 0.52528994E-01 0.12499945E+03</pdfrwt>
<totfact> 0.69409840E+03</totfact>
</mgrwt>
</event>
<event>
 5    1  0.3296424E-002  0.1249740E+03  0.7818608E-02  0.1235110E+00
         -4   -1    0    0    0  501 -0.00000000000E+00  0.00000000000E+00  0.17829617955E+02  0.17874791647E+02  0.12700000000E+01 0.  1.
          4   -1    0    0  501    0  0.00000000000E+00 -0.00000000000E+00 -0.21867239408E+03  0.21867608198E+03  0.12700000000E+01 0.  1.
         25    2    1    2    0    0  0.00000000000E+00  0.00000000000E+00 -0.20084277612E+03  0.23655087363E+03  0.12497397767E+03 0.  0.
    9000005    1    3    3    0    0  0.28320149878E+02  0.74887716628E+01  0.40350140329E+01  0.29587056771E+02  0.10000000000E+01 0.  0.
    9000005    1    3    3    0    0 -0.28320149878E+02 -0.74887716628E+01 -0.20487779016E+03  0.20696381686E+03  0.10000000000E+01 0.  0.
<mgrwt>
<rscale>  0 0.12497398E+03</rscale>
<asrwt>0</asrwt>
<pdfrwt beam="2">  1        4 0.33645663E-01 0.12497398E+03</pdfrwt>
<pdfrwt beam="1">  1       -4 0.27467769E-02 0.12497398E+03</pdfrwt>
<totfact> 0.84362696E+03</totfact>
</mgrwt>
</event>
<event>
 5    1  0.3296424E-002  0.1250386E+03  0.7818608E-02  0.1235009E+00
          4   -1    0    0  501    0  0.00000000000E+00  0.00000000000E+00  0.23192112058E+01  0.26441710643E+01  0.12700000000E+01 0.  1.
         -4   -1    0    0    0  501 -0.00000000000E+00 -0.00000000000E+00 -0.15746739153E+04  0.15746744274E+04  0.12700000000E+01 0.  1.
         25    2    1    2    0    0  0.00000000000E+00  0.00000000000E+00 -0.15723547041E+04  0.15773185985E+04  0.12503857682E+03 0.  0.
    9000005    1    3    3    0    0 -0.49447175046E+02  0.38228092941E+02 -0.80028780853E+03  0.80272534948E+03  0.10000000000E+01 0.  0.
    9000005    1    3    3    0    0  0.49447175046E+02 -0.38228092941E+02 -0.77206689553E+03  0.77459324899E+03  0.10000000000E+01 0.  0.
<mgrwt>
<rscale>  0 0.12503858E+03</rscale>
<asrwt>0</asrwt>
<pdfrwt beam="1">  1        4 0.38183929E-03 0.12503858E+03</pdfrwt>
<pdfrwt beam="2">  1       -4 0.24228176E+00 0.12503858E+03</pdfrwt>
<totfact> 0.16445834E+03</totfact>
</mgrwt>
</event>
<event>
 5    1  0.3296424E-002  0.1250244E+03  0.7818608E-02  0.1235031E+00
          4   -1    0    0  501    0  0.00000000000E+00  0.00000000000E+00  0.38345741883E+03  0.38345952192E+03  0.12700000000E+01 0.  1.
         -4   -1    0    0    0  501 -0.00000000000E+00 -0.00000000000E+00 -0.10149198373E+02  0.10228349213E+02  0.12700000000E+01 0.  1.
         25    2    1    2    0    0  0.00000000000E+00  0.00000000000E+00  0.37330822045E+03  0.39368787114E+03  0.12502444729E+03 0.  0.
    9000005    1    3    3    0    0  0.26486811754E+02 -0.90446101939E+01  0.10670420198E+02  0.29970219179E+02  0.10000000000E+01 0.  0.
    9000005    1    3    3    0    0 -0.26486811754E+02  0.90446101939E+01  0.36263780026E+03  0.36371765196E+03  0.10000000000E+01 0.  0.
<mgrwt>
<rscale>  0 0.12502445E+03</rscale>
<asrwt>0</asrwt>
<pdfrwt beam="1">  1        4 0.58999702E-01 0.12502445E+03</pdfrwt>
<pdfrwt beam="2">  1       -4 0.15676654E-02 0.12502445E+03</pdfrwt>
<totfact> 0.65136189E+03</totfact>
</mgrwt>
</event>
<event>
 5    1  0.3296424E-002  0.1249998E+03  0.7818608E-02  0.1235070E+00
          4   -1    0    0  501    0  0.00000000000E+00  0.00000000000E+00  0.48611467953E+02  0.48628054830E+02  0.12700000000E+01 0.  1.
         -4   -1    0    0    0  501 -0.00000000000E+00 -0.00000000000E+00 -0.80321026716E+02  0.80331066424E+02  0.12700000000E+01 0.  1.
         25    2    1    2    0    0  0.00000000000E+00  0.00000000000E+00 -0.31709558763E+02  0.12895912125E+03  0.12499983535E+03 0.  0.
    9000005    1    3    3    0    0  0.13770727151E+02 -0.22265401995E+02  0.42686340757E+02  0.50084975187E+02  0.10000000000E+01 0.  0.
    9000005    1    3    3    0    0 -0.13770727151E+02  0.22265401995E+02 -0.74395899521E+02  0.78874146066E+02  0.10000000000E+01 0.  0.
<mgrwt>
<rscale>  0 0.12499984E+03</rscale>
<asrwt>0</asrwt>
<pdfrwt beam="1">  1        4 0.74807356E-02 0.12499984E+03</pdfrwt>
<pdfrwt beam="2">  1       -4 0.12359129E-01 0.12499984E+03</pdfrwt>
<totfact> 0.10366864E+04</totfact>
</mgrwt>
</event>
<event>
 5    1  0.3296424E-002  0.1250007E+03  0.7818608E-02  0.1235068E+00
          4   -1    0    0  501    0  0.00000000000E+00  0.00000000000E+00  0.96733640350E+01  0.97563759539E+01  0.12700000000E+01 0. -1.
         -4   -1    0    0    0  501 -0.00000000000E+00 -0.00000000000E+00 -0.40201005525E+03  0.40201206129E+03  0.12700000000E+01 0. -1.
         25    2    1    2    0    0  0.00000000000E+00  0.00000000000E+00 -0.39233669122E+03  0.41176843724E+03  0.12500066654E+03 0.  0.
    9000005    1    3    3    0    0  0.37825716201E+02  0.34435778847E+02 -0.77914862502E+02  0.93211230383E+02  0.10000000000E+01 0.  0.
    9000005    1    3    3    0    0 -0.37825716201E+02 -0.34435778847E+02 -0.31442182871E+03  0.31855720686E+03  0.10000000000E+01 0.  0.
<mgrwt>
<rscale>  0 0.12500067E+03</rscale>
<asrwt>0</asrwt>
<pdfrwt beam="1">  1        4 0.14947500E-02 0.12500067E+03</pdfrwt>
<pdfrwt beam="2">  1       -4 0.61854228E-01 0.12500067E+03</pdfrwt>
<totfact> 0.63423149E+03</totfact>
</mgrwt>
</event>
<event>
 5    1  0.3296424E-002  0.1249969E+03  0.7818608E-02  0.1235074E+00
          4   -1    0    0  501    0  0.00000000000E+00  0.00000000000E+00  0.92887456056E+01  0.93751637279E+01  0.12700000000E+01 0.  1.
         -4   -1    0    0    0  501 -0.00000000000E+00 -0.00000000000E+00 -0.41848064338E+03  0.41848257047E+03  0.12700000000E+01 0.  1.
         25    2    1    2    0    0  0.00000000000E+00  0.00000000000E+00 -0.40919189778E+03  0.42785773420E+03  0.12499692598E+03 0.  0.
    9000005    1    3    3    0    0 -0.54055521599E+02 -0.21762337768E+02 -0.12733594546E+03  0.14003942933E+03  0.10000000000E+01 0.  0.
    9000005    1    3    3    0    0  0.54055521599E+02  0.21762337768E+02 -0.28185595232E+03  0.28781830487E+03  0.10000000000E+01 0.  0.
<mgrwt>
<rscale>  0 0.12499693E+03</rscale>
<asrwt>0</asrwt>
<pdfrwt beam="1">  1        4 0.14358339E-02 0.12499693E+03</pdfrwt>
<pdfrwt beam="2">  1       -4 0.64388419E-01 0.12499693E+03</pdfrwt>
<totfact> 0.61934860E+03</totfact>
</mgrwt>
</event>
<event>
 5    1  0.3296424E-002  0.1249901E+03  0.7818608E-02  0.1235085E+00
          4   -1    0    0  501    0  0.00000000000E+00  0.00000000000E+00  0.38905852617E+02  0.38926575342E+02  0.12700000000E+01 0. -1.
         -4   -1    0    0    0  501 -0.00000000000E+00 -0.00000000000E+00 -0.10033524674E+03  0.10034328397E+03  0.12700000000E+01 0. -1.
         25    2    1    2    0    0  0.00000000000E+00  0.00000000000E+00 -0.61429394123E+02  0.13926985931E+03  0.12499009261E+03 0.  0.
    9000005    1    3    3    0    0 -0.49701535214E+02 -0.37473229807E+02 -0.36832437541E+02  0.72333353371E+02  0.10000000000E+01 0.  0.
    9000005    1    3    3    0    0  0.49701535214E+02  0.37473229807E+02 -0.24596956582E+02  0.66936505943E+02  0.10000000000E+01 0.  0.
<mgrwt>
<rscale>  0 0.12499009E+03</rscale>
<asrwt>0</asrwt>
<pdfrwt beam="1">  1        4 0.59877281E-02 0.12499009E+03</pdfrwt>
<pdfrwt beam="2">  1       -4 0.15438404E-01 0.12499009E+03</pdfrwt>
<totfact> 0.10151006E+04</totfact>
</mgrwt>
</event>
<event>
 5    1  0.3296424E-002  0.1250359E+03  0.7818608E-02  0.1235013E+00
          4   -1    0    0  501    0  0.00000000000E+00  0.00000000000E+00  0.12028499431E+03  0.12029169862E+03  0.12700000000E+01 0.  1.
         -4   -1    0    0    0  501 -0.00000000000E+00 -0.00000000000E+00 -0.32473601346E+02  0.32498425875E+02  0.12700000000E+01 0.  1.
         25    2    1    2    0    0  0.00000000000E+00  0.00000000000E+00  0.87811392967E+02  0.15279012449E+03  0.12503592047E+03 0.  0.
    9000005    1    3    3    0    0 -0.27745670586E+02  0.53074842301E+02  0.65790020967E+02  0.88972400104E+02  0.10000000000E+01 0.  0.
    9000005    1    3    3    0    0  0.27745670586E+02 -0.53074842301E+02  0.22021372000E+02  0.63817724390E+02  0.10000000000E+01 0.  0.
<mgrwt>
<rscale>  0 0.12503592E+03</rscale>
<asrwt>0</asrwt>
<pdfrwt beam="1">  1        4 0.18507809E-01 0.12503592E+03</pdfrwt>
<pdfrwt beam="2">  1       -4 0.49983640E-02 0.12503592E+03</pdfrwt>
<totfact> 0.98670645E+03</totfact>
</mgrwt>
</event>
<event>
 5    1  0.3296424E-002  0.1250030E+03  0.7818608E-02  0.1235065E+00
          4   -1    0    0  501    0  0.00000000000E+00  0.00000000000E+00  0.14385682322E+03  0.14386242903E+03  0.12700000000E+01 0.  1.
         -4   -1    0    0    0  501 -0.00000000000E+00 -0.00000000000E+00 -0.27134068439E+02  0.27163773119E+02  0.12700000000E+01 0.  1.
         25    2    1    2    0    0  0.00000000000E+00  0.00000000000E+00  0.11672275478E+03  0.17102620215E+03  0.12500304132E+03 0.  0.
    9000005    1    3    3    0    0 -0.50536227293E+02  0.34485016282E+02  0.40930495899E+02  0.73616792320E+02  0.10000000000E+01 0.  0.
    9000005    1    3    3    0    0  0.50536227293E+02 -0.34485016282E+02  0.75792258881E+02  0.97409409829E+02  0.10000000000E+01 0.  0.
<mgrwt>
<rscale>  0 0.12500304E+03</rscale>
<asrwt>0</asrwt>
<pdfrwt beam="1">  1        4 0.22134536E-01 0.12500304E+03</pdfrwt>
<pdfrwt beam="2">  1       -4 0.41771882E-02 0.12500304E+03</pdfrwt>
<totfact> 0.95251209E+03</totfact>
</mgrwt>
</event>
<event>
 5    1  0.3296424E-002  0.1250066E+03  0.7818608E-02  0.1235059E+00
         -4   -1    0    0    0  501 -0.00000000000E+00  0.00000000000E+00  0.90835212317E+02  0.90844090049E+02  0.12700000000E+01 0.  1.
          4   -1    0    0  501    0  0.00000000000E+00 -0.00000000000E+00 -0.42987888970E+02  0.43006644813E+02  0.12700000000E+01 0.  1.
         25    2    1    2    0    0  0.00000000000E+00  0.00000000000E+00  0.47847323347E+02  0.13385073486E+03  0.12500661131E+03 0.  0.
    9000005    1    3    3    0    0 -0.21616070731E+02  0.26648038558E+01  0.86645329590E+02  0.89346342025E+02  0.10000000000E+01 0.  0.
    9000005    1    3    3    0    0  0.21616070731E+02 -0.26648038558E+01 -0.38798006243E+02  0.44504392837E+02  0.10000000000E+01 0.  0.
<mgrwt>
<rscale>  0 0.12500661E+03</rscale>
<asrwt>0</asrwt>
<pdfrwt beam="2">  1        4 0.66156470E-02 0.12500661E+03</pdfrwt>
<pdfrwt beam="1">  1       -4 0.13976774E-01 0.12500661E+03</pdfrwt>
<totfact> 0.10260821E+04</totfact>
</mgrwt>
</event>
<event>
 5    1  0.3296424E-002  0.1249990E+03  0.7818608E-02  0.1235071E+00
         -4   -1    0    0    0  501 -0.00000000000E+00  0.00000000000E+00  0.20322379146E+01  0.23964329621E+01  0.12700000000E+01 0. -1.
          4   -1    0    0  501    0  0.00000000000E+00 -0.00000000000E+00 -0.17636813807E+04  0.17636818379E+04  0.12700000000E+01 0. -1.
         25    2    1    2    0    0  0.00000000000E+00  0.00000000000E+00 -0.17616491428E+04  0.17660782709E+04  0.12499902689E+03 0.  0.
    9000005    1    3    3    0    0  0.33780284365E+02  0.41579980554E+02 -0.42624211086E+03  0.42959671725E+03  0.10000000000E+01 0.  0.
    9000005    1    3    3    0    0 -0.33780284365E+02 -0.41579980554E+02 -0.13354070319E+04  0.13364815536E+04  0.10000000000E+01 0.  0.
<mgrwt>
<rscale>  0 0.12499903E+03</rscale>
<asrwt>0</asrwt>
<pdfrwt beam="2">  1        4 0.27136252E+00 0.12499903E+03</pdfrwt>
<pdfrwt beam="1">  1       -4 0.34070357E-03 0.12499903E+03</pdfrwt>
<totfact> 0.13233818E+03</totfact>
</mgrwt>
</event>
<event>
 5    1  0.3296424E-002  0.1250017E+03  0.7818608E-02  0.1235067E+00
          4   -1    0    0  501    0  0.00000000000E+00  0.00000000000E+00  0.16070212210E+02  0.16120317009E+02  0.12700000000E+01 0. -1.
         -4   -1    0    0    0  501 -0.00000000000E+00 -0.00000000000E+00 -0.24265030801E+03  0.24265363149E+03  0.12700000000E+01 0. -1.
         25    2    1    2    0    0  0.00000000000E+00  0.00000000000E+00 -0.22658009580E+03  0.25877394850E+03  0.12500166643E+03 0.  0.
    9000005    1    3    3    0    0  0.10494420855E+02 -0.29972241285E+02 -0.22471192097E+03  0.22694694434E+03  0.10000000000E+01 0.  0.
    9000005    1    3    3    0    0 -0.10494420855E+02  0.29972241285E+02 -0.18681748231E+01  0.31827004162E+02  0.10000000000E+01 0.  0.
<mgrwt>
<rscale>  0 0.12500167E+03</rscale>
<asrwt>0</asrwt>
<pdfrwt beam="1">  1        4 0.24764504E-02 0.12500167E+03</pdfrwt>
<pdfrwt beam="2">  1       -4 0.37334924E-01 0.12500167E+03</pdfrwt>
<totfact> 0.81075421E+03</totfact>
</mgrwt>
</event>
<event>
 5    1  0.3296424E-002  0.1250004E+03  0.7818608E-02  0.1235069E+00
         -4   -1    0    0    0  501 -0.00000000000E+00  0.00000000000E+00  0.11854820035E+02  0.11922653146E+02  0.12700000000E+01 0. -1.
          4   -1    0    0  501    0  0.00000000000E+00 -0.00000000000E+00 -0.32850038824E+03  0.32850284318E+03  0.12700000000E+01 0. -1.
         25    2    1    2    0    0  0.00000000000E+00  0.00000000000E+00 -0.31664556821E+03  0.34042549633E+03  0.12500041073E+03 0.  0.
    9000005    1    3    3    0    0 -0.45535104689E+02 -0.38819403475E+02 -0.10923485799E+03  0.12455378776E+03  0.10000000000E+01 0.  0.
    9000005    1    3    3    0    0  0.45535104689E+02  0.38819403475E+02 -0.20741071022E+03  0.21587170857E+03  0.10000000000E+01 0.  0.
<mgrwt>
<rscale>  0 0.12500041E+03</rscale>
<asrwt>0</asrwt>
<pdfrwt beam="2">  1        4 0.50543921E-01 0.12500041E+03</pdfrwt>
<pdfrwt beam="1">  1       -4 0.18292255E-02 0.12500041E+03</pdfrwt>
<totfact> 0.70790232E+03</totfact>
</mgrwt>
</event>
<event>
 5    1  0.3296424E-002  0.1249997E+03  0.7818608E-02  0.1235070E+00
          4   -1    0    0  501    0  0.00000000000E+00  0.00000000000E+00  0.13836519365E+02  0.13894681289E+02  0.12700000000E+01 0.  1.
         -4   -1    0    0    0  501 -0.00000000000E+00 -0.00000000000E+00 -0.28166153449E+03  0.28166439767E+03  0.12700000000E+01 0.  1.
         25    2    1    2    0    0  0.00000000000E+00  0.00000000000E+00 -0.26782501513E+03  0.29555907896E+03  0.12499972170E+03 0.  0.
    9000005    1    3    3    0    0 -0.50913525111E+02  0.27852706706E+02 -0.79105955376E+02  0.98115811601E+02  0.10000000000E+01 0.  0.
    9000005    1    3    3    0    0  0.50913525111E+02 -0.27852706706E+02 -0.18871905975E+03  0.19744326736E+03  0.10000000000E+01 0.  0.
<mgrwt>
<rscale>  0 0.12499972E+03</rscale>
<asrwt>0</asrwt>
<pdfrwt beam="1">  1        4 0.21333897E-02 0.12499972E+03</pdfrwt>
<pdfrwt beam="2">  1       -4 0.43337234E-01 0.12499972E+03</pdfrwt>
<totfact> 0.76159770E+03</totfact>
</mgrwt>
</event>
<event>
 5    1  0.3296424E-002  0.1249983E+03  0.7818608E-02  0.1235072E+00
          4   -1    0    0  501    0  0.00000000000E+00  0.00000000000E+00  0.10422667571E+04  0.10422675309E+04  0.12700000000E+01 0.  1.
         -4   -1    0    0    0  501 -0.00000000000E+00 -0.00000000000E+00 -0.36393480145E+01  0.38545757187E+01  0.12700000000E+01 0.  1.
         25    2    1    2    0    0  0.00000000000E+00  0.00000000000E+00  0.10386274091E+04  0.10461221066E+04  0.12499826775E+03 0.  0.
    9000005    1    3    3    0    0 -0.47014743861E+02 -0.29487594075E+02  0.75973217713E+03  0.76175710388E+03  0.10000000000E+01 0.  0.
    9000005    1    3    3    0    0  0.47014743861E+02  0.29487594075E+02  0.27889523197E+03  0.28436500270E+03  0.10000000000E+01 0.  0.
<mgrwt>
<rscale>  0 0.12499827E+03</rscale>
<asrwt>0</asrwt>
<pdfrwt beam="1">  1        4 0.16036570E+00 0.12499827E+03</pdfrwt>
<pdfrwt beam="2">  1       -4 0.57651393E-03 0.12499827E+03</pdfrwt>
<totfact> 0.29117187E+03</totfact>
</mgrwt>
</event>
<event>
 5    1  0.3296424E-002  0.1249985E+03  0.7818608E-02  0.1235072E+00
         -4   -1    0    0    0  501 -0.00000000000E+00  0.00000000000E+00  0.93337156096E+02  0.93345795878E+02  0.12700000000E+01 0.  1.
          4   -1    0    0  501    0  0.00000000000E+00 -0.00000000000E+00 -0.41829727126E+02  0.41849002036E+02  0.12700000000E+01 0.  1.
         25    2    1    2    0    0  0.00000000000E+00  0.00000000000E+00  0.51507428971E+02  0.13519479791E+03  0.12499847257E+03 0.  0.
    9000005    1    3    3    0    0  0.31660233510E+02  0.26739387943E+02  0.76342938759E+02  0.86871223958E+02  0.10000000000E+01 0.  0.
    9000005    1    3    3    0    0 -0.31660233510E+02 -0.26739387943E+02 -0.24835509789E+02  0.48323573957E+02  0.10000000000E+01 0.  0.
<mgrwt>
<rscale>  0 0.12499847E+03</rscale>
<asrwt>0</asrwt>
<pdfrwt beam="2">  1        4 0.64374900E-02 0.12499847E+03</pdfrwt>
<pdfrwt beam="1">  1       -4 0.14361710E-01 0.12499847E+03</pdfrwt>
<totfact> 0.10234319E+04</totfact>
</mgrwt>
</event>
<event>
 5    1  0.3296424E-002  0.1249992E+03  0.7818608E-02  0.1235070E+00
         -4   -1    0    0    0  501 -0.00000000000E+00  0.00000000000E+00  0.12907912898E+03  0.12908537655E+03  0.12700000000E+01 0. -1.
          4   -1    0    0  501    0  0.00000000000E+00 -0.00000000000E+00 -0.30241770838E+02  0.30268425850E+02  0.12700000000E+01 0. -1.
         25    2    1    2    0    0  0.00000000000E+00  0.00000000000E+00  0.98837358146E+02  0.15935380240E+03  0.12499924390E+03 0.  0.
    9000005    1    3    3    0    0  0.18661743836E+02  0.57518047967E+02  0.69519776715E+02  0.92144375192E+02  0.10000000000E+01 0.  0.
    9000005    1    3    3    0    0 -0.18661743836E+02 -0.57518047967E+02  0.29317581431E+02  0.67209427210E+02  0.10000000000E+01 0.  0.
<mgrwt>
<rscale>  0 0.12499924E+03</rscale>
<asrwt>0</asrwt>
<pdfrwt beam="2">  1        4 0.46551111E-02 0.12499924E+03</pdfrwt>
<pdfrwt beam="1">  1       -4 0.19860858E-01 0.12499924E+03</pdfrwt>
<totfact> 0.97469168E+03</totfact>
</mgrwt>
</event>
<event>
 5    1  0.3296424E-002  0.1250009E+03  0.7818608E-02  0.1235068E+00
          4   -1    0    0  501    0  0.00000000000E+00  0.00000000000E+00  0.27312316739E+03  0.27312612007E+03  0.12700000000E+01 0. -1.
         -4   -1    0    0    0  501 -0.00000000000E+00 -0.00000000000E+00 -0.14271143026E+02  0.14327540726E+02  0.12700000000E+01 0. -1.
         25    2    1    2    0    0  0.00000000000E+00  0.00000000000E+00  0.25885202436E+03  0.28745366079E+03  0.12500094635E+03 0.  0.
    9000005    1    3    3    0    0  0.33638955704E+02  0.31529275652E+02  0.32415240051E+02  0.56368629144E+02  0.10000000000E+01 0.  0.
    9000005    1    3    3    0    0 -0.33638955704E+02 -0.31529275652E+02  0.22643678431E+03  0.23108503165E+03  0.10000000000E+01 0.  0.
<mgrwt>
<rscale>  0 0.12500095E+03</rscale>
<asrwt>0</asrwt>
<pdfrwt beam="1">  1        4 0.42023512E-01 0.12500095E+03</pdfrwt>
<pdfrwt beam="2">  1       -4 0.22001260E-02 0.12500095E+03</pdfrwt>
<totfact> 0.77198448E+03</totfact>
</mgrwt>
</event>
<event>
 5    1  0.3296424E-002  0.1249973E+03  0.7818608E-02  0.1235073E+00
         -4   -1    0    0    0  501 -0.00000000000E+00  0.00000000000E+00  0.23516074553E+01  0.26726312173E+01  0.12700000000E+01 0. -1.
          4   -1    0    0  501    0  0.00000000000E+00 -0.00000000000E+00 -0.15545741105E+04  0.15545746293E+04  0.12700000000E+01 0. -1.
         25    2    1    2    0    0  0.00000000000E+00  0.00000000000E+00 -0.15522225030E+04  0.15572472605E+04  0.12499732519E+03 0.  0.
    9000005    1    3    3    0    0  0.39400819032E+02  0.49653977132E+01 -0.17500861333E+03  0.17946056518E+03  0.10000000000E+01 0.  0.
    9000005    1    3    3    0    0 -0.39400819032E+02 -0.49653977132E+01 -0.13772138897E+04  0.13777866953E+04  0.10000000000E+01 0.  0.
<mgrwt>
<rscale>  0 0.12499733E+03</rscale>
<asrwt>0</asrwt>
<pdfrwt beam="2">  1        4 0.23918921E+00 0.12499733E+03</pdfrwt>
<pdfrwt beam="1">  1       -4 0.38652105E-03 0.12499733E+03</pdfrwt>
<totfact> 0.16833233E+03</totfact>
</mgrwt>
</event>
<event>
 5    1  0.3296424E-002  0.1250002E+03  0.7818608E-02  0.1235069E+00
          4   -1    0    0  501    0  0.00000000000E+00  0.00000000000E+00  0.11603921710E+02  0.11673212884E+02  0.12700000000E+01 0.  1.
         -4   -1    0    0    0  501 -0.00000000000E+00 -0.00000000000E+00 -0.33556011443E+03  0.33556251772E+03  0.12700000000E+01 0.  1.
         25    2    1    2    0    0  0.00000000000E+00  0.00000000000E+00 -0.32395619272E+03  0.34723573060E+03  0.12500015122E+03 0.  0.
    9000005    1    3    3    0    0 -0.13699752567E+02 -0.35109885349E+01  0.71137163379E+01  0.15862383838E+02  0.10000000000E+01 0.  0.
    9000005    1    3    3    0    0  0.13699752567E+02  0.35109885349E+01 -0.33106990906E+03  0.33137334676E+03  0.10000000000E+01 0.  0.
<mgrwt>
<rscale>  0 0.12500015E+03</rscale>
<asrwt>0</asrwt>
<pdfrwt beam="1">  1        4 0.17907339E-02 0.12500015E+03</pdfrwt>
<pdfrwt beam="2">  1       -4 0.51630141E-01 0.12500015E+03</pdfrwt>
<totfact> 0.70029502E+03</totfact>
</mgrwt>
</event>
<event>
 5    1  0.3296424E-002  0.1250011E+03  0.7818608E-02  0.1235068E+00
          4   -1    0    0  501    0  0.00000000000E+00  0.00000000000E+00  0.22823950503E+02  0.22859256694E+02  0.12700000000E+01 0. -1.
         -4   -1    0    0    0  501 -0.00000000000E+00 -0.00000000000E+00 -0.17097995130E+03  0.17098466787E+03  0.12700000000E+01 0. -1.
         25    2    1    2    0    0  0.00000000000E+00  0.00000000000E+00 -0.14815600080E+03  0.19384392457E+03  0.12500106607E+03 0.  0.
    9000005    1    3    3    0    0  0.32072115570E+02 -0.96080034276E+01  0.77501829169E+01  0.34380221963E+02  0.10000000000E+01 0.  0.
    9000005    1    3    3    0    0 -0.32072115570E+02  0.96080034276E+01 -0.15590618372E+03  0.15946370260E+03  0.10000000000E+01 0.  0.
<mgrwt>
<rscale>  0 0.12500107E+03</rscale>
<asrwt>0</asrwt>
<pdfrwt beam="1">  1        4 0.35144558E-02 0.12500107E+03</pdfrwt>
<pdfrwt beam="2">  1       -4 0.26307686E-01 0.12500107E+03</pdfrwt>
<totfact> 0.91180577E+03</totfact>
</mgrwt>
</event>
<event>
 5    1  0.3296424E-002  0.1249950E+03  0.7818608E-02  0.1235077E+00
          4   -1    0    0  501    0  0.00000000000E+00  0.00000000000E+00  0.12614606466E+04  0.12614612859E+04  0.12700000000E+01 0.  1.
         -4   -1    0    0    0  501 -0.00000000000E+00 -0.00000000000E+00 -0.29654698168E+01  0.32259744627E+01  0.12700000000E+01 0.  1.
         25    2    1    2    0    0  0.00000000000E+00  0.00000000000E+00  0.12584951768E+04  0.12646872603E+04  0.12499502603E+03 0.  0.
    9000005    1    3    3    0    0  0.39003522771E+02  0.33992356337E+02  0.98383404184E+03  0.98519397936E+03  0.10000000000E+01 0.  0.
    9000005    1    3    3    0    0 -0.39003522771E+02 -0.33992356337E+02  0.27466113491E+03  0.27949328097E+03  0.10000000000E+01 0.  0.
<mgrwt>
<rscale>  0 0.12499503E+03</rscale>
<asrwt>0</asrwt>
<pdfrwt beam="1">  1        4 0.19409086E+00 0.12499503E+03</pdfrwt>
<pdfrwt beam="2">  1       -4 0.47631436E-03 0.12499503E+03</pdfrwt>
<totfact> 0.23080124E+03</totfact>
</mgrwt>
</event>
<event>
 5    1  0.3296424E-002  0.1250008E+03  0.7818608E-02  0.1235068E+00
          4   -1    0    0  501    0  0.00000000000E+00  0.00000000000E+00  0.29033268570E+03  0.29033546337E+03  0.12700000000E+01 0. -1.
         -4   -1    0    0    0  501 -0.00000000000E+00 -0.00000000000E+00 -0.13421754609E+02  0.13481706004E+02  0.12700000000E+01 0. -1.
         25    2    1    2    0    0  0.00000000000E+00  0.00000000000E+00  0.27691093109E+03  0.30381716937E+03  0.12500083458E+03 0.  0.
    9000005    1    3    3    0    0  0.15911195692E+02  0.38878813808E+02  0.25090677275E+03  0.25440113389E+03  0.10000000000E+01 0.  0.
    9000005    1    3    3    0    0 -0.15911195692E+02 -0.38878813808E+02  0.26004158342E+02  0.49416035480E+02  0.10000000000E+01 0.  0.
<mgrwt>
<rscale>  0 0.12500083E+03</rscale>
<asrwt>0</asrwt>
<pdfrwt beam="1">  1        4 0.44671388E-01 0.12500083E+03</pdfrwt>
<pdfrwt beam="2">  1       -4 0.20697108E-02 0.12500083E+03</pdfrwt>
<totfact> 0.75121112E+03</totfact>
</mgrwt>
</event>
<event>
 5    1  0.3296424E-002  0.1250038E+03  0.7818608E-02  0.1235063E+00
          4   -1    0    0  501    0  0.00000000000E+00  0.00000000000E+00  0.11076807411E+03  0.11077535439E+03  0.12700000000E+01 0. -1.
         -4   -1    0    0    0  501 -0.00000000000E+00 -0.00000000000E+00 -0.35247386456E+02  0.35270258745E+02  0.12700000000E+01 0. -1.
         25    2    1    2    0    0  0.00000000000E+00  0.00000000000E+00  0.75520687650E+02  0.14604561314E+03  0.12500378736E+03 0.  0.
    9000005    1    3    3    0    0  0.34691987148E+02 -0.51065297807E+02  0.26415623610E+02  0.67156412822E+02  0.10000000000E+01 0.  0.
    9000005    1    3    3    0    0 -0.34691987148E+02  0.51065297807E+02  0.49105064040E+02  0.78889200317E+02  0.10000000000E+01 0.  0.
<mgrwt>
<rscale>  0 0.12500379E+03</rscale>
<asrwt>0</asrwt>
<pdfrwt beam="1">  1        4 0.17043562E-01 0.12500379E+03</pdfrwt>
<pdfrwt beam="2">  1       -4 0.54249943E-02 0.12500379E+03</pdfrwt>
<totfact> 0.10008934E+04</totfact>
</mgrwt>
</event>
<event>
 5    1  0.3296424E-002  0.1249990E+03  0.7818608E-02  0.1235071E+00
         -4   -1    0    0    0  501 -0.00000000000E+00  0.00000000000E+00  0.36416341248E+03  0.36416562700E+03  0.12700000000E+01 0. -1.
          4   -1    0    0  501    0  0.00000000000E+00 -0.00000000000E+00 -0.10686629730E+02  0.10761828608E+02  0.12700000000E+01 0. -1.
         25    2    1    2    0    0  0.00000000000E+00  0.00000000000E+00  0.35347678275E+03  0.37492745561E+03  0.12499904410E+03 0.  0.
    9000005    1    3    3    0    0 -0.45151623087E+02 -0.40301198117E+02  0.22343101564E+03  0.23148493340E+03  0.10000000000E+01 0.  0.
    9000005    1    3    3    0    0  0.45151623087E+02  0.40301198117E+02  0.13004576710E+03  0.14344252221E+03  0.10000000000E+01 0.  0.
<mgrwt>
<rscale>  0 0.12499904E+03</rscale>
<asrwt>0</asrwt>
<pdfrwt beam="2">  1        4 0.16500518E-02 0.12499904E+03</pdfrwt>
<pdfrwt beam="1">  1       -4 0.56031094E-01 0.12499904E+03</pdfrwt>
<totfact> 0.67067981E+03</totfact>
</mgrwt>
</event>
<event>
 5    1  0.3296424E-002  0.1250072E+03  0.7818608E-02  0.1235058E+00
          4   -1    0    0  501    0  0.00000000000E+00  0.00000000000E+00  0.25923321796E+03  0.25923632884E+03  0.12700000000E+01 0.  1.
         -4   -1    0    0    0  501 -0.00000000000E+00 -0.00000000000E+00 -0.15040245922E+02  0.15093770151E+02  0.12700000000E+01 0.  1.
         25    2    1    2    0    0  0.00000000000E+00  0.00000000000E+00  0.24419297204E+03  0.27433009900E+03  0.12500718229E+03 0.  0.
    9000005    1    3    3    0    0  0.29206170182E+02  0.39452757877E+02  0.37211635529E+02  0.61605408038E+02  0.10000000000E+01 0.  0.
    9000005    1    3    3    0    0 -0.29206170182E+02 -0.39452757877E+02  0.20698133651E+03  0.21272469096E+03  0.10000000000E+01 0.  0.
<mgrwt>
<rscale>  0 0.12500718E+03</rscale>
<asrwt>0</asrwt>
<pdfrwt beam="1">  1        4 0.39886386E-01 0.12500718E+03</pdfrwt>
<pdfrwt beam="2">  1       -4 0.23182408E-02 0.12500718E+03</pdfrwt>
<totfact> 0.78923345E+03</totfact>
</mgrwt>
</event>
<event>
 5    1  0.3296424E-002  0.1250029E+03  0.7818608E-02  0.1235065E+00
          4   -1    0    0  501    0  0.00000000000E+00  0.00000000000E+00  0.72997932755E+02  0.73008979492E+02  0.12700000000E+01 0. -1.
         -4   -1    0    0    0  501 -0.00000000000E+00 -0.00000000000E+00 -0.53491647013E+02  0.53506721075E+02  0.12700000000E+01 0. -1.
         25    2    1    2    0    0  0.00000000000E+00  0.00000000000E+00  0.19506285742E+02  0.12651570057E+03  0.12500290919E+03 0.  0.
    9000005    1    3    3    0    0 -0.95099281802E-01  0.34247530905E+01 -0.53401488535E+02  0.53520621777E+02  0.10000000000E+01 0.  0.
    9000005    1    3    3    0    0  0.95099281802E-01 -0.34247530905E+01  0.72907774277E+02  0.72995078790E+02  0.10000000000E+01 0.  0.
<mgrwt>
<rscale>  0 0.12500291E+03</rscale>
<asrwt>0</asrwt>
<pdfrwt beam="1">  1        4 0.11232461E-01 0.12500291E+03</pdfrwt>
<pdfrwt beam="2">  1       -4 0.82314934E-02 0.12500291E+03</pdfrwt>
<totfact> 0.10419002E+04</totfact>
</mgrwt>
</event>
<event>
 5    1  0.3296424E-002  0.1250018E+03  0.7818608E-02  0.1235066E+00
          4   -1    0    0  501    0  0.00000000000E+00  0.00000000000E+00  0.18143470341E+02  0.18187864526E+02  0.12700000000E+01 0.  1.
         -4   -1    0    0    0  501 -0.00000000000E+00 -0.00000000000E+00 -0.21499469930E+03  0.21499845029E+03  0.12700000000E+01 0.  1.
         25    2    1    2    0    0  0.00000000000E+00  0.00000000000E+00 -0.19685122896E+03  0.23318631481E+03  0.12500180428E+03 0.  0.
    9000005    1    3    3    0    0 -0.51054725427E+02 -0.17351856687E+02 -0.15734860384E+03  0.16633476801E+03  0.10000000000E+01 0.  0.
    9000005    1    3    3    0    0  0.51054725427E+02  0.17351856687E+02 -0.39502625123E+02  0.66851546807E+02  0.10000000000E+01 0.  0.
<mgrwt>
<rscale>  0 0.12500180E+03</rscale>
<asrwt>0</asrwt>
<pdfrwt beam="1">  1        4 0.27950068E-02 0.12500180E+03</pdfrwt>
<pdfrwt beam="2">  1       -4 0.33079809E-01 0.12500180E+03</pdfrwt>
<totfact> 0.84819312E+03</totfact>
</mgrwt>
</event>
<event>
 5    1  0.3296424E-002  0.1250060E+03  0.7818608E-02  0.1235060E+00
         -4   -1    0    0    0  501 -0.00000000000E+00  0.00000000000E+00  0.13253275447E+03  0.13253883924E+03  0.12700000000E+01 0.  1.
          4   -1    0    0  501    0  0.00000000000E+00 -0.00000000000E+00 -0.29456237824E+02  0.29483603015E+02  0.12700000000E+01 0.  1.
         25    2    1    2    0    0  0.00000000000E+00  0.00000000000E+00  0.10307651665E+03  0.16202244226E+03  0.12500601390E+03 0.  0.
    9000005    1    3    3    0    0  0.21513030535E+02 -0.57441503960E+02  0.67053220472E+02  0.90881633104E+02  0.10000000000E+01 0.  0.
    9000005    1    3    3    0    0 -0.21513030535E+02  0.57441503960E+02  0.36023296177E+02  0.71140809156E+02  0.10000000000E+01 0.  0.
<mgrwt>
<rscale>  0 0.12500601E+03</rscale>
<asrwt>0</asrwt>
<pdfrwt beam="2">  1        4 0.45343020E-02 0.12500601E+03</pdfrwt>
<pdfrwt beam="1">  1       -4 0.20392227E-01 0.12500601E+03</pdfrwt>
<totfact> 0.96941183E+03</totfact>
</mgrwt>
</event>
<event>
 5    1  0.3296424E-002  0.1250004E+03  0.7818608E-02  0.1235069E+00
          4   -1    0    0  501    0  0.00000000000E+00  0.00000000000E+00  0.12140038531E+02  0.12206286722E+02  0.12700000000E+01 0. -1.
         -4   -1    0    0    0  501 -0.00000000000E+00 -0.00000000000E+00 -0.32082501632E+03  0.32082752999E+03  0.12700000000E+01 0. -1.
         25    2    1    2    0    0  0.00000000000E+00  0.00000000000E+00 -0.30868497779E+03  0.33303381671E+03  0.12500043023E+03 0.  0.
    9000005    1    3    3    0    0 -0.53437308365E+02 -0.92266280469E+01 -0.71595819353E+02  0.89820030836E+02  0.10000000000E+01 0.  0.
    9000005    1    3    3    0    0  0.53437308365E+02  0.92266280469E+01 -0.23708915844E+03  0.24321378587E+03  0.10000000000E+01 0.  0.
<mgrwt>
<rscale>  0 0.12500043E+03</rscale>
<asrwt>0</asrwt>
<pdfrwt beam="1">  1        4 0.18729878E-02 0.12500043E+03</pdfrwt>
<pdfrwt beam="2">  1       -4 0.49362978E-01 0.12500043E+03</pdfrwt>
<totfact> 0.71631599E+03</totfact>
</mgrwt>
</event>
<event>
 5    1  0.3296424E-002  0.1250009E+03  0.7818608E-02  0.1235068E+00
         -4   -1    0    0    0  501 -0.00000000000E+00  0.00000000000E+00  0.21805039667E+03  0.21805409510E+03  0.12700000000E+01 0. -1.
          4   -1    0    0  501    0  0.00000000000E+00 -0.00000000000E+00 -0.17888335044E+02  0.17933360830E+02  0.12700000000E+01 0. -1.
         25    2    1    2    0    0  0.00000000000E+00  0.00000000000E+00  0.20016206163E+03  0.23598745593E+03  0.12500091376E+03 0.  0.
    9000005    1    3    3    0    0  0.38704364151E+02  0.48663856607E+02  0.11188724247E+03  0.12800763170E+03  0.10000000000E+01 0.  0.
    9000005    1    3    3    0    0 -0.38704364151E+02 -0.48663856607E+02  0.88274819154E+02  0.10797982423E+03  0.10000000000E+01 0.  0.
<mgrwt>
<rscale>  0 0.12500091E+03</rscale>
<asrwt>0</asrwt>
<pdfrwt beam="2">  1        4 0.27557997E-02 0.12500091E+03</pdfrwt>
<pdfrwt beam="1">  1       -4 0.33549961E-01 0.12500091E+03</pdfrwt>
<totfact> 0.84396898E+03</totfact>
</mgrwt>
</event>
<event>
 4    1  0.3296424E-002  0.1248298E+03  0.7818608E-02  0.1235335E+00
         -4   -1    0    0    0  501 -0.00000000000E+00  0.00000000000E+00  0.77437636219E+01  0.78472144760E+01  0.12700000000E+01 0. -1.
          4   -1    0    0  501    0  0.00000000000E+00 -0.00000000000E+00 -0.49962349851E+03  0.49962511263E+03  0.12700000000E+01 0. -1.
    9000005    1    1    2    0    0 -0.34140217992E+02  0.12472369560E+02 -0.39707563824E+02  0.53840552670E+02  0.10000000000E+01 0.  0.
    9000005    1    1    2    0    0  0.34140217992E+02 -0.12472369560E+02 -0.45217217107E+03  0.45363177443E+03  0.10000000000E+01 0.  0.
<mgrwt>
<rscale>  0 0.12482984E+03</rscale>
<asrwt>0</asrwt>
<pdfrwt beam="2">  1        4 0.76873210E-01 0.12482984E+03</pdfrwt>
<pdfrwt beam="1">  1       -4 0.11994306E-02 0.12482984E+03</pdfrwt>
<totfact> 0.55496571E+03</totfact>
</mgrwt>
</event>
<event>
 5    1  0.3296424E-002  0.1250024E+03  0.7818608E-02  0.1235066E+00
         -4   -1    0    0    0  501 -0.00000000000E+00  0.00000000000E+00  0.52866568826E+02  0.52881821067E+02  0.12700000000E+01 0. -1.
          4   -1    0    0  501    0  0.00000000000E+00 -0.00000000000E+00 -0.73860326331E+02  0.73871244105E+02  0.12700000000E+01 0. -1.
         25    2    1    2    0    0  0.00000000000E+00  0.00000000000E+00 -0.20993757505E+02  0.12675306517E+03  0.12500240668E+03 0.  0.
    9000005    1    3    3    0    0 -0.48855341389E+01  0.45922648479E+02 -0.53189287019E+02  0.70447557380E+02  0.10000000000E+01 0.  0.
    9000005    1    3    3    0    0  0.48855341389E+01 -0.45922648479E+02  0.32195529514E+02  0.56305507793E+02  0.10000000000E+01 0.  0.
<mgrwt>
<rscale>  0 0.12500241E+03</rscale>
<asrwt>0</asrwt>
<pdfrwt beam="2">  1        4 0.11365140E-01 0.12500241E+03</pdfrwt>
<pdfrwt beam="1">  1       -4 0.81353314E-02 0.12500241E+03</pdfrwt>
<totfact> 0.10413949E+04</totfact>
</mgrwt>
</event>
<event>
 5    1  0.3296424E-002  0.1250029E+03  0.7818608E-02  0.1235065E+00
         -4   -1    0    0    0  501 -0.00000000000E+00  0.00000000000E+00  0.22059481468E+02  0.22096009202E+02  0.12700000000E+01 0.  1.
          4   -1    0    0  501    0  0.00000000000E+00 -0.00000000000E+00 -0.17690107722E+03  0.17690563593E+03  0.12700000000E+01 0.  1.
         25    2    1    2    0    0  0.00000000000E+00  0.00000000000E+00 -0.15484159576E+03  0.19900164513E+03  0.12500293992E+03 0.  0.
    9000005    1    3    3    0    0  0.82179728033E+01 -0.58174901411E+02 -0.43515844149E+02  0.73119647997E+02  0.10000000000E+01 0.  0.
    9000005    1    3    3    0    0 -0.82179728033E+01  0.58174901411E+02 -0.11132575161E+03  0.12588199713E+03  0.10000000000E+01 0.  0.
<mgrwt>
<rscale>  0 0.12500294E+03</rscale>
<asrwt>0</asrwt>
<pdfrwt beam="2">  1        4 0.27218710E-01 0.12500294E+03</pdfrwt>
<pdfrwt beam="1">  1       -4 0.33969270E-02 0.12500294E+03</pdfrwt>
<totfact> 0.90298220E+03</totfact>
</mgrwt>
</event>
<event>
 5    1  0.3296424E-002  0.1250001E+03  0.7818608E-02  0.1235069E+00
          4   -1    0    0  501    0  0.00000000000E+00  0.00000000000E+00  0.20295207032E+02  0.20334904192E+02  0.12700000000E+01 0. -1.
         -4   -1    0    0    0  501 -0.00000000000E+00 -0.00000000000E+00 -0.19224193734E+03  0.19224613227E+03  0.12700000000E+01 0. -1.
         25    2    1    2    0    0  0.00000000000E+00  0.00000000000E+00 -0.17194673031E+03  0.21258103646E+03  0.12500007600E+03 0.  0.
    9000005    1    3    3    0    0 -0.42844840596E+01  0.56081506650E+02 -0.13229103438E+03  0.14375468677E+03  0.10000000000E+01 0.  0.
    9000005    1    3    3    0    0  0.42844840596E+01 -0.56081506650E+02 -0.39655695928E+02  0.68826349687E+02  0.10000000000E+01 0.  0.
<mgrwt>
<rscale>  0 0.12500008E+03</rscale>
<asrwt>0</asrwt>
<pdfrwt beam="1">  1        4 0.31257160E-02 0.12500008E+03</pdfrwt>
<pdfrwt beam="2">  1       -4 0.29579058E-01 0.12500008E+03</pdfrwt>
<totfact> 0.88055942E+03</totfact>
</mgrwt>
</event>
<event>
 5    1  0.3296424E-002  0.1249974E+03  0.7818608E-02  0.1235073E+00
          4   -1    0    0  501    0  0.00000000000E+00  0.00000000000E+00  0.11914818151E+03  0.11915494978E+03  0.12700000000E+01 0. -1.
         -4   -1    0    0    0  501 -0.00000000000E+00 -0.00000000000E+00 -0.32763443650E+02  0.32788048734E+02  0.12700000000E+01 0. -1.
         25    2    1    2    0    0  0.00000000000E+00  0.00000000000E+00  0.86384737864E+02  0.15194299852E+03  0.12499740743E+03 0.  0.
    9000005    1    3    3    0    0  0.25658350511E+02  0.42163478236E+02 -0.33970560808E+01  0.49483834107E+02  0.10000000000E+01 0.  0.
    9000005    1    3    3    0    0 -0.25658350511E+02 -0.42163478236E+02  0.89781793945E+02  0.10245916441E+03  0.10000000000E+01 0.  0.
<mgrwt>
<rscale>  0 0.12499741E+03</rscale>
<asrwt>0</asrwt>
<pdfrwt beam="1">  1        4 0.18332903E-01 0.12499741E+03</pdfrwt>
<pdfrwt beam="2">  1       -4 0.50429432E-02 0.12499741E+03</pdfrwt>
<totfact> 0.98923562E+03</totfact>
</mgrwt>
</event>
<event>
 5    1  0.3296424E-002  0.1250072E+03  0.7818608E-02  0.1235058E+00
          4   -1    0    0  501    0  0.00000000000E+00  0.00000000000E+00  0.17725430307E+03  0.17725885269E+03  0.12700000000E+01 0. -1.
         -4   -1    0    0    0  501 -0.00000000000E+00 -0.00000000000E+00 -0.22016948065E+02  0.22053546247E+02  0.12700000000E+01 0. -1.
         25    2    1    2    0    0  0.00000000000E+00  0.00000000000E+00  0.15523735500E+03  0.19931239893E+03  0.12500718372E+03 0.  0.
    9000005    1    3    3    0    0 -0.39622836362E+02 -0.30029902690E+02  0.17242718183E+02  0.52631507173E+02  0.10000000000E+01 0.  0.
    9000005    1    3    3    0    0  0.39622836362E+02  0.30029902690E+02  0.13799463682E+03  0.14668089176E+03  0.10000000000E+01 0.  0.
<mgrwt>
<rscale>  0 0.12500718E+03</rscale>
<asrwt>0</asrwt>
<pdfrwt beam="1">  1        4 0.27273058E-01 0.12500718E+03</pdfrwt>
<pdfrwt beam="2">  1       -4 0.33903880E-02 0.12500718E+03</pdfrwt>
<totfact> 0.90237098E+03</totfact>
</mgrwt>
</event>
<event>
 5    1  0.3296424E-002  0.1249942E+03  0.7818608E-02  0.1235078E+00
         -4   -1    0    0    0  501 -0.00000000000E+00  0.00000000000E+00  0.13794803731E+03  0.13795388323E+03  0.12700000000E+01 0.  1.
          4   -1    0    0  501    0  0.00000000000E+00 -0.00000000000E+00 -0.28293525192E+02  0.28322013837E+02  0.12700000000E+01 0.  1.
         25    2    1    2    0    0  0.00000000000E+00  0.00000000000E+00  0.10965451212E+03  0.16627589706E+03  0.12499424753E+03 0.  0.
    9000005    1    3    3    0    0 -0.78375866978E+01 -0.26001258821E+02  0.12969427505E+03  0.13251074751E+03  0.10000000000E+01 0.  0.
    9000005    1    3    3    0    0  0.78375866978E+01  0.26001258821E+02 -0.20039762936E+02  0.33765149549E+02  0.10000000000E+01 0.  0.
<mgrwt>
<rscale>  0 0.12499425E+03</rscale>
<asrwt>0</asrwt>
<pdfrwt beam="2">  1        4 0.43554911E-02 0.12499425E+03</pdfrwt>
<pdfrwt beam="1">  1       -4 0.21225417E-01 0.12499425E+03</pdfrwt>
<totfact> 0.96158725E+03</totfact>
</mgrwt>
</event>
<event>
 5    1  0.3296424E-002  0.1249993E+03  0.7818608E-02  0.1235070E+00
          4   -1    0    0  501    0  0.00000000000E+00  0.00000000000E+00  0.18285758256E+04  0.18285762667E+04  0.12700000000E+01 0. -1.
         -4   -1    0    0    0  501 -0.00000000000E+00 -0.00000000000E+00 -0.19469623604E+01  0.23245563949E+01  0.12700000000E+01 0. -1.
         25    2    1    2    0    0  0.00000000000E+00  0.00000000000E+00  0.18266288633E+04  0.18309008231E+04  0.12499927888E+03 0.  0.
    9000005    1    3    3    0    0 -0.55906222347E+02  0.85447335179E+01  0.52393698731E+03  0.52698148434E+03  0.10000000000E+01 0.  0.
    9000005    1    3    3    0    0  0.55906222347E+02 -0.85447335179E+01  0.13026918760E+04  0.13039193387E+04  0.10000000000E+01 0.  0.
<mgrwt>
<rscale>  0 0.12499928E+03</rscale>
<asrwt>0</asrwt>
<pdfrwt beam="1">  1        4 0.28134761E+00 0.12499928E+03</pdfrwt>
<pdfrwt beam="2">  1       -4 0.32861325E-03 0.12499928E+03</pdfrwt>
<totfact> 0.12233688E+03</totfact>
</mgrwt>
</event>
<event>
 5    1  0.3296424E-002  0.1250032E+03  0.7818608E-02  0.1235064E+00
          4   -1    0    0  501    0  0.00000000000E+00  0.00000000000E+00  0.73289118619E+01  0.74381347850E+01  0.12700000000E+01 0.  1.
         -4   -1    0    0    0  501 -0.00000000000E+00 -0.00000000000E+00 -0.52896699018E+03  0.52896851475E+03  0.12700000000E+01 0.  1.
         25    2    1    2    0    0  0.00000000000E+00  0.00000000000E+00 -0.52163807832E+03  0.53640664954E+03  0.12500323563E+03 0.  0.
    9000005    1    3    3    0    0 -0.42741098822E+02  0.37933437732E+02 -0.15228579821E+03  0.16265826620E+03  0.10000000000E+01 0.  0.
    9000005    1    3    3    0    0  0.42741098822E+02 -0.37933437732E+02 -0.36935228011E+03  0.37374838334E+03  0.10000000000E+01 0.  0.
<mgrwt>
<rscale>  0 0.12500324E+03</rscale>
<asrwt>0</asrwt>
<pdfrwt beam="1">  1        4 0.11360444E-02 0.12500324E+03</pdfrwt>
<pdfrwt beam="2">  1       -4 0.81388026E-01 0.12500324E+03</pdfrwt>
<totfact> 0.53142548E+03</totfact>
</mgrwt>
</event>
<event>
 5    1  0.3296424E-002  0.1249990E+03  0.7818608E-02  0.1235071E+00
          4   -1    0    0  501    0  0.00000000000E+00  0.00000000000E+00  0.13681451529E+03  0.13682040964E+03  0.12700000000E+01 0. -1.
         -4   -1    0    0    0  501 -0.00000000000E+00 -0.00000000000E+00 -0.28530334561E+02  0.28558586977E+02  0.12700000000E+01 0. -1.
         25    2    1    2    0    0  0.00000000000E+00  0.00000000000E+00  0.10828418073E+03  0.16537899662E+03  0.12499899490E+03 0.  0.
    9000005    1    3    3    0    0 -0.10568817857E+02 -0.49815343704E+02  0.10206324901E+03  0.11406653837E+03  0.10000000000E+01 0.  0.
    9000005    1    3    3    0    0  0.10568817857E+02  0.49815343704E+02  0.62209317220E+01  0.51312458241E+02  0.10000000000E+01 0.  0.
<mgrwt>
<rscale>  0 0.12499899E+03</rscale>
<asrwt>0</asrwt>
<pdfrwt beam="1">  1        4 0.21051014E-01 0.12499899E+03</pdfrwt>
<pdfrwt beam="2">  1       -4 0.43919089E-02 0.12499899E+03</pdfrwt>
<totfact> 0.96317839E+03</totfact>
</mgrwt>
</event>
<event>
 5    1  0.3296424E-002  0.1250019E+03  0.7818608E-02  0.1235066E+00
          4   -1    0    0  501    0  0.00000000000E+00  0.00000000000E+00  0.48850238632E+01  0.50474110338E+01  0.12700000000E+01 0. -1.
         -4   -1    0    0    0  501 -0.00000000000E+00 -0.00000000000E+00 -0.78642485201E+03  0.78642587747E+03  0.12700000000E+01 0. -1.
         25    2    1    2    0    0  0.00000000000E+00  0.00000000000E+00 -0.78153982815E+03  0.79147328851E+03  0.12500185375E+03 0.  0.
    9000005    1    3    3    0    0  0.61988462304E+02  0.57465418123E+01 -0.42531894808E+03  0.42985206734E+03  0.10000000000E+01 0.  0.
    9000005    1    3    3    0    0 -0.61988462304E+02 -0.57465418123E+01 -0.35622088006E+03  0.36162122116E+03  0.10000000000E+01 0.  0.
<mgrwt>
<rscale>  0 0.12500185E+03</rscale>
<asrwt>0</asrwt>
<pdfrwt beam="1">  1        4 0.76411296E-03 0.12500185E+03</pdfrwt>
<pdfrwt beam="2">  1       -4 0.12100091E+00 0.12500185E+03</pdfrwt>
<totfact> 0.38646691E+03</totfact>
</mgrwt>
</event>
<event>
 5    1  0.3296424E-002  0.1249968E+03  0.7818608E-02  0.1235074E+00
         -4   -1    0    0    0  501 -0.00000000000E+00  0.00000000000E+00  0.17893164593E+02  0.17938178256E+02  0.12700000000E+01 0.  1.
          4   -1    0    0  501    0  0.00000000000E+00 -0.00000000000E+00 -0.21797744988E+03  0.21798114954E+03  0.12700000000E+01 0.  1.
         25    2    1    2    0    0  0.00000000000E+00  0.00000000000E+00 -0.20008428528E+03  0.23591932780E+03  0.12499683200E+03 0.  0.
    9000005    1    3    3    0    0 -0.13629201613E+02  0.52172497268E+02 -0.40437046853E+02  0.67408303390E+02  0.10000000000E+01 0.  0.
    9000005    1    3    3    0    0  0.13629201613E+02 -0.52172497268E+02 -0.15964723843E+03  0.16851102441E+03  0.10000000000E+01 0.  0.
<mgrwt>
<rscale>  0 0.12499683E+03</rscale>
<asrwt>0</asrwt>
<pdfrwt beam="2">  1        4 0.33538738E-01 0.12499683E+03</pdfrwt>
<pdfrwt beam="1">  1       -4 0.27565419E-02 0.12499683E+03</pdfrwt>
<totfact> 0.84414854E+03</totfact>
</mgrwt>
</event>
<event>
 5    1  0.3296424E-002  0.1250008E+03  0.7818608E-02  0.1235068E+00
          4   -1    0    0  501    0  0.00000000000E+00  0.00000000000E+00  0.18267236403E+02  0.18311330531E+02  0.12700000000E+01 0.  1.
         -4   -1    0    0    0  501 -0.00000000000E+00 -0.00000000000E+00 -0.21353798285E+03  0.21354175943E+03  0.12700000000E+01 0.  1.
         25    2    1    2    0    0  0.00000000000E+00  0.00000000000E+00 -0.19527074644E+03  0.23185308996E+03  0.12500076362E+03 0.  0.
    9000005    1    3    3    0    0  0.58065890258E+02  0.17049792744E+02 -0.12654635626E+03  0.14027588291E+03  0.10000000000E+01 0.  0.
    9000005    1    3    3    0    0 -0.58065890258E+02 -0.17049792744E+02 -0.68724390188E+02  0.91577207048E+02  0.10000000000E+01 0.  0.
<mgrwt>
<rscale>  0 0.12500076E+03</rscale>
<asrwt>0</asrwt>
<pdfrwt beam="1">  1        4 0.28140266E-02 0.12500076E+03</pdfrwt>
<pdfrwt beam="2">  1       -4 0.32855678E-01 0.12500076E+03</pdfrwt>
<totfact> 0.85024416E+03</totfact>
</mgrwt>
</event>
<event>
 5    1  0.3296424E-002  0.1249996E+03  0.7818608E-02  0.1235070E+00
          4   -1    0    0  501    0  0.00000000000E+00  0.00000000000E+00  0.12092251058E+03  0.12092917954E+03  0.12700000000E+01 0.  1.
         -4   -1    0    0    0  501 -0.00000000000E+00 -0.00000000000E+00 -0.32283510952E+02  0.32308481540E+02  0.12700000000E+01 0.  1.
         25    2    1    2    0    0  0.00000000000E+00  0.00000000000E+00  0.88638999626E+02  0.15323766108E+03  0.12499963407E+03 0.  0.
    9000005    1    3    3    0    0 -0.33349818151E+02 -0.59674216348E+01 -0.20054008910E+02  0.39382531217E+02  0.10000000000E+01 0.  0.
    9000005    1    3    3    0    0  0.33349818151E+02  0.59674216348E+01  0.10869300854E+03  0.11385512986E+03  0.10000000000E+01 0.  0.
<mgrwt>
<rscale>  0 0.12499963E+03</rscale>
<asrwt>0</asrwt>
<pdfrwt beam="1">  1        4 0.18605897E-01 0.12499963E+03</pdfrwt>
<pdfrwt beam="2">  1       -4 0.49691279E-02 0.12499963E+03</pdfrwt>
<totfact> 0.98663002E+03</totfact>
</mgrwt>
</event>
<event>
 5    1  0.3296424E-002  0.1250007E+03  0.7818608E-02  0.1235068E+00
          4   -1    0    0  501    0  0.00000000000E+00  0.00000000000E+00  0.20227830220E+03  0.20228228899E+03  0.12700000000E+01 0.  1.
         -4   -1    0    0    0  501 -0.00000000000E+00 -0.00000000000E+00 -0.19286408896E+02  0.19328178086E+02  0.12700000000E+01 0.  1.
         25    2    1    2    0    0  0.00000000000E+00  0.00000000000E+00  0.18299189330E+03  0.22161046708E+03  0.12500066442E+03 0.  0.
    9000005    1    3    3    0    0  0.62288218938E+02 -0.45960605281E+01  0.87800222153E+02  0.10775353823E+03  0.10000000000E+01 0.  0.
    9000005    1    3    3    0    0 -0.62288218938E+02  0.45960605281E+01  0.95191671149E+02  0.11385692885E+03  0.10000000000E+01 0.  0.
<mgrwt>
<rscale>  0 0.12500066E+03</rscale>
<asrwt>0</asrwt>
<pdfrwt beam="1">  1        4 0.31123257E-01 0.12500066E+03</pdfrwt>
<pdfrwt beam="2">  1       -4 0.29706597E-02 0.12500066E+03</pdfrwt>
<totfact> 0.86612870E+03</totfact>
</mgrwt>
</event>
<event>
 5    1  0.3296424E-002  0.1249997E+03  0.7818608E-02  0.1235070E+00
         -4   -1    0    0    0  501 -0.00000000000E+00  0.00000000000E+00  0.14026288744E+02  0.14083666991E+02  0.12700000000E+01 0. -1.
          4   -1    0    0  501    0  0.00000000000E+00 -0.00000000000E+00 -0.27786641564E+03  0.27786931792E+03  0.12700000000E+01 0. -1.
         25    2    1    2    0    0  0.00000000000E+00  0.00000000000E+00 -0.26384012690E+03  0.29195298491E+03  0.12499973135E+03 0.  0.
    9000005    1    3    3    0    0 -0.35584901392E+02  0.42805917625E+02 -0.19825362730E+03  0.20592263724E+03  0.10000000000E+01 0.  0.
    9000005    1    3    3    0    0  0.35584901392E+02 -0.42805917625E+02 -0.65586499597E+02  0.86030347670E+02  0.10000000000E+01 0.  0.
<mgrwt>
<rscale>  0 0.12499973E+03</rscale>
<asrwt>0</asrwt>
<pdfrwt beam="2">  1        4 0.42753312E-01 0.12499973E+03</pdfrwt>
<pdfrwt beam="1">  1       -4 0.21625278E-02 0.12499973E+03</pdfrwt>
<totfact> 0.76619916E+03</totfact>
</mgrwt>
</event>
<event>
 5    1  0.3296424E-002  0.1250085E+03  0.7818608E-02  0.1235056E+00
          4   -1    0    0  501    0  0.00000000000E+00  0.00000000000E+00  0.22122021815E+02  0.22158446453E+02  0.12700000000E+01 0.  1.
         -4   -1    0    0    0  501 -0.00000000000E+00 -0.00000000000E+00 -0.17641758754E+03  0.17642215874E+03  0.12700000000E+01 0.  1.
         25    2    1    2    0    0  0.00000000000E+00  0.00000000000E+00 -0.15429556572E+03  0.19858060519E+03  0.12500854033E+03 0.  0.
    9000005    1    3    3    0    0 -0.14686333650E+02 -0.58802906865E+02 -0.52935574414E+02  0.80477607385E+02  0.10000000000E+01 0.  0.
    9000005    1    3    3    0    0  0.14686333650E+02  0.58802906865E+02 -0.10135999131E+03  0.11810299780E+03  0.10000000000E+01 0.  0.
<mgrwt>
<rscale>  0 0.12500854E+03</rscale>
<asrwt>0</asrwt>
<pdfrwt beam="1">  1        4 0.34065416E-02 0.12500854E+03</pdfrwt>
<pdfrwt beam="2">  1       -4 0.27144320E-01 0.12500854E+03</pdfrwt>
<totfact> 0.90358108E+03</totfact>
</mgrwt>
</event>
<event>
 5    1  0.3296424E-002  0.1250002E+03  0.7818608E-02  0.1235069E+00
          4   -1    0    0  501    0  0.00000000000E+00  0.00000000000E+00  0.62074044937E+01  0.63359901001E+01  0.12700000000E+01 0.  1.
         -4   -1    0    0    0  501 -0.00000000000E+00 -0.00000000000E+00 -0.62271039598E+03  0.62271169104E+03  0.12700000000E+01 0.  1.
         25    2    1    2    0    0  0.00000000000E+00  0.00000000000E+00 -0.61650299148E+03  0.62904768114E+03  0.12500018656E+03 0.  0.
    9000005    1    3    3    0    0  0.60452774421E+02 -0.91720531221E+01 -0.37320561669E+03  0.37818262364E+03  0.10000000000E+01 0.  0.
    9000005    1    3    3    0    0 -0.60452774421E+02  0.91720531221E+01 -0.24329737479E+03  0.25086505750E+03  0.10000000000E+01 0.  0.
<mgrwt>
<rscale>  0 0.12500019E+03</rscale>
<asrwt>0</asrwt>
<pdfrwt beam="1">  1        4 0.96497662E-03 0.12500019E+03</pdfrwt>
<pdfrwt beam="2">  1       -4 0.95811541E-01 0.12500019E+03</pdfrwt>
<totfact> 0.47083740E+03</totfact>
</mgrwt>
</event>
<event>
 5    1  0.3296424E-002  0.1249916E+03  0.7818608E-02  0.1235082E+00
          4   -1    0    0  501    0  0.00000000000E+00  0.00000000000E+00  0.56887262904E+02  0.56901437422E+02  0.12700000000E+01 0. -1.
         -4   -1    0    0    0  501 -0.00000000000E+00 -0.00000000000E+00 -0.68628665469E+02  0.68640415384E+02  0.12700000000E+01 0. -1.
         25    2    1    2    0    0  0.00000000000E+00  0.00000000000E+00 -0.11741402566E+02  0.12554185281E+03  0.12499158480E+03 0.  0.
    9000005    1    3    3    0    0 -0.40202650912E+02 -0.46306124627E+02  0.61910701303E+01  0.61642839549E+02  0.10000000000E+01 0.  0.
    9000005    1    3    3    0    0  0.40202650912E+02  0.46306124627E+02 -0.17932472696E+02  0.63899013257E+02  0.10000000000E+01 0.  0.
<mgrwt>
<rscale>  0 0.12499158E+03</rscale>
<asrwt>0</asrwt>
<pdfrwt beam="1">  1        4 0.87538808E-02 0.12499158E+03</pdfrwt>
<pdfrwt beam="2">  1       -4 0.10560250E-01 0.12499158E+03</pdfrwt>
<totfact> 0.10443012E+04</totfact>
</mgrwt>
</event>
<event>
 5    1  0.3296424E-002  0.1249940E+03  0.7818608E-02  0.1235079E+00
          4   -1    0    0  501    0  0.00000000000E+00  0.00000000000E+00  0.19969861010E+03  0.19970264839E+03  0.12700000000E+01 0.  1.
         -4   -1    0    0    0  501 -0.00000000000E+00 -0.00000000000E+00 -0.19534006395E+02  0.19575247274E+02  0.12700000000E+01 0.  1.
         25    2    1    2    0    0  0.00000000000E+00  0.00000000000E+00  0.18016460370E+03  0.21927789566E+03  0.12499404426E+03 0.  0.
    9000005    1    3    3    0    0  0.14095033278E+02  0.48475125456E+02  0.15469154093E+03  0.16272363254E+03  0.10000000000E+01 0.  0.
    9000005    1    3    3    0    0 -0.14095033278E+02 -0.48475125456E+02  0.25473062773E+02  0.56554263129E+02  0.10000000000E+01 0.  0.
<mgrwt>
<rscale>  0 0.12499404E+03</rscale>
<asrwt>0</asrwt>
<pdfrwt beam="1">  1        4 0.30726345E-01 0.12499404E+03</pdfrwt>
<pdfrwt beam="2">  1       -4 0.30087149E-02 0.12499404E+03</pdfrwt>
<totfact> 0.86994316E+03</totfact>
</mgrwt>
</event>
<event>
 5    1  0.3296424E-002  0.1250050E+03  0.7818608E-02  0.1235061E+00
         -4   -1    0    0    0  501 -0.00000000000E+00  0.00000000000E+00  0.34405204359E+02  0.34428636147E+02  0.12700000000E+01 0.  1.
          4   -1    0    0  501    0  0.00000000000E+00 -0.00000000000E+00 -0.11348009171E+03  0.11348719802E+03  0.12700000000E+01 0.  1.
         25    2    1    2    0    0  0.00000000000E+00  0.00000000000E+00 -0.79074887354E+02  0.14791583417E+03  0.12500502465E+03 0.  0.
    9000005    1    3    3    0    0  0.60696565731E+02 -0.12335077928E+02 -0.29684429231E+02  0.68690556685E+02  0.10000000000E+01 0.  0.
    9000005    1    3    3    0    0 -0.60696565731E+02  0.12335077928E+02 -0.49390458123E+02  0.79225277485E+02  0.10000000000E+01 0.  0.
<mgrwt>
<rscale>  0 0.12500502E+03</rscale>
<asrwt>0</asrwt>
<pdfrwt beam="2">  1        4 0.17460825E-01 0.12500502E+03</pdfrwt>
<pdfrwt beam="1">  1       -4 0.52954575E-02 0.12500502E+03</pdfrwt>
<totfact> 0.99709500E+03</totfact>
</mgrwt>
</event>
<event>
 5    1  0.3296424E-002  0.1250116E+03  0.7818608E-02  0.1235051E+00
         -4   -1    0    0    0  501 -0.00000000000E+00  0.00000000000E+00  0.14105909400E+02  0.14162965085E+02  0.12700000000E+01 0.  1.
          4   -1    0    0  501    0  0.00000000000E+00 -0.00000000000E+00 -0.27635697623E+03  0.27635989436E+03  0.12700000000E+01 0.  1.
         25    2    1    2    0    0  0.00000000000E+00  0.00000000000E+00 -0.26225106683E+03  0.29052285944E+03  0.12501163868E+03 0.  0.
    9000005    1    3    3    0    0  0.24552995774E+02 -0.45431696865E+02 -0.49320302958E+02  0.71416951527E+02  0.10000000000E+01 0.  0.
    9000005    1    3    3    0    0 -0.24552995774E+02  0.45431696865E+02 -0.21293076387E+03  0.21910590792E+03  0.10000000000E+01 0.  0.
<mgrwt>
<rscale>  0 0.12501164E+03</rscale>
<asrwt>0</asrwt>
<pdfrwt beam="2">  1        4 0.42521067E-01 0.12501164E+03</pdfrwt>
<pdfrwt beam="1">  1       -4 0.21747535E-02 0.12501164E+03</pdfrwt>
<totfact> 0.76783372E+03</totfact>
</mgrwt>
</event>
<event>
 5    1  0.3296424E-002  0.1249986E+03  0.7818608E-02  0.1235072E+00
          4   -1    0    0  501    0  0.00000000000E+00  0.00000000000E+00  0.22287548824E+03  0.22287910660E+03  0.12700000000E+01 0.  1.
         -4   -1    0    0    0  501 -0.00000000000E+00 -0.00000000000E+00 -0.17499425450E+02  0.17545449298E+02  0.12700000000E+01 0.  1.
         25    2    1    2    0    0  0.00000000000E+00  0.00000000000E+00  0.20537606279E+03  0.24042455590E+03  0.12499855964E+03 0.  0.
    9000005    1    3    3    0    0  0.54966332393E+02 -0.20359972481E+02  0.61018872845E+02  0.84617545577E+02  0.10000000000E+01 0.  0.
    9000005    1    3    3    0    0 -0.54966332393E+02  0.20359972481E+02  0.14435718995E+03  0.15580701032E+03  0.10000000000E+01 0.  0.
<mgrwt>
<rscale>  0 0.12499856E+03</rscale>
<asrwt>0</asrwt>
<pdfrwt beam="1">  1        4 0.34292355E-01 0.12499856E+03</pdfrwt>
<pdfrwt beam="2">  1       -4 0.26960379E-02 0.12499856E+03</pdfrwt>
<totfact> 0.83736866E+03</totfact>
</mgrwt>
</event>
<event>
 5    1  0.3296424E-002  0.1250031E+03  0.7818608E-02  0.1235064E+00
          4   -1    0    0  501    0  0.00000000000E+00  0.00000000000E+00  0.78126731308E+01  0.79152233985E+01  0.12700000000E+01 0. -1.
         -4   -1    0    0    0  501 -0.00000000000E+00 -0.00000000000E+00 -0.49665022911E+03  0.49665185288E+03  0.12700000000E+01 0. -1.
         25    2    1    2    0    0  0.00000000000E+00  0.00000000000E+00 -0.48883755598E+03  0.50456707628E+03  0.12500311330E+03 0.  0.
    9000005    1    3    3    0    0 -0.29182990728E+02 -0.33485885903E+02 -0.42186103504E+03  0.42419415883E+03  0.10000000000E+01 0.  0.
    9000005    1    3    3    0    0  0.29182990728E+02  0.33485885903E+02 -0.66976520938E+02  0.80372917451E+02  0.10000000000E+01 0.  0.
<mgrwt>
<rscale>  0 0.12500311E+03</rscale>
<asrwt>0</asrwt>
<pdfrwt beam="1">  1        4 0.12099635E-02 0.12500311E+03</pdfrwt>
<pdfrwt beam="2">  1       -4 0.76415716E-01 0.12500311E+03</pdfrwt>
<totfact> 0.55507962E+03</totfact>
</mgrwt>
</event>
<event>
 5    1  0.3296424E-002  0.1250063E+03  0.7818608E-02  0.1235059E+00
         -4   -1    0    0    0  501 -0.00000000000E+00  0.00000000000E+00  0.97954657034E+01  0.98774515107E+01  0.12700000000E+01 0. -1.
          4   -1    0    0  501    0  0.00000000000E+00 -0.00000000000E+00 -0.39707661038E+03  0.39707864134E+03  0.12700000000E+01 0. -1.
         25    2    1    2    0    0  0.00000000000E+00  0.00000000000E+00 -0.38728114467E+03  0.40695609285E+03  0.12500630580E+03 0.  0.
    9000005    1    3    3    0    0 -0.24637630059E+02  0.52416613263E+02 -0.11721430578E+03  0.13074673090E+03  0.10000000000E+01 0.  0.
    9000005    1    3    3    0    0  0.24637630059E+02 -0.52416613263E+02 -0.27006683889E+03  0.27620936195E+03  0.10000000000E+01 0.  0.
<mgrwt>
<rscale>  0 0.12500631E+03</rscale>
<asrwt>0</asrwt>
<pdfrwt beam="2">  1        4 0.61095160E-01 0.12500631E+03</pdfrwt>
<pdfrwt beam="1">  1       -4 0.15134579E-02 0.12500631E+03</pdfrwt>
<totfact> 0.63872941E+03</totfact>
</mgrwt>
</event>
<event>
 5    1  0.3296424E-002  0.1249927E+03  0.7818608E-02  0.1235081E+00
         -4   -1    0    0    0  501 -0.00000000000E+00  0.00000000000E+00  0.54948195862E+02  0.54962870453E+02  0.12700000000E+01 0.  1.
          4   -1    0    0  501    0  0.00000000000E+00 -0.00000000000E+00 -0.71051596727E+02  0.71062946022E+02  0.12700000000E+01 0.  1.
         25    2    1    2    0    0  0.00000000000E+00  0.00000000000E+00 -0.16103400865E+02  0.12602581648E+03  0.12499274739E+03 0.  0.
    9000005    1    3    3    0    0 -0.87783226941E+01  0.93693556655E+01 -0.69712304488E+02  0.70891813151E+02  0.10000000000E+01 0.  0.
    9000005    1    3    3    0    0  0.87783226941E+01 -0.93693556655E+01  0.53608903623E+02  0.55134003324E+02  0.10000000000E+01 0.  0.
<mgrwt>
<rscale>  0 0.12499275E+03</rscale>
<asrwt>0</asrwt>
<pdfrwt beam="2">  1        4 0.10933017E-01 0.12499275E+03</pdfrwt>
<pdfrwt beam="1">  1       -4 0.84555704E-02 0.12499275E+03</pdfrwt>
<totfact> 0.10432099E+04</totfact>
</mgrwt>
</event>
<event>
 5    1  0.3296424E-002  0.1250070E+03  0.7818608E-02  0.1235058E+00
         -4   -1    0    0    0  501 -0.00000000000E+00  0.00000000000E+00  0.43081557889E+02  0.43100272971E+02  0.12700000000E+01 0. -1.
          4   -1    0    0  501    0  0.00000000000E+00 -0.00000000000E+00 -0.90638293034E+02  0.90647190051E+02  0.12700000000E+01 0. -1.
         25    2    1    2    0    0  0.00000000000E+00  0.00000000000E+00 -0.47556735145E+02  0.13374746302E+03  0.12500696303E+03 0.  0.
    9000005    1    3    3    0    0  0.15759669843E+01  0.59007457628E+02 -0.45739672700E+02  0.74682537359E+02  0.10000000000E+01 0.  0.
    9000005    1    3    3    0    0 -0.15759669843E+01 -0.59007457628E+02 -0.18170624455E+01  0.59064925663E+02  0.10000000000E+01 0.  0.
<mgrwt>
<rscale>  0 0.12500696E+03</rscale>
<asrwt>0</asrwt>
<pdfrwt beam="2">  1        4 0.13946477E-01 0.12500696E+03</pdfrwt>
<pdfrwt beam="1">  1       -4 0.66300560E-02 0.12500696E+03</pdfrwt>
<totfact> 0.10262927E+04</totfact>
</mgrwt>
</event>
<event>
 5    1  0.3296424E-002  0.1249996E+03  0.7818608E-02  0.1235070E+00
          4   -1    0    0  501    0  0.00000000000E+00  0.00000000000E+00  0.16211748532E+03  0.16212245972E+03  0.12700000000E+01 0.  1.
         -4   -1    0    0    0  501 -0.00000000000E+00 -0.00000000000E+00 -0.24072951636E+02  0.24106428613E+02  0.12700000000E+01 0.  1.
         25    2    1    2    0    0  0.00000000000E+00  0.00000000000E+00  0.13804453369E+03  0.18622888834E+03  0.12499962228E+03 0.  0.
    9000005    1    3    3    0    0 -0.38710544856E+02 -0.48814231429E+02  0.76304335745E+02  0.98512370424E+02  0.10000000000E+01 0.  0.
    9000005    1    3    3    0    0  0.38710544856E+02  0.48814231429E+02  0.61740197941E+02  0.87716517913E+02  0.10000000000E+01 0.  0.
<mgrwt>
<rscale>  0 0.12499962E+03</rscale>
<asrwt>0</asrwt>
<pdfrwt beam="1">  1        4 0.24944110E-01 0.12499962E+03</pdfrwt>
<pdfrwt beam="2">  1       -4 0.37064887E-02 0.12499962E+03</pdfrwt>
<totfact> 0.92508429E+03</totfact>
</mgrwt>
</event>
<event>
 5    1  0.3296424E-002  0.1250147E+03  0.7818608E-02  0.1235046E+00
         -4   -1    0    0    0  501 -0.00000000000E+00  0.00000000000E+00  0.18377700108E+03  0.18378138923E+03  0.12700000000E+01 0. -1.
          4   -1    0    0  501    0  0.00000000000E+00 -0.00000000000E+00 -0.21236773364E+02  0.21274713697E+02  0.12700000000E+01 0. -1.
         25    2    1    2    0    0  0.00000000000E+00  0.00000000000E+00  0.16254022772E+03  0.20505610293E+03  0.12501471802E+03 0.  0.
    9000005    1    3    3    0    0  0.22115264170E+02  0.58443060652E+02  0.79265453999E+02  0.10093903331E+03  0.10000000000E+01 0.  0.
    9000005    1    3    3    0    0 -0.22115264170E+02 -0.58443060652E+02  0.83274773722E+02  0.10411706962E+03  0.10000000000E+01 0.  0.
<mgrwt>
<rscale>  0 0.12501472E+03</rscale>
<asrwt>0</asrwt>
<pdfrwt beam="2">  1        4 0.32704518E-02 0.12501472E+03</pdfrwt>
<pdfrwt beam="1">  1       -4 0.28276642E-01 0.12501472E+03</pdfrwt>
<totfact> 0.89260314E+03</totfact>
</mgrwt>
</event>
<event>
 5    1  0.3296424E-002  0.1249990E+03  0.7818608E-02  0.1235071E+00
         -4   -1    0    0    0  501 -0.00000000000E+00  0.00000000000E+00  0.23834102944E+04  0.23834106328E+04  0.12700000000E+01 0.  1.
          4   -1    0    0  501    0  0.00000000000E+00 -0.00000000000E+00 -0.13924846068E+01  0.18846520581E+01  0.12700000000E+01 0.  1.
         25    2    1    2    0    0  0.00000000000E+00  0.00000000000E+00  0.23820178098E+04  0.23852952848E+04  0.12499899841E+03 0.  0.
    9000005    1    3    3    0    0  0.13249601057E+02  0.13275159911E+02  0.23285261984E+04  0.23286019494E+04  0.10000000000E+01 0.  0.
    9000005    1    3    3    0    0 -0.13249601057E+02 -0.13275159911E+02  0.53491611363E+02  0.56693335455E+02  0.10000000000E+01 0.  0.
<mgrwt>
<rscale>  0 0.12499900E+03</rscale>
<asrwt>0</asrwt>
<pdfrwt beam="2">  1        4 0.25211236E-03 0.12499900E+03</pdfrwt>
<pdfrwt beam="1">  1       -4 0.36671800E+00 0.12499900E+03</pdfrwt>
<totfact> 0.56342134E+02</totfact>
</mgrwt>
</event>
<event>
 5    1  0.3296424E-002  0.1250114E+03  0.7818608E-02  0.1235051E+00
          4   -1    0    0  501    0  0.00000000000E+00  0.00000000000E+00  0.32025484348E+03  0.32025736162E+03  0.12700000000E+01 0. -1.
         -4   -1    0    0    0  501 -0.00000000000E+00 -0.00000000000E+00 -0.12163918981E+02  0.12230037816E+02  0.12700000000E+01 0. -1.
         25    2    1    2    0    0  0.00000000000E+00  0.00000000000E+00  0.30809092449E+03  0.33248739943E+03  0.12501141158E+03 0.  0.
    9000005    1    3    3    0    0  0.20129511824E+02  0.58037256920E+02  0.12343712480E+03  0.13788126855E+03  0.10000000000E+01 0.  0.
    9000005    1    3    3    0    0 -0.20129511824E+02 -0.58037256920E+02  0.18465379970E+03  0.19460613089E+03  0.10000000000E+01 0.  0.
<mgrwt>
<rscale>  0 0.12501141E+03</rscale>
<asrwt>0</asrwt>
<pdfrwt beam="1">  1        4 0.49275257E-01 0.12501141E+03</pdfrwt>
<pdfrwt beam="2">  1       -4 0.18766519E-02 0.12501141E+03</pdfrwt>
<totfact> 0.71676999E+03</totfact>
</mgrwt>
</event>
<event>
 5    1  0.3296424E-002  0.1249994E+03  0.7818608E-02  0.1235070E+00
          4   -1    0    0  501    0  0.00000000000E+00  0.00000000000E+00  0.66347722176E+02  0.66359875964E+02  0.12700000000E+01 0.  1.
         -4   -1    0    0    0  501 -0.00000000000E+00 -0.00000000000E+00 -0.58850410351E+02  0.58864112144E+02  0.12700000000E+01 0.  1.
         25    2    1    2    0    0  0.00000000000E+00  0.00000000000E+00  0.74973118251E+01  0.12522398811E+03  0.12499935005E+03 0.  0.
    9000005    1    3    3    0    0 -0.19159736506E+02 -0.29570574269E+02  0.55452403760E+02  0.65707560055E+02  0.10000000000E+01 0.  0.
    9000005    1    3    3    0    0  0.19159736506E+02  0.29570574269E+02 -0.47955091935E+02  0.59516428053E+02  0.10000000000E+01 0.  0.
<mgrwt>
<rscale>  0 0.12499935E+03</rscale>
<asrwt>0</asrwt>
<pdfrwt beam="1">  1        4 0.10209331E-01 0.12499935E+03</pdfrwt>
<pdfrwt beam="2">  1       -4 0.90558983E-02 0.12499935E+03</pdfrwt>
<totfact> 0.10448153E+04</totfact>
</mgrwt>
</event>
<event>
 5    1  0.3296424E-002  0.1249999E+03  0.7818608E-02  0.1235069E+00
         -4   -1    0    0    0  501 -0.00000000000E+00  0.00000000000E+00  0.51253890413E+02  0.51269622414E+02  0.12700000000E+01 0. -1.
          4   -1    0    0  501    0  0.00000000000E+00 -0.00000000000E+00 -0.76180883405E+02  0.76191468659E+02  0.12700000000E+01 0. -1.
         25    2    1    2    0    0  0.00000000000E+00  0.00000000000E+00 -0.24926992992E+02  0.12746109107E+03  0.12499989903E+03 0.  0.
    9000005    1    3    3    0    0  0.53258645393E+02 -0.21558069709E+02 -0.37524014164E+02  0.68631518398E+02  0.10000000000E+01 0.  0.
    9000005    1    3    3    0    0 -0.53258645393E+02  0.21558069709E+02  0.12597021171E+02  0.58829572674E+02  0.10000000000E+01 0.  0.
<mgrwt>
<rscale>  0 0.12499990E+03</rscale>
<asrwt>0</asrwt>
<pdfrwt beam="2">  1        4 0.11722160E-01 0.12499990E+03</pdfrwt>
<pdfrwt beam="1">  1       -4 0.78872383E-02 0.12499990E+03</pdfrwt>
<totfact> 0.10399167E+04</totfact>
</mgrwt>
</event>
<event>
 5    1  0.3296424E-002  0.1250009E+03  0.7818608E-02  0.1235068E+00
          4   -1    0    0  501    0  0.00000000000E+00  0.00000000000E+00  0.21781407882E+02  0.21818401163E+02  0.12700000000E+01 0.  1.
         -4   -1    0    0    0  501 -0.00000000000E+00 -0.00000000000E+00 -0.17914998607E+03  0.17915448755E+03  0.12700000000E+01 0.  1.
         25    2    1    2    0    0  0.00000000000E+00  0.00000000000E+00 -0.15736857819E+03  0.20097288871E+03  0.12500093038E+03 0.  0.
    9000005    1    3    3    0    0  0.43236734076E+02  0.34231960454E+02 -0.31423860887E+02  0.63479928506E+02  0.10000000000E+01 0.  0.
    9000005    1    3    3    0    0 -0.43236734076E+02 -0.34231960454E+02 -0.12594471730E+03  0.13749296021E+03  0.10000000000E+01 0.  0.
<mgrwt>
<rscale>  0 0.12500093E+03</rscale>
<asrwt>0</asrwt>
<pdfrwt beam="1">  1        4 0.33541779E-02 0.12500093E+03</pdfrwt>
<pdfrwt beam="2">  1       -4 0.27564727E-01 0.12500093E+03</pdfrwt>
<totfact> 0.89969807E+03</totfact>
</mgrwt>
</event>
<event>
 5    1  0.3296424E-002  0.1250075E+03  0.7818608E-02  0.1235058E+00
          4   -1    0    0  501    0  0.00000000000E+00  0.00000000000E+00  0.11073479193E+02  0.11146068429E+02  0.12700000000E+01 0.  1.
         -4   -1    0    0    0  501 -0.00000000000E+00 -0.00000000000E+00 -0.35157327934E+03  0.35157557317E+03  0.12700000000E+01 0.  1.
         25    2    1    2    0    0  0.00000000000E+00  0.00000000000E+00 -0.34049980015E+03  0.36272164160E+03  0.12500750129E+03 0.  0.
    9000005    1    3    3    0    0  0.27795632569E+02 -0.47291368731E+02 -0.25713562118E+03  0.26292356004E+03  0.10000000000E+01 0.  0.
    9000005    1    3    3    0    0 -0.27795632569E+02  0.47291368731E+02 -0.83364178975E+02  0.99798081557E+02  0.10000000000E+01 0.  0.
<mgrwt>
<rscale>  0 0.12500750E+03</rscale>
<asrwt>0</asrwt>
<pdfrwt beam="1">  1        4 0.17093727E-02 0.12500750E+03</pdfrwt>
<pdfrwt beam="2">  1       -4 0.54093948E-01 0.12500750E+03</pdfrwt>
<totfact> 0.68335993E+03</totfact>
</mgrwt>
</event>
<event>
 5    1  0.3296424E-002  0.1250010E+03  0.7818608E-02  0.1235068E+00
         -4   -1    0    0    0  501 -0.00000000000E+00  0.00000000000E+00  0.13069819118E+03  0.13070436136E+03  0.12700000000E+01 0. -1.
          4   -1    0    0  501    0  0.00000000000E+00 -0.00000000000E+00 -0.29867650769E+02  0.29894639360E+02  0.12700000000E+01 0. -1.
         25    2    1    2    0    0  0.00000000000E+00  0.00000000000E+00  0.10083054041E+03  0.16059900072E+03  0.12500096460E+03 0.  0.
    9000005    1    3    3    0    0 -0.36080763395E+00  0.10951716212E+02  0.12946059453E+03  0.12992734819E+03  0.10000000000E+01 0.  0.
    9000005    1    3    3    0    0  0.36080763395E+00 -0.10951716212E+02 -0.28630054119E+02  0.30671652531E+02  0.10000000000E+01 0.  0.
<mgrwt>
<rscale>  0 0.12500096E+03</rscale>
<asrwt>0</asrwt>
<pdfrwt beam="2">  1        4 0.45975740E-02 0.12500096E+03</pdfrwt>
<pdfrwt beam="1">  1       -4 0.20109964E-01 0.12500096E+03</pdfrwt>
<totfact> 0.97225319E+03</totfact>
</mgrwt>
</event>
<event>
 5    1  0.3296424E-002  0.1249997E+03  0.7818608E-02  0.1235070E+00
         -4   -1    0    0    0  501 -0.00000000000E+00  0.00000000000E+00  0.39206637096E+01  0.41212260219E+01  0.12700000000E+01 0.  1.
          4   -1    0    0  501    0  0.00000000000E+00 -0.00000000000E+00 -0.97126954237E+03  0.97127037267E+03  0.12700000000E+01 0.  1.
         25    2    1    2    0    0  0.00000000000E+00  0.00000000000E+00 -0.96734887866E+03  0.97539159870E+03  0.12499967105E+03 0.  0.
    9000005    1    3    3    0    0 -0.12505247138E+02 -0.60984903514E+02 -0.44115636217E+03  0.44552831060E+03  0.10000000000E+01 0.  0.
    9000005    1    3    3    0    0  0.12505247138E+02  0.60984903514E+02 -0.52619251649E+03  0.52986328810E+03  0.10000000000E+01 0.  0.
<mgrwt>
<rscale>  0 0.12499967E+03</rscale>
<asrwt>0</asrwt>
<pdfrwt beam="2">  1        4 0.14944139E+00 0.12499967E+03</pdfrwt>
<pdfrwt beam="1">  1       -4 0.61867155E-03 0.12499967E+03</pdfrwt>
<totfact> 0.31431542E+03</totfact>
</mgrwt>
</event>
<event>
 5    1  0.3296424E-002  0.1250006E+03  0.7818608E-02  0.1235068E+00
         -4   -1    0    0    0  501 -0.00000000000E+00  0.00000000000E+00  0.79388395953E+03  0.79388497536E+03  0.12700000000E+01 0. -1.
          4   -1    0    0  501    0  0.00000000000E+00 -0.00000000000E+00 -0.48374952510E+01  0.50014258271E+01  0.12700000000E+01 0. -1.
         25    2    1    2    0    0  0.00000000000E+00  0.00000000000E+00  0.78904646428E+03  0.79888640119E+03  0.12500063683E+03 0.  0.
    9000005    1    3    3    0    0  0.35504316463E+02  0.49965964507E+02  0.31673701033E+03  0.32261507685E+03  0.10000000000E+01 0.  0.
    9000005    1    3    3    0    0 -0.35504316463E+02 -0.49965964507E+02  0.47230945395E+03  0.47627132434E+03  0.10000000000E+01 0.  0.
<mgrwt>
<rscale>  0 0.12500064E+03</rscale>
<asrwt>0</asrwt>
<pdfrwt beam="2">  1        4 0.75691872E-03 0.12500064E+03</pdfrwt>
<pdfrwt beam="1">  1       -4 0.12214860E+00 0.12500064E+03</pdfrwt>
<totfact> 0.38313976E+03</totfact>
</mgrwt>
</event>
<event>
 5    1  0.3296424E-002  0.1250002E+03  0.7818608E-02  0.1235069E+00
          4   -1    0    0  501    0  0.00000000000E+00  0.00000000000E+00  0.10370030856E+03  0.10370808500E+03  0.12700000000E+01 0.  1.
         -4   -1    0    0    0  501 -0.00000000000E+00 -0.00000000000E+00 -0.37648870049E+02  0.37670284256E+02  0.12700000000E+01 0.  1.
         25    2    1    2    0    0  0.00000000000E+00  0.00000000000E+00  0.66051438507E+02  0.14137836926E+03  0.12500020306E+03 0.  0.
    9000005    1    3    3    0    0 -0.25909982337E+02 -0.50403659966E+02  0.62808567258E+02  0.84603618384E+02  0.10000000000E+01 0.  0.
    9000005    1    3    3    0    0  0.25909982337E+02  0.50403659966E+02  0.32428712493E+01  0.56774750873E+02  0.10000000000E+01 0.  0.
<mgrwt>
<rscale>  0 0.12500020E+03</rscale>
<asrwt>0</asrwt>
<pdfrwt beam="1">  1        4 0.15956139E-01 0.12500020E+03</pdfrwt>
<pdfrwt beam="2">  1       -4 0.57943793E-02 0.12500020E+03</pdfrwt>
<totfact> 0.10105052E+04</totfact>
</mgrwt>
</event>
<event>
 5    1  0.3296424E-002  0.1250002E+03  0.7818608E-02  0.1235069E+00
          4   -1    0    0  501    0  0.00000000000E+00  0.00000000000E+00  0.28179579459E+02  0.28208183183E+02  0.12700000000E+01 0. -1.
         -4   -1    0    0    0  501 -0.00000000000E+00 -0.00000000000E+00 -0.13851854560E+03  0.13852436744E+03  0.12700000000E+01 0. -1.
         25    2    1    2    0    0  0.00000000000E+00  0.00000000000E+00 -0.11033896614E+03  0.16673255063E+03  0.12500022396E+03 0.  0.
    9000005    1    3    3    0    0  0.57795007464E+02  0.12508804114E+02 -0.82129618760E+02  0.10120774351E+03  0.10000000000E+01 0.  0.
    9000005    1    3    3    0    0 -0.57795007464E+02 -0.12508804114E+02 -0.28209347383E+02  0.65524807119E+02  0.10000000000E+01 0.  0.
<mgrwt>
<rscale>  0 0.12500022E+03</rscale>
<asrwt>0</asrwt>
<pdfrwt beam="1">  1        4 0.43379681E-02 0.12500022E+03</pdfrwt>
<pdfrwt beam="2">  1       -4 0.21313193E-01 0.12500022E+03</pdfrwt>
<totfact> 0.96059794E+03</totfact>
</mgrwt>
</event>
<event>
 5    1  0.3296424E-002  0.1249983E+03  0.7818608E-02  0.1235072E+00
          4   -1    0    0  501    0  0.00000000000E+00  0.00000000000E+00  0.15276215687E+01  0.19865869367E+01  0.12700000000E+01 0.  1.
         -4   -1    0    0    0  501 -0.00000000000E+00 -0.00000000000E+00 -0.22225978688E+04  0.22225982316E+04  0.12700000000E+01 0.  1.
         25    2    1    2    0    0  0.00000000000E+00  0.00000000000E+00 -0.22210702472E+04  0.22245848186E+04  0.12499828763E+03 0.  0.
    9000005    1    3    3    0    0 -0.18908930755E+02 -0.57861069408E+02 -0.85904253104E+03  0.86119714418E+03  0.10000000000E+01 0.  0.
    9000005    1    3    3    0    0  0.18908930755E+02  0.57861069408E+02 -0.13620277162E+04  0.13633876744E+04  0.10000000000E+01 0.  0.
<mgrwt>
<rscale>  0 0.12499829E+03</rscale>
<asrwt>0</asrwt>
<pdfrwt beam="1">  1        4 0.27035342E-03 0.12499829E+03</pdfrwt>
<pdfrwt beam="2">  1       -4 0.34197122E+00 0.12499829E+03</pdfrwt>
<totfact> 0.72077651E+02</totfact>
</mgrwt>
</event>
<event>
 5    1  0.3296424E-002  0.1250016E+03  0.7818608E-02  0.1235067E+00
          4   -1    0    0  501    0  0.00000000000E+00  0.00000000000E+00  0.61987293350E+03  0.61987423449E+03  0.12700000000E+01 0. -1.
         -4   -1    0    0    0  501 -0.00000000000E+00 -0.00000000000E+00 -0.62365469042E+01  0.63645437612E+01  0.12700000000E+01 0. -1.
         25    2    1    2    0    0  0.00000000000E+00  0.00000000000E+00  0.61363638660E+03  0.62623877825E+03  0.12500156972E+03 0.  0.
    9000005    1    3    3    0    0 -0.48015718049E+01 -0.18731376932E+02  0.91038895668E+01  0.21396270208E+02  0.10000000000E+01 0.  0.
    9000005    1    3    3    0    0  0.48015718049E+01  0.18731376932E+02  0.60453249703E+03  0.60484250805E+03  0.10000000000E+01 0.  0.
<mgrwt>
<rscale>  0 0.12500157E+03</rscale>
<asrwt>0</asrwt>
<pdfrwt beam="1">  1        4 0.95375006E-01 0.12500157E+03</pdfrwt>
<pdfrwt beam="2">  1       -4 0.96941481E-03 0.12500157E+03</pdfrwt>
<totfact> 0.47250529E+03</totfact>
</mgrwt>
</event>
<event>
 5    1  0.3296424E-002  0.1249999E+03  0.7818608E-02  0.1235069E+00
          4   -1    0    0  501    0  0.00000000000E+00  0.00000000000E+00  0.37736424441E+02  0.37757788992E+02  0.12700000000E+01 0.  1.
         -4   -1    0    0    0  501 -0.00000000000E+00 -0.00000000000E+00 -0.10345928161E+03  0.10346707617E+03  0.12700000000E+01 0.  1.
         25    2    1    2    0    0  0.00000000000E+00  0.00000000000E+00 -0.65722857171E+02  0.14122486516E+03  0.12499987434E+03 0.  0.
    9000005    1    3    3    0    0 -0.41601896176E+02  0.41373624200E+02 -0.85576566827E+01  0.59302006988E+02  0.10000000000E+01 0.  0.
    9000005    1    3    3    0    0  0.41601896176E+02 -0.41373624200E+02 -0.57165200489E+02  0.81922858177E+02  0.10000000000E+01 0.  0.
<mgrwt>
<rscale>  0 0.12499987E+03</rscale>
<asrwt>0</asrwt>
<pdfrwt beam="1">  1        4 0.58078468E-02 0.12499987E+03</pdfrwt>
<pdfrwt beam="2">  1       -4 0.15919055E-01 0.12499987E+03</pdfrwt>
<totfact> 0.10108291E+04</totfact>
</mgrwt>
</event>
<event>
 5    1  0.3296424E-002  0.1249985E+03  0.7818608E-02  0.1235072E+00
         -4   -1    0    0    0  501 -0.00000000000E+00  0.00000000000E+00  0.91325275581E+03  0.91325363886E+03  0.12700000000E+01 0. -1.
          4   -1    0    0  501    0  0.00000000000E+00 -0.00000000000E+00 -0.41820135145E+01  0.43705991621E+01  0.12700000000E+01 0. -1.
         25    2    1    2    0    0  0.00000000000E+00  0.00000000000E+00  0.90907074230E+03  0.91762423802E+03  0.12499851084E+03 0.  0.
    9000005    1    3    3    0    0 -0.41800429147E+02 -0.10322614304E+02  0.12204640277E+03  0.12942239633E+03  0.10000000000E+01 0.  0.
    9000005    1    3    3    0    0  0.41800429147E+02  0.10322614304E+02  0.78702433952E+03  0.78820184169E+03  0.10000000000E+01 0.  0.
<mgrwt>
<rscale>  0 0.12499851E+03</rscale>
<asrwt>0</asrwt>
<pdfrwt beam="2">  1        4 0.65796123E-03 0.12499851E+03</pdfrwt>
<pdfrwt beam="1">  1       -4 0.14051499E+00 0.12499851E+03</pdfrwt>
<totfact> 0.33495090E+03</totfact>
</mgrwt>
</event>
<event>
 5    1  0.3296424E-002  0.1250020E+03  0.7818608E-02  0.1235066E+00
          4   -1    0    0  501    0  0.00000000000E+00  0.00000000000E+00  0.57783298198E+02  0.57797252968E+02  0.12700000000E+01 0.  1.
         -4   -1    0    0    0  501 -0.00000000000E+00 -0.00000000000E+00 -0.67575742144E+02  0.67587675107E+02  0.12700000000E+01 0.  1.
         25    2    1    2    0    0  0.00000000000E+00  0.00000000000E+00 -0.97924439464E+01  0.12538492808E+03  0.12500195290E+03 0.  0.
    9000005    1    3    3    0    0 -0.45268114910E+02 -0.13685821896E+02 -0.45873163965E+02  0.65892724338E+02  0.10000000000E+01 0.  0.
    9000005    1    3    3    0    0  0.45268114910E+02  0.13685821896E+02  0.36080720019E+02  0.59492203737E+02  0.10000000000E+01 0.  0.
<mgrwt>
<rscale>  0 0.12500195E+03</rscale>
<asrwt>0</asrwt>
<pdfrwt beam="1">  1        4 0.88917295E-02 0.12500195E+03</pdfrwt>
<pdfrwt beam="2">  1       -4 0.10398259E-01 0.12500195E+03</pdfrwt>
<totfact> 0.10444041E+04</totfact>
</mgrwt>
</event>
<event>
 5    1  0.3296424E-002  0.1250015E+03  0.7818608E-02  0.1235067E+00
         -4   -1    0    0    0  501 -0.00000000000E+00  0.00000000000E+00  0.33840090003E+03  0.33840328314E+03  0.12700000000E+01 0. -1.
          4   -1    0    0  501    0  0.00000000000E+00 -0.00000000000E+00 -0.11506180245E+02  0.11576056489E+02  0.12700000000E+01 0. -1.
         25    2    1    2    0    0  0.00000000000E+00  0.00000000000E+00  0.32689471978E+03  0.34997933963E+03  0.12500152137E+03 0.  0.
    9000005    1    3    3    0    0  0.36757501149E+02  0.47722700409E+02  0.11686831423E+03  0.13148297569E+03  0.10000000000E+01 0.  0.
    9000005    1    3    3    0    0 -0.36757501149E+02 -0.47722700409E+02  0.21002640556E+03  0.21849636394E+03  0.10000000000E+01 0.  0.
<mgrwt>
<rscale>  0 0.12500152E+03</rscale>
<asrwt>0</asrwt>
<pdfrwt beam="2">  1        4 0.17757399E-02 0.12500152E+03</pdfrwt>
<pdfrwt beam="1">  1       -4 0.52067237E-01 0.12500152E+03</pdfrwt>
<totfact> 0.69724478E+03</totfact>
</mgrwt>
</event>
<event>
 5    1  0.3296424E-002  0.1249992E+03  0.7818608E-02  0.1235071E+00
         -4   -1    0    0    0  501 -0.00000000000E+00  0.00000000000E+00  0.25520052716E+03  0.25520368720E+03  0.12700000000E+01 0.  1.
          4   -1    0    0  501    0  0.00000000000E+00 -0.00000000000E+00 -0.15276789475E+02  0.15329487815E+02  0.12700000000E+01 0.  1.
         25    2    1    2    0    0  0.00000000000E+00  0.00000000000E+00  0.23992373768E+03  0.27053317502E+03  0.12499919552E+03 0.  0.
    9000005    1    3    3    0    0 -0.56392392863E+02 -0.14560212428E+01  0.61768194769E+02  0.83657228353E+02  0.10000000000E+01 0.  0.
    9000005    1    3    3    0    0  0.56392392863E+02  0.14560212428E+01  0.17815554291E+03  0.18687594666E+03  0.10000000000E+01 0.  0.
<mgrwt>
<rscale>  0 0.12499920E+03</rscale>
<asrwt>0</asrwt>
<pdfrwt beam="2">  1        4 0.23545721E-02 0.12499920E+03</pdfrwt>
<pdfrwt beam="1">  1       -4 0.39265916E-01 0.12499920E+03</pdfrwt>
<totfact> 0.79451653E+03</totfact>
</mgrwt>
</event>
<event>
 5    1  0.3296424E-002  0.1249989E+03  0.7818608E-02  0.1235071E+00
          4   -1    0    0  501    0  0.00000000000E+00  0.00000000000E+00  0.16826501070E+03  0.16826980337E+03  0.12700000000E+01 0. -1.
         -4   -1    0    0    0  501 -0.00000000000E+00 -0.00000000000E+00 -0.23191945682E+02  0.23226692500E+02  0.12700000000E+01 0. -1.
         25    2    1    2    0    0  0.00000000000E+00  0.00000000000E+00  0.14507306502E+03  0.19149649587E+03  0.12499885494E+03 0.  0.
    9000005    1    3    3    0    0 -0.12761776152E+02  0.27674920496E+02  0.15611636307E+03  0.15906628485E+03  0.10000000000E+01 0.  0.
    9000005    1    3    3    0    0  0.12761776152E+02 -0.27674920496E+02 -0.11043298057E+02  0.32430211023E+02  0.10000000000E+01 0.  0.
<mgrwt>
<rscale>  0 0.12499885E+03</rscale>
<asrwt>0</asrwt>
<pdfrwt beam="1">  1        4 0.25889965E-01 0.12499885E+03</pdfrwt>
<pdfrwt beam="2">  1       -4 0.35710333E-02 0.12499885E+03</pdfrwt>
<totfact> 0.91589929E+03</totfact>
</mgrwt>
</event>
<event>
 5    1  0.3296424E-002  0.1250071E+03  0.7818608E-02  0.1235058E+00
         -4   -1    0    0    0  501 -0.00000000000E+00  0.00000000000E+00  0.14116671584E+02  0.14173683946E+02  0.12700000000E+01 0. -1.
          4   -1    0    0  501    0  0.00000000000E+00 -0.00000000000E+00 -0.27612707465E+03  0.27612999521E+03  0.12700000000E+01 0. -1.
         25    2    1    2    0    0  0.00000000000E+00  0.00000000000E+00 -0.26201040307E+03  0.29030367916E+03  0.12500709906E+03 0.  0.
    9000005    1    3    3    0    0 -0.36884815777E+02  0.40278751955E+02 -0.60458319601E+02  0.81480524685E+02  0.10000000000E+01 0.  0.
    9000005    1    3    3    0    0  0.36884815777E+02 -0.40278751955E+02 -0.20155208347E+03  0.20882315447E+03  0.10000000000E+01 0.  0.
<mgrwt>
<rscale>  0 0.12500710E+03</rscale>
<asrwt>0</asrwt>
<pdfrwt beam="2">  1        4 0.42485694E-01 0.12500710E+03</pdfrwt>
<pdfrwt beam="1">  1       -4 0.21764061E-02 0.12500710E+03</pdfrwt>
<totfact> 0.76819338E+03</totfact>
</mgrwt>
</event>
<event>
 5    1  0.3296424E-002  0.1250076E+03  0.7818608E-02  0.1235057E+00
          4   -1    0    0  501    0  0.00000000000E+00  0.00000000000E+00  0.44005918870E+02  0.44024240999E+02  0.12700000000E+01 0. -1.
         -4   -1    0    0    0  501 -0.00000000000E+00 -0.00000000000E+00 -0.88735945905E+02  0.88745033639E+02  0.12700000000E+01 0. -1.
         25    2    1    2    0    0  0.00000000000E+00  0.00000000000E+00 -0.44730027035E+02  0.13276927464E+03  0.12500761965E+03 0.  0.
    9000005    1    3    3    0    0  0.10359215428E+02 -0.40425450387E+02  0.27044363477E+02  0.49738596473E+02  0.10000000000E+01 0.  0.
    9000005    1    3    3    0    0 -0.10359215428E+02  0.40425450387E+02 -0.71774390512E+02  0.83030678165E+02  0.10000000000E+01 0.  0.
<mgrwt>
<rscale>  0 0.12500762E+03</rscale>
<asrwt>0</asrwt>
<pdfrwt beam="1">  1        4 0.67722498E-02 0.12500762E+03</pdfrwt>
<pdfrwt beam="2">  1       -4 0.13653792E-01 0.12500762E+03</pdfrwt>
<totfact> 0.10283538E+04</totfact>
</mgrwt>
</event>
<event>
 5    1  0.3296424E-002  0.1250193E+03  0.7818608E-02  0.1235039E+00
         -4   -1    0    0    0  501 -0.00000000000E+00  0.00000000000E+00  0.36459354662E+02  0.36481467108E+02  0.12700000000E+01 0.  1.
          4   -1    0    0  501    0  0.00000000000E+00 -0.00000000000E+00 -0.10711451741E+03  0.10712204601E+03  0.12700000000E+01 0.  1.
         25    2    1    2    0    0  0.00000000000E+00  0.00000000000E+00 -0.70655162753E+02  0.14360351312E+03  0.12501926634E+03 0.  0.
    9000005    1    3    3    0    0  0.34912223926E+02  0.30041671382E+02 -0.83858446821E+02  0.95679697439E+02  0.10000000000E+01 0.  0.
    9000005    1    3    3    0    0 -0.34912223926E+02 -0.30041671382E+02  0.13203284068E+02  0.47923815677E+02  0.10000000000E+01 0.  0.
<mgrwt>
<rscale>  0 0.12501927E+03</rscale>
<asrwt>0</asrwt>
<pdfrwt beam="2">  1        4 0.16481436E-01 0.12501927E+03</pdfrwt>
<pdfrwt beam="1">  1       -4 0.56114116E-02 0.12501927E+03</pdfrwt>
<totfact> 0.10055076E+04</totfact>
</mgrwt>
</event>
<event>
 5    1  0.3296424E-002  0.1250012E+03  0.7818608E-02  0.1235067E+00
          4   -1    0    0  501    0  0.00000000000E+00  0.00000000000E+00  0.50602407004E+02  0.50618341484E+02  0.12700000000E+01 0.  1.
         -4   -1    0    0    0  501 -0.00000000000E+00 -0.00000000000E+00 -0.77163173962E+02  0.77173624483E+02  0.12700000000E+01 0.  1.
         25    2    1    2    0    0  0.00000000000E+00  0.00000000000E+00 -0.26560766957E+02  0.12779196597E+03  0.12500124889E+03 0.  0.
    9000005    1    3    3    0    0  0.36964511512E+02  0.17255735038E+02  0.35117769140E+02  0.53836727356E+02  0.10000000000E+01 0.  0.
    9000005    1    3    3    0    0 -0.36964511512E+02 -0.17255735038E+02 -0.61678536097E+02  0.73955238612E+02  0.10000000000E+01 0.  0.
<mgrwt>
<rscale>  0 0.12500125E+03</rscale>
<asrwt>0</asrwt>
<pdfrwt beam="1">  1        4 0.77870153E-02 0.12500125E+03</pdfrwt>
<pdfrwt beam="2">  1       -4 0.11873287E-01 0.12500125E+03</pdfrwt>
<totfact> 0.10391690E+04</totfact>
</mgrwt>
</event>
<event>
 5    1  0.3296424E-002  0.1249963E+03  0.7818608E-02  0.1235075E+00
         -4   -1    0    0    0  501 -0.00000000000E+00  0.00000000000E+00  0.87141902366E+01  0.88062484339E+01  0.12700000000E+01 0.  1.
          4   -1    0    0  501    0  0.00000000000E+00 -0.00000000000E+00 -0.44578853639E+03  0.44579034543E+03  0.12700000000E+01 0.  1.
         25    2    1    2    0    0  0.00000000000E+00  0.00000000000E+00 -0.43707434615E+03  0.45459659386E+03  0.12499631629E+03 0.  0.
    9000005    1    3    3    0    0 -0.28265957189E+02  0.37004512662E+02 -0.37010047241E+03  0.37301964824E+03  0.10000000000E+01 0.  0.
    9000005    1    3    3    0    0  0.28265957189E+02 -0.37004512662E+02 -0.66973873744E+02  0.81576945625E+02  0.10000000000E+01 0.  0.
<mgrwt>
<rscale>  0 0.12499632E+03</rscale>
<asrwt>0</asrwt>
<pdfrwt beam="2">  1        4 0.68590055E-01 0.12499632E+03</pdfrwt>
<pdfrwt beam="1">  1       -4 0.13478656E-02 0.12499632E+03</pdfrwt>
<totfact> 0.59572491E+03</totfact>
</mgrwt>
</event>
<event>
 5    1  0.3296424E-002  0.1250012E+03  0.7818608E-02  0.1235067E+00
         -4   -1    0    0    0  501 -0.00000000000E+00  0.00000000000E+00  0.34305137677E+02  0.34328637769E+02  0.12700000000E+01 0. -1.
          4   -1    0    0  501    0  0.00000000000E+00 -0.00000000000E+00 -0.11380384685E+03  0.11381093294E+03  0.12700000000E+01 0. -1.
         25    2    1    2    0    0  0.00000000000E+00  0.00000000000E+00 -0.79498709170E+02  0.14813957071E+03  0.12500115060E+03 0.  0.
    9000005    1    3    3    0    0  0.38293109561E+02 -0.43631830370E+02 -0.12332067719E+02  0.59356370808E+02  0.10000000000E+01 0.  0.
    9000005    1    3    3    0    0 -0.38293109561E+02  0.43631830370E+02 -0.67166641450E+02  0.88783199903E+02  0.10000000000E+01 0.  0.
<mgrwt>
<rscale>  0 0.12500115E+03</rscale>
<asrwt>0</asrwt>
<pdfrwt beam="2">  1        4 0.17510637E-01 0.12500115E+03</pdfrwt>
<pdfrwt beam="1">  1       -4 0.52800663E-02 0.12500115E+03</pdfrwt>
<totfact> 0.99673266E+03</totfact>
</mgrwt>
</event>
<event>
 5    1  0.3296424E-002  0.1250015E+03  0.7818608E-02  0.1235067E+00
          4   -1    0    0  501    0  0.00000000000E+00  0.00000000000E+00  0.47546699886E+01  0.49213602490E+01  0.12700000000E+01 0.  1.
         -4   -1    0    0    0  501 -0.00000000000E+00 -0.00000000000E+00 -0.80725969454E+03  0.80726069354E+03  0.12700000000E+01 0.  1.
         25    2    1    2    0    0  0.00000000000E+00  0.00000000000E+00 -0.80250502455E+03  0.81218205379E+03  0.12500149623E+03 0.  0.
    9000005    1    3    3    0    0 -0.20887887911E+02 -0.17385023309E+02 -0.76688816616E+03  0.76737018595E+03  0.10000000000E+01 0.  0.
    9000005    1    3    3    0    0  0.20887887911E+02  0.17385023309E+02 -0.35616858396E+02  0.44811867835E+02  0.10000000000E+01 0.  0.
<mgrwt>
<rscale>  0 0.12500150E+03</rscale>
<asrwt>0</asrwt>
<pdfrwt beam="1">  1        4 0.74438751E-03 0.12500150E+03</pdfrwt>
<pdfrwt beam="2">  1       -4 0.12420659E+00 0.12500150E+03</pdfrwt>
<totfact> 0.37725437E+03</totfact>
</mgrwt>
</event>
<event>
 5    1  0.3296424E-002  0.1249994E+03  0.7818608E-02  0.1235070E+00
         -4   -1    0    0    0  501 -0.00000000000E+00  0.00000000000E+00  0.99710565691E+01  0.10051610274E+02  0.12700000000E+01 0.  1.
          4   -1    0    0  501    0  0.00000000000E+00 -0.00000000000E+00 -0.39009717312E+03  0.39009924042E+03  0.12700000000E+01 0.  1.
         25    2    1    2    0    0  0.00000000000E+00  0.00000000000E+00 -0.38012611655E+03  0.40015085070E+03  0.12499935531E+03 0.  0.
    9000005    1    3    3    0    0 -0.31593615939E+02 -0.27931207169E+01 -0.17694152246E+02  0.36332370073E+02  0.10000000000E+01 0.  0.
    9000005    1    3    3    0    0  0.31593615939E+02  0.27931207169E+01 -0.36243196431E+03  0.36381848062E+03  0.10000000000E+01 0.  0.
<mgrwt>
<rscale>  0 0.12499936E+03</rscale>
<asrwt>0</asrwt>
<pdfrwt beam="2">  1        4 0.60021293E-01 0.12499936E+03</pdfrwt>
<pdfrwt beam="1">  1       -4 0.15403645E-02 0.12499936E+03</pdfrwt>
<totfact> 0.64539044E+03</totfact>
</mgrwt>
</event>
<event>
 5    1  0.3296424E-002  0.1249996E+03  0.7818608E-02  0.1235070E+00
          4   -1    0    0  501    0  0.00000000000E+00  0.00000000000E+00  0.12379337537E+02  0.12444311868E+02  0.12700000000E+01 0. -1.
         -4   -1    0    0    0  501 -0.00000000000E+00 -0.00000000000E+00 -0.31465151843E+03  0.31465408141E+03  0.12700000000E+01 0. -1.
         25    2    1    2    0    0  0.00000000000E+00  0.00000000000E+00 -0.30227218089E+03  0.32709839328E+03  0.12499955018E+03 0.  0.
    9000005    1    3    3    0    0 -0.37587733176E+02  0.49909265801E+02 -0.15428646617E+03  0.16646046420E+03  0.10000000000E+01 0.  0.
    9000005    1    3    3    0    0  0.37587733176E+02 -0.49909265801E+02 -0.14798571472E+03  0.16063792908E+03  0.10000000000E+01 0.  0.
<mgrwt>
<rscale>  0 0.12499955E+03</rscale>
<asrwt>0</asrwt>
<pdfrwt beam="1">  1        4 0.19097089E-02 0.12499955E+03</pdfrwt>
<pdfrwt beam="2">  1       -4 0.48413115E-01 0.12499955E+03</pdfrwt>
<totfact> 0.72320468E+03</totfact>
</mgrwt>
</event>
<event>
 5    1  0.3296424E-002  0.1250042E+03  0.7818608E-02  0.1235063E+00
          4   -1    0    0  501    0  0.00000000000E+00  0.00000000000E+00  0.73415771222E+02  0.73426755097E+02  0.12700000000E+01 0. -1.
         -4   -1    0    0    0  501 -0.00000000000E+00 -0.00000000000E+00 -0.53188253971E+02  0.53203413993E+02  0.12700000000E+01 0. -1.
         25    2    1    2    0    0  0.00000000000E+00  0.00000000000E+00  0.20227517251E+02  0.12663016909E+03  0.12500418901E+03 0.  0.
    9000005    1    3    3    0    0 -0.49435008854E+02 -0.37988661624E+02  0.14477140888E+02  0.64012077928E+02  0.10000000000E+01 0.  0.
    9000005    1    3    3    0    0  0.49435008854E+02  0.37988661624E+02  0.57503763627E+01  0.62618091162E+02  0.10000000000E+01 0.  0.
<mgrwt>
<rscale>  0 0.12500419E+03</rscale>
<asrwt>0</asrwt>
<pdfrwt beam="1">  1        4 0.11296745E-01 0.12500419E+03</pdfrwt>
<pdfrwt beam="2">  1       -4 0.81848194E-02 0.12500419E+03</pdfrwt>
<totfact> 0.10416206E+04</totfact>
</mgrwt>
</event>
<event>
 4    1  0.3296424E-002  0.1249168E+03  0.7818608E-02  0.1235199E+00
         -4   -1    0    0    0  501 -0.00000000000E+00  0.00000000000E+00  0.13679175909E+02  0.13738003988E+02  0.12700000000E+01 0.  1.
          4   -1    0    0  501    0  0.00000000000E+00 -0.00000000000E+00 -0.28450952191E+03  0.28451235643E+03  0.12700000000E+01 0.  1.
    9000005    1    1    2    0    0  0.86153992809E+01  0.59888432133E+02 -0.98488379528E+02  0.11559329700E+03  0.10000000000E+01 0.  0.
    9000005    1    1    2    0    0 -0.86153992809E+01 -0.59888432133E+02 -0.17234196648E+03  0.18265706342E+03  0.10000000000E+01 0.  0.
<mgrwt>
<rscale>  0 0.12491678E+03</rscale>
<asrwt>0</asrwt>
<pdfrwt beam="2">  1        4 0.43775435E-01 0.12491678E+03</pdfrwt>
<pdfrwt beam="1">  1       -4 0.21092321E-02 0.12491678E+03</pdfrwt>
<totfact> 0.75959098E+03</totfact>
</mgrwt>
</event>
<event>
 5    1  0.3296424E-002  0.1250009E+03  0.7818608E-02  0.1235068E+00
          4   -1    0    0  501    0  0.00000000000E+00  0.00000000000E+00  0.30839197373E+02  0.30865336457E+02  0.12700000000E+01 0. -1.
         -4   -1    0    0    0  501 -0.00000000000E+00 -0.00000000000E+00 -0.12658399988E+03  0.12659037059E+03  0.12700000000E+01 0. -1.
         25    2    1    2    0    0  0.00000000000E+00  0.00000000000E+00 -0.95744802507E+02  0.15745570705E+03  0.12500092989E+03 0.  0.
    9000005    1    3    3    0    0  0.33676152684E+02 -0.36159994319E+02  0.31884781954E+00  0.49423983173E+02  0.10000000000E+01 0.  0.
    9000005    1    3    3    0    0 -0.33676152684E+02  0.36159994319E+02 -0.96063650327E+02  0.10803172387E+03  0.10000000000E+01 0.  0.
<mgrwt>
<rscale>  0 0.12500093E+03</rscale>
<asrwt>0</asrwt>
<pdfrwt beam="1">  1        4 0.47469927E-02 0.12500093E+03</pdfrwt>
<pdfrwt beam="2">  1       -4 0.19476962E-01 0.12500093E+03</pdfrwt>
<totfact> 0.97833513E+03</totfact>
</mgrwt>
</event>
<event>
 5    1  0.3296424E-002  0.1250009E+03  0.7818608E-02  0.1235068E+00
         -4   -1    0    0    0  501 -0.00000000000E+00  0.00000000000E+00  0.18784249013E+02  0.18827132309E+02  0.12700000000E+01 0. -1.
          4   -1    0    0  501    0  0.00000000000E+00 -0.00000000000E+00 -0.20767469804E+03  0.20767858124E+03  0.12700000000E+01 0. -1.
         25    2    1    2    0    0  0.00000000000E+00  0.00000000000E+00 -0.18889044902E+03  0.22650571355E+03  0.12500094614E+03 0.  0.
    9000005    1    3    3    0    0 -0.16502806936E+02  0.14993126713E+02 -0.20023084911E+03  0.20147091458E+03  0.10000000000E+01 0.  0.
    9000005    1    3    3    0    0  0.16502806936E+02 -0.14993126713E+02  0.11340400085E+02  0.25034798971E+02  0.10000000000E+01 0.  0.
<mgrwt>
<rscale>  0 0.12500095E+03</rscale>
<asrwt>0</asrwt>
<pdfrwt beam="2">  1        4 0.31953549E-01 0.12500095E+03</pdfrwt>
<pdfrwt beam="1">  1       -4 0.28934820E-02 0.12500095E+03</pdfrwt>
<totfact> 0.85847240E+03</totfact>
</mgrwt>
</event>
<event>
 5    1  0.3296424E-002  0.1250018E+03  0.7818608E-02  0.1235066E+00
          4   -1    0    0  501    0  0.00000000000E+00  0.00000000000E+00  0.13032494133E+04  0.13032500321E+04  0.12700000000E+01 0.  1.
         -4   -1    0    0    0  501 -0.00000000000E+00 -0.00000000000E+00 -0.28622309986E+01  0.31313361827E+01  0.12700000000E+01 0.  1.
         25    2    1    2    0    0  0.00000000000E+00  0.00000000000E+00  0.13003871823E+04  0.13063813682E+04  0.12500182199E+03 0.  0.
    9000005    1    3    3    0    0  0.15621997701E+02  0.57871196026E+02  0.46552241753E+03  0.46936685371E+03  0.10000000000E+01 0.  0.
    9000005    1    3    3    0    0 -0.15621997701E+02 -0.57871196026E+02  0.83486476473E+03  0.83701451453E+03  0.10000000000E+01 0.  0.
<mgrwt>
<rscale>  0 0.12500182E+03</rscale>
<asrwt>0</asrwt>
<pdfrwt beam="1">  1        4 0.20052092E+00 0.12500182E+03</pdfrwt>
<pdfrwt beam="2">  1       -4 0.46109063E-03 0.12500182E+03</pdfrwt>
<totfact> 0.22077485E+03</totfact>
</mgrwt>
</event>
<event>
 5    1  0.3296424E-002  0.1249917E+03  0.7818608E-02  0.1235082E+00
         -4   -1    0    0    0  501 -0.00000000000E+00  0.00000000000E+00  0.25632362365E+02  0.25663805260E+02  0.12700000000E+01 0. -1.
          4   -1    0    0  501    0  0.00000000000E+00 -0.00000000000E+00 -0.15224750559E+03  0.15225280246E+03  0.12700000000E+01 0. -1.
         25    2    1    2    0    0  0.00000000000E+00  0.00000000000E+00 -0.12661514322E+03  0.17791660772E+03  0.12499169897E+03 0.  0.
    9000005    1    3    3    0    0 -0.38312401989E+01  0.44676823815E+02 -0.13592951037E+01  0.44872538048E+02  0.10000000000E+01 0.  0.
    9000005    1    3    3    0    0  0.38312401989E+01 -0.44676823815E+02 -0.12525584812E+03  0.13304406967E+03  0.10000000000E+01 0.  0.
<mgrwt>
<rscale>  0 0.12499170E+03</rscale>
<asrwt>0</asrwt>
<pdfrwt beam="2">  1        4 0.23425519E-01 0.12499170E+03</pdfrwt>
<pdfrwt beam="1">  1       -4 0.39462666E-02 0.12499170E+03</pdfrwt>
<totfact> 0.94010871E+03</totfact>
</mgrwt>
</event>
<event>
 5    1  0.3296424E-002  0.1249966E+03  0.7818608E-02  0.1235075E+00
          4   -1    0    0  501    0  0.00000000000E+00  0.00000000000E+00  0.97795676362E+01  0.98616856141E+01  0.12700000000E+01 0.  1.
         -4   -1    0    0    0  501 -0.00000000000E+00 -0.00000000000E+00 -0.39765487420E+03  0.39765690221E+03  0.12700000000E+01 0.  1.
         25    2    1    2    0    0  0.00000000000E+00  0.00000000000E+00 -0.38787530657E+03  0.40751858783E+03  0.12499658387E+03 0.  0.
    9000005    1    3    3    0    0 -0.29071676981E+02  0.45091733488E+02 -0.89477188785E+02  0.10433405074E+03  0.10000000000E+01 0.  0.
    9000005    1    3    3    0    0  0.29071676981E+02 -0.45091733488E+02 -0.29839811778E+03  0.30318453708E+03  0.10000000000E+01 0.  0.
<mgrwt>
<rscale>  0 0.12499658E+03</rscale>
<asrwt>0</asrwt>
<pdfrwt beam="1">  1        4 0.15110219E-02 0.12499658E+03</pdfrwt>
<pdfrwt beam="2">  1       -4 0.61184133E-01 0.12499658E+03</pdfrwt>
<totfact> 0.63832869E+03</totfact>
</mgrwt>
</event>
<event>
 4    1  0.3296424E-002  0.1251653E+03  0.7818608E-02  0.1234811E+00
         -4   -1    0    0    0  501 -0.00000000000E+00  0.00000000000E+00  0.57651661452E+02  0.57665648077E+02  0.12700000000E+01 0.  1.
          4   -1    0    0  501    0  0.00000000000E+00 -0.00000000000E+00 -0.67907187081E+02  0.67919061811E+02  0.12700000000E+01 0.  1.
    9000005    1    1    2    0    0 -0.16138789985E+01 -0.57862299104E+02 -0.28975788170E+02  0.64739837527E+02  0.10000000000E+01 0.  0.
    9000005    1    1    2    0    0  0.16138789985E+01  0.57862299104E+02  0.18720262541E+02  0.60844872361E+02  0.10000000000E+01 0.  0.
<mgrwt>
<rscale>  0 0.12516526E+03</rscale>
<asrwt>0</asrwt>
<pdfrwt beam="2">  1        4 0.10449249E-01 0.12516526E+03</pdfrwt>
<pdfrwt beam="1">  1       -4 0.88714757E-02 0.12516526E+03</pdfrwt>
<totfact> 0.10401264E+04</totfact>
</mgrwt>
</event>
<event>
 5    1  0.3296424E-002  0.1250052E+03  0.7818608E-02  0.1235061E+00
          4   -1    0    0  501    0  0.00000000000E+00  0.00000000000E+00  0.23456705463E+03  0.23457049264E+03  0.12700000000E+01 0.  1.
         -4   -1    0    0    0  501 -0.00000000000E+00 -0.00000000000E+00 -0.16626639863E+02  0.16675072808E+02  0.12700000000E+01 0.  1.
         25    2    1    2    0    0  0.00000000000E+00  0.00000000000E+00  0.21794041477E+03  0.25124556545E+03  0.12500523897E+03 0.  0.
    9000005    1    3    3    0    0  0.23121586564E+02 -0.52320793098E+01 -0.72487635085E+01  0.24809816435E+02  0.10000000000E+01 0.  0.
    9000005    1    3    3    0    0 -0.23121586564E+02  0.52320793098E+01  0.22518917828E+03  0.22643574902E+03  0.10000000000E+01 0.  0.
<mgrwt>
<rscale>  0 0.12500524E+03</rscale>
<asrwt>0</asrwt>
<pdfrwt beam="1">  1        4 0.36091229E-01 0.12500524E+03</pdfrwt>
<pdfrwt beam="2">  1       -4 0.25619347E-02 0.12500524E+03</pdfrwt>
<totfact> 0.82140951E+03</totfact>
</mgrwt>
</event>
<event>
 5    1  0.3296424E-002  0.1250017E+03  0.7818608E-02  0.1235067E+00
         -4   -1    0    0    0  501 -0.00000000000E+00  0.00000000000E+00  0.36089906688E+03  0.36090130143E+03  0.12700000000E+01 0.  1.
          4   -1    0    0  501    0  0.00000000000E+00 -0.00000000000E+00 -0.10784422006E+02  0.10858943688E+02  0.12700000000E+01 0.  1.
         25    2    1    2    0    0  0.00000000000E+00  0.00000000000E+00  0.35011464487E+03  0.37176024512E+03  0.12500166117E+03 0.  0.
    9000005    1    3    3    0    0  0.57734588174E+02 -0.23627166288E+02  0.18611666849E+03  0.19629554235E+03  0.10000000000E+01 0.  0.
    9000005    1    3    3    0    0 -0.57734588174E+02  0.23627166288E+02  0.16399797639E+03  0.17546470277E+03  0.10000000000E+01 0.  0.
<mgrwt>
<rscale>  0 0.12500166E+03</rscale>
<asrwt>0</asrwt>
<pdfrwt beam="2">  1        4 0.16650464E-02 0.12500166E+03</pdfrwt>
<pdfrwt beam="1">  1       -4 0.55528831E-01 0.12500166E+03</pdfrwt>
<totfact> 0.67392712E+03</totfact>
</mgrwt>
</event>
<event>
 5    1  0.3296424E-002  0.1250150E+03  0.7818608E-02  0.1235046E+00
         -4   -1    0    0    0  501 -0.00000000000E+00  0.00000000000E+00  0.60657890568E+03  0.60658023518E+03  0.12700000000E+01 0. -1.
          4   -1    0    0  501    0  0.00000000000E+00 -0.00000000000E+00 -0.63774022942E+01  0.65026271631E+01  0.12700000000E+01 0. -1.
         25    2    1    2    0    0  0.00000000000E+00  0.00000000000E+00  0.60020150338E+03  0.61308286235E+03  0.12501500485E+03 0.  0.
    9000005    1    3    3    0    0 -0.52582896317E+02  0.16950497937E+02  0.15679538763E+03  0.16624702688E+03  0.10000000000E+01 0.  0.
    9000005    1    3    3    0    0  0.52582896317E+02 -0.16950497937E+02  0.44340611575E+03  0.44683583546E+03  0.10000000000E+01 0.  0.
<mgrwt>
<rscale>  0 0.12501500E+03</rscale>
<asrwt>0</asrwt>
<pdfrwt beam="2">  1        4 0.99087354E-03 0.12501500E+03</pdfrwt>
<pdfrwt beam="1">  1       -4 0.93329587E-01 0.12501500E+03</pdfrwt>
<totfact> 0.48036250E+03</totfact>
</mgrwt>
</event>
<event>
 5    1  0.3296424E-002  0.1249965E+03  0.7818608E-02  0.1235075E+00
          4   -1    0    0  501    0  0.00000000000E+00  0.00000000000E+00  0.51643297838E+02  0.51658911250E+02  0.12700000000E+01 0.  1.
         -4   -1    0    0    0  501 -0.00000000000E+00 -0.00000000000E+00 -0.75602485384E+02  0.75613151609E+02  0.12700000000E+01 0.  1.
         25    2    1    2    0    0  0.00000000000E+00  0.00000000000E+00 -0.23959187546E+02  0.12727206286E+03  0.12499654122E+03 0.  0.
    9000005    1    3    3    0    0 -0.24271526320E+02 -0.24278033598E+02  0.41186915995E+02  0.53627343347E+02  0.10000000000E+01 0.  0.
    9000005    1    3    3    0    0  0.24271526320E+02  0.24278033598E+02 -0.65146103542E+02  0.73644719512E+02  0.10000000000E+01 0.  0.
<mgrwt>
<rscale>  0 0.12499654E+03</rscale>
<asrwt>0</asrwt>
<pdfrwt beam="1">  1        4 0.79471442E-02 0.12499654E+03</pdfrwt>
<pdfrwt beam="2">  1       -4 0.11633173E-01 0.12499654E+03</pdfrwt>
<totfact> 0.10404053E+04</totfact>
</mgrwt>
</event>
<event>
 5    1  0.3296424E-002  0.1250019E+03  0.7818608E-02  0.1235066E+00
          4   -1    0    0  501    0  0.00000000000E+00  0.00000000000E+00  0.17809068197E+02  0.17854293882E+02  0.12700000000E+01 0.  1.
         -4   -1    0    0    0  501 -0.00000000000E+00 -0.00000000000E+00 -0.21902192526E+03  0.21902560728E+03  0.12700000000E+01 0.  1.
         25    2    1    2    0    0  0.00000000000E+00  0.00000000000E+00 -0.20121285706E+03  0.23687990116E+03  0.12500189489E+03 0.  0.
    9000005    1    3    3    0    0  0.56155476154E+02  0.26835641426E+02 -0.89923664473E+02  0.10936569199E+03  0.10000000000E+01 0.  0.
    9000005    1    3    3    0    0 -0.56155476154E+02 -0.26835641426E+02 -0.11128919259E+03  0.12751420917E+03  0.10000000000E+01 0.  0.
<mgrwt>
<rscale>  0 0.12500189E+03</rscale>
<asrwt>0</asrwt>
<pdfrwt beam="1">  1        4 0.27436189E-02 0.12500189E+03</pdfrwt>
<pdfrwt beam="2">  1       -4 0.33699441E-01 0.12500189E+03</pdfrwt>
<totfact> 0.84260696E+03</totfact>
</mgrwt>
</event>
<event>
 5    1  0.3296424E-002  0.1249996E+03  0.7818608E-02  0.1235070E+00
         -4   -1    0    0    0  501 -0.00000000000E+00  0.00000000000E+00  0.58225346596E+02  0.58239195446E+02  0.12700000000E+01 0. -1.
          4   -1    0    0  501    0  0.00000000000E+00 -0.00000000000E+00 -0.67060209075E+02  0.67072233757E+02  0.12700000000E+01 0. -1.
         25    2    1    2    0    0  0.00000000000E+00  0.00000000000E+00 -0.88348624794E+01  0.12531142920E+03  0.12499959797E+03 0.  0.
    9000005    1    3    3    0    0 -0.17181137684E+02  0.28207041251E+02  0.48765795733E+02  0.58906124484E+02  0.10000000000E+01 0.  0.
    9000005    1    3    3    0    0  0.17181137684E+02 -0.28207041251E+02 -0.57600658213E+02  0.66405304719E+02  0.10000000000E+01 0.  0.
<mgrwt>
<rscale>  0 0.12499960E+03</rscale>
<asrwt>0</asrwt>
<pdfrwt beam="2">  1        4 0.10318945E-01 0.12499960E+03</pdfrwt>
<pdfrwt beam="1">  1       -4 0.89597359E-02 0.12499960E+03</pdfrwt>
<totfact> 0.10446197E+04</totfact>
</mgrwt>
</event>
<event>
 5    1  0.3296424E-002  0.1250397E+03  0.7818608E-02  0.1235007E+00
          4   -1    0    0  501    0  0.00000000000E+00  0.00000000000E+00  0.12433696783E+03  0.12434345367E+03  0.12700000000E+01 0.  1.
         -4   -1    0    0    0  501 -0.00000000000E+00 -0.00000000000E+00 -0.31416470509E+02  0.31442129687E+02  0.12700000000E+01 0.  1.
         25    2    1    2    0    0  0.00000000000E+00  0.00000000000E+00  0.92920497324E+02  0.15578558335E+03  0.12503971032E+03 0.  0.
    9000005    1    3    3    0    0  0.56928728467E+02 -0.17961298544E+02  0.23344261490E+02  0.64104936742E+02  0.10000000000E+01 0.  0.
    9000005    1    3    3    0    0 -0.56928728467E+02  0.17961298544E+02  0.69576235834E+02  0.91680646612E+02  0.10000000000E+01 0.  0.
<mgrwt>
<rscale>  0 0.12503971E+03</rscale>
<asrwt>0</asrwt>
<pdfrwt beam="1">  1        4 0.19131237E-01 0.12503971E+03</pdfrwt>
<pdfrwt beam="2">  1       -4 0.48357759E-02 0.12503971E+03</pdfrwt>
<totfact> 0.98073893E+03</totfact>
</mgrwt>
</event>
<event>
 5    1  0.3296424E-002  0.1250004E+03  0.7818608E-02  0.1235069E+00
         -4   -1    0    0    0  501 -0.00000000000E+00  0.00000000000E+00  0.11445315372E+02  0.11515560949E+02  0.12700000000E+01 0. -1.
          4   -1    0    0  501    0  0.00000000000E+00 -0.00000000000E+00 -0.34018351214E+03  0.34018588277E+03  0.12700000000E+01 0. -1.
         25    2    1    2    0    0  0.00000000000E+00  0.00000000000E+00 -0.32873819677E+03  0.35170144371E+03  0.12500041398E+03 0.  0.
    9000005    1    3    3    0    0 -0.61713224191E+02 -0.77114197337E+01 -0.14718818254E+03  0.15979158023E+03  0.10000000000E+01 0.  0.
    9000005    1    3    3    0    0  0.61713224191E+02  0.77114197337E+01 -0.18155001423E+03  0.19190986348E+03  0.10000000000E+01 0.  0.
<mgrwt>
<rscale>  0 0.12500041E+03</rscale>
<asrwt>0</asrwt>
<pdfrwt beam="2">  1        4 0.52341503E-01 0.12500041E+03</pdfrwt>
<pdfrwt beam="1">  1       -4 0.17664039E-02 0.12500041E+03</pdfrwt>
<totfact> 0.69537147E+03</totfact>
</mgrwt>
</event>
<event>
 5    1  0.3296424E-002  0.1250053E+03  0.7818608E-02  0.1235061E+00
         -4   -1    0    0    0  501 -0.00000000000E+00  0.00000000000E+00  0.14986621348E+03  0.14987159451E+03  0.12700000000E+01 0.  1.
          4   -1    0    0  501    0  0.00000000000E+00 -0.00000000000E+00 -0.26045786122E+02  0.26076730522E+02  0.12700000000E+01 0.  1.
         25    2    1    2    0    0  0.00000000000E+00  0.00000000000E+00  0.12382042735E+03  0.17594832503E+03  0.12500525930E+03 0.  0.
    9000005    1    3    3    0    0  0.33112227896E+02 -0.15505566239E+02  0.13324750733E+03  0.13817648291E+03  0.10000000000E+01 0.  0.
    9000005    1    3    3    0    0 -0.33112227896E+02  0.15505566239E+02 -0.94270799732E+01  0.37771842124E+02  0.10000000000E+01 0.  0.
<mgrwt>
<rscale>  0 0.12500526E+03</rscale>
<asrwt>0</asrwt>
<pdfrwt beam="2">  1        4 0.40098382E-02 0.12500526E+03</pdfrwt>
<pdfrwt beam="1">  1       -4 0.23059135E-01 0.12500526E+03</pdfrwt>
<totfact> 0.94340313E+03</totfact>
</mgrwt>
</event>
<event>
 5    1  0.3296424E-002  0.1250229E+03  0.7818608E-02  0.1235034E+00
          4   -1    0    0  501    0  0.00000000000E+00  0.00000000000E+00  0.85213142252E+01  0.86154336005E+01  0.12700000000E+01 0. -1.
         -4   -1    0    0    0  501 -0.00000000000E+00 -0.00000000000E+00 -0.45596349143E+03  0.45596526010E+03  0.12700000000E+01 0. -1.
         25    2    1    2    0    0  0.00000000000E+00  0.00000000000E+00 -0.44744217721E+03  0.46458069370E+03  0.12502287397E+03 0.  0.
    9000005    1    3    3    0    0  0.11180722568E+02 -0.48648510372E+02 -0.36350233971E+03  0.36691502708E+03  0.10000000000E+01 0.  0.
    9000005    1    3    3    0    0 -0.11180722568E+02  0.48648510372E+02 -0.83939837494E+02  0.97665666624E+02  0.10000000000E+01 0.  0.
<mgrwt>
<rscale>  0 0.12502287E+03</rscale>
<asrwt>0</asrwt>
<pdfrwt beam="1">  1        4 0.13183478E-02 0.12502287E+03</pdfrwt>
<pdfrwt beam="2">  1       -4 0.70155586E-01 0.12502287E+03</pdfrwt>
<totfact> 0.58691606E+03</totfact>
</mgrwt>
</event>
<event>
 5    1  0.3296424E-002  0.1250008E+03  0.7818608E-02  0.1235068E+00
         -4   -1    0    0    0  501 -0.00000000000E+00  0.00000000000E+00  0.33880901365E+01  0.36182944564E+01  0.12700000000E+01 0. -1.
          4   -1    0    0  501    0  0.00000000000E+00 -0.00000000000E+00 -0.11148386666E+04  0.11148393900E+04  0.12700000000E+01 0. -1.
         25    2    1    2    0    0  0.00000000000E+00  0.00000000000E+00 -0.11114505764E+04  0.11184576844E+04  0.12500083179E+03 0.  0.
    9000005    1    3    3    0    0 -0.61857705906E+01  0.43498845825E+02 -0.15809637084E+03  0.16409105954E+03  0.10000000000E+01 0.  0.
    9000005    1    3    3    0    0  0.61857705906E+01 -0.43498845825E+02 -0.95335420561E+03  0.95436662488E+03  0.10000000000E+01 0.  0.
<mgrwt>
<rscale>  0 0.12500083E+03</rscale>
<asrwt>0</asrwt>
<pdfrwt beam="2">  1        4 0.17153112E+00 0.12500083E+03</pdfrwt>
<pdfrwt beam="1">  1       -4 0.53900920E-03 0.12500083E+03</pdfrwt>
<totfact> 0.26948940E+03</totfact>
</mgrwt>
</event>
<event>
 5    1  0.3296424E-002  0.1250002E+03  0.7818608E-02  0.1235069E+00
         -4   -1    0    0    0  501 -0.00000000000E+00  0.00000000000E+00  0.31372663654E+02  0.31398358631E+02  0.12700000000E+01 0. -1.
          4   -1    0    0  501    0  0.00000000000E+00 -0.00000000000E+00 -0.12443183734E+03  0.12443831823E+03  0.12700000000E+01 0. -1.
         25    2    1    2    0    0  0.00000000000E+00  0.00000000000E+00 -0.93059173685E+02  0.15583667686E+03  0.12500024019E+03 0.  0.
    9000005    1    3    3    0    0 -0.17725172206E+02 -0.58778749976E+02 -0.61075956789E+02  0.86604824786E+02  0.10000000000E+01 0.  0.
    9000005    1    3    3    0    0  0.17725172206E+02  0.58778749976E+02 -0.31983216896E+02  0.69231852073E+02  0.10000000000E+01 0.  0.
<mgrwt>
<rscale>  0 0.12500024E+03</rscale>
<asrwt>0</asrwt>
<pdfrwt beam="2">  1        4 0.19145834E-01 0.12500024E+03</pdfrwt>
<pdfrwt beam="1">  1       -4 0.48290388E-02 0.12500024E+03</pdfrwt>
<totfact> 0.98150969E+03</totfact>
</mgrwt>
</event>
<event>
 5    1  0.3296424E-002  0.1250021E+03  0.7818608E-02  0.1235066E+00
         -4   -1    0    0    0  501 -0.00000000000E+00  0.00000000000E+00  0.22221548322E+01  0.25594671513E+01  0.12700000000E+01 0. -1.
          4   -1    0    0  501    0  0.00000000000E+00 -0.00000000000E+00 -0.16335760773E+04  0.16335765710E+04  0.12700000000E+01 0. -1.
         25    2    1    2    0    0  0.00000000000E+00  0.00000000000E+00 -0.16313539225E+04  0.16361360382E+04  0.12500205956E+03 0.  0.
    9000005    1    3    3    0    0  0.86382560052E+01 -0.54958239675E+02 -0.11882735445E+04  0.11895755731E+04  0.10000000000E+01 0.  0.
    9000005    1    3    3    0    0 -0.86382560052E+01  0.54958239675E+02 -0.44308037801E+03  0.44656046506E+03  0.10000000000E+01 0.  0.
<mgrwt>
<rscale>  0 0.12500206E+03</rscale>
<asrwt>0</asrwt>
<pdfrwt beam="2">  1        4 0.25134449E+00 0.12500206E+03</pdfrwt>
<pdfrwt beam="1">  1       -4 0.36785635E-03 0.12500206E+03</pdfrwt>
<totfact> 0.15401157E+03</totfact>
</mgrwt>
</event>
<event>
 5    1  0.3296424E-002  0.1249977E+03  0.7818608E-02  0.1235073E+00
         -4   -1    0    0    0  501 -0.00000000000E+00  0.00000000000E+00  0.66878800689E+01  0.68073959644E+01  0.12700000000E+01 0.  1.
          4   -1    0    0  501    0  0.00000000000E+00 -0.00000000000E+00 -0.57876507991E+03  0.57876647331E+03  0.12700000000E+01 0.  1.
         25    2    1    2    0    0  0.00000000000E+00  0.00000000000E+00 -0.57207719984E+03  0.58557386927E+03  0.12499773516E+03 0.  0.
    9000005    1    3    3    0    0 -0.48302743040E+02  0.36237977140E+02 -0.36139674391E+03  0.36640817742E+03  0.10000000000E+01 0.  0.
    9000005    1    3    3    0    0  0.48302743040E+02 -0.36237977140E+02 -0.21068045593E+03  0.21916569185E+03  0.10000000000E+01 0.  0.
<mgrwt>
<rscale>  0 0.12499774E+03</rscale>
<asrwt>0</asrwt>
<pdfrwt beam="2">  1        4 0.89050043E-01 0.12499774E+03</pdfrwt>
<pdfrwt beam="1">  1       -4 0.10382058E-02 0.12499774E+03</pdfrwt>
<totfact> 0.49793567E+03</totfact>
</mgrwt>
</event>
<event>
 5    1  0.3296424E-002  0.1250008E+03  0.7818608E-02  0.1235068E+00
         -4   -1    0    0    0  501 -0.00000000000E+00  0.00000000000E+00  0.12951261051E+02  0.13013380146E+02  0.12700000000E+01 0.  1.
          4   -1    0    0  501    0  0.00000000000E+00 -0.00000000000E+00 -0.30083027257E+03  0.30083295330E+03  0.12700000000E+01 0.  1.
         25    2    1    2    0    0  0.00000000000E+00  0.00000000000E+00 -0.28787901152E+03  0.31384633345E+03  0.12500078299E+03 0.  0.
    9000005    1    3    3    0    0 -0.35997040095E+02 -0.15878548874E+02 -0.26584392971E+03  0.26874134436E+03  0.10000000000E+01 0.  0.
    9000005    1    3    3    0    0  0.35997040095E+02  0.15878548874E+02 -0.22035081812E+02  0.45104989086E+02  0.10000000000E+01 0.  0.
<mgrwt>
<rscale>  0 0.12500078E+03</rscale>
<asrwt>0</asrwt>
<pdfrwt beam="2">  1        4 0.46286560E-01 0.12500078E+03</pdfrwt>
<pdfrwt beam="1">  1       -4 0.19974865E-02 0.12500078E+03</pdfrwt>
<totfact> 0.73892769E+03</totfact>
</mgrwt>
</event>
<event>
 5    1  0.3296424E-002  0.1249995E+03  0.7818608E-02  0.1235070E+00
          4   -1    0    0  501    0  0.00000000000E+00  0.00000000000E+00  0.15143125663E+03  0.15143658206E+03  0.12700000000E+01 0.  1.
         -4   -1    0    0    0  501 -0.00000000000E+00 -0.00000000000E+00 -0.25773915548E+02  0.25805185964E+02  0.12700000000E+01 0.  1.
         25    2    1    2    0    0  0.00000000000E+00  0.00000000000E+00  0.12565734108E+03  0.17724176802E+03  0.12499950785E+03 0.  0.
    9000005    1    3    3    0    0 -0.49960654617E+02 -0.18078471272E+02  0.16180369133E+02  0.55549099710E+02  0.10000000000E+01 0.  0.
    9000005    1    3    3    0    0  0.49960654617E+02  0.18078471272E+02  0.10947697195E+03  0.12169266831E+03  0.10000000000E+01 0.  0.
<mgrwt>
<rscale>  0 0.12499951E+03</rscale>
<asrwt>0</asrwt>
<pdfrwt beam="1">  1        4 0.23299931E-01 0.12499951E+03</pdfrwt>
<pdfrwt beam="2">  1       -4 0.39680330E-02 0.12499951E+03</pdfrwt>
<totfact> 0.94116903E+03</totfact>
</mgrwt>
</event>
<event>
 5    1  0.3296424E-002  0.1249973E+03  0.7818608E-02  0.1235074E+00
          4   -1    0    0  501    0  0.00000000000E+00  0.00000000000E+00  0.11946879403E+02  0.12014192752E+02  0.12700000000E+01 0. -1.
         -4   -1    0    0    0  501 -0.00000000000E+00 -0.00000000000E+00 -0.32596693587E+03  0.32596940989E+03  0.12700000000E+01 0. -1.
         25    2    1    2    0    0  0.00000000000E+00  0.00000000000E+00 -0.31402005647E+03  0.33798360264E+03  0.12499727912E+03 0.  0.
    9000005    1    3    3    0    0 -0.58611505578E+02 -0.22263009167E+01 -0.21530553916E+03  0.22315407277E+03  0.10000000000E+01 0.  0.
    9000005    1    3    3    0    0  0.58611505578E+02  0.22263009167E+01 -0.98714517312E+02  0.11482952987E+03  0.10000000000E+01 0.  0.
<mgrwt>
<rscale>  0 0.12499728E+03</rscale>
<asrwt>0</asrwt>
<pdfrwt beam="1">  1        4 0.18433500E-02 0.12499728E+03</pdfrwt>
<pdfrwt beam="2">  1       -4 0.50154121E-01 0.12499728E+03</pdfrwt>
<totfact> 0.71071341E+03</totfact>
</mgrwt>
</event>
<event>
 5    1  0.3296424E-002  0.1250091E+03  0.7818608E-02  0.1235055E+00
          4   -1    0    0  501    0  0.00000000000E+00  0.00000000000E+00  0.29632960952E+03  0.29633233097E+03  0.12700000000E+01 0. -1.
         -4   -1    0    0    0  501 -0.00000000000E+00 -0.00000000000E+00 -0.13150653800E+02  0.13211835428E+02  0.12700000000E+01 0. -1.
         25    2    1    2    0    0  0.00000000000E+00  0.00000000000E+00  0.28317895572E+03  0.30954416640E+03  0.12500907962E+03 0.  0.
    9000005    1    3    3    0    0 -0.36857621070E+02  0.46041712485E+02  0.90392294748E+02  0.10793558481E+03  0.10000000000E+01 0.  0.
    9000005    1    3    3    0    0  0.36857621070E+02 -0.46041712485E+02  0.19278666097E+03  0.20160858158E+03  0.10000000000E+01 0.  0.
<mgrwt>
<rscale>  0 0.12500908E+03</rscale>
<asrwt>0</asrwt>
<pdfrwt beam="1">  1        4 0.45594085E-01 0.12500908E+03</pdfrwt>
<pdfrwt beam="2">  1       -4 0.20280932E-02 0.12500908E+03</pdfrwt>
<totfact> 0.74402033E+03</totfact>
</mgrwt>
</event>
<event>
 5    1  0.3296424E-002  0.1250289E+03  0.7818608E-02  0.1235024E+00
          4   -1    0    0  501    0  0.00000000000E+00  0.00000000000E+00  0.65843789904E+01  0.67057398316E+01  0.12700000000E+01 0. -1.
         -4   -1    0    0    0  501 -0.00000000000E+00 -0.00000000000E+00 -0.58799241311E+03  0.58799378464E+03  0.12700000000E+01 0. -1.
         25    2    1    2    0    0  0.00000000000E+00  0.00000000000E+00 -0.58140803412E+03  0.59469952447E+03  0.12502888573E+03 0.  0.
    9000005    1    3    3    0    0 -0.60311337429E+02 -0.48303858901E+01 -0.36534700786E+03  0.37032448771E+03  0.10000000000E+01 0.  0.
    9000005    1    3    3    0    0  0.60311337429E+02  0.48303858901E+01 -0.21606102626E+03  0.22437503676E+03  0.10000000000E+01 0.  0.
<mgrwt>
<rscale>  0 0.12502889E+03</rscale>
<asrwt>0</asrwt>
<pdfrwt beam="1">  1        4 0.10224228E-02 0.12502889E+03</pdfrwt>
<pdfrwt beam="2">  1       -4 0.90469771E-01 0.12502889E+03</pdfrwt>
<totfact> 0.49172771E+03</totfact>
</mgrwt>
</event>
<event>
 5    1  0.3296424E-002  0.1250038E+03  0.7818608E-02  0.1235063E+00
          4   -1    0    0  501    0  0.00000000000E+00  0.00000000000E+00  0.26427066857E+03  0.26427372016E+03  0.12700000000E+01 0.  1.
         -4   -1    0    0    0  501 -0.00000000000E+00 -0.00000000000E+00 -0.14751719526E+02  0.14806286806E+02  0.12700000000E+01 0.  1.
         25    2    1    2    0    0  0.00000000000E+00  0.00000000000E+00  0.24951894905E+03  0.27908000697E+03  0.12500377737E+03 0.  0.
    9000005    1    3    3    0    0 -0.61331522563E+01  0.36628454960E+02  0.23697210913E+03  0.23986671252E+03  0.10000000000E+01 0.  0.
    9000005    1    3    3    0    0  0.61331522563E+01 -0.36628454960E+02  0.12546839913E+02  0.39213294444E+02  0.10000000000E+01 0.  0.
<mgrwt>
<rscale>  0 0.12500378E+03</rscale>
<asrwt>0</asrwt>
<pdfrwt beam="1">  1        4 0.40661453E-01 0.12500378E+03</pdfrwt>
<pdfrwt beam="2">  1       -4 0.22739278E-02 0.12500378E+03</pdfrwt>
<totfact> 0.78293677E+03</totfact>
</mgrwt>
</event>
<event>
 5    1  0.3296424E-002  0.1249877E+03  0.7818608E-02  0.1235088E+00
         -4   -1    0    0    0  501 -0.00000000000E+00  0.00000000000E+00  0.12789746540E+02  0.12852646286E+02  0.12700000000E+01 0.  1.
          4   -1    0    0  501    0  0.00000000000E+00 -0.00000000000E+00 -0.30454730463E+03  0.30454995265E+03  0.12700000000E+01 0.  1.
         25    2    1    2    0    0  0.00000000000E+00  0.00000000000E+00 -0.29175755809E+03  0.31740259894E+03  0.12498774783E+03 0.  0.
    9000005    1    3    3    0    0 -0.41456359268E+02 -0.46425644007E+02 -0.15990670753E+03  0.17159581947E+03  0.10000000000E+01 0.  0.
    9000005    1    3    3    0    0  0.41456359268E+02  0.46425644007E+02 -0.13185085056E+03  0.14580677947E+03  0.10000000000E+01 0.  0.
<mgrwt>
<rscale>  0 0.12498775E+03</rscale>
<asrwt>0</asrwt>
<pdfrwt beam="2">  1        4 0.46858468E-01 0.12498775E+03</pdfrwt>
<pdfrwt beam="1">  1       -4 0.19726957E-02 0.12498775E+03</pdfrwt>
<totfact> 0.73486082E+03</totfact>
</mgrwt>
</event>
<event>
 5    1  0.3296424E-002  0.1250016E+03  0.7818608E-02  0.1235067E+00
          4   -1    0    0  501    0  0.00000000000E+00  0.00000000000E+00  0.33728507316E+03  0.33728746415E+03  0.12700000000E+01 0. -1.
         -4   -1    0    0    0  501 -0.00000000000E+00 -0.00000000000E+00 -0.11544492088E+02  0.11614137831E+02  0.12700000000E+01 0. -1.
         25    2    1    2    0    0  0.00000000000E+00  0.00000000000E+00  0.32574058107E+03  0.34890160198E+03  0.12500160684E+03 0.  0.
    9000005    1    3    3    0    0  0.11634262583E+02  0.36516924304E+02  0.25094997860E+02  0.45821400503E+02  0.10000000000E+01 0.  0.
    9000005    1    3    3    0    0 -0.11634262583E+02 -0.36516924304E+02  0.30064558321E+03  0.30308020148E+03  0.10000000000E+01 0.  0.
<mgrwt>
<rscale>  0 0.12500161E+03</rscale>
<asrwt>0</asrwt>
<pdfrwt beam="1">  1        4 0.51895549E-01 0.12500161E+03</pdfrwt>
<pdfrwt beam="2">  1       -4 0.17816171E-02 0.12500161E+03</pdfrwt>
<totfact> 0.69843079E+03</totfact>
</mgrwt>
</event>
<event>
 5    1  0.3296424E-002  0.1250015E+03  0.7818608E-02  0.1235067E+00
         -4   -1    0    0    0  501 -0.00000000000E+00  0.00000000000E+00  0.58059130121E+03  0.58059269022E+03  0.12700000000E+01 0.  1.
          4   -1    0    0  501    0  0.00000000000E+00 -0.00000000000E+00 -0.66668796188E+01  0.67867653452E+01  0.12700000000E+01 0.  1.
         25    2    1    2    0    0  0.00000000000E+00  0.00000000000E+00  0.57392442159E+03  0.58737945556E+03  0.12500153249E+03 0.  0.
    9000005    1    3    3    0    0 -0.56967569977E+02 -0.25664134199E+02  0.28141429551E+03  0.28826889796E+03  0.10000000000E+01 0.  0.
    9000005    1    3    3    0    0  0.56967569977E+02  0.25664134199E+02  0.29251012608E+03  0.29911055760E+03  0.10000000000E+01 0.  0.
<mgrwt>
<rscale>  0 0.12500153E+03</rscale>
<asrwt>0</asrwt>
<pdfrwt beam="2">  1        4 0.10350022E-02 0.12500153E+03</pdfrwt>
<pdfrwt beam="1">  1       -4 0.89331100E-01 0.12500153E+03</pdfrwt>
<totfact> 0.49672387E+03</totfact>
</mgrwt>
</event>
<event>
 5    1  0.3296424E-002  0.1249988E+03  0.7818608E-02  0.1235071E+00
         -4   -1    0    0    0  501 -0.00000000000E+00  0.00000000000E+00  0.95414363901E+02  0.95422815609E+02  0.12700000000E+01 0. -1.
          4   -1    0    0  501    0  0.00000000000E+00 -0.00000000000E+00 -0.40918945453E+02  0.40938649184E+02  0.12700000000E+01 0. -1.
         25    2    1    2    0    0  0.00000000000E+00  0.00000000000E+00  0.54495418448E+02  0.13636146479E+03  0.12499879379E+03 0.  0.
    9000005    1    3    3    0    0 -0.14361857986E+01  0.60242572329E+02  0.45303524291E+02  0.75396548089E+02  0.10000000000E+01 0.  0.
    9000005    1    3    3    0    0  0.14361857986E+01 -0.60242572329E+02  0.91918941570E+01  0.60964916704E+02  0.10000000000E+01 0.  0.
<mgrwt>
<rscale>  0 0.12499879E+03</rscale>
<asrwt>0</asrwt>
<pdfrwt beam="2">  1        4 0.62973883E-02 0.12499879E+03</pdfrwt>
<pdfrwt beam="1">  1       -4 0.14681298E-01 0.12499879E+03</pdfrwt>
<totfact> 0.10209731E+04</totfact>
</mgrwt>
</event>
<event>
 5    1  0.3296424E-002  0.1250018E+03  0.7818608E-02  0.1235066E+00
         -4   -1    0    0    0  501 -0.00000000000E+00  0.00000000000E+00  0.96437891383E+02  0.96446253398E+02  0.12700000000E+01 0. -1.
          4   -1    0    0  501    0  0.00000000000E+00 -0.00000000000E+00 -0.40486433873E+02  0.40506347993E+02  0.12700000000E+01 0. -1.
         25    2    1    2    0    0  0.00000000000E+00  0.00000000000E+00  0.55951457510E+02  0.13695260139E+03  0.12500179771E+03 0.  0.
    9000005    1    3    3    0    0 -0.37075858216E+02 -0.49400618012E+02  0.17563327773E+02  0.64222354401E+02  0.10000000000E+01 0.  0.
    9000005    1    3    3    0    0  0.37075858216E+02  0.49400618012E+02  0.38388129738E+02  0.72730246989E+02  0.10000000000E+01 0.  0.
<mgrwt>
<rscale>  0 0.12500180E+03</rscale>
<asrwt>0</asrwt>
<pdfrwt beam="2">  1        4 0.62308573E-02 0.12500180E+03</pdfrwt>
<pdfrwt beam="1">  1       -4 0.14838774E-01 0.12500180E+03</pdfrwt>
<totfact> 0.10196664E+04</totfact>
</mgrwt>
</event>
<event>
 5    1  0.3296424E-002  0.1250007E+03  0.7818608E-02  0.1235068E+00
         -4   -1    0    0    0  501 -0.00000000000E+00  0.00000000000E+00  0.17000888651E+04  0.17000893395E+04  0.12700000000E+01 0. -1.
          4   -1    0    0  501    0  0.00000000000E+00 -0.00000000000E+00 -0.21216969918E+01  0.24727511247E+01  0.12700000000E+01 0. -1.
         25    2    1    2    0    0  0.00000000000E+00  0.00000000000E+00  0.16979671681E+04  0.17025620906E+04  0.12500067326E+03 0.  0.
    9000005    1    3    3    0    0 -0.45002222887E+02  0.22394788902E+02  0.13546967973E+04  0.13556294255E+04  0.10000000000E+01 0.  0.
    9000005    1    3    3    0    0  0.45002222887E+02 -0.22394788902E+02  0.34327037086E+03  0.34693266514E+03  0.10000000000E+01 0.  0.
<mgrwt>
<rscale>  0 0.12500067E+03</rscale>
<asrwt>0</asrwt>
<pdfrwt beam="2">  1        4 0.35345462E-03 0.12500067E+03</pdfrwt>
<pdfrwt beam="1">  1       -4 0.26157988E+00 0.12500067E+03</pdfrwt>
<totfact> 0.14264928E+03</totfact>
</mgrwt>
</event>
<event>
 5    1  0.3296424E-002  0.1249997E+03  0.7818608E-02  0.1235070E+00
          4   -1    0    0  501    0  0.00000000000E+00  0.00000000000E+00  0.15526116103E+03  0.15526635510E+03  0.12700000000E+01 0. -1.
         -4   -1    0    0    0  501 -0.00000000000E+00 -0.00000000000E+00 -0.25137462405E+02  0.25169523559E+02  0.12700000000E+01 0. -1.
         25    2    1    2    0    0  0.00000000000E+00  0.00000000000E+00  0.13012369863E+03  0.18043587865E+03  0.12499971745E+03 0.  0.
    9000005    1    3    3    0    0  0.54024278612E+02 -0.30841141838E+02  0.56469306663E+02  0.84021314584E+02  0.10000000000E+01 0.  0.
    9000005    1    3    3    0    0 -0.54024278612E+02  0.30841141838E+02  0.73654391964E+02  0.96414564071E+02  0.10000000000E+01 0.  0.
<mgrwt>
<rscale>  0 0.12499972E+03</rscale>
<asrwt>0</asrwt>
<pdfrwt beam="1">  1        4 0.23889198E-01 0.12499972E+03</pdfrwt>
<pdfrwt beam="2">  1       -4 0.38701678E-02 0.12499972E+03</pdfrwt>
<totfact> 0.93539195E+03</totfact>
</mgrwt>
</event>
<event>
 5    1  0.3296424E-002  0.1249913E+03  0.7818608E-02  0.1235083E+00
         -4   -1    0    0    0  501 -0.00000000000E+00  0.00000000000E+00  0.24791622896E+03  0.24791948186E+03  0.12700000000E+01 0.  1.
          4   -1    0    0  501    0  0.00000000000E+00 -0.00000000000E+00 -0.15725169515E+02  0.15776370187E+02  0.12700000000E+01 0.  1.
         25    2    1    2    0    0  0.00000000000E+00  0.00000000000E+00  0.23219105945E+03  0.26369585204E+03  0.12499125688E+03 0.  0.
    9000005    1    3    3    0    0 -0.51695485614E+02 -0.27103974252E+02  0.16315941910E+03  0.17328890529E+03  0.10000000000E+01 0.  0.
    9000005    1    3    3    0    0  0.51695485614E+02  0.27103974252E+02  0.69031640344E+02  0.90406946756E+02  0.10000000000E+01 0.  0.
<mgrwt>
<rscale>  0 0.12499126E+03</rscale>
<asrwt>0</asrwt>
<pdfrwt beam="2">  1        4 0.24234457E-02 0.12499126E+03</pdfrwt>
<pdfrwt beam="1">  1       -4 0.38145146E-01 0.12499126E+03</pdfrwt>
<totfact> 0.80405825E+03</totfact>
</mgrwt>
</event>
<event>
 5    1  0.3296424E-002  0.1250012E+03  0.7818608E-02  0.1235067E+00
          4   -1    0    0  501    0  0.00000000000E+00  0.00000000000E+00  0.12063467507E+03  0.12064135994E+03  0.12700000000E+01 0.  1.
         -4   -1    0    0    0  501 -0.00000000000E+00 -0.00000000000E+00 -0.32361429426E+02  0.32386339937E+02  0.12700000000E+01 0.  1.
         25    2    1    2    0    0  0.00000000000E+00  0.00000000000E+00  0.88273245640E+02  0.15302769988E+03  0.12500124413E+03 0.  0.
    9000005    1    3    3    0    0 -0.60057398741E+01 -0.59242196097E+02  0.20921110799E+02  0.63122100622E+02  0.10000000000E+01 0.  0.
    9000005    1    3    3    0    0  0.60057398741E+01  0.59242196097E+02  0.67352134841E+02  0.89905599256E+02  0.10000000000E+01 0.  0.
<mgrwt>
<rscale>  0 0.12500124E+03</rscale>
<asrwt>0</asrwt>
<pdfrwt beam="1">  1        4 0.18561611E-01 0.12500124E+03</pdfrwt>
<pdfrwt beam="2">  1       -4 0.49811120E-02 0.12500124E+03</pdfrwt>
<totfact> 0.98700797E+03</totfact>
</mgrwt>
</event>
<event>
 5    1  0.3296424E-002  0.1249950E+03  0.7818608E-02  0.1235077E+00
          4   -1    0    0  501    0  0.00000000000E+00  0.00000000000E+00  0.90469222222E+02  0.90478135864E+02  0.12700000000E+01 0. -1.
         -4   -1    0    0    0  501 -0.00000000000E+00 -0.00000000000E+00 -0.43153835124E+02  0.43172518874E+02  0.12700000000E+01 0. -1.
         25    2    1    2    0    0  0.00000000000E+00  0.00000000000E+00  0.47315387098E+02  0.13365065474E+03  0.12499500652E+03 0.  0.
    9000005    1    3    3    0    0  0.55352076597E+02 -0.10585977553E+02  0.52527835938E+02  0.77046017760E+02  0.10000000000E+01 0.  0.
    9000005    1    3    3    0    0 -0.55352076597E+02  0.10585977553E+02 -0.52124488406E+01  0.56604636977E+02  0.10000000000E+01 0.  0.
<mgrwt>
<rscale>  0 0.12499501E+03</rscale>
<asrwt>0</asrwt>
<pdfrwt beam="1">  1        4 0.13920465E-01 0.12499501E+03</pdfrwt>
<pdfrwt beam="2">  1       -4 0.66411745E-02 0.12499501E+03</pdfrwt>
<totfact> 0.10267747E+04</totfact>
</mgrwt>
</event>
<event>
 5    1  0.3296424E-002  0.1250006E+03  0.7818608E-02  0.1235068E+00
         -4   -1    0    0    0  501 -0.00000000000E+00  0.00000000000E+00  0.67818947898E+01  0.68997823835E+01  0.12700000000E+01 0.  1.
          4   -1    0    0  501    0  0.00000000000E+00 -0.00000000000E+00 -0.57090641715E+03  0.57090782973E+03  0.12700000000E+01 0.  1.
         25    2    1    2    0    0  0.00000000000E+00  0.00000000000E+00 -0.56412452236E+03  0.57780761211E+03  0.12500063953E+03 0.  0.
    9000005    1    3    3    0    0 -0.26471511841E+02 -0.44888662385E+02 -0.12263460684E+03  0.13325156564E+03  0.10000000000E+01 0.  0.
    9000005    1    3    3    0    0  0.26471511841E+02  0.44888662385E+02 -0.44148991552E+03  0.44455604647E+03  0.10000000000E+01 0.  0.
<mgrwt>
<rscale>  0 0.12500064E+03</rscale>
<asrwt>0</asrwt>
<pdfrwt beam="2">  1        4 0.87840896E-01 0.12500064E+03</pdfrwt>
<pdfrwt beam="1">  1       -4 0.10525458E-02 0.12500064E+03</pdfrwt>
<totfact> 0.50298416E+03</totfact>
</mgrwt>
</event>
<event>
 5    1  0.3296424E-002  0.1250006E+03  0.7818608E-02  0.1235068E+00
          4   -1    0    0  501    0  0.00000000000E+00  0.00000000000E+00  0.68281307315E+03  0.68281425422E+03  0.12700000000E+01 0. -1.
         -4   -1    0    0    0  501 -0.00000000000E+00 -0.00000000000E+00 -0.56491881463E+01  0.57901836510E+01  0.12700000000E+01 0. -1.
         25    2    1    2    0    0  0.00000000000E+00  0.00000000000E+00  0.67716388500E+03  0.68860443787E+03  0.12500057880E+03 0.  0.
    9000005    1    3    3    0    0  0.43083470696E+02  0.45160099455E+02  0.32145481816E+03  0.32745964659E+03  0.10000000000E+01 0.  0.
    9000005    1    3    3    0    0 -0.43083470696E+02 -0.45160099455E+02  0.35570906684E+03  0.36114479127E+03  0.10000000000E+01 0.  0.
<mgrwt>
<rscale>  0 0.12500058E+03</rscale>
<asrwt>0</asrwt>
<pdfrwt beam="1">  1        4 0.10505909E+00 0.12500058E+03</pdfrwt>
<pdfrwt beam="2">  1       -4 0.88004267E-03 0.12500058E+03</pdfrwt>
<totfact> 0.43694565E+03</totfact>
</mgrwt>
</event>
<event>
 5    1  0.3296424E-002  0.1250013E+03  0.7818608E-02  0.1235067E+00
          4   -1    0    0  501    0  0.00000000000E+00  0.00000000000E+00  0.32892764822E+03  0.32893009997E+03  0.12700000000E+01 0.  1.
         -4   -1    0    0    0  501 -0.00000000000E+00 -0.00000000000E+00 -0.11839507553E+02  0.11907427896E+02  0.12700000000E+01 0.  1.
         25    2    1    2    0    0  0.00000000000E+00  0.00000000000E+00  0.31708814067E+03  0.34083752786E+03  0.12500132578E+03 0.  0.
    9000005    1    3    3    0    0 -0.37727595074E+02 -0.35353713083E+02  0.62835328437E+02  0.81378958943E+02  0.10000000000E+01 0.  0.
    9000005    1    3    3    0    0  0.37727595074E+02  0.35353713083E+02  0.25425281223E+03  0.25945856892E+03  0.10000000000E+01 0.  0.
<mgrwt>
<rscale>  0 0.12500133E+03</rscale>
<asrwt>0</asrwt>
<pdfrwt beam="1">  1        4 0.50609673E-01 0.12500133E+03</pdfrwt>
<pdfrwt beam="2">  1       -4 0.18268757E-02 0.12500133E+03</pdfrwt>
<totfact> 0.70742359E+03</totfact>
</mgrwt>
</event>
<event>
 5    1  0.3296424E-002  0.1250022E+03  0.7818608E-02  0.1235066E+00
         -4   -1    0    0    0  501 -0.00000000000E+00  0.00000000000E+00  0.47796956050E+02  0.47813825486E+02  0.12700000000E+01 0. -1.
          4   -1    0    0  501    0  0.00000000000E+00 -0.00000000000E+00 -0.81692615590E+02  0.81702486755E+02  0.12700000000E+01 0. -1.
         25    2    1    2    0    0  0.00000000000E+00  0.00000000000E+00 -0.33895659540E+02  0.12951631224E+03  0.12500223758E+03 0.  0.
    9000005    1    3    3    0    0 -0.44922441990E+02 -0.96144076651E+01 -0.60844351094E+02  0.76246296232E+02  0.10000000000E+01 0.  0.
    9000005    1    3    3    0    0  0.44922441990E+02  0.96144076651E+01  0.26948691554E+02  0.53270016009E+02  0.10000000000E+01 0.  0.
<mgrwt>
<rscale>  0 0.12500224E+03</rscale>
<asrwt>0</asrwt>
<pdfrwt beam="2">  1        4 0.12570152E-01 0.12500224E+03</pdfrwt>
<pdfrwt beam="1">  1       -4 0.73554348E-02 0.12500224E+03</pdfrwt>
<totfact> 0.10354342E+04</totfact>
</mgrwt>
</event>
<event>
 5    1  0.3296424E-002  0.1250010E+03  0.7818608E-02  0.1235068E+00
          4   -1    0    0  501    0  0.00000000000E+00  0.00000000000E+00  0.47891444783E+02  0.47908280948E+02  0.12700000000E+01 0.  1.
         -4   -1    0    0    0  501 -0.00000000000E+00 -0.00000000000E+00 -0.81529904443E+02  0.81539795306E+02  0.12700000000E+01 0.  1.
         25    2    1    2    0    0  0.00000000000E+00  0.00000000000E+00 -0.33638459660E+02  0.12944807625E+03  0.12500103391E+03 0.  0.
    9000005    1    3    3    0    0  0.12137648875E+02 -0.42341786142E+02  0.29088047143E+02  0.52794543852E+02  0.10000000000E+01 0.  0.
    9000005    1    3    3    0    0 -0.12137648875E+02  0.42341786142E+02 -0.62726506804E+02  0.76653532402E+02  0.10000000000E+01 0.  0.
<mgrwt>
<rscale>  0 0.12500103E+03</rscale>
<asrwt>0</asrwt>
<pdfrwt beam="1">  1        4 0.73699705E-02 0.12500103E+03</pdfrwt>
<pdfrwt beam="2">  1       -4 0.12545118E-01 0.12500103E+03</pdfrwt>
<totfact> 0.10356087E+04</totfact>
</mgrwt>
</event>
<event>
 5    1  0.3296424E-002  0.1249902E+03  0.7818608E-02  0.1235085E+00
         -4   -1    0    0    0  501 -0.00000000000E+00  0.00000000000E+00  0.14530377608E+03  0.14530932607E+03  0.12700000000E+01 0. -1.
          4   -1    0    0  501    0  0.00000000000E+00 -0.00000000000E+00 -0.26858036107E+02  0.26888045736E+02  0.12700000000E+01 0. -1.
         25    2    1    2    0    0  0.00000000000E+00  0.00000000000E+00  0.11844573998E+03  0.17219737181E+03  0.12499016577E+03 0.  0.
    9000005    1    3    3    0    0  0.51557280765E+02 -0.29389552404E+02  0.32270276859E+02  0.67559379504E+02  0.10000000000E+01 0.  0.
    9000005    1    3    3    0    0 -0.51557280765E+02  0.29389552404E+02  0.86175463117E+02  0.10463799231E+03  0.10000000000E+01 0.  0.
<mgrwt>
<rscale>  0 0.12499017E+03</rscale>
<asrwt>0</asrwt>
<pdfrwt beam="2">  1        4 0.41347408E-02 0.12499017E+03</pdfrwt>
<pdfrwt beam="1">  1       -4 0.22357163E-01 0.12499017E+03</pdfrwt>
<totfact> 0.95061632E+03</totfact>
</mgrwt>
</event>
<event>
 5    1  0.3296424E-002  0.1250004E+03  0.7818608E-02  0.1235069E+00
         -4   -1    0    0    0  501 -0.00000000000E+00  0.00000000000E+00  0.93094643738E+01  0.93956919344E+01  0.12700000000E+01 0. -1.
          4   -1    0    0  501    0  0.00000000000E+00 -0.00000000000E+00 -0.41758134209E+03  0.41758327333E+03  0.12700000000E+01 0. -1.
         25    2    1    2    0    0  0.00000000000E+00  0.00000000000E+00 -0.40827187772E+03  0.42697896526E+03  0.12500044256E+03 0.  0.
    9000005    1    3    3    0    0 -0.38675223615E+02 -0.22251773770E+02 -0.54682087861E+02  0.70583603552E+02  0.10000000000E+01 0.  0.
    9000005    1    3    3    0    0  0.38675223615E+02  0.22251773770E+02 -0.35358978986E+03  0.35639536171E+03  0.10000000000E+01 0.  0.
<mgrwt>
<rscale>  0 0.12500044E+03</rscale>
<asrwt>0</asrwt>
<pdfrwt beam="2">  1        4 0.64250050E-01 0.12500044E+03</pdfrwt>
<pdfrwt beam="1">  1       -4 0.14390071E-02 0.12500044E+03</pdfrwt>
<totfact> 0.62010189E+03</totfact>
</mgrwt>
</event>
<event>
 5    1  0.3296424E-002  0.1250014E+03  0.7818608E-02  0.1235067E+00
          4   -1    0    0  501    0  0.00000000000E+00  0.00000000000E+00  0.11843107960E+02  0.11911007772E+02  0.12700000000E+01 0.  1.
         -4   -1    0    0    0  501 -0.00000000000E+00 -0.00000000000E+00 -0.32882862464E+03  0.32883107712E+03  0.12700000000E+01 0.  1.
         25    2    1    2    0    0  0.00000000000E+00  0.00000000000E+00 -0.31698551668E+03  0.34074208489E+03  0.12500140253E+03 0.  0.
    9000005    1    3    3    0    0  0.41995747417E+02 -0.11182529371E+02 -0.28090524320E+03  0.28424891806E+03  0.10000000000E+01 0.  0.
    9000005    1    3    3    0    0 -0.41995747417E+02  0.11182529371E+02 -0.36080273482E+02  0.56493166833E+02  0.10000000000E+01 0.  0.
<mgrwt>
<rscale>  0 0.12500140E+03</rscale>
<asrwt>0</asrwt>
<pdfrwt beam="1">  1        4 0.18274286E-02 0.12500140E+03</pdfrwt>
<pdfrwt beam="2">  1       -4 0.50594424E-01 0.12500140E+03</pdfrwt>
<totfact> 0.70752999E+03</totfact>
</mgrwt>
</event>
<event>
 5    1  0.3296424E-002  0.1250019E+03  0.7818608E-02  0.1235066E+00
         -4   -1    0    0    0  501 -0.00000000000E+00  0.00000000000E+00  0.26791378955E+02  0.26821463165E+02  0.12700000000E+01 0.  1.
          4   -1    0    0  501    0  0.00000000000E+00 -0.00000000000E+00 -0.14569236096E+03  0.14569789615E+03  0.12700000000E+01 0.  1.
         25    2    1    2    0    0  0.00000000000E+00  0.00000000000E+00 -0.11890098201E+03  0.17251935932E+03  0.12500194325E+03 0.  0.
    9000005    1    3    3    0    0  0.66224246178E-01  0.58202710527E+02 -0.90856079888E+02  0.10790452794E+03  0.10000000000E+01 0.  0.
    9000005    1    3    3    0    0 -0.66224246178E-01 -0.58202710527E+02 -0.28044902122E+02  0.64614831373E+02  0.10000000000E+01 0.  0.
<mgrwt>
<rscale>  0 0.12500194E+03</rscale>
<asrwt>0</asrwt>
<pdfrwt beam="2">  1        4 0.22416949E-01 0.12500194E+03</pdfrwt>
<pdfrwt beam="1">  1       -4 0.41244906E-02 0.12500194E+03</pdfrwt>
<totfact> 0.94976996E+03</totfact>
</mgrwt>
</event>
<event>
 5    1  0.3296424E-002  0.1250073E+03  0.7818608E-02  0.1235058E+00
         -4   -1    0    0    0  501 -0.00000000000E+00  0.00000000000E+00  0.12734552472E+03  0.12735185733E+03  0.12700000000E+01 0. -1.
          4   -1    0    0  501    0  0.00000000000E+00 -0.00000000000E+00 -0.30657757759E+02  0.30684051408E+02  0.12700000000E+01 0. -1.
         25    2    1    2    0    0  0.00000000000E+00  0.00000000000E+00  0.96687766958E+02  0.15803590874E+03  0.12500729647E+03 0.  0.
    9000005    1    3    3    0    0  0.35632189649E+02  0.43006275034E+02  0.83798556254E+02  0.10070943681E+03  0.10000000000E+01 0.  0.
    9000005    1    3    3    0    0 -0.35632189649E+02 -0.43006275034E+02  0.12889210704E+02  0.57326471931E+02  0.10000000000E+01 0.  0.
<mgrwt>
<rscale>  0 0.12500730E+03</rscale>
<asrwt>0</asrwt>
<pdfrwt beam="2">  1        4 0.47190878E-02 0.12500730E+03</pdfrwt>
<pdfrwt beam="1">  1       -4 0.19594129E-01 0.12500730E+03</pdfrwt>
<totfact> 0.97706759E+03</totfact>
</mgrwt>
</event>
<event>
 5    1  0.3296424E-002  0.1250010E+03  0.7818608E-02  0.1235068E+00
         -4   -1    0    0    0  501 -0.00000000000E+00  0.00000000000E+00  0.27169591105E+03  0.27169887924E+03  0.12700000000E+01 0.  1.
          4   -1    0    0  501    0  0.00000000000E+00 -0.00000000000E+00 -0.14346420511E+02  0.14402523442E+02  0.12700000000E+01 0.  1.
         25    2    1    2    0    0  0.00000000000E+00  0.00000000000E+00  0.25734949054E+03  0.28610140268E+03  0.12500100934E+03 0.  0.
    9000005    1    3    3    0    0  0.17313582189E+02 -0.31217266173E+02  0.24607520578E+03  0.24865294033E+03  0.10000000000E+01 0.  0.
    9000005    1    3    3    0    0 -0.17313582189E+02  0.31217266173E+02  0.11274284755E+02  0.37448462349E+02  0.10000000000E+01 0.  0.
<mgrwt>
<rscale>  0 0.12500101E+03</rscale>
<asrwt>0</asrwt>
<pdfrwt beam="2">  1        4 0.22116856E-02 0.12500101E+03</pdfrwt>
<pdfrwt beam="1">  1       -4 0.41803915E-01 0.12500101E+03</pdfrwt>
<totfact> 0.77374261E+03</totfact>
</mgrwt>
</event>
<event>
 5    1  0.3296424E-002  0.1250192E+03  0.7818608E-02  0.1235039E+00
         -4   -1    0    0    0  501 -0.00000000000E+00  0.00000000000E+00  0.45919511479E+01  0.47643378706E+01  0.12700000000E+01 0. -1.
          4   -1    0    0  501    0  0.00000000000E+00 -0.00000000000E+00 -0.83508380329E+03  0.83508476900E+03  0.12700000000E+01 0. -1.
         25    2    1    2    0    0  0.00000000000E+00  0.00000000000E+00 -0.83049185214E+03  0.83984910687E+03  0.12501922188E+03 0.  0.
    9000005    1    3    3    0    0  0.52796424174E+02  0.31384270296E+02 -0.33747740806E+03  0.34302250040E+03  0.10000000000E+01 0.  0.
    9000005    1    3    3    0    0 -0.52796424174E+02 -0.31384270296E+02 -0.49301444408E+03  0.49682660647E+03  0.10000000000E+01 0.  0.
<mgrwt>
<rscale>  0 0.12501922E+03</rscale>
<asrwt>0</asrwt>
<pdfrwt beam="2">  1        4 0.12848765E+00 0.12501922E+03</pdfrwt>
<pdfrwt beam="1">  1       -4 0.71978949E-03 0.12501922E+03</pdfrwt>
<totfact> 0.36531041E+03</totfact>
</mgrwt>
</event>
<event>
 5    1  0.3296424E-002  0.1250030E+03  0.7818608E-02  0.1235065E+00
         -4   -1    0    0    0  501 -0.00000000000E+00  0.00000000000E+00  0.20720515229E+04  0.20720519121E+04  0.12700000000E+01 0.  1.
          4   -1    0    0  501    0  0.00000000000E+00 -0.00000000000E+00 -0.16709860641E+01  0.20988316813E+01  0.12700000000E+01 0.  1.
         25    2    1    2    0    0  0.00000000000E+00  0.00000000000E+00  0.20703805369E+04  0.20741507438E+04  0.12500296250E+03 0.  0.
    9000005    1    3    3    0    0 -0.20183480814E+02  0.21650476714E+02  0.19484462467E+04  0.19486713146E+04  0.10000000000E+01 0.  0.
    9000005    1    3    3    0    0  0.20183480814E+02 -0.21650476714E+02  0.12193429020E+03  0.12547942925E+03  0.10000000000E+01 0.  0.
<mgrwt>
<rscale>  0 0.12500296E+03</rscale>
<asrwt>0</asrwt>
<pdfrwt beam="2">  1        4 0.29001572E-03 0.12500296E+03</pdfrwt>
<pdfrwt beam="1">  1       -4 0.31881032E+00 0.12500296E+03</pdfrwt>
<totfact> 0.89236682E+02</totfact>
</mgrwt>
</event>
<event>
 5    1  0.3296424E-002  0.1249974E+03  0.7818608E-02  0.1235073E+00
          4   -1    0    0  501    0  0.00000000000E+00  0.00000000000E+00  0.16310490537E+04  0.16310495481E+04  0.12700000000E+01 0.  1.
         -4   -1    0    0    0  501 -0.00000000000E+00 -0.00000000000E+00 -0.22259295589E+01  0.25627450910E+01  0.12700000000E+01 0.  1.
         25    2    1    2    0    0  0.00000000000E+00  0.00000000000E+00  0.16288231241E+04  0.16336122932E+04  0.12499741936E+03 0.  0.
    9000005    1    3    3    0    0  0.84339891705E+01  0.24336235395E+02  0.15585172716E+04  0.15587304034E+04  0.10000000000E+01 0.  0.
    9000005    1    3    3    0    0 -0.84339891705E+01 -0.24336235395E+02  0.70305852547E+02  0.74881889859E+02  0.10000000000E+01 0.  0.
<mgrwt>
<rscale>  0 0.12499742E+03</rscale>
<asrwt>0</asrwt>
<pdfrwt beam="1">  1        4 0.25095664E+00 0.12499742E+03</pdfrwt>
<pdfrwt beam="2">  1       -4 0.36839752E-03 0.12499742E+03</pdfrwt>
<totfact> 0.15447027E+03</totfact>
</mgrwt>
</event>
<event>
 4    1  0.3296424E-002  0.1250665E+03  0.7818608E-02  0.1234965E+00
          4   -1    0    0  501    0  0.00000000000E+00  0.00000000000E+00  0.52796430504E+02  0.52811703002E+02  0.12700000000E+01 0.  1.
         -4   -1    0    0    0  501 -0.00000000000E+00 -0.00000000000E+00 -0.74034300832E+02  0.74045192954E+02  0.12700000000E+01 0.  1.
    9000005    1    1    2    0    0 -0.18968187149E+02 -0.41896279397E+02  0.32346834603E+02  0.56235291942E+02  0.10000000000E+01 0.  0.
    9000005    1    1    2    0    0  0.18968187149E+02  0.41896279397E+02 -0.53584704930E+02  0.70621604014E+02  0.10000000000E+01 0.  0.
<mgrwt>
<rscale>  0 0.12506648E+03</rscale>
<asrwt>0</asrwt>
<pdfrwt beam="1">  1        4 0.81245405E-02 0.12506648E+03</pdfrwt>
<pdfrwt beam="2">  1       -4 0.11391905E-01 0.12506648E+03</pdfrwt>
<totfact> 0.10396646E+04</totfact>
</mgrwt>
</event>
<event>
 5    1  0.3296424E-002  0.1250004E+03  0.7818608E-02  0.1235069E+00
         -4   -1    0    0    0  501 -0.00000000000E+00  0.00000000000E+00  0.12978811607E+02  0.13040799467E+02  0.12700000000E+01 0.  1.
          4   -1    0    0  501    0  0.00000000000E+00 -0.00000000000E+00 -0.30019310363E+03  0.30019579005E+03  0.12700000000E+01 0.  1.
         25    2    1    2    0    0  0.00000000000E+00  0.00000000000E+00 -0.28721429202E+03  0.31323658952E+03  0.12500044589E+03 0.  0.
    9000005    1    3    3    0    0  0.84819052995E+01  0.20665626088E+02 -0.28985862656E+03  0.29071985520E+03  0.10000000000E+01 0.  0.
    9000005    1    3    3    0    0 -0.84819052995E+01 -0.20665626088E+02  0.26443345382E+01  0.22516734316E+02  0.10000000000E+01 0.  0.
<mgrwt>
<rscale>  0 0.12500045E+03</rscale>
<asrwt>0</asrwt>
<pdfrwt beam="2">  1        4 0.46188524E-01 0.12500045E+03</pdfrwt>
<pdfrwt beam="1">  1       -4 0.20017154E-02 0.12500045E+03</pdfrwt>
<totfact> 0.73967101E+03</totfact>
</mgrwt>
</event>
<event>
 5    1  0.3296424E-002  0.1249972E+03  0.7818608E-02  0.1235074E+00
         -4   -1    0    0    0  501 -0.00000000000E+00  0.00000000000E+00  0.10448124130E+03  0.10448895962E+03  0.12700000000E+01 0.  1.
          4   -1    0    0  501    0  0.00000000000E+00 -0.00000000000E+00 -0.37365534369E+02  0.37387110863E+02  0.12700000000E+01 0.  1.
         25    2    1    2    0    0  0.00000000000E+00  0.00000000000E+00  0.67115706928E+02  0.14187607048E+03  0.12499720501E+03 0.  0.
    9000005    1    3    3    0    0  0.46906094685E+02  0.26571437316E+02  0.69430175490E+02  0.87907748624E+02  0.10000000000E+01 0.  0.
    9000005    1    3    3    0    0 -0.46906094685E+02 -0.26571437316E+02 -0.23144685622E+01  0.53968321860E+02  0.10000000000E+01 0.  0.
<mgrwt>
<rscale>  0 0.12499721E+03</rscale>
<asrwt>0</asrwt>
<pdfrwt beam="2">  1        4 0.57507972E-02 0.12499721E+03</pdfrwt>
<pdfrwt beam="1">  1       -4 0.16076290E-01 0.12499721E+03</pdfrwt>
<totfact> 0.10095486E+04</totfact>
</mgrwt>
</event>
<event>
 5    1  0.3296424E-002  0.1250049E+03  0.7818608E-02  0.1235062E+00
          4   -1    0    0  501    0  0.00000000000E+00  0.00000000000E+00  0.39626838062E+03  0.39627041573E+03  0.12700000000E+01 0.  1.
         -4   -1    0    0    0  501 -0.00000000000E+00 -0.00000000000E+00 -0.98153916136E+01  0.98972123615E+01  0.12700000000E+01 0.  1.
         25    2    1    2    0    0  0.00000000000E+00  0.00000000000E+00  0.38645298901E+03  0.40616762809E+03  0.12500491748E+03 0.  0.
    9000005    1    3    3    0    0  0.10399905222E+02 -0.35958530543E+02  0.30623470775E+02  0.48373245805E+02  0.10000000000E+01 0.  0.
    9000005    1    3    3    0    0 -0.10399905222E+02  0.35958530543E+02  0.35582951823E+03  0.35779438228E+03  0.10000000000E+01 0.  0.
<mgrwt>
<rscale>  0 0.12500492E+03</rscale>
<asrwt>0</asrwt>
<pdfrwt beam="1">  1        4 0.60970824E-01 0.12500492E+03</pdfrwt>
<pdfrwt beam="2">  1       -4 0.15165105E-02 0.12500492E+03</pdfrwt>
<totfact> 0.63950374E+03</totfact>
</mgrwt>
</event>
<event>
 5    1  0.3296424E-002  0.1249939E+03  0.7818608E-02  0.1235079E+00
          4   -1    0    0  501    0  0.00000000000E+00  0.00000000000E+00  0.35132437362E+03  0.35132666907E+03  0.12700000000E+01 0. -1.
         -4   -1    0    0    0  501 -0.00000000000E+00 -0.00000000000E+00 -0.11078951301E+02  0.11151504918E+02  0.12700000000E+01 0. -1.
         25    2    1    2    0    0  0.00000000000E+00  0.00000000000E+00  0.34024542232E+03  0.36247817399E+03  0.12499391669E+03 0.  0.
    9000005    1    3    3    0    0  0.15879070771E+02  0.48024547843E+02  0.27653084568E+03  0.28112063371E+03  0.10000000000E+01 0.  0.
    9000005    1    3    3    0    0 -0.15879070771E+02 -0.48024547843E+02  0.63714576641E+02  0.81357540281E+02  0.10000000000E+01 0.  0.
<mgrwt>
<rscale>  0 0.12499392E+03</rscale>
<asrwt>0</asrwt>
<pdfrwt beam="1">  1        4 0.54055657E-01 0.12499392E+03</pdfrwt>
<pdfrwt beam="2">  1       -4 0.17102118E-02 0.12499392E+03</pdfrwt>
<totfact> 0.68382473E+03</totfact>
</mgrwt>
</event>
<event>
 5    1  0.3296424E-002  0.1249985E+03  0.7818608E-02  0.1235072E+00
          4   -1    0    0  501    0  0.00000000000E+00  0.00000000000E+00  0.19173462842E+04  0.19173467048E+04  0.12700000000E+01 0.  1.
         -4   -1    0    0    0  501 -0.00000000000E+00 -0.00000000000E+00 -0.18388850683E+01  0.22348150470E+01  0.12700000000E+01 0.  1.
         25    2    1    2    0    0  0.00000000000E+00  0.00000000000E+00  0.19155073991E+04  0.19195815198E+04  0.12499846094E+03 0.  0.
    9000005    1    3    3    0    0 -0.41798730070E+02  0.39519702174E+02  0.58277840347E+03  0.58561131157E+03  0.10000000000E+01 0.  0.
    9000005    1    3    3    0    0  0.41798730070E+02 -0.39519702174E+02  0.13327289956E+04  0.13339702083E+04  0.10000000000E+01 0.  0.
<mgrwt>
<rscale>  0 0.12499846E+03</rscale>
<asrwt>0</asrwt>
<pdfrwt beam="1">  1        4 0.29500835E+00 0.12499846E+03</pdfrwt>
<pdfrwt beam="2">  1       -4 0.31339230E-03 0.12499846E+03</pdfrwt>
<totfact> 0.10947847E+03</totfact>
</mgrwt>
</event>
<event>
 5    1  0.3296424E-002  0.1249990E+03  0.7818608E-02  0.1235071E+00
          4   -1    0    0  501    0  0.00000000000E+00  0.00000000000E+00  0.25110394567E+02  0.25142490236E+02  0.12700000000E+01 0. -1.
         -4   -1    0    0    0  501 -0.00000000000E+00 -0.00000000000E+00 -0.15542665710E+03  0.15543184563E+03  0.12700000000E+01 0. -1.
         25    2    1    2    0    0  0.00000000000E+00  0.00000000000E+00 -0.13031626253E+03  0.18057433587E+03  0.12499904997E+03 0.  0.
    9000005    1    3    3    0    0  0.56967530517E+02 -0.13654074478E+02 -0.33724848373E+02  0.67602504989E+02  0.10000000000E+01 0.  0.
    9000005    1    3    3    0    0 -0.56967530517E+02  0.13654074478E+02 -0.96591414161E+02  0.11297183088E+03  0.10000000000E+01 0.  0.
<mgrwt>
<rscale>  0 0.12499905E+03</rscale>
<asrwt>0</asrwt>
<pdfrwt beam="1">  1        4 0.38660057E-02 0.12499905E+03</pdfrwt>
<pdfrwt beam="2">  1       -4 0.23914661E-01 0.12499905E+03</pdfrwt>
<totfact> 0.93515715E+03</totfact>
</mgrwt>
</event>
<event>
 5    1  0.3296424E-002  0.1250005E+03  0.7818608E-02  0.1235069E+00
          4   -1    0    0  501    0  0.00000000000E+00  0.00000000000E+00  0.11688185287E+03  0.11688875237E+03  0.12700000000E+01 0. -1.
         -4   -1    0    0    0  501 -0.00000000000E+00 -0.00000000000E+00 -0.33400805752E+02  0.33424941659E+02  0.12700000000E+01 0. -1.
         25    2    1    2    0    0  0.00000000000E+00  0.00000000000E+00  0.83481047118E+02  0.15031369403E+03  0.12500048554E+03 0.  0.
    9000005    1    3    3    0    0 -0.59971519750E+02  0.90533938294E+01  0.59847437221E+02  0.85213043971E+02  0.10000000000E+01 0.  0.
    9000005    1    3    3    0    0  0.59971519750E+02 -0.90533938294E+01  0.23633609897E+02  0.65100650056E+02  0.10000000000E+01 0.  0.
<mgrwt>
<rscale>  0 0.12500049E+03</rscale>
<asrwt>0</asrwt>
<pdfrwt beam="1">  1        4 0.17984211E-01 0.12500049E+03</pdfrwt>
<pdfrwt beam="2">  1       -4 0.51409728E-02 0.12500049E+03</pdfrwt>
<totfact> 0.99240120E+03</totfact>
</mgrwt>
</event>
<event>
 5    1  0.3296424E-002  0.1249907E+03  0.7818608E-02  0.1235084E+00
          4   -1    0    0  501    0  0.00000000000E+00  0.00000000000E+00  0.35996070695E+02  0.36018467561E+02  0.12700000000E+01 0.  1.
         -4   -1    0    0    0  501 -0.00000000000E+00 -0.00000000000E+00 -0.10844277529E+03  0.10845021168E+03  0.12700000000E+01 0.  1.
         25    2    1    2    0    0  0.00000000000E+00  0.00000000000E+00 -0.72446704597E+02  0.14446867924E+03  0.12499069675E+03 0.  0.
    9000005    1    3    3    0    0  0.36428786190E+02 -0.50370551863E+02 -0.28874964380E+02  0.68549343733E+02  0.10000000000E+01 0.  0.
    9000005    1    3    3    0    0 -0.36428786190E+02  0.50370551863E+02 -0.43571740218E+02  0.75919335507E+02  0.10000000000E+01 0.  0.
<mgrwt>
<rscale>  0 0.12499070E+03</rscale>
<asrwt>0</asrwt>
<pdfrwt beam="1">  1        4 0.55401520E-02 0.12499070E+03</pdfrwt>
<pdfrwt beam="2">  1       -4 0.16685799E-01 0.12499070E+03</pdfrwt>
<totfact> 0.10043899E+04</totfact>
</mgrwt>
</event>
<event>
 5    1  0.3296424E-002  0.1249999E+03  0.7818608E-02  0.1235069E+00
         -4   -1    0    0    0  501 -0.00000000000E+00  0.00000000000E+00  0.17233361540E+04  0.17233366219E+04  0.12700000000E+01 0.  1.
          4   -1    0    0  501    0  0.00000000000E+00 -0.00000000000E+00 -0.20882774031E+01  0.24441363531E+01  0.12700000000E+01 0.  1.
         25    2    1    2    0    0  0.00000000000E+00  0.00000000000E+00  0.17212478766E+04  0.17257807583E+04  0.12499989228E+03 0.  0.
    9000005    1    3    3    0    0 -0.47415873564E+02  0.32006403366E+02  0.12078639093E+04  0.12092183006E+04  0.10000000000E+01 0.  0.
    9000005    1    3    3    0    0  0.47415873564E+02 -0.32006403366E+02  0.51338396724E+03  0.51656245773E+03  0.10000000000E+01 0.  0.
<mgrwt>
<rscale>  0 0.12499989E+03</rscale>
<asrwt>0</asrwt>
<pdfrwt beam="2">  1        4 0.34868286E-03 0.12499989E+03</pdfrwt>
<pdfrwt beam="1">  1       -4 0.26515631E+00 0.12499989E+03</pdfrwt>
<totfact> 0.13882270E+03</totfact>
</mgrwt>
</event>
<event>
 5    1  0.3296424E-002  0.1249920E+03  0.7818608E-02  0.1235082E+00
         -4   -1    0    0    0  501 -0.00000000000E+00  0.00000000000E+00  0.69807375868E+03  0.69807491392E+03  0.12700000000E+01 0. -1.
          4   -1    0    0  501    0  0.00000000000E+00 -0.00000000000E+00 -0.55217971388E+01  0.56659636111E+01  0.12700000000E+01 0. -1.
         25    2    1    2    0    0  0.00000000000E+00  0.00000000000E+00  0.69255196154E+03  0.70374087754E+03  0.12499201289E+03 0.  0.
    9000005    1    3    3    0    0 -0.36382310218E+02 -0.18181793390E+02  0.79178314355E+02  0.89019411208E+02  0.10000000000E+01 0.  0.
    9000005    1    3    3    0    0  0.36382310218E+02  0.18181793390E+02  0.61337364718E+03  0.61472146633E+03  0.10000000000E+01 0.  0.
<mgrwt>
<rscale>  0 0.12499201E+03</rscale>
<asrwt>0</asrwt>
<pdfrwt beam="2">  1        4 0.86068581E-03 0.12499201E+03</pdfrwt>
<pdfrwt beam="1">  1       -4 0.10740715E+00 0.12499201E+03</pdfrwt>
<totfact> 0.42897445E+03</totfact>
</mgrwt>
</event>
<event>
 5    1  0.3296424E-002  0.1249928E+03  0.7818608E-02  0.1235081E+00
          4   -1    0    0  501    0  0.00000000000E+00  0.00000000000E+00  0.89743906862E+02  0.89752892537E+02  0.12700000000E+01 0. -1.
         -4   -1    0    0    0  501 -0.00000000000E+00 -0.00000000000E+00 -0.43501171534E+02  0.43519706166E+02  0.12700000000E+01 0. -1.
         25    2    1    2    0    0  0.00000000000E+00  0.00000000000E+00  0.46242735328E+02  0.13327259870E+03  0.12499277977E+03 0.  0.
    9000005    1    3    3    0    0 -0.49590141093E+02  0.36000823085E+02  0.10081899406E+02  0.62111883340E+02  0.10000000000E+01 0.  0.
    9000005    1    3    3    0    0  0.49590141093E+02 -0.36000823085E+02  0.36160835922E+02  0.71160715363E+02  0.10000000000E+01 0.  0.
<mgrwt>
<rscale>  0 0.12499278E+03</rscale>
<asrwt>0</asrwt>
<pdfrwt beam="1">  1        4 0.13808872E-01 0.12499278E+03</pdfrwt>
<pdfrwt beam="2">  1       -4 0.66946049E-02 0.12499278E+03</pdfrwt>
<totfact> 0.10276283E+04</totfact>
</mgrwt>
</event>
<event>
 5    1  0.3296424E-002  0.1249902E+03  0.7818608E-02  0.1235085E+00
          4   -1    0    0  501    0  0.00000000000E+00  0.00000000000E+00  0.65397639562E+02  0.65409969884E+02  0.12700000000E+01 0. -1.
         -4   -1    0    0    0  501 -0.00000000000E+00 -0.00000000000E+00 -0.59696686629E+02  0.59710194226E+02  0.12700000000E+01 0. -1.
         25    2    1    2    0    0  0.00000000000E+00  0.00000000000E+00  0.57009529328E+01  0.12512016411E+03  0.12499021803E+03 0.  0.
    9000005    1    3    3    0    0  0.60070455275E+02  0.16203184809E+02  0.86561487950E+01  0.62824610678E+02  0.10000000000E+01 0.  0.
    9000005    1    3    3    0    0 -0.60070455275E+02 -0.16203184809E+02 -0.29551958622E+01  0.62295553432E+02  0.10000000000E+01 0.  0.
<mgrwt>
<rscale>  0 0.12499022E+03</rscale>
<asrwt>0</asrwt>
<pdfrwt beam="1">  1        4 0.10063163E-01 0.12499022E+03</pdfrwt>
<pdfrwt beam="2">  1       -4 0.91860932E-02 0.12499022E+03</pdfrwt>
<totfact> 0.10452564E+04</totfact>
</mgrwt>
</event>
<event>
 5    1  0.3296424E-002  0.1249998E+03  0.7818608E-02  0.1235070E+00
          4   -1    0    0  501    0  0.00000000000E+00  0.00000000000E+00  0.14738165547E+02  0.14792782825E+02  0.12700000000E+01 0. -1.
         -4   -1    0    0    0  501 -0.00000000000E+00 -0.00000000000E+00 -0.26449583102E+03  0.26449888001E+03  0.12700000000E+01 0. -1.
         25    2    1    2    0    0  0.00000000000E+00  0.00000000000E+00 -0.24975766547E+03  0.27929166283E+03  0.12499976587E+03 0.  0.
    9000005    1    3    3    0    0 -0.27597876328E+02 -0.54523279056E+02 -0.15407989105E+03  0.16575899241E+03  0.10000000000E+01 0.  0.
    9000005    1    3    3    0    0  0.27597876328E+02  0.54523279056E+02 -0.95677774419E+02  0.11353267043E+03  0.10000000000E+01 0.  0.
<mgrwt>
<rscale>  0 0.12499977E+03</rscale>
<asrwt>0</asrwt>
<pdfrwt beam="1">  1        4 0.22718461E-02 0.12499977E+03</pdfrwt>
<pdfrwt beam="2">  1       -4 0.40696099E-01 0.12499977E+03</pdfrwt>
<totfact> 0.78272528E+03</totfact>
</mgrwt>
</event>
<event>
 5    1  0.3296424E-002  0.1250011E+03  0.7818608E-02  0.1235068E+00
         -4   -1    0    0    0  501 -0.00000000000E+00  0.00000000000E+00  0.30790585935E+01  0.33306908927E+01  0.12700000000E+01 0. -1.
          4   -1    0    0  501    0  0.00000000000E+00 -0.00000000000E+00 -0.12186157926E+04  0.12186164544E+04  0.12700000000E+01 0. -1.
         25    2    1    2    0    0  0.00000000000E+00  0.00000000000E+00 -0.12155367340E+04  0.12219471453E+04  0.12500109643E+03 0.  0.
    9000005    1    3    3    0    0  0.18673250689E+02 -0.41749222400E+02 -0.10240747060E+04  0.10250959425E+04  0.10000000000E+01 0.  0.
    9000005    1    3    3    0    0 -0.18673250689E+02  0.41749222400E+02 -0.19146202798E+03  0.19685120275E+03  0.10000000000E+01 0.  0.
<mgrwt>
<rscale>  0 0.12500110E+03</rscale>
<asrwt>0</asrwt>
<pdfrwt beam="2">  1        4 0.18749839E+00 0.12500110E+03</pdfrwt>
<pdfrwt beam="1">  1       -4 0.49310953E-03 0.12500110E+03</pdfrwt>
<totfact> 0.24144894E+03</totfact>
</mgrwt>
</event>
<event>
 5    1  0.3296424E-002  0.1250007E+03  0.7818608E-02  0.1235068E+00
         -4   -1    0    0    0  501 -0.00000000000E+00  0.00000000000E+00  0.40529334123E+03  0.40529533102E+03  0.12700000000E+01 0.  1.
          4   -1    0    0  501    0  0.00000000000E+00 -0.00000000000E+00 -0.95943373878E+01  0.96780271704E+01  0.12700000000E+01 0.  1.
         25    2    1    2    0    0  0.00000000000E+00  0.00000000000E+00  0.39569900384E+03  0.41497335819E+03  0.12500074546E+03 0.  0.
    9000005    1    3    3    0    0  0.24164133631E+02  0.57602823569E+02  0.20388559620E+03  0.21324241364E+03  0.10000000000E+01 0.  0.
    9000005    1    3    3    0    0 -0.24164133631E+02 -0.57602823569E+02  0.19181340764E+03  0.20173094455E+03  0.10000000000E+01 0.  0.
<mgrwt>
<rscale>  0 0.12500075E+03</rscale>
<asrwt>0</asrwt>
<pdfrwt beam="2">  1        4 0.14826425E-02 0.12500075E+03</pdfrwt>
<pdfrwt beam="1">  1       -4 0.62359419E-01 0.12500075E+03</pdfrwt>
<totfact> 0.63121049E+03</totfact>
</mgrwt>
</event>
<event>
 5    1  0.3296424E-002  0.1250027E+03  0.7818608E-02  0.1235065E+00
          4   -1    0    0  501    0  0.00000000000E+00  0.00000000000E+00  0.32047442821E+03  0.32047694463E+03  0.12700000000E+01 0.  1.
         -4   -1    0    0    0  501 -0.00000000000E+00 -0.00000000000E+00 -0.12153826614E+02  0.12220000056E+02  0.12700000000E+01 0.  1.
         25    2    1    2    0    0  0.00000000000E+00  0.00000000000E+00  0.30832060160E+03  0.33269694468E+03  0.12500265450E+03 0.  0.
    9000005    1    3    3    0    0  0.54702719451E+02  0.18425727539E+01  0.23443205553E+03  0.24073880296E+03  0.10000000000E+01 0.  0.
    9000005    1    3    3    0    0 -0.54702719451E+02 -0.18425727539E+01  0.73888546068E+02  0.91958141726E+02  0.10000000000E+01 0.  0.
<mgrwt>
<rscale>  0 0.12500265E+03</rscale>
<asrwt>0</asrwt>
<pdfrwt beam="1">  1        4 0.49309044E-01 0.12500265E+03</pdfrwt>
<pdfrwt beam="2">  1       -4 0.18751033E-02 0.12500265E+03</pdfrwt>
<totfact> 0.71666795E+03</totfact>
</mgrwt>
</event>
<event>
 5    1  0.3296424E-002  0.1250010E+03  0.7818608E-02  0.1235068E+00
         -4   -1    0    0    0  501 -0.00000000000E+00  0.00000000000E+00  0.23145714017E+01  0.26401024172E+01  0.12700000000E+01 0. -1.
          4   -1    0    0  501    0  0.00000000000E+00 -0.00000000000E+00 -0.15764942795E+04  0.15764947910E+04  0.12700000000E+01 0. -1.
         25    2    1    2    0    0  0.00000000000E+00  0.00000000000E+00 -0.15741797081E+04  0.15791348934E+04  0.12500103346E+03 0.  0.
    9000005    1    3    3    0    0  0.46548836940E+02 -0.66855140730E+01 -0.13070137789E+04  0.13078598964E+04  0.10000000000E+01 0.  0.
    9000005    1    3    3    0    0 -0.46548836940E+02  0.66855140730E+01 -0.26716592912E+03  0.27127499701E+03  0.10000000000E+01 0.  0.
<mgrwt>
<rscale>  0 0.12500103E+03</rscale>
<asrwt>0</asrwt>
<pdfrwt beam="2">  1        4 0.24256186E+00 0.12500103E+03</pdfrwt>
<pdfrwt beam="1">  1       -4 0.38116937E-03 0.12500103E+03</pdfrwt>
<totfact> 0.16425946E+03</totfact>
</mgrwt>
</event>
<event>
 5    1  0.3296424E-002  0.1249846E+03  0.7818608E-02  0.1235093E+00
          4   -1    0    0  501    0  0.00000000000E+00  0.00000000000E+00  0.27992953374E+03  0.27993241463E+03  0.12700000000E+01 0. -1.
         -4   -1    0    0    0  501 -0.00000000000E+00 -0.00000000000E+00 -0.13919109685E+02  0.13976927932E+02  0.12700000000E+01 0. -1.
         25    2    1    2    0    0  0.00000000000E+00  0.00000000000E+00  0.26601042406E+03  0.29390934256E+03  0.12498462281E+03 0.  0.
    9000005    1    3    3    0    0  0.49325033470E+02  0.38193651928E+02  0.12466626951E+03  0.13940729080E+03  0.10000000000E+01 0.  0.
    9000005    1    3    3    0    0 -0.49325033470E+02 -0.38193651928E+02  0.14134415455E+03  0.15450205177E+03  0.10000000000E+01 0.  0.
<mgrwt>
<rscale>  0 0.12498462E+03</rscale>
<asrwt>0</asrwt>
<pdfrwt beam="1">  1        4 0.43070749E-01 0.12498462E+03</pdfrwt>
<pdfrwt beam="2">  1       -4 0.21460707E-02 0.12498462E+03</pdfrwt>
<totfact> 0.76395332E+03</totfact>
</mgrwt>
</event>
<event>
 5    1  0.3296424E-002  0.1250046E+03  0.7818608E-02  0.1235062E+00
          4   -1    0    0  501    0  0.00000000000E+00  0.00000000000E+00  0.11910742413E+03  0.11911419472E+03  0.12700000000E+01 0. -1.
         -4   -1    0    0    0  501 -0.00000000000E+00 -0.00000000000E+00 -0.32778440753E+02  0.32803034588E+02  0.12700000000E+01 0. -1.
         25    2    1    2    0    0  0.00000000000E+00  0.00000000000E+00  0.86328983378E+02  0.15191722931E+03  0.12500460467E+03 0.  0.
    9000005    1    3    3    0    0  0.39344156125E+02  0.47311919691E+02  0.29898443027E+02  0.68420006296E+02  0.10000000000E+01 0.  0.
    9000005    1    3    3    0    0 -0.39344156125E+02 -0.47311919691E+02  0.56430540351E+02  0.83497223010E+02  0.10000000000E+01 0.  0.
<mgrwt>
<rscale>  0 0.12500460E+03</rscale>
<asrwt>0</asrwt>
<pdfrwt beam="1">  1        4 0.18326632E-01 0.12500460E+03</pdfrwt>
<pdfrwt beam="2">  1       -4 0.50452496E-02 0.12500460E+03</pdfrwt>
<totfact> 0.98912642E+03</totfact>
</mgrwt>
</event>
<event>
 5    1  0.3296424E-002  0.1250075E+03  0.7818608E-02  0.1235058E+00
          4   -1    0    0  501    0  0.00000000000E+00  0.00000000000E+00  0.51974343482E+02  0.51989857476E+02  0.12700000000E+01 0. -1.
         -4   -1    0    0    0  501 -0.00000000000E+00 -0.00000000000E+00 -0.75134231170E+02  0.75144963860E+02  0.12700000000E+01 0. -1.
         25    2    1    2    0    0  0.00000000000E+00  0.00000000000E+00 -0.23159887688E+02  0.12713482134E+03  0.12500752937E+03 0.  0.
    9000005    1    3    3    0    0  0.22812372184E+02  0.56009537194E+02 -0.27603955060E+02  0.66486471679E+02  0.10000000000E+01 0.  0.
    9000005    1    3    3    0    0 -0.22812372184E+02 -0.56009537194E+02  0.44440673718E+01  0.60648349657E+02  0.10000000000E+01 0.  0.
<mgrwt>
<rscale>  0 0.12500753E+03</rscale>
<asrwt>0</asrwt>
<pdfrwt beam="1">  1        4 0.79980719E-02 0.12500753E+03</pdfrwt>
<pdfrwt beam="2">  1       -4 0.11561131E-01 0.12500753E+03</pdfrwt>
<totfact> 0.10404449E+04</totfact>
</mgrwt>
</event>
<event>
 5    1  0.3296424E-002  0.1250017E+03  0.7818608E-02  0.1235067E+00
          4   -1    0    0  501    0  0.00000000000E+00  0.00000000000E+00  0.85461346573E+03  0.85461440937E+03  0.12700000000E+01 0.  1.
         -4   -1    0    0    0  501 -0.00000000000E+00 -0.00000000000E+00 -0.44817248224E+01  0.46581925018E+01  0.12700000000E+01 0.  1.
         25    2    1    2    0    0  0.00000000000E+00  0.00000000000E+00  0.85013174091E+03  0.85927260187E+03  0.12500170972E+03 0.  0.
    9000005    1    3    3    0    0  0.37952980592E+02  0.49271522725E+02  0.46701761221E+03  0.47114176401E+03  0.10000000000E+01 0.  0.
    9000005    1    3    3    0    0 -0.37952980592E+02 -0.49271522725E+02  0.38311412870E+03  0.38813083786E+03  0.10000000000E+01 0.  0.
<mgrwt>
<rscale>  0 0.12500171E+03</rscale>
<asrwt>0</asrwt>
<pdfrwt beam="1">  1        4 0.13149269E+00 0.12500171E+03</pdfrwt>
<pdfrwt beam="2">  1       -4 0.70314287E-03 0.12500171E+03</pdfrwt>
<totfact> 0.35749507E+03</totfact>
</mgrwt>
</event>
<event>
 5    1  0.3296424E-002  0.1250054E+03  0.7818608E-02  0.1235061E+00
          4   -1    0    0  501    0  0.00000000000E+00  0.00000000000E+00  0.30531611367E+02  0.30558013558E+02  0.12700000000E+01 0.  1.
         -4   -1    0    0    0  501 -0.00000000000E+00 -0.00000000000E+00 -0.12786729741E+03  0.12787360419E+03  0.12700000000E+01 0.  1.
         25    2    1    2    0    0  0.00000000000E+00  0.00000000000E+00 -0.97335686045E+02  0.15843161774E+03  0.12500536678E+03 0.  0.
    9000005    1    3    3    0    0 -0.16888174715E+01  0.84093176205E+01 -0.12712397536E+03  0.12741692917E+03  0.10000000000E+01 0.  0.
    9000005    1    3    3    0    0  0.16888174715E+01 -0.84093176205E+01  0.29788289314E+02  0.31014688577E+02  0.10000000000E+01 0.  0.
<mgrwt>
<rscale>  0 0.12500537E+03</rscale>
<asrwt>0</asrwt>
<pdfrwt beam="1">  1        4 0.46996871E-02 0.12500537E+03</pdfrwt>
<pdfrwt beam="2">  1       -4 0.19674408E-01 0.12500537E+03</pdfrwt>
<totfact> 0.97634231E+03</totfact>
</mgrwt>
</event>
<event>
 5    1  0.3296424E-002  0.1250007E+03  0.7818608E-02  0.1235068E+00
          4   -1    0    0  501    0  0.00000000000E+00  0.00000000000E+00  0.41717836559E+02  0.41737163143E+02  0.12700000000E+01 0.  1.
         -4   -1    0    0    0  501 -0.00000000000E+00 -0.00000000000E+00 -0.93590695110E+02  0.93599311489E+02  0.12700000000E+01 0.  1.
         25    2    1    2    0    0  0.00000000000E+00  0.00000000000E+00 -0.51872858551E+02  0.13533647463E+03  0.12500067164E+03 0.  0.
    9000005    1    3    3    0    0 -0.41646675209E+02 -0.87382420746E+01  0.23613337144E+02  0.48676402101E+02  0.10000000000E+01 0.  0.
    9000005    1    3    3    0    0  0.41646675209E+02  0.87382420746E+01 -0.75486195695E+02  0.86660072530E+02  0.10000000000E+01 0.  0.
<mgrwt>
<rscale>  0 0.12500067E+03</rscale>
<asrwt>0</asrwt>
<pdfrwt beam="1">  1        4 0.64202782E-02 0.12500067E+03</pdfrwt>
<pdfrwt beam="2">  1       -4 0.14400718E-01 0.12500067E+03</pdfrwt>
<totfact> 0.10230829E+04</totfact>
</mgrwt>
</event>
<event>
 5    1  0.3296424E-002  0.1250014E+03  0.7818608E-02  0.1235067E+00
          4   -1    0    0  501    0  0.00000000000E+00  0.00000000000E+00  0.18697542589E+02  0.18740624292E+02  0.12700000000E+01 0. -1.
         -4   -1    0    0    0  501 -0.00000000000E+00 -0.00000000000E+00 -0.20863690987E+03  0.20864077516E+03  0.12700000000E+01 0. -1.
         25    2    1    2    0    0  0.00000000000E+00  0.00000000000E+00 -0.18993936728E+03  0.22738139946E+03  0.12500135029E+03 0.  0.
    9000005    1    3    3    0    0 -0.81980944489E+01  0.56717154544E+02 -0.49629067246E+02  0.75816150574E+02  0.10000000000E+01 0.  0.
    9000005    1    3    3    0    0  0.81980944489E+01 -0.56717154544E+02 -0.14031030004E+03  0.15156524888E+03  0.10000000000E+01 0.  0.
<mgrwt>
<rscale>  0 0.12500135E+03</rscale>
<asrwt>0</asrwt>
<pdfrwt beam="1">  1        4 0.28801565E-02 0.12500135E+03</pdfrwt>
<pdfrwt beam="2">  1       -4 0.32101596E-01 0.12500135E+03</pdfrwt>
<totfact> 0.85710732E+03</totfact>
</mgrwt>
</event>
<event>
 5    1  0.3296424E-002  0.1249987E+03  0.7818608E-02  0.1235071E+00
          4   -1    0    0  501    0  0.00000000000E+00  0.00000000000E+00  0.54063146503E+02  0.54078061262E+02  0.12700000000E+01 0. -1.
         -4   -1    0    0    0  501 -0.00000000000E+00 -0.00000000000E+00 -0.72221456326E+02  0.72232621812E+02  0.12700000000E+01 0. -1.
         25    2    1    2    0    0  0.00000000000E+00  0.00000000000E+00 -0.18158309823E+02  0.12631068307E+03  0.12499865776E+03 0.  0.
    9000005    1    3    3    0    0 -0.99453596642E+01 -0.61661824970E+02 -0.11119074751E+02  0.63448598573E+02  0.10000000000E+01 0.  0.
    9000005    1    3    3    0    0  0.99453596642E+01  0.61661824970E+02 -0.70392350722E+01  0.62862084502E+02  0.10000000000E+01 0.  0.
<mgrwt>
<rscale>  0 0.12499866E+03</rscale>
<asrwt>0</asrwt>
<pdfrwt beam="1">  1        4 0.83194133E-02 0.12499866E+03</pdfrwt>
<pdfrwt beam="2">  1       -4 0.11112999E-01 0.12499866E+03</pdfrwt>
<totfact> 0.10424476E+04</totfact>
</mgrwt>
</event>
<event>
 5    1  0.3296424E-002  0.1249999E+03  0.7818608E-02  0.1235070E+00
          4   -1    0    0  501    0  0.00000000000E+00  0.00000000000E+00  0.75470771331E+01  0.76531871304E+01  0.12700000000E+01 0. -1.
         -4   -1    0    0    0  501 -0.00000000000E+00 -0.00000000000E+00 -0.51386321151E+03  0.51386478090E+03  0.12700000000E+01 0. -1.
         25    2    1    2    0    0  0.00000000000E+00  0.00000000000E+00 -0.50631613438E+03  0.52151796803E+03  0.12499985217E+03 0.  0.
    9000005    1    3    3    0    0 -0.42041901568E+02 -0.27669092116E+02 -0.98611598459E+02  0.11071742183E+03  0.10000000000E+01 0.  0.
    9000005    1    3    3    0    0  0.42041901568E+02  0.27669092116E+02 -0.40770453592E+03  0.41080054620E+03  0.10000000000E+01 0.  0.
<mgrwt>
<rscale>  0 0.12499985E+03</rscale>
<asrwt>0</asrwt>
<pdfrwt beam="1">  1        4 0.11693722E-02 0.12499985E+03</pdfrwt>
<pdfrwt beam="2">  1       -4 0.79064134E-01 0.12499985E+03</pdfrwt>
<totfact> 0.54232839E+03</totfact>
</mgrwt>
</event>
<event>
 5    1  0.3296424E-002  0.1250012E+03  0.7818608E-02  0.1235067E+00
         -4   -1    0    0    0  501 -0.00000000000E+00  0.00000000000E+00  0.18525647534E+02  0.18569128050E+02  0.12700000000E+01 0.  1.
          4   -1    0    0  501    0  0.00000000000E+00 -0.00000000000E+00 -0.21056795453E+03  0.21057178437E+03  0.12700000000E+01 0.  1.
         25    2    1    2    0    0  0.00000000000E+00  0.00000000000E+00 -0.19204230699E+03  0.22914091242E+03  0.12500124028E+03 0.  0.
    9000005    1    3    3    0    0 -0.61076799269E+01 -0.32368003066E+02  0.13294733431E+01  0.32981189729E+02  0.10000000000E+01 0.  0.
    9000005    1    3    3    0    0  0.61076799269E+01  0.32368003066E+02 -0.19337178034E+03  0.19615972269E+03  0.10000000000E+01 0.  0.
<mgrwt>
<rscale>  0 0.12500124E+03</rscale>
<asrwt>0</asrwt>
<pdfrwt beam="2">  1        4 0.32398707E-01 0.12500124E+03</pdfrwt>
<pdfrwt beam="1">  1       -4 0.28537390E-02 0.12500124E+03</pdfrwt>
<totfact> 0.85439321E+03</totfact>
</mgrwt>
</event>
<event>
 5    1  0.3296424E-002  0.1249958E+03  0.7818608E-02  0.1235076E+00
          4   -1    0    0  501    0  0.00000000000E+00  0.00000000000E+00  0.20372240215E+03  0.20372636068E+03  0.12700000000E+01 0.  1.
         -4   -1    0    0    0  501 -0.00000000000E+00 -0.00000000000E+00 -0.19147917740E+02  0.19189988374E+02  0.12700000000E+01 0.  1.
         25    2    1    2    0    0  0.00000000000E+00  0.00000000000E+00  0.18457448441E+03  0.22291634906E+03  0.12499583346E+03 0.  0.
    9000005    1    3    3    0    0  0.30448463757E+02  0.42601839362E+02  0.15310487442E+03  0.16181510509E+03  0.10000000000E+01 0.  0.
    9000005    1    3    3    0    0 -0.30448463757E+02 -0.42601839362E+02  0.31469609988E+02  0.61101243973E+02  0.10000000000E+01 0.  0.
<mgrwt>
<rscale>  0 0.12499583E+03</rscale>
<asrwt>0</asrwt>
<pdfrwt beam="1">  1        4 0.31345451E-01 0.12499583E+03</pdfrwt>
<pdfrwt beam="2">  1       -4 0.29493740E-02 0.12499583E+03</pdfrwt>
<totfact> 0.86417007E+03</totfact>
</mgrwt>
</event>
<event>
 5    1  0.3296424E-002  0.1250008E+03  0.7818608E-02  0.1235068E+00
         -4   -1    0    0    0  501 -0.00000000000E+00  0.00000000000E+00  0.29956413621E+02  0.29983322315E+02  0.12700000000E+01 0. -1.
          4   -1    0    0  501    0  0.00000000000E+00 -0.00000000000E+00 -0.13031090726E+03  0.13031709578E+03  0.12700000000E+01 0. -1.
         25    2    1    2    0    0  0.00000000000E+00  0.00000000000E+00 -0.10035449364E+03  0.16030041809E+03  0.12500079858E+03 0.  0.
    9000005    1    3    3    0    0  0.10306571933E+02  0.33741335652E+02 -0.11632443627E+03  0.12156100374E+03  0.10000000000E+01 0.  0.
    9000005    1    3    3    0    0 -0.10306571933E+02 -0.33741335652E+02  0.15969942630E+02  0.38739414350E+02  0.10000000000E+01 0.  0.
<mgrwt>
<rscale>  0 0.12500080E+03</rscale>
<asrwt>0</asrwt>
<pdfrwt beam="2">  1        4 0.20050378E-01 0.12500080E+03</pdfrwt>
<pdfrwt beam="1">  1       -4 0.46112250E-02 0.12500080E+03</pdfrwt>
<totfact> 0.97283152E+03</totfact>
</mgrwt>
</event>
<event>
 5    1  0.3296424E-002  0.1250025E+03  0.7818608E-02  0.1235065E+00
          4   -1    0    0  501    0  0.00000000000E+00  0.00000000000E+00  0.14915635069E+02  0.14969604855E+02  0.12700000000E+01 0.  1.
         -4   -1    0    0    0  501 -0.00000000000E+00 -0.00000000000E+00 -0.26137177323E+03  0.26137485866E+03  0.12700000000E+01 0.  1.
         25    2    1    2    0    0  0.00000000000E+00  0.00000000000E+00 -0.24645613816E+03  0.27634446352E+03  0.12500253789E+03 0.  0.
    9000005    1    3    3    0    0 -0.53558169654E+02 -0.26191499944E+02 -0.16464197137E+03  0.17510697000E+03  0.10000000000E+01 0.  0.
    9000005    1    3    3    0    0  0.53558169654E+02  0.26191499944E+02 -0.81814166783E+02  0.10123749351E+03  0.10000000000E+01 0.  0.
<mgrwt>
<rscale>  0 0.12500254E+03</rscale>
<asrwt>0</asrwt>
<pdfrwt beam="1">  1        4 0.22991021E-02 0.12500254E+03</pdfrwt>
<pdfrwt beam="2">  1       -4 0.40215428E-01 0.12500254E+03</pdfrwt>
<totfact> 0.78660875E+03</totfact>
</mgrwt>
</event>
<event>
 5    1  0.3296424E-002  0.1250022E+03  0.7818608E-02  0.1235066E+00
          4   -1    0    0  501    0  0.00000000000E+00  0.00000000000E+00  0.88739456633E+01  0.89643634261E+01  0.12700000000E+01 0. -1.
         -4   -1    0    0    0  501 -0.00000000000E+00 -0.00000000000E+00 -0.43788624000E+03  0.43788808168E+03  0.12700000000E+01 0. -1.
         25    2    1    2    0    0  0.00000000000E+00  0.00000000000E+00 -0.42901229434E+03  0.44685244511E+03  0.12500223602E+03 0.  0.
    9000005    1    3    3    0    0 -0.21433335800E+01 -0.96063348936E+01 -0.43511561490E+03  0.43522807111E+03  0.10000000000E+01 0.  0.
    9000005    1    3    3    0    0  0.21433335800E+01  0.96063348936E+01  0.61033205683E+01  0.11624374000E+02  0.10000000000E+01 0.  0.
<mgrwt>
<rscale>  0 0.12500224E+03</rscale>
<asrwt>0</asrwt>
<pdfrwt beam="1">  1        4 0.13723196E-02 0.12500224E+03</pdfrwt>
<pdfrwt beam="2">  1       -4 0.67374194E-01 0.12500224E+03</pdfrwt>
<totfact> 0.60234481E+03</totfact>
</mgrwt>
</event>
<event>
 5    1  0.3296424E-002  0.1249981E+03  0.7818608E-02  0.1235072E+00
         -4   -1    0    0    0  501 -0.00000000000E+00  0.00000000000E+00  0.37954188709E+02  0.37975430749E+02  0.12700000000E+01 0.  1.
          4   -1    0    0  501    0  0.00000000000E+00 -0.00000000000E+00 -0.10286303609E+03  0.10287087583E+03  0.12700000000E+01 0.  1.
         25    2    1    2    0    0  0.00000000000E+00  0.00000000000E+00 -0.64908847383E+02  0.14084630658E+03  0.12499809442E+03 0.  0.
    9000005    1    3    3    0    0 -0.29989590708E+02  0.37337181267E+02  0.12781437158E+02  0.49576262381E+02  0.10000000000E+01 0.  0.
    9000005    1    3    3    0    0  0.29989590708E+02 -0.37337181267E+02 -0.77690284541E+02  0.91270044198E+02  0.10000000000E+01 0.  0.
<mgrwt>
<rscale>  0 0.12499809E+03</rscale>
<asrwt>0</asrwt>
<pdfrwt beam="2">  1        4 0.15827319E-01 0.12499809E+03</pdfrwt>
<pdfrwt beam="1">  1       -4 0.58413431E-02 0.12499809E+03</pdfrwt>
<totfact> 0.10116510E+04</totfact>
</mgrwt>
</event>
<event>
 5    1  0.3296424E-002  0.1249981E+03  0.7818608E-02  0.1235072E+00
          4   -1    0    0  501    0  0.00000000000E+00  0.00000000000E+00  0.20756864170E+03  0.20757252688E+03  0.12700000000E+01 0.  1.
         -4   -1    0    0    0  501 -0.00000000000E+00 -0.00000000000E+00 -0.18793012440E+02  0.18835875784E+02  0.12700000000E+01 0.  1.
         25    2    1    2    0    0  0.00000000000E+00  0.00000000000E+00  0.18877562926E+03  0.22640840267E+03  0.12499810637E+03 0.  0.
    9000005    1    3    3    0    0 -0.60696232674E+02  0.13733346205E+02  0.84062769302E+02  0.10459534713E+03  0.10000000000E+01 0.  0.
    9000005    1    3    3    0    0  0.60696232674E+02 -0.13733346205E+02  0.10471285995E+03  0.12181305553E+03  0.10000000000E+01 0.  0.
<mgrwt>
<rscale>  0 0.12499811E+03</rscale>
<asrwt>0</asrwt>
<pdfrwt beam="1">  1        4 0.31937233E-01 0.12499811E+03</pdfrwt>
<pdfrwt beam="2">  1       -4 0.28948287E-02 0.12499811E+03</pdfrwt>
<totfact> 0.85867787E+03</totfact>
</mgrwt>
</event>
<event>
 5    1  0.3296424E-002  0.1250024E+03  0.7818608E-02  0.1235066E+00
         -4   -1    0    0    0  501 -0.00000000000E+00  0.00000000000E+00  0.21844078886E+02  0.21880966212E+02  0.12700000000E+01 0. -1.
          4   -1    0    0  501    0  0.00000000000E+00 -0.00000000000E+00 -0.17864095149E+03  0.17864546580E+03  0.12700000000E+01 0. -1.
         25    2    1    2    0    0  0.00000000000E+00  0.00000000000E+00 -0.15679687261E+03  0.20052643201E+03  0.12500236268E+03 0.  0.
    9000005    1    3    3    0    0 -0.93161255823E+01  0.58912332520E+02 -0.48475209528E+02  0.76865460758E+02  0.10000000000E+01 0.  0.
    9000005    1    3    3    0    0  0.93161255823E+01 -0.58912332520E+02 -0.10832166308E+03  0.12366097125E+03  0.10000000000E+01 0.  0.
<mgrwt>
<rscale>  0 0.12500236E+03</rscale>
<asrwt>0</asrwt>
<pdfrwt beam="2">  1        4 0.27486407E-01 0.12500236E+03</pdfrwt>
<pdfrwt beam="1">  1       -4 0.33638124E-02 0.12500236E+03</pdfrwt>
<totfact> 0.90042035E+03</totfact>
</mgrwt>
</event>
<event>
 4    1  0.3296424E-002  0.1251292E+03  0.7818608E-02  0.1234867E+00
          4   -1    0    0  501    0  0.00000000000E+00  0.00000000000E+00  0.40073344759E+03  0.40073546002E+03  0.12700000000E+01 0. -1.
         -4   -1    0    0    0  501 -0.00000000000E+00 -0.00000000000E+00 -0.97245920270E+01  0.98071703407E+01  0.12700000000E+01 0. -1.
    9000005    1    1    2    0    0  0.24590523864E+02  0.57489229778E+02  0.20175215855E+03  0.21122177654E+03  0.10000000000E+01 0.  0.
    9000005    1    1    2    0    0 -0.24590523864E+02 -0.57489229778E+02  0.18925669702E+03  0.19932085383E+03  0.10000000000E+01 0.  0.
<mgrwt>
<rscale>  0 0.12512924E+03</rscale>
<asrwt>0</asrwt>
<pdfrwt beam="1">  1        4 0.61657809E-01 0.12512924E+03</pdfrwt>
<pdfrwt beam="2">  1       -4 0.15025980E-02 0.12512924E+03</pdfrwt>
<totfact> 0.63359311E+03</totfact>
</mgrwt>
</event>
<event>
 5    1  0.3296424E-002  0.1249972E+03  0.7818608E-02  0.1235074E+00
          4   -1    0    0  501    0  0.00000000000E+00  0.00000000000E+00  0.37867425636E+01  0.39940354584E+01  0.12700000000E+01 0. -1.
         -4   -1    0    0    0  501 -0.00000000000E+00 -0.00000000000E+00 -0.10038244412E+04  0.10038252445E+04  0.12700000000E+01 0. -1.
         25    2    1    2    0    0  0.00000000000E+00  0.00000000000E+00 -0.10000376986E+04  0.10078192800E+04  0.12499721004E+03 0.  0.
    9000005    1    3    3    0    0 -0.46828358563E+01  0.61555805109E+02 -0.57820223739E+03  0.58148935796E+03  0.10000000000E+01 0.  0.
    9000005    1    3    3    0    0  0.46828358563E+01 -0.61555805109E+02 -0.42183546120E+03  0.42632992203E+03  0.10000000000E+01 0.  0.
<mgrwt>
<rscale>  0 0.12499721E+03</rscale>
<asrwt>0</asrwt>
<pdfrwt beam="1">  1        4 0.59858398E-03 0.12499721E+03</pdfrwt>
<pdfrwt beam="2">  1       -4 0.15445033E+00 0.12499721E+03</pdfrwt>
<totfact> 0.30349579E+03</totfact>
</mgrwt>
</event>
<event>
 5    1  0.3296424E-002  0.1250027E+03  0.7818608E-02  0.1235065E+00
         -4   -1    0    0    0  501 -0.00000000000E+00  0.00000000000E+00  0.82437278288E+03  0.82437376114E+03  0.12700000000E+01 0.  1.
          4   -1    0    0  501    0  0.00000000000E+00 -0.00000000000E+00 -0.46525621010E+01  0.48227828173E+01  0.12700000000E+01 0.  1.
         25    2    1    2    0    0  0.00000000000E+00  0.00000000000E+00  0.81972022078E+03  0.82919654396E+03  0.12500267259E+03 0.  0.
    9000005    1    3    3    0    0 -0.59575372884E+02  0.24078530519E+01  0.28569011740E+03  0.29184733336E+03  0.10000000000E+01 0.  0.
    9000005    1    3    3    0    0  0.59575372884E+02 -0.24078530519E+01  0.53403010338E+03  0.53734921060E+03  0.10000000000E+01 0.  0.
<mgrwt>
<rscale>  0 0.12500267E+03</rscale>
<asrwt>0</asrwt>
<pdfrwt beam="2">  1        4 0.72894753E-03 0.12500267E+03</pdfrwt>
<pdfrwt beam="1">  1       -4 0.12683982E+00 0.12500267E+03</pdfrwt>
<totfact> 0.36991881E+03</totfact>
</mgrwt>
</event>
<event>
 5    1  0.3296424E-002  0.1249995E+03  0.7818608E-02  0.1235070E+00
         -4   -1    0    0    0  501 -0.00000000000E+00  0.00000000000E+00  0.34522099238E+03  0.34522332842E+03  0.12700000000E+01 0. -1.
          4   -1    0    0  501    0  0.00000000000E+00 -0.00000000000E+00 -0.11277108188E+02  0.11348395001E+02  0.12700000000E+01 0. -1.
         25    2    1    2    0    0  0.00000000000E+00  0.00000000000E+00  0.33394388420E+03  0.35657172342E+03  0.12499950459E+03 0.  0.
    9000005    1    3    3    0    0  0.22199740745E+02 -0.31670854183E+01  0.58135741556E+00  0.22454329106E+02  0.10000000000E+01 0.  0.
    9000005    1    3    3    0    0 -0.22199740745E+02  0.31670854183E+01  0.33336252678E+03  0.33411739431E+03  0.10000000000E+01 0.  0.
<mgrwt>
<rscale>  0 0.12499950E+03</rscale>
<asrwt>0</asrwt>
<pdfrwt beam="2">  1        4 0.17406028E-02 0.12499950E+03</pdfrwt>
<pdfrwt beam="1">  1       -4 0.53116592E-01 0.12499950E+03</pdfrwt>
<totfact> 0.69008335E+03</totfact>
</mgrwt>
</event>
<event>
 5    1  0.3296424E-002  0.1250021E+03  0.7818608E-02  0.1235066E+00
         -4   -1    0    0    0  501 -0.00000000000E+00  0.00000000000E+00  0.12032674185E+02  0.12099510240E+02  0.12700000000E+01 0.  1.
          4   -1    0    0  501    0  0.00000000000E+00 -0.00000000000E+00 -0.32368036817E+03  0.32368285966E+03  0.12700000000E+01 0.  1.
         25    2    1    2    0    0  0.00000000000E+00  0.00000000000E+00 -0.31164769398E+03  0.33578236990E+03  0.12500205906E+03 0.  0.
    9000005    1    3    3    0    0  0.27111721861E+02 -0.29724880208E+02 -0.28427898067E+03  0.28711348421E+03  0.10000000000E+01 0.  0.
    9000005    1    3    3    0    0 -0.27111721861E+02  0.29724880208E+02 -0.27368713316E+02  0.48668885689E+02  0.10000000000E+01 0.  0.
<mgrwt>
<rscale>  0 0.12500206E+03</rscale>
<asrwt>0</asrwt>
<pdfrwt beam="2">  1        4 0.49802306E-01 0.12500206E+03</pdfrwt>
<pdfrwt beam="1">  1       -4 0.18565138E-02 0.12500206E+03</pdfrwt>
<totfact> 0.71314271E+03</totfact>
</mgrwt>
</event>
<event>
 5    1  0.3296424E-002  0.1249973E+03  0.7818608E-02  0.1235074E+00
         -4   -1    0    0    0  501 -0.00000000000E+00  0.00000000000E+00  0.18426775212E+02  0.18470488480E+02  0.12700000000E+01 0.  1.
          4   -1    0    0  501    0  0.00000000000E+00 -0.00000000000E+00 -0.21168179488E+03  0.21168560457E+03  0.12700000000E+01 0.  1.
         25    2    1    2    0    0  0.00000000000E+00  0.00000000000E+00 -0.19325501967E+03  0.23015609305E+03  0.12499729814E+03 0.  0.
    9000005    1    3    3    0    0 -0.16063704232E+02  0.60235341089E+02 -0.88656149609E+02  0.10838473958E+03  0.10000000000E+01 0.  0.
    9000005    1    3    3    0    0  0.16063704232E+02 -0.60235341089E+02 -0.10459887006E+03  0.12177135347E+03  0.10000000000E+01 0.  0.
<mgrwt>
<rscale>  0 0.12499730E+03</rscale>
<asrwt>0</asrwt>
<pdfrwt beam="2">  1        4 0.32570084E-01 0.12499730E+03</pdfrwt>
<pdfrwt beam="1">  1       -4 0.28385443E-02 0.12499730E+03</pdfrwt>
<totfact> 0.85290777E+03</totfact>
</mgrwt>
</event>
<event>
 5    1  0.3296424E-002  0.1250265E+03  0.7818608E-02  0.1235028E+00
          4   -1    0    0  501    0  0.00000000000E+00  0.00000000000E+00  0.49668371849E+02  0.49684605887E+02  0.12700000000E+01 0. -1.
         -4   -1    0    0    0  501 -0.00000000000E+00 -0.00000000000E+00 -0.78645778973E+02  0.78656032510E+02  0.12700000000E+01 0. -1.
         25    2    1    2    0    0  0.00000000000E+00  0.00000000000E+00 -0.28977407124E+02  0.12834063840E+03  0.12502651455E+03 0.  0.
    9000005    1    3    3    0    0 -0.14057903926E+02 -0.52619564513E+02 -0.45968591863E+02  0.71278009724E+02  0.10000000000E+01 0.  0.
    9000005    1    3    3    0    0  0.14057903926E+02  0.52619564513E+02  0.16991184739E+02  0.57062628674E+02  0.10000000000E+01 0.  0.
<mgrwt>
<rscale>  0 0.12502651E+03</rscale>
<asrwt>0</asrwt>
<pdfrwt beam="1">  1        4 0.76433255E-02 0.12502651E+03</pdfrwt>
<pdfrwt beam="2">  1       -4 0.12101388E-01 0.12502651E+03</pdfrwt>
<totfact> 0.10373927E+04</totfact>
</mgrwt>
</event>
<event>
 5    1  0.3296424E-002  0.1250023E+03  0.7818608E-02  0.1235066E+00
         -4   -1    0    0    0  501 -0.00000000000E+00  0.00000000000E+00  0.57853389061E+03  0.57853528456E+03  0.12700000000E+01 0.  1.
          4   -1    0    0  501    0  0.00000000000E+00 -0.00000000000E+00 -0.66910998056E+01  0.68105591994E+01  0.12700000000E+01 0.  1.
         25    2    1    2    0    0  0.00000000000E+00  0.00000000000E+00  0.57184279080E+03  0.58534584376E+03  0.12500231764E+03 0.  0.
    9000005    1    3    3    0    0  0.35658463321E+02 -0.18634204534E+02  0.50984141456E+03  0.51142744117E+03  0.10000000000E+01 0.  0.
    9000005    1    3    3    0    0 -0.35658463321E+02  0.18634204534E+02  0.62001376243E+02  0.73918402587E+02  0.10000000000E+01 0.  0.
<mgrwt>
<rscale>  0 0.12500232E+03</rscale>
<asrwt>0</asrwt>
<pdfrwt beam="2">  1        4 0.10386963E-02 0.12500232E+03</pdfrwt>
<pdfrwt beam="1">  1       -4 0.89014515E-01 0.12500232E+03</pdfrwt>
<totfact> 0.49803349E+03</totfact>
</mgrwt>
</event>
<event>
 4    1  0.3296424E-002  0.1251561E+03  0.7818608E-02  0.1234826E+00
          4   -1    0    0  501    0  0.00000000000E+00  0.00000000000E+00  0.11823840450E+04  0.11823847271E+04  0.12700000000E+01 0.  1.
         -4   -1    0    0    0  501 -0.00000000000E+00 -0.00000000000E+00 -0.31895072635E+01  0.34330535364E+01  0.12700000000E+01 0.  1.
    9000005    1    1    2    0    0  0.42948337382E+02 -0.31201674727E+02  0.90339595763E+03  0.90495489415E+03  0.10000000000E+01 0.  0.
    9000005    1    1    2    0    0 -0.42948337382E+02  0.31201674727E+02  0.27579858016E+03  0.28086288649E+03  0.10000000000E+01 0.  0.
<mgrwt>
<rscale>  0 0.12515611E+03</rscale>
<asrwt>0</asrwt>
<pdfrwt beam="1">  1        4 0.18192412E+00 0.12515611E+03</pdfrwt>
<pdfrwt beam="2">  1       -4 0.50947995E-03 0.12515611E+03</pdfrwt>
<totfact> 0.25001762E+03</totfact>
</mgrwt>
</event>
<event>
 5    1  0.3296424E-002  0.1250012E+03  0.7818608E-02  0.1235067E+00
         -4   -1    0    0    0  501 -0.00000000000E+00  0.00000000000E+00  0.92416527333E+02  0.92425253174E+02  0.12700000000E+01 0.  1.
          4   -1    0    0  501    0  0.00000000000E+00 -0.00000000000E+00 -0.42248391192E+02  0.42267475183E+02  0.12700000000E+01 0.  1.
         25    2    1    2    0    0  0.00000000000E+00  0.00000000000E+00  0.50168136141E+02  0.13469272836E+03  0.12500115675E+03 0.  0.
    9000005    1    3    3    0    0 -0.41726442674E+02  0.24660947022E+02  0.67589442065E+02  0.83178068052E+02  0.10000000000E+01 0.  0.
    9000005    1    3    3    0    0  0.41726442674E+02 -0.24660947022E+02 -0.17421305924E+02  0.51514660305E+02  0.10000000000E+01 0.  0.
<mgrwt>
<rscale>  0 0.12500116E+03</rscale>
<asrwt>0</asrwt>
<pdfrwt beam="2">  1        4 0.65018917E-02 0.12500116E+03</pdfrwt>
<pdfrwt beam="1">  1       -4 0.14220067E-01 0.12500116E+03</pdfrwt>
<totfact> 0.10244284E+04</totfact>
</mgrwt>
</event>
<event>
 5    1  0.3296424E-002  0.1250063E+03  0.7818608E-02  0.1235059E+00
          4   -1    0    0  501    0  0.00000000000E+00  0.00000000000E+00  0.17324647023E+02  0.17371133943E+02  0.12700000000E+01 0.  1.
         -4   -1    0    0    0  501 -0.00000000000E+00 -0.00000000000E+00 -0.22514592419E+03  0.22514950606E+03  0.12700000000E+01 0.  1.
         25    2    1    2    0    0  0.00000000000E+00  0.00000000000E+00 -0.20782127717E+03  0.24252064000E+03  0.12500631018E+03 0.  0.
    9000005    1    3    3    0    0 -0.94514594667E+00  0.36758675367E+02 -0.20194741605E+03  0.20527019356E+03  0.10000000000E+01 0.  0.
    9000005    1    3    3    0    0  0.94514594667E+00 -0.36758675367E+02 -0.58738611147E+01  0.37250446440E+02  0.10000000000E+01 0.  0.
<mgrwt>
<rscale>  0 0.12500631E+03</rscale>
<asrwt>0</asrwt>
<pdfrwt beam="1">  1        4 0.26691819E-02 0.12500631E+03</pdfrwt>
<pdfrwt beam="2">  1       -4 0.34641684E-01 0.12500631E+03</pdfrwt>
<totfact> 0.83411658E+03</totfact>
</mgrwt>
</event>
<event>
 5    1  0.3296424E-002  0.1249965E+03  0.7818608E-02  0.1235075E+00
          4   -1    0    0  501    0  0.00000000000E+00  0.00000000000E+00  0.28156922002E+03  0.28157208414E+03  0.12700000000E+01 0. -1.
         -4   -1    0    0    0  501 -0.00000000000E+00 -0.00000000000E+00 -0.13840366775E+02  0.13898512599E+02  0.12700000000E+01 0. -1.
         25    2    1    2    0    0  0.00000000000E+00  0.00000000000E+00  0.26772885325E+03  0.29547059673E+03  0.12499653864E+03 0.  0.
    9000005    1    3    3    0    0 -0.41524944956E+02  0.18309901391E+02  0.23541178152E+03  0.23974836897E+03  0.10000000000E+01 0.  0.
    9000005    1    3    3    0    0  0.41524944956E+02 -0.18309901391E+02  0.32317071727E+02  0.55722227769E+02  0.10000000000E+01 0.  0.
<mgrwt>
<rscale>  0 0.12499654E+03</rscale>
<asrwt>0</asrwt>
<pdfrwt beam="1">  1        4 0.43323026E-01 0.12499654E+03</pdfrwt>
<pdfrwt beam="2">  1       -4 0.21339807E-02 0.12499654E+03</pdfrwt>
<totfact> 0.76176394E+03</totfact>
</mgrwt>
</event>
<event>
 5    1  0.3296424E-002  0.1250011E+03  0.7818608E-02  0.1235068E+00
         -4   -1    0    0    0  501 -0.00000000000E+00  0.00000000000E+00  0.14628329207E+03  0.14628880490E+03  0.12700000000E+01 0. -1.
          4   -1    0    0  501    0  0.00000000000E+00 -0.00000000000E+00 -0.26682663499E+02  0.26712870145E+02  0.12700000000E+01 0. -1.
         25    2    1    2    0    0  0.00000000000E+00  0.00000000000E+00  0.11960062857E+03  0.17300167505E+03  0.12500107685E+03 0.  0.
    9000005    1    3    3    0    0  0.21890545772E+02  0.33459884530E+02 -0.66686161544E+01  0.40549109835E+02  0.10000000000E+01 0.  0.
    9000005    1    3    3    0    0 -0.21890545772E+02 -0.33459884530E+02  0.12626924473E+03  0.13245256521E+03  0.10000000000E+01 0.  0.
<mgrwt>
<rscale>  0 0.12500108E+03</rscale>
<asrwt>0</asrwt>
<pdfrwt beam="2">  1        4 0.41077729E-02 0.12500108E+03</pdfrwt>
<pdfrwt beam="1">  1       -4 0.22507869E-01 0.12500108E+03</pdfrwt>
<totfact> 0.94889816E+03</totfact>
</mgrwt>
</event>
<event>
 5    1  0.3296424E-002  0.1250025E+03  0.7818608E-02  0.1235065E+00
          4   -1    0    0  501    0  0.00000000000E+00  0.00000000000E+00  0.23254682730E+02  0.23289335947E+02  0.12700000000E+01 0. -1.
         -4   -1    0    0    0  501 -0.00000000000E+00 -0.00000000000E+00 -0.16782141634E+03  0.16782622168E+03  0.12700000000E+01 0. -1.
         25    2    1    2    0    0  0.00000000000E+00  0.00000000000E+00 -0.14456673361E+03  0.19111555763E+03  0.12500246357E+03 0.  0.
    9000005    1    3    3    0    0  0.86062932800E+01 -0.27426389293E+02 -0.15712155827E+03  0.15973246129E+03  0.10000000000E+01 0.  0.
    9000005    1    3    3    0    0 -0.86062932800E+01  0.27426389293E+02  0.12554824662E+02  0.31383096341E+02  0.10000000000E+01 0.  0.
<mgrwt>
<rscale>  0 0.12500246E+03</rscale>
<asrwt>0</asrwt>
<pdfrwt beam="1">  1        4 0.35806789E-02 0.12500246E+03</pdfrwt>
<pdfrwt beam="2">  1       -4 0.25821714E-01 0.12500246E+03</pdfrwt>
<totfact> 0.91648516E+03</totfact>
</mgrwt>
</event>
<event>
 5    1  0.3296424E-002  0.1249996E+03  0.7818608E-02  0.1235070E+00
         -4   -1    0    0    0  501 -0.00000000000E+00  0.00000000000E+00  0.97486523342E+02  0.97494795416E+02  0.12700000000E+01 0.  1.
          4   -1    0    0  501    0  0.00000000000E+00 -0.00000000000E+00 -0.40049362559E+02  0.40069493900E+02  0.12700000000E+01 0.  1.
         25    2    1    2    0    0  0.00000000000E+00  0.00000000000E+00  0.57437160783E+02  0.13756428932E+03  0.12499962502E+03 0.  0.
    9000005    1    3    3    0    0 -0.34021238199E+02 -0.15784775783E+02 -0.26292141644E+02  0.45813540654E+02  0.10000000000E+01 0.  0.
    9000005    1    3    3    0    0  0.34021238199E+02  0.15784775783E+02  0.83729302427E+02  0.91750748662E+02  0.10000000000E+01 0.  0.
<mgrwt>
<rscale>  0 0.12499963E+03</rscale>
<asrwt>0</asrwt>
<pdfrwt beam="2">  1        4 0.61636253E-02 0.12499963E+03</pdfrwt>
<pdfrwt beam="1">  1       -4 0.15000112E-01 0.12499963E+03</pdfrwt>
<totfact> 0.10184386E+04</totfact>
</mgrwt>
</event>
<event>
 5    1  0.3296424E-002  0.1250006E+03  0.7818608E-02  0.1235068E+00
          4   -1    0    0  501    0  0.00000000000E+00  0.00000000000E+00  0.56231184850E+02  0.56245524708E+02  0.12700000000E+01 0. -1.
         -4   -1    0    0    0  501 -0.00000000000E+00 -0.00000000000E+00 -0.69439337846E+02  0.69450950609E+02  0.12700000000E+01 0. -1.
         25    2    1    2    0    0  0.00000000000E+00  0.00000000000E+00 -0.13208152996E+02  0.12569647532E+03  0.12500059440E+03 0.  0.
    9000005    1    3    3    0    0 -0.15284917007E+01 -0.54223037389E+02 -0.37806046308E+02  0.66126932546E+02  0.10000000000E+01 0.  0.
    9000005    1    3    3    0    0  0.15284917007E+01  0.54223037389E+02  0.24597893311E+02  0.59569542771E+02  0.10000000000E+01 0.  0.
<mgrwt>
<rscale>  0 0.12500059E+03</rscale>
<asrwt>0</asrwt>
<pdfrwt beam="1">  1        4 0.86529479E-02 0.12500059E+03</pdfrwt>
<pdfrwt beam="2">  1       -4 0.10684971E-01 0.12500059E+03</pdfrwt>
<totfact> 0.10437482E+04</totfact>
</mgrwt>
</event>
<event>
 5    1  0.3296424E-002  0.1249994E+03  0.7818608E-02  0.1235070E+00
         -4   -1    0    0    0  501 -0.00000000000E+00  0.00000000000E+00  0.64294550747E+02  0.64307092578E+02  0.12700000000E+01 0.  1.
          4   -1    0    0  501    0  0.00000000000E+00 -0.00000000000E+00 -0.60729820275E+02  0.60743098131E+02  0.12700000000E+01 0.  1.
         25    2    1    2    0    0  0.00000000000E+00  0.00000000000E+00  0.35647304727E+01  0.12505019071E+03  0.12499937157E+03 0.  0.
    9000005    1    3    3    0    0 -0.13175716674E+02 -0.26033151095E+02 -0.53502080213E+02  0.60949134964E+02  0.10000000000E+01 0.  0.
    9000005    1    3    3    0    0  0.13175716674E+02  0.26033151095E+02  0.57066810686E+02  0.64101055745E+02  0.10000000000E+01 0.  0.
<mgrwt>
<rscale>  0 0.12499937E+03</rscale>
<asrwt>0</asrwt>
<pdfrwt beam="2">  1        4 0.93450354E-02 0.12499937E+03</pdfrwt>
<pdfrwt beam="1">  1       -4 0.98934555E-02 0.12499937E+03</pdfrwt>
<totfact> 0.10451921E+04</totfact>
</mgrwt>
</event>
<event>
 5    1  0.3296424E-002  0.1249982E+03  0.7818608E-02  0.1235072E+00
         -4   -1    0    0    0  501 -0.00000000000E+00  0.00000000000E+00  0.92286141045E+02  0.92294879213E+02  0.12700000000E+01 0.  1.
          4   -1    0    0  501    0  0.00000000000E+00 -0.00000000000E+00 -0.42306123624E+02  0.42325181583E+02  0.12700000000E+01 0.  1.
         25    2    1    2    0    0  0.00000000000E+00  0.00000000000E+00  0.49980017421E+02  0.13462006080E+03  0.12499823450E+03 0.  0.
    9000005    1    3    3    0    0 -0.36276749626E+02 -0.84122184992E+01 -0.29056272457E+02  0.47244417158E+02  0.10000000000E+01 0.  0.
    9000005    1    3    3    0    0  0.36276749626E+02  0.84122184992E+01  0.79036289879E+02  0.87375643639E+02  0.10000000000E+01 0.  0.
<mgrwt>
<rscale>  0 0.12499823E+03</rscale>
<asrwt>0</asrwt>
<pdfrwt beam="2">  1        4 0.65107726E-02 0.12499823E+03</pdfrwt>
<pdfrwt beam="1">  1       -4 0.14200006E-01 0.12499823E+03</pdfrwt>
<totfact> 0.10246493E+04</totfact>
</mgrwt>
</event>
<event>
 5    1  0.3296424E-002  0.1249943E+03  0.7818608E-02  0.1235078E+00
         -4   -1    0    0    0  501 -0.00000000000E+00  0.00000000000E+00  0.23222733666E+04  0.23222737139E+04  0.12700000000E+01 0.  1.
          4   -1    0    0  501    0  0.00000000000E+00 -0.00000000000E+00 -0.14417905888E+01  0.19213693299E+01  0.12700000000E+01 0.  1.
         25    2    1    2    0    0  0.00000000000E+00  0.00000000000E+00  0.23208315761E+04  0.23241950832E+04  0.12499432207E+03 0.  0.
    9000005    1    3    3    0    0  0.33679737965E+02 -0.33152937411E+02  0.40021311212E+03  0.40299500880E+03  0.10000000000E+01 0.  0.
    9000005    1    3    3    0    0 -0.33679737965E+02  0.33152937411E+02  0.19206184639E+04  0.19212000744E+04  0.10000000000E+01 0.  0.
<mgrwt>
<rscale>  0 0.12499432E+03</rscale>
<asrwt>0</asrwt>
<pdfrwt beam="2">  1        4 0.25872926E-03 0.12499432E+03</pdfrwt>
<pdfrwt beam="1">  1       -4 0.35731258E+00 0.12499432E+03</pdfrwt>
<totfact> 0.62019147E+02</totfact>
</mgrwt>
</event>
<event>
 5    1  0.3296424E-002  0.1249960E+03  0.7818608E-02  0.1235076E+00
         -4   -1    0    0    0  501 -0.00000000000E+00  0.00000000000E+00  0.92704610533E+02  0.92713309260E+02  0.12700000000E+01 0.  1.
          4   -1    0    0  501    0  0.00000000000E+00 -0.00000000000E+00 -0.42113559800E+02  0.42132704863E+02  0.12700000000E+01 0.  1.
         25    2    1    2    0    0  0.00000000000E+00  0.00000000000E+00  0.50591050732E+02  0.13484601412E+03  0.12499597238E+03 0.  0.
    9000005    1    3    3    0    0  0.14435145726E+02  0.28551170848E+02  0.83204790261E+02  0.89149200284E+02  0.10000000000E+01 0.  0.
    9000005    1    3    3    0    0 -0.14435145726E+02 -0.28551170848E+02 -0.32613739529E+02  0.45696813839E+02  0.10000000000E+01 0.  0.
<mgrwt>
<rscale>  0 0.12499597E+03</rscale>
<asrwt>0</asrwt>
<pdfrwt beam="2">  1        4 0.64811510E-02 0.12499597E+03</pdfrwt>
<pdfrwt beam="1">  1       -4 0.14264390E-01 0.12499597E+03</pdfrwt>
<totfact> 0.10242248E+04</totfact>
</mgrwt>
</event>
<event>
 5    1  0.3296424E-002  0.1250011E+03  0.7818608E-02  0.1235068E+00
          4   -1    0    0  501    0  0.00000000000E+00  0.00000000000E+00  0.69632269013E+02  0.69643849606E+02  0.12700000000E+01 0. -1.
         -4   -1    0    0    0  501 -0.00000000000E+00 -0.00000000000E+00 -0.56075833459E+02  0.56090213034E+02  0.12700000000E+01 0. -1.
         25    2    1    2    0    0  0.00000000000E+00  0.00000000000E+00  0.13556435554E+02  0.12573406264E+03  0.12500111025E+03 0.  0.
    9000005    1    3    3    0    0 -0.10975823137E+02 -0.57525179143E+02 -0.15160320626E+02  0.60501654939E+02  0.10000000000E+01 0.  0.
    9000005    1    3    3    0    0  0.10975823137E+02  0.57525179143E+02  0.28716756179E+02  0.65232407700E+02  0.10000000000E+01 0.  0.
<mgrwt>
<rscale>  0 0.12500111E+03</rscale>
<asrwt>0</asrwt>
<pdfrwt beam="1">  1        4 0.10714654E-01 0.12500111E+03</pdfrwt>
<pdfrwt beam="2">  1       -4 0.86290482E-02 0.12500111E+03</pdfrwt>
<totfact> 0.10436533E+04</totfact>
</mgrwt>
</event>
<event>
 5    1  0.3296424E-002  0.1249982E+03  0.7818608E-02  0.1235072E+00
         -4   -1    0    0    0  501 -0.00000000000E+00  0.00000000000E+00  0.14648263013E+03  0.14648813546E+03  0.12700000000E+01 0.  1.
          4   -1    0    0  501    0  0.00000000000E+00 -0.00000000000E+00 -0.26645080990E+02  0.26675330194E+02  0.12700000000E+01 0.  1.
         25    2    1    2    0    0  0.00000000000E+00  0.00000000000E+00  0.11983754914E+03  0.17316346565E+03  0.12499819060E+03 0.  0.
    9000005    1    3    3    0    0  0.34963925079E+02  0.48590148821E+02  0.84764399202E+02  0.10377611474E+03  0.10000000000E+01 0.  0.
    9000005    1    3    3    0    0 -0.34963925079E+02 -0.48590148821E+02  0.35073149938E+02  0.69387350908E+02  0.10000000000E+01 0.  0.
<mgrwt>
<rscale>  0 0.12499819E+03</rscale>
<asrwt>0</asrwt>
<pdfrwt beam="2">  1        4 0.41019936E-02 0.12499819E+03</pdfrwt>
<pdfrwt beam="1">  1       -4 0.22538540E-01 0.12499819E+03</pdfrwt>
<totfact> 0.94866129E+03</totfact>
</mgrwt>
</event>
<event>
 5    1  0.3296424E-002  0.1250013E+03  0.7818608E-02  0.1235067E+00
         -4   -1    0    0    0  501 -0.00000000000E+00  0.00000000000E+00  0.21316740962E+02  0.21354539219E+02  0.12700000000E+01 0.  1.
          4   -1    0    0  501    0  0.00000000000E+00 -0.00000000000E+00 -0.18304942045E+03  0.18305382604E+03  0.12700000000E+01 0.  1.
         25    2    1    2    0    0  0.00000000000E+00  0.00000000000E+00 -0.16173267949E+03  0.20440836526E+03  0.12500128068E+03 0.  0.
    9000005    1    3    3    0    0 -0.56779499581E+02 -0.21238213923E+02 -0.56047317732E+02  0.82566791922E+02  0.10000000000E+01 0.  0.
    9000005    1    3    3    0    0  0.56779499581E+02  0.21238213923E+02 -0.10568536176E+03  0.12184157333E+03  0.10000000000E+01 0.  0.
<mgrwt>
<rscale>  0 0.12500128E+03</rscale>
<asrwt>0</asrwt>
<pdfrwt beam="2">  1        4 0.28164695E-01 0.12500128E+03</pdfrwt>
<pdfrwt beam="1">  1       -4 0.32827452E-02 0.12500128E+03</pdfrwt>
<totfact> 0.89394728E+03</totfact>
</mgrwt>
</event>
<event>
 5    1  0.3296424E-002  0.1249994E+03  0.7818608E-02  0.1235070E+00
         -4   -1    0    0    0  501 -0.00000000000E+00  0.00000000000E+00  0.11608635051E+01  0.17206115417E+01  0.12700000000E+01 0.  1.
          4   -1    0    0  501    0  0.00000000000E+00 -0.00000000000E+00 -0.27106994486E+04  0.27106997461E+04  0.12700000000E+01 0.  1.
         25    2    1    2    0    0  0.00000000000E+00  0.00000000000E+00 -0.27095385851E+04  0.27124203576E+04  0.12499940986E+03 0.  0.
    9000005    1    3    3    0    0  0.38395609518E+02 -0.38544217996E+02 -0.68759152298E+03  0.68974124282E+03  0.10000000000E+01 0.  0.
    9000005    1    3    3    0    0 -0.38395609518E+02  0.38544217996E+02 -0.20219470621E+04  0.20226791148E+04  0.10000000000E+01 0.  0.
<mgrwt>
<rscale>  0 0.12499941E+03</rscale>
<asrwt>0</asrwt>
<pdfrwt beam="2">  1        4 0.41706968E+00 0.12499941E+03</pdfrwt>
<pdfrwt beam="1">  1       -4 0.22167698E-03 0.12499941E+03</pdfrwt>
<totfact> 0.32074816E+02</totfact>
</mgrwt>
</event>
<event>
 5    1  0.3296424E-002  0.1250043E+03  0.7818608E-02  0.1235063E+00
         -4   -1    0    0    0  501 -0.00000000000E+00  0.00000000000E+00  0.17288439981E+02  0.17335023997E+02  0.12700000000E+01 0. -1.
          4   -1    0    0  501    0  0.00000000000E+00 -0.00000000000E+00 -0.22560887591E+03  0.22561245043E+03  0.12700000000E+01 0. -1.
         25    2    1    2    0    0  0.00000000000E+00  0.00000000000E+00 -0.20832043593E+03  0.24294747443E+03  0.12500428515E+03 0.  0.
    9000005    1    3    3    0    0 -0.29355131982E+02  0.32622316311E+02 -0.17688546183E+02  0.47326778479E+02  0.10000000000E+01 0.  0.
    9000005    1    3    3    0    0  0.29355131982E+02 -0.32622316311E+02 -0.19063188974E+03  0.19562069595E+03  0.10000000000E+01 0.  0.
<mgrwt>
<rscale>  0 0.12500429E+03</rscale>
<asrwt>0</asrwt>
<pdfrwt beam="2">  1        4 0.34712914E-01 0.12500429E+03</pdfrwt>
<pdfrwt beam="1">  1       -4 0.26636185E-02 0.12500429E+03</pdfrwt>
<totfact> 0.83352382E+03</totfact>
</mgrwt>
</event>
<event>
 5    1  0.3296424E-002  0.1249993E+03  0.7818608E-02  0.1235070E+00
         -4   -1    0    0    0  501 -0.00000000000E+00  0.00000000000E+00  0.16074244276E+03  0.16074745972E+03  0.12700000000E+01 0. -1.
          4   -1    0    0  501    0  0.00000000000E+00 -0.00000000000E+00 -0.24279046043E+02  0.24312239238E+02  0.12700000000E+01 0. -1.
         25    2    1    2    0    0  0.00000000000E+00  0.00000000000E+00  0.13646339672E+03  0.18505969895E+03  0.12499933413E+03 0.  0.
    9000005    1    3    3    0    0 -0.52361474410E+02 -0.26644793007E+02  0.99760804307E+02  0.11577947604E+03  0.10000000000E+01 0.  0.
    9000005    1    3    3    0    0  0.52361474410E+02  0.26644793007E+02  0.36702592413E+02  0.69280222912E+02  0.10000000000E+01 0.  0.
<mgrwt>
<rscale>  0 0.12499933E+03</rscale>
<asrwt>0</asrwt>
<pdfrwt beam="2">  1        4 0.37381772E-02 0.12499933E+03</pdfrwt>
<pdfrwt beam="1">  1       -4 0.24732545E-01 0.12499933E+03</pdfrwt>
<totfact> 0.92715472E+03</totfact>
</mgrwt>
</event>
<event>
 5    1  0.3296424E-002  0.1250003E+03  0.7818608E-02  0.1235069E+00
          4   -1    0    0  501    0  0.00000000000E+00  0.00000000000E+00  0.40850882237E+03  0.40851079650E+03  0.12700000000E+01 0.  1.
         -4   -1    0    0    0  501 -0.00000000000E+00 -0.00000000000E+00 -0.95180888317E+01  0.96024431791E+01  0.12700000000E+01 0.  1.
         25    2    1    2    0    0  0.00000000000E+00  0.00000000000E+00  0.39899073354E+03  0.41811323967E+03  0.12500030297E+03 0.  0.
    9000005    1    3    3    0    0 -0.40271992481E+02 -0.38244703795E+02  0.10366663121E+03  0.11761063376E+03  0.10000000000E+01 0.  0.
    9000005    1    3    3    0    0  0.40271992481E+02  0.38244703795E+02  0.29532410232E+03  0.30050260591E+03  0.10000000000E+01 0.  0.
<mgrwt>
<rscale>  0 0.12500030E+03</rscale>
<asrwt>0</asrwt>
<pdfrwt beam="1">  1        4 0.62854153E-01 0.12500030E+03</pdfrwt>
<pdfrwt beam="2">  1       -4 0.14709620E-02 0.12500030E+03</pdfrwt>
<totfact> 0.62828012E+03</totfact>
</mgrwt>
</event>
<event>
 5    1  0.3296424E-002  0.1249991E+03  0.7818608E-02  0.1235071E+00
         -4   -1    0    0    0  501 -0.00000000000E+00  0.00000000000E+00  0.27737147601E+03  0.27737438347E+03  0.12700000000E+01 0.  1.
          4   -1    0    0  501    0  0.00000000000E+00 -0.00000000000E+00 -0.14051273094E+02  0.14108549733E+02  0.12700000000E+01 0.  1.
         25    2    1    2    0    0  0.00000000000E+00  0.00000000000E+00  0.26332020291E+03  0.29148293320E+03  0.12499908433E+03 0.  0.
    9000005    1    3    3    0    0 -0.30578499052E+02  0.15875634922E+02  0.25323390496E+03  0.25556895549E+03  0.10000000000E+01 0.  0.
    9000005    1    3    3    0    0  0.30578499052E+02 -0.15875634922E+02  0.10086297953E+02  0.35913977708E+02  0.10000000000E+01 0.  0.
<mgrwt>
<rscale>  0 0.12499908E+03</rscale>
<asrwt>0</asrwt>
<pdfrwt beam="2">  1        4 0.21663638E-02 0.12499908E+03</pdfrwt>
<pdfrwt beam="1">  1       -4 0.42677166E-01 0.12499908E+03</pdfrwt>
<totfact> 0.76681333E+03</totfact>
</mgrwt>
</event>
<event>
 5    1  0.3296424E-002  0.1250002E+03  0.7818608E-02  0.1235069E+00
          4   -1    0    0  501    0  0.00000000000E+00  0.00000000000E+00  0.28534574137E+02  0.28562822360E+02  0.12700000000E+01 0.  1.
         -4   -1    0    0    0  501 -0.00000000000E+00 -0.00000000000E+00 -0.13679689194E+03  0.13680278705E+03  0.12700000000E+01 0.  1.
         25    2    1    2    0    0  0.00000000000E+00  0.00000000000E+00 -0.10826231780E+03  0.16536560941E+03  0.12500022128E+03 0.  0.
    9000005    1    3    3    0    0  0.51553093988E+02 -0.31790094218E+02 -0.74494380802E+02  0.96014292484E+02  0.10000000000E+01 0.  0.
    9000005    1    3    3    0    0 -0.51553093988E+02  0.31790094218E+02 -0.33767937003E+02  0.69351316927E+02  0.10000000000E+01 0.  0.
<mgrwt>
<rscale>  0 0.12500022E+03</rscale>
<asrwt>0</asrwt>
<pdfrwt beam="1">  1        4 0.43925610E-02 0.12500022E+03</pdfrwt>
<pdfrwt beam="2">  1       -4 0.21048302E-01 0.12500022E+03</pdfrwt>
<totfact> 0.96317718E+03</totfact>
</mgrwt>
</event>
<event>
 5    1  0.3296424E-002  0.1249997E+03  0.7818608E-02  0.1235070E+00
         -4   -1    0    0    0  501 -0.00000000000E+00  0.00000000000E+00  0.19529885333E+02  0.19571134896E+02  0.12700000000E+01 0. -1.
          4   -1    0    0  501    0  0.00000000000E+00 -0.00000000000E+00 -0.19975874122E+03  0.19976277830E+03  0.12700000000E+01 0. -1.
         25    2    1    2    0    0  0.00000000000E+00  0.00000000000E+00 -0.18022885589E+03  0.21933391320E+03  0.12499969993E+03 0.  0.
    9000005    1    3    3    0    0 -0.33274682072E+02 -0.74330183614E+01 -0.18200946716E+03  0.18517802344E+03  0.10000000000E+01 0.  0.
    9000005    1    3    3    0    0  0.33274682072E+02  0.74330183614E+01  0.17806112665E+01  0.34155889762E+02  0.10000000000E+01 0.  0.
<mgrwt>
<rscale>  0 0.12499970E+03</rscale>
<asrwt>0</asrwt>
<pdfrwt beam="2">  1        4 0.30735596E-01 0.12499970E+03</pdfrwt>
<pdfrwt beam="1">  1       -4 0.30080815E-02 0.12499970E+03</pdfrwt>
<totfact> 0.86974443E+03</totfact>
</mgrwt>
</event>
<event>
 5    1  0.3296424E-002  0.1249999E+03  0.7818608E-02  0.1235069E+00
          4   -1    0    0  501    0  0.00000000000E+00  0.00000000000E+00  0.60385958359E+03  0.60386091909E+03  0.12700000000E+01 0.  1.
         -4   -1    0    0    0  501 -0.00000000000E+00 -0.00000000000E+00 -0.64051081475E+01  0.65298017107E+01  0.12700000000E+01 0.  1.
         25    2    1    2    0    0  0.00000000000E+00  0.00000000000E+00  0.59745447545E+03  0.61039072080E+03  0.12499992721E+03 0.  0.
    9000005    1    3    3    0    0  0.24393128244E+02  0.55982991129E+02  0.36353234290E+03  0.36862702605E+03  0.10000000000E+01 0.  0.
    9000005    1    3    3    0    0 -0.24393128244E+02 -0.55982991129E+02  0.23392213255E+03  0.24176369474E+03  0.10000000000E+01 0.  0.
<mgrwt>
<rscale>  0 0.12499993E+03</rscale>
<asrwt>0</asrwt>
<pdfrwt beam="1">  1        4 0.92911188E-01 0.12499993E+03</pdfrwt>
<pdfrwt beam="2">  1       -4 0.99509560E-03 0.12499993E+03</pdfrwt>
<totfact> 0.48218288E+03</totfact>
</mgrwt>
</event>
<event>
 5    1  0.3296424E-002  0.1250010E+03  0.7818608E-02  0.1235068E+00
         -4   -1    0    0    0  501 -0.00000000000E+00  0.00000000000E+00  0.26118512816E+03  0.26118821580E+03  0.12700000000E+01 0. -1.
          4   -1    0    0  501    0  0.00000000000E+00 -0.00000000000E+00 -0.14925970480E+02  0.14979903030E+02  0.12700000000E+01 0. -1.
         25    2    1    2    0    0  0.00000000000E+00  0.00000000000E+00  0.24625915768E+03  0.27616811883E+03  0.12500102846E+03 0.  0.
    9000005    1    3    3    0    0  0.44408615423E+02  0.32908289872E+02  0.58708337274E+02  0.80639627551E+02  0.10000000000E+01 0.  0.
    9000005    1    3    3    0    0 -0.44408615423E+02 -0.32908289872E+02  0.18755082041E+03  0.19552849128E+03  0.10000000000E+01 0.  0.
<mgrwt>
<rscale>  0 0.12500103E+03</rscale>
<asrwt>0</asrwt>
<pdfrwt beam="2">  1        4 0.23006893E-02 0.12500103E+03</pdfrwt>
<pdfrwt beam="1">  1       -4 0.40186713E-01 0.12500103E+03</pdfrwt>
<totfact> 0.78687143E+03</totfact>
</mgrwt>
</event>
<event>
 5    1  0.3296424E-002  0.1250013E+03  0.7818608E-02  0.1235067E+00
          4   -1    0    0  501    0  0.00000000000E+00  0.00000000000E+00  0.34895973565E+02  0.34919076034E+02  0.12700000000E+01 0.  1.
         -4   -1    0    0    0  501 -0.00000000000E+00 -0.00000000000E+00 -0.11187840317E+03  0.11188561121E+03  0.12700000000E+01 0.  1.
         25    2    1    2    0    0  0.00000000000E+00  0.00000000000E+00 -0.76982429606E+02  0.14680468724E+03  0.12500128691E+03 0.  0.
    9000005    1    3    3    0    0 -0.16183875178E+02  0.12311682785E+02 -0.10789006899E+03  0.10979418170E+03  0.10000000000E+01 0.  0.
    9000005    1    3    3    0    0  0.16183875178E+02 -0.12311682785E+02  0.30907639380E+02  0.37010505547E+02  0.10000000000E+01 0.  0.
<mgrwt>
<rscale>  0 0.12500129E+03</rscale>
<asrwt>0</asrwt>
<pdfrwt beam="1">  1        4 0.53709430E-02 0.12500129E+03</pdfrwt>
<pdfrwt beam="2">  1       -4 0.17214393E-01 0.12500129E+03</pdfrwt>
<totfact> 0.99941597E+03</totfact>
</mgrwt>
</event>
<event>
 5    1  0.3296424E-002  0.1249983E+03  0.7818608E-02  0.1235072E+00
         -4   -1    0    0    0  501 -0.00000000000E+00  0.00000000000E+00  0.38380312289E+02  0.38401318615E+02  0.12700000000E+01 0.  1.
          4   -1    0    0  501    0  0.00000000000E+00 -0.00000000000E+00 -0.10172184592E+03  0.10172977361E+03  0.12700000000E+01 0.  1.
         25    2    1    2    0    0  0.00000000000E+00  0.00000000000E+00 -0.63341533634E+02  0.14013109222E+03  0.12499829248E+03 0.  0.
    9000005    1    3    3    0    0 -0.30686267202E+02 -0.32949234233E+02  0.16909535250E+02  0.48106459169E+02  0.10000000000E+01 0.  0.
    9000005    1    3    3    0    0  0.30686267202E+02  0.32949234233E+02 -0.80251068884E+02  0.92024633053E+02  0.10000000000E+01 0.  0.
<mgrwt>
<rscale>  0 0.12499829E+03</rscale>
<asrwt>0</asrwt>
<pdfrwt beam="2">  1        4 0.15651740E-01 0.12499829E+03</pdfrwt>
<pdfrwt beam="1">  1       -4 0.59068891E-02 0.12499829E+03</pdfrwt>
<totfact> 0.10131259E+04</totfact>
</mgrwt>
</event>
<event>
 5    1  0.3296424E-002  0.1249982E+03  0.7818608E-02  0.1235072E+00
         -4   -1    0    0    0  501 -0.00000000000E+00  0.00000000000E+00  0.19513401619E+03  0.19513814894E+03  0.12700000000E+01 0. -1.
          4   -1    0    0  501    0  0.00000000000E+00 -0.00000000000E+00 -0.19993209288E+02  0.20033504877E+02  0.12700000000E+01 0. -1.
         25    2    1    2    0    0  0.00000000000E+00  0.00000000000E+00  0.17514080690E+03  0.21517165382E+03  0.12499815345E+03 0.  0.
    9000005    1    3    3    0    0 -0.38445156850E+02 -0.21423623036E+02  0.16393792026E+03  0.16974582000E+03  0.10000000000E+01 0.  0.
    9000005    1    3    3    0    0  0.38445156850E+02  0.21423623036E+02  0.11202886641E+02  0.45425833821E+02  0.10000000000E+01 0.  0.
<mgrwt>
<rscale>  0 0.12499815E+03</rscale>
<asrwt>0</asrwt>
<pdfrwt beam="2">  1        4 0.30792958E-02 0.12499815E+03</pdfrwt>
<pdfrwt beam="1">  1       -4 0.30024036E-01 0.12499815E+03</pdfrwt>
<totfact> 0.87641801E+03</totfact>
</mgrwt>
</event>
<event>
 5    1  0.3296424E-002  0.1249969E+03  0.7818608E-02  0.1235074E+00
         -4   -1    0    0    0  501 -0.00000000000E+00  0.00000000000E+00  0.37697581484E+01  0.39779362108E+01  0.12700000000E+01 0. -1.
          4   -1    0    0  501    0  0.00000000000E+00 -0.00000000000E+00 -0.10081058487E+04  0.10081066487E+04  0.12700000000E+01 0. -1.
         25    2    1    2    0    0  0.00000000000E+00  0.00000000000E+00 -0.10043360906E+04  0.10120845849E+04  0.12499689660E+03 0.  0.
    9000005    1    3    3    0    0  0.32610775299E+02  0.51552354081E+02 -0.61198396602E+03  0.61501746524E+03  0.10000000000E+01 0.  0.
    9000005    1    3    3    0    0 -0.32610775299E+02 -0.51552354081E+02 -0.39235212455E+03  0.39706711966E+03  0.10000000000E+01 0.  0.
<mgrwt>
<rscale>  0 0.12499690E+03</rscale>
<asrwt>0</asrwt>
<pdfrwt beam="2">  1        4 0.15510907E+00 0.12499690E+03</pdfrwt>
<pdfrwt beam="1">  1       -4 0.59603883E-03 0.12499690E+03</pdfrwt>
<totfact> 0.30210832E+03</totfact>
</mgrwt>
</event>
<event>
 5    1  0.3296424E-002  0.1250013E+03  0.7818608E-02  0.1235067E+00
          4   -1    0    0  501    0  0.00000000000E+00  0.00000000000E+00  0.21301826796E+03  0.21302205375E+03  0.12700000000E+01 0. -1.
         -4   -1    0    0    0  501 -0.00000000000E+00 -0.00000000000E+00 -0.18312080781E+02  0.18356067186E+02  0.12700000000E+01 0. -1.
         25    2    1    2    0    0  0.00000000000E+00  0.00000000000E+00  0.19470618718E+03  0.23137812094E+03  0.12500134209E+03 0.  0.
    9000005    1    3    3    0    0  0.42039247215E+02  0.46220909703E+02  0.99740158721E+02  0.11769779124E+03  0.10000000000E+01 0.  0.
    9000005    1    3    3    0    0 -0.42039247215E+02 -0.46220909703E+02  0.94966028459E+02  0.11368032970E+03  0.10000000000E+01 0.  0.
<mgrwt>
<rscale>  0 0.12500134E+03</rscale>
<asrwt>0</asrwt>
<pdfrwt beam="1">  1        4 0.32775716E-01 0.12500134E+03</pdfrwt>
<pdfrwt beam="2">  1       -4 0.28209180E-02 0.12500134E+03</pdfrwt>
<totfact> 0.85095885E+03</totfact>
</mgrwt>
</event>
<event>
 5    1  0.3296424E-002  0.1250007E+03  0.7818608E-02  0.1235068E+00
          4   -1    0    0  501    0  0.00000000000E+00  0.00000000000E+00  0.29856960199E+03  0.29857230302E+03  0.12700000000E+01 0.  1.
         -4   -1    0    0    0  501 -0.00000000000E+00 -0.00000000000E+00 -0.13049776294E+02  0.13111428653E+02  0.12700000000E+01 0.  1.
         25    2    1    2    0    0  0.00000000000E+00  0.00000000000E+00  0.28551982569E+03  0.31168373167E+03  0.12500071090E+03 0.  0.
    9000005    1    3    3    0    0  0.53702288035E+02 -0.26286096778E+02  0.97436610619E+02  0.11432317225E+03  0.10000000000E+01 0.  0.
    9000005    1    3    3    0    0 -0.53702288035E+02  0.26286096778E+02  0.18808321507E+03  0.19736055943E+03  0.10000000000E+01 0.  0.
<mgrwt>
<rscale>  0 0.12500071E+03</rscale>
<asrwt>0</asrwt>
<pdfrwt beam="1">  1        4 0.45938736E-01 0.12500071E+03</pdfrwt>
<pdfrwt beam="2">  1       -4 0.20126081E-02 0.12500071E+03</pdfrwt>
<totfact> 0.74155070E+03</totfact>
</mgrwt>
</event>
<event>
 5    1  0.3296424E-002  0.1250244E+03  0.7818608E-02  0.1235031E+00
          4   -1    0    0  501    0  0.00000000000E+00  0.00000000000E+00  0.17983342874E+03  0.17983791312E+03  0.12700000000E+01 0. -1.
         -4   -1    0    0    0  501 -0.00000000000E+00 -0.00000000000E+00 -0.21706669858E+02  0.21743790293E+02  0.12700000000E+01 0. -1.
         25    2    1    2    0    0  0.00000000000E+00  0.00000000000E+00  0.15812675889E+03  0.20158170341E+03  0.12502444270E+03 0.  0.
    9000005    1    3    3    0    0 -0.11414806723E+02 -0.60789167092E+02  0.64538262726E+02  0.89396912720E+02  0.10000000000E+01 0.  0.
    9000005    1    3    3    0    0  0.11414806723E+02  0.60789167092E+02  0.93588496161E+02  0.11218479069E+03  0.10000000000E+01 0.  0.
<mgrwt>
<rscale>  0 0.12502444E+03</rscale>
<asrwt>0</asrwt>
<pdfrwt beam="1">  1        4 0.27669882E-01 0.12502444E+03</pdfrwt>
<pdfrwt beam="2">  1       -4 0.33426880E-02 0.12502444E+03</pdfrwt>
<totfact> 0.89820293E+03</totfact>
</mgrwt>
</event>
<event>
 5    1  0.3296424E-002  0.1250035E+03  0.7818608E-02  0.1235064E+00
         -4   -1    0    0    0  501 -0.00000000000E+00  0.00000000000E+00  0.34378393917E+03  0.34378628496E+03  0.12700000000E+01 0.  1.
          4   -1    0    0  501    0  0.00000000000E+00 -0.00000000000E+00 -0.11325271655E+02  0.11396257195E+02  0.12700000000E+01 0.  1.
         25    2    1    2    0    0  0.00000000000E+00  0.00000000000E+00  0.33245866751E+03  0.35518254216E+03  0.12500349055E+03 0.  0.
    9000005    1    3    3    0    0 -0.47138008177E+01  0.22251785649E+01  0.34317910005E+03  0.34322014225E+03  0.10000000000E+01 0.  0.
    9000005    1    3    3    0    0  0.47138008177E+01 -0.22251785649E+01 -0.10720432536E+02  0.11962399907E+02  0.10000000000E+01 0.  0.
<mgrwt>
<rscale>  0 0.12500349E+03</rscale>
<asrwt>0</asrwt>
<pdfrwt beam="2">  1        4 0.17479907E-02 0.12500349E+03</pdfrwt>
<pdfrwt beam="1">  1       -4 0.52895468E-01 0.12500349E+03</pdfrwt>
<totfact> 0.69152815E+03</totfact>
</mgrwt>
</event>
<event>
 5    1  0.3296424E-002  0.1250022E+03  0.7818608E-02  0.1235066E+00
         -4   -1    0    0    0  501 -0.00000000000E+00  0.00000000000E+00  0.27741424433E+02  0.27770479463E+02  0.12700000000E+01 0.  1.
          4   -1    0    0  501    0  0.00000000000E+00 -0.00000000000E+00 -0.14070869881E+03  0.14071443003E+03  0.12700000000E+01 0.  1.
         25    2    1    2    0    0  0.00000000000E+00  0.00000000000E+00 -0.11296727437E+03  0.16848490950E+03  0.12500223858E+03 0.  0.
    9000005    1    3    3    0    0 -0.46398655698E+02  0.32132073893E+02 -0.20314766699E+02  0.59991625826E+02  0.10000000000E+01 0.  0.
    9000005    1    3    3    0    0  0.46398655698E+02 -0.32132073893E+02 -0.92652507674E+02  0.10849328367E+03  0.10000000000E+01 0.  0.
<mgrwt>
<rscale>  0 0.12500224E+03</rscale>
<asrwt>0</asrwt>
<pdfrwt beam="2">  1        4 0.21650168E-01 0.12500224E+03</pdfrwt>
<pdfrwt beam="1">  1       -4 0.42705874E-02 0.12500224E+03</pdfrwt>
<totfact> 0.95726634E+03</totfact>
</mgrwt>
</event>
<event>
 5    1  0.3296424E-002  0.1250007E+03  0.7818608E-02  0.1235068E+00
         -4   -1    0    0    0  501 -0.00000000000E+00  0.00000000000E+00  0.62539880852E+02  0.62552774495E+02  0.12700000000E+01 0. -1.
          4   -1    0    0  501    0  0.00000000000E+00 -0.00000000000E+00 -0.62435080467E+02  0.62447995748E+02  0.12700000000E+01 0. -1.
         25    2    1    2    0    0  0.00000000000E+00  0.00000000000E+00  0.10480038513E+00  0.12500077024E+03  0.12500072631E+03 0.  0.
    9000005    1    3    3    0    0 -0.45953023045E+02 -0.18378823236E+02  0.38207805410E+02  0.62532374533E+02  0.10000000000E+01 0.  0.
    9000005    1    3    3    0    0  0.45953023045E+02  0.18378823236E+02 -0.38103005025E+02  0.62468395709E+02  0.10000000000E+01 0.  0.
<mgrwt>
<rscale>  0 0.12500073E+03</rscale>
<asrwt>0</asrwt>
<pdfrwt beam="2">  1        4 0.96073824E-02 0.12500073E+03</pdfrwt>
<pdfrwt beam="1">  1       -4 0.96235054E-02 0.12500073E+03</pdfrwt>
<totfact> 0.10452674E+04</totfact>
</mgrwt>
</event>
<event>
 5    1  0.3296424E-002  0.1249989E+03  0.7818608E-02  0.1235071E+00
          4   -1    0    0  501    0  0.00000000000E+00  0.00000000000E+00  0.30937477264E+03  0.30937737933E+03  0.12700000000E+01 0. -1.
         -4   -1    0    0    0  501 -0.00000000000E+00 -0.00000000000E+00 -0.12591451229E+02  0.12655336584E+02  0.12700000000E+01 0. -1.
         25    2    1    2    0    0  0.00000000000E+00  0.00000000000E+00  0.29678332141E+03  0.32203271592E+03  0.12499892102E+03 0.  0.
    9000005    1    3    3    0    0 -0.13518924752E+02  0.21048825631E+02  0.29592454040E+03  0.29698173007E+03  0.10000000000E+01 0.  0.
    9000005    1    3    3    0    0  0.13518924752E+02 -0.21048825631E+02  0.85878100729E+00  0.25050985843E+02  0.10000000000E+01 0.  0.
<mgrwt>
<rscale>  0 0.12499892E+03</rscale>
<asrwt>0</asrwt>
<pdfrwt beam="1">  1        4 0.47601234E-01 0.12499892E+03</pdfrwt>
<pdfrwt beam="2">  1       -4 0.19422611E-02 0.12499892E+03</pdfrwt>
<totfact> 0.72916753E+03</totfact>
</mgrwt>
</event>
<event>
 5    1  0.3296424E-002  0.1250009E+03  0.7818608E-02  0.1235068E+00
          4   -1    0    0  501    0  0.00000000000E+00  0.00000000000E+00  0.81300376216E+01  0.82286336490E+01  0.12700000000E+01 0. -1.
         -4   -1    0    0    0  501 -0.00000000000E+00 -0.00000000000E+00 -0.47748253272E+03  0.47748422168E+03  0.12700000000E+01 0. -1.
         25    2    1    2    0    0  0.00000000000E+00  0.00000000000E+00 -0.46935249510E+03  0.48571285533E+03  0.12500085270E+03 0.  0.
    9000005    1    3    3    0    0  0.32399501713E+02  0.35253948660E+02 -0.39072061099E+03  0.39364471857E+03  0.10000000000E+01 0.  0.
    9000005    1    3    3    0    0 -0.32399501713E+02 -0.35253948660E+02 -0.78631884110E+02  0.92068136758E+02  0.10000000000E+01 0.  0.
<mgrwt>
<rscale>  0 0.12500085E+03</rscale>
<asrwt>0</asrwt>
<pdfrwt beam="1">  1        4 0.12584896E-02 0.12500085E+03</pdfrwt>
<pdfrwt beam="2">  1       -4 0.73466544E-01 0.12500085E+03</pdfrwt>
<totfact> 0.56989106E+03</totfact>
</mgrwt>
</event>
<event>
 5    1  0.3296424E-002  0.1250126E+03  0.7818608E-02  0.1235050E+00
          4   -1    0    0  501    0  0.00000000000E+00  0.00000000000E+00  0.87414655033E+02  0.87423880116E+02  0.12700000000E+01 0. -1.
         -4   -1    0    0    0  501 -0.00000000000E+00 -0.00000000000E+00 -0.44674810939E+02  0.44692858853E+02  0.12700000000E+01 0. -1.
         25    2    1    2    0    0  0.00000000000E+00  0.00000000000E+00  0.42739844094E+02  0.13211673897E+03  0.12501255314E+03 0.  0.
    9000005    1    3    3    0    0  0.49778009774E+02 -0.27849656016E+02 -0.56274466462E+01  0.57324704561E+02  0.10000000000E+01 0.  0.
    9000005    1    3    3    0    0 -0.49778009774E+02  0.27849656016E+02  0.48367290740E+02  0.74792034408E+02  0.10000000000E+01 0.  0.
<mgrwt>
<rscale>  0 0.12501255E+03</rscale>
<asrwt>0</asrwt>
<pdfrwt beam="1">  1        4 0.13450506E-01 0.12501255E+03</pdfrwt>
<pdfrwt beam="2">  1       -4 0.68751459E-02 0.12501255E+03</pdfrwt>
<totfact> 0.10296291E+04</totfact>
</mgrwt>
</event>
<event>
 5    1  0.3296424E-002  0.1250018E+03  0.7818608E-02  0.1235067E+00
         -4   -1    0    0    0  501 -0.00000000000E+00  0.00000000000E+00  0.12954245776E+02  0.13016350626E+02  0.12700000000E+01 0.  1.
          4   -1    0    0  501    0  0.00000000000E+00 -0.00000000000E+00 -0.30076602101E+03  0.30076870232E+03  0.12700000000E+01 0.  1.
         25    2    1    2    0    0  0.00000000000E+00  0.00000000000E+00 -0.28781177523E+03  0.31378505294E+03  0.12500176594E+03 0.  0.
    9000005    1    3    3    0    0  0.46607284328E+02  0.41257915686E+02 -0.15786109160E+03  0.16969260090E+03  0.10000000000E+01 0.  0.
    9000005    1    3    3    0    0 -0.46607284328E+02 -0.41257915686E+02 -0.12995068363E+03  0.14409245204E+03  0.10000000000E+01 0.  0.
<mgrwt>
<rscale>  0 0.12500177E+03</rscale>
<asrwt>0</asrwt>
<pdfrwt beam="2">  1        4 0.46276674E-01 0.12500177E+03</pdfrwt>
<pdfrwt beam="1">  1       -4 0.19979447E-02 0.12500177E+03</pdfrwt>
<totfact> 0.73898567E+03</totfact>
</mgrwt>
</event>
<event>
 5    1  0.3296424E-002  0.1250034E+03  0.7818608E-02  0.1235064E+00
         -4   -1    0    0    0  501 -0.00000000000E+00  0.00000000000E+00  0.35332322053E+03  0.35332550299E+03  0.12700000000E+01 0.  1.
          4   -1    0    0  501    0  0.00000000000E+00 -0.00000000000E+00 -0.11017540097E+02  0.11090495471E+02  0.12700000000E+01 0.  1.
         25    2    1    2    0    0  0.00000000000E+00  0.00000000000E+00  0.34230568043E+03  0.36441599846E+03  0.12500336428E+03 0.  0.
    9000005    1    3    3    0    0 -0.15484571090E+02  0.45382767557E+02  0.54321047019E+02  0.72464775458E+02  0.10000000000E+01 0.  0.
    9000005    1    3    3    0    0  0.15484571090E+02 -0.45382767557E+02  0.28798463341E+03  0.29195122300E+03  0.10000000000E+01 0.  0.
<mgrwt>
<rscale>  0 0.12500336E+03</rscale>
<asrwt>0</asrwt>
<pdfrwt beam="2">  1        4 0.17007939E-02 0.12500336E+03</pdfrwt>
<pdfrwt beam="1">  1       -4 0.54363199E-01 0.12500336E+03</pdfrwt>
<totfact> 0.68162134E+03</totfact>
</mgrwt>
</event>
<event>
 5    1  0.3296424E-002  0.1249512E+03  0.7818608E-02  0.1235146E+00
          4   -1    0    0  501    0  0.00000000000E+00  0.00000000000E+00  0.44363272083E+02  0.44381446686E+02  0.12700000000E+01 0.  1.
         -4   -1    0    0    0  501 -0.00000000000E+00 -0.00000000000E+00 -0.87941973799E+02  0.87951143572E+02  0.12700000000E+01 0.  1.
         25    2    1    2    0    0  0.00000000000E+00  0.00000000000E+00 -0.43578701715E+02  0.13233259026E+03  0.12495123529E+03 0.  0.
    9000005    1    3    3    0    0  0.49875754022E+02 -0.22702865399E+01  0.17971190778E+02  0.53072674120E+02  0.10000000000E+01 0.  0.
    9000005    1    3    3    0    0 -0.49875754022E+02  0.22702865399E+01 -0.61549892493E+02  0.79259916138E+02  0.10000000000E+01 0.  0.
<mgrwt>
<rscale>  0 0.12495124E+03</rscale>
<asrwt>0</asrwt>
<pdfrwt beam="1">  1        4 0.68272222E-02 0.12495124E+03</pdfrwt>
<pdfrwt beam="2">  1       -4 0.13531638E-01 0.12495124E+03</pdfrwt>
<totfact> 0.10305937E+04</totfact>
</mgrwt>
</event>
<event>
 5    1  0.3296424E-002  0.1249954E+03  0.7818608E-02  0.1235077E+00
          4   -1    0    0  501    0  0.00000000000E+00  0.00000000000E+00  0.33369482080E+02  0.33393640626E+02  0.12700000000E+01 0.  1.
         -4   -1    0    0    0  501 -0.00000000000E+00 -0.00000000000E+00 -0.11698190105E+03  0.11698879465E+03  0.12700000000E+01 0.  1.
         25    2    1    2    0    0  0.00000000000E+00  0.00000000000E+00 -0.83612418974E+02  0.15038243528E+03  0.12499536085E+03 0.  0.
    9000005    1    3    3    0    0  0.14785781514E+02  0.25541430787E+02 -0.10807503780E+03  0.11203659142E+03  0.10000000000E+01 0.  0.
    9000005    1    3    3    0    0 -0.14785781514E+02 -0.25541430787E+02  0.24462618824E+02  0.38345843860E+02  0.10000000000E+01 0.  0.
<mgrwt>
<rscale>  0 0.12499536E+03</rscale>
<asrwt>0</asrwt>
<pdfrwt beam="1">  1        4 0.51361551E-02 0.12499536E+03</pdfrwt>
<pdfrwt beam="2">  1       -4 0.17999604E-01 0.12499536E+03</pdfrwt>
<totfact> 0.99237880E+03</totfact>
</mgrwt>
</event>
<event>
 5    1  0.3296424E-002  0.1249912E+03  0.7818608E-02  0.1235083E+00
         -4   -1    0    0    0  501 -0.00000000000E+00  0.00000000000E+00  0.42276980082E+03  0.42277170835E+03  0.12700000000E+01 0. -1.
          4   -1    0    0  501    0  0.00000000000E+00 -0.00000000000E+00 -0.91927759006E+01  0.92800877559E+01  0.12700000000E+01 0. -1.
         25    2    1    2    0    0  0.00000000000E+00  0.00000000000E+00  0.41357702492E+03  0.43205179611E+03  0.12499119562E+03 0.  0.
    9000005    1    3    3    0    0  0.19041926928E+01 -0.19498274113E+02  0.16804703459E+01  0.19688388044E+02  0.10000000000E+01 0.  0.
    9000005    1    3    3    0    0 -0.19041926928E+01  0.19498274113E+02  0.41189655457E+03  0.41236340807E+03  0.10000000000E+01 0.  0.
<mgrwt>
<rscale>  0 0.12499120E+03</rscale>
<asrwt>0</asrwt>
<pdfrwt beam="2">  1        4 0.14211360E-02 0.12499120E+03</pdfrwt>
<pdfrwt beam="1">  1       -4 0.65048381E-01 0.12499120E+03</pdfrwt>
<totfact> 0.61562389E+03</totfact>
</mgrwt>
</event>
<event>
 5    1  0.3296424E-002  0.1250035E+03  0.7818608E-02  0.1235064E+00
          4   -1    0    0  501    0  0.00000000000E+00  0.00000000000E+00  0.62782105049E+01  0.64053748637E+01  0.12700000000E+01 0.  1.
         -4   -1    0    0    0  501 -0.00000000000E+00 -0.00000000000E+00 -0.61585997585E+03  0.61586128532E+03  0.12700000000E+01 0.  1.
         25    2    1    2    0    0  0.00000000000E+00  0.00000000000E+00 -0.60958176535E+03  0.62226666018E+03  0.12500347088E+03 0.  0.
    9000005    1    3    3    0    0 -0.25527505655E+02 -0.56389114654E+02 -0.26194508031E+03  0.26916093865E+03  0.10000000000E+01 0.  0.
    9000005    1    3    3    0    0  0.25527505655E+02  0.56389114654E+02 -0.34763668504E+03  0.35310572154E+03  0.10000000000E+01 0.  0.
<mgrwt>
<rscale>  0 0.12500347E+03</rscale>
<asrwt>0</asrwt>
<pdfrwt beam="1">  1        4 0.97576163E-03 0.12500347E+03</pdfrwt>
<pdfrwt beam="2">  1       -4 0.94757524E-01 0.12500347E+03</pdfrwt>
<totfact> 0.47487984E+03</totfact>
</mgrwt>
</event>
<event>
 5    1  0.3296424E-002  0.1250006E+03  0.7818608E-02  0.1235068E+00
          4   -1    0    0  501    0  0.00000000000E+00  0.00000000000E+00  0.46407340349E+02  0.46424714735E+02  0.12700000000E+01 0. -1.
         -4   -1    0    0    0  501 -0.00000000000E+00 -0.00000000000E+00 -0.84136048685E+02  0.84145633210E+02  0.12700000000E+01 0. -1.
         25    2    1    2    0    0  0.00000000000E+00  0.00000000000E+00 -0.37728708336E+02  0.13057034795E+03  0.12500064132E+03 0.  0.
    9000005    1    3    3    0    0  0.22765100215E+02  0.50698907014E+02 -0.48714967635E+02  0.73910601620E+02  0.10000000000E+01 0.  0.
    9000005    1    3    3    0    0 -0.22765100215E+02 -0.50698907014E+02  0.10986259299E+02  0.56659746325E+02  0.10000000000E+01 0.  0.
<mgrwt>
<rscale>  0 0.12500064E+03</rscale>
<asrwt>0</asrwt>
<pdfrwt beam="1">  1        4 0.71416646E-02 0.12500064E+03</pdfrwt>
<pdfrwt beam="2">  1       -4 0.12946081E-01 0.12500064E+03</pdfrwt>
<totfact> 0.10332160E+04</totfact>
</mgrwt>
</event>
<event>
 5    1  0.3296424E-002  0.1249990E+03  0.7818608E-02  0.1235071E+00
          4   -1    0    0  501    0  0.00000000000E+00  0.00000000000E+00  0.27810637694E+03  0.27810927672E+03  0.12700000000E+01 0.  1.
         -4   -1    0    0    0  501 -0.00000000000E+00 -0.00000000000E+00 -0.14013966579E+02  0.14071395072E+02  0.12700000000E+01 0.  1.
         25    2    1    2    0    0  0.00000000000E+00  0.00000000000E+00  0.26409241036E+03  0.29218067179E+03  0.12499897502E+03 0.  0.
    9000005    1    3    3    0    0  0.38131765870E+02  0.35682253471E+02  0.51822080689E+02  0.73578412785E+02  0.10000000000E+01 0.  0.
    9000005    1    3    3    0    0 -0.38131765870E+02 -0.35682253471E+02  0.21227032968E+03  0.21860225900E+03  0.10000000000E+01 0.  0.
<mgrwt>
<rscale>  0 0.12499898E+03</rscale>
<asrwt>0</asrwt>
<pdfrwt beam="1">  1        4 0.42790235E-01 0.12499898E+03</pdfrwt>
<pdfrwt beam="2">  1       -4 0.21606356E-02 0.12499898E+03</pdfrwt>
<totfact> 0.76592011E+03</totfact>
</mgrwt>
</event>
<event>
 5    1  0.3296424E-002  0.1250021E+03  0.7818608E-02  0.1235066E+00
          4   -1    0    0  501    0  0.00000000000E+00  0.00000000000E+00  0.38531705888E+02  0.38552629725E+02  0.12700000000E+01 0. -1.
         -4   -1    0    0    0  501 -0.00000000000E+00 -0.00000000000E+00 -0.10132856024E+03  0.10133651869E+03  0.12700000000E+01 0. -1.
         25    2    1    2    0    0  0.00000000000E+00  0.00000000000E+00 -0.62796854351E+02  0.13988914841E+03  0.12500211569E+03 0.  0.
    9000005    1    3    3    0    0 -0.45837535536E+02  0.32646594456E+02 -0.98659189463E+00  0.56292567512E+02  0.10000000000E+01 0.  0.
    9000005    1    3    3    0    0  0.45837535536E+02 -0.32646594456E+02 -0.61810262456E+02  0.83596580902E+02  0.10000000000E+01 0.  0.
<mgrwt>
<rscale>  0 0.12500212E+03</rscale>
<asrwt>0</asrwt>
<pdfrwt beam="1">  1        4 0.59301765E-02 0.12500212E+03</pdfrwt>
<pdfrwt beam="2">  1       -4 0.15591231E-01 0.12500212E+03</pdfrwt>
<totfact> 0.10135401E+04</totfact>
</mgrwt>
</event>
<event>
 5    1  0.3296424E-002  0.1249982E+03  0.7818608E-02  0.1235072E+00
         -4   -1    0    0    0  501 -0.00000000000E+00  0.00000000000E+00  0.45780392551E+03  0.45780568707E+03  0.12700000000E+01 0. -1.
          4   -1    0    0  501    0  0.00000000000E+00 -0.00000000000E+00 -0.84832843018E+01  0.85778209672E+01  0.12700000000E+01 0. -1.
         25    2    1    2    0    0  0.00000000000E+00  0.00000000000E+00  0.44932064121E+03  0.46638350804E+03  0.12499815179E+03 0.  0.
    9000005    1    3    3    0    0 -0.39116125298E+02  0.48249286635E+02  0.25025853686E+03  0.25785344712E+03  0.10000000000E+01 0.  0.
    9000005    1    3    3    0    0  0.39116125298E+02 -0.48249286635E+02  0.19906210435E+03  0.20853006092E+03  0.10000000000E+01 0.  0.
<mgrwt>
<rscale>  0 0.12499815E+03</rscale>
<asrwt>0</asrwt>
<pdfrwt beam="2">  1        4 0.13125276E-02 0.12499815E+03</pdfrwt>
<pdfrwt beam="1">  1       -4 0.70438813E-01 0.12499815E+03</pdfrwt>
<totfact> 0.58572674E+03</totfact>
</mgrwt>
</event>
<event>
 5    1  0.3296424E-002  0.1249981E+03  0.7818608E-02  0.1235072E+00
          4   -1    0    0  501    0  0.00000000000E+00  0.00000000000E+00  0.71525028690E+01  0.72643786583E+01  0.12700000000E+01 0. -1.
         -4   -1    0    0    0  501 -0.00000000000E+00 -0.00000000000E+00 -0.54177006850E+03  0.54177155705E+03  0.12700000000E+01 0. -1.
         25    2    1    2    0    0  0.00000000000E+00  0.00000000000E+00 -0.53461756563E+03  0.54903593571E+03  0.12499806883E+03 0.  0.
    9000005    1    3    3    0    0  0.48927771579E+02  0.28548575732E+02 -0.15141539916E+03  0.16166808934E+03  0.10000000000E+01 0.  0.
    9000005    1    3    3    0    0 -0.48927771579E+02 -0.28548575732E+02 -0.38320216647E+03  0.38736784637E+03  0.10000000000E+01 0.  0.
<mgrwt>
<rscale>  0 0.12499807E+03</rscale>
<asrwt>0</asrwt>
<pdfrwt beam="1">  1        4 0.11091058E-02 0.12499807E+03</pdfrwt>
<pdfrwt beam="2">  1       -4 0.83357930E-01 0.12499807E+03</pdfrwt>
<totfact> 0.52253420E+03</totfact>
</mgrwt>
</event>
<event>
 5    1  0.3296424E-002  0.1249974E+03  0.7818608E-02  0.1235073E+00
         -4   -1    0    0    0  501 -0.00000000000E+00  0.00000000000E+00  0.82012750101E+02  0.82022582739E+02  0.12700000000E+01 0.  1.
          4   -1    0    0  501    0  0.00000000000E+00 -0.00000000000E+00 -0.47606613835E+02  0.47623550695E+02  0.12700000000E+01 0.  1.
         25    2    1    2    0    0  0.00000000000E+00  0.00000000000E+00  0.34406136266E+02  0.12964613343E+03  0.12499735078E+03 0.  0.
    9000005    1    3    3    0    0  0.43104745193E+02  0.28872450239E+02  0.53333168142E+02  0.74411452512E+02  0.10000000000E+01 0.  0.
    9000005    1    3    3    0    0 -0.43104745193E+02 -0.28872450239E+02 -0.18927031876E+02  0.55234680922E+02  0.10000000000E+01 0.  0.
<mgrwt>
<rscale>  0 0.12499735E+03</rscale>
<asrwt>0</asrwt>
<pdfrwt beam="2">  1        4 0.73261538E-02 0.12499735E+03</pdfrwt>
<pdfrwt beam="1">  1       -4 0.12619405E-01 0.12499735E+03</pdfrwt>
<totfact> 0.10352702E+04</totfact>
</mgrwt>
</event>
<event>
 5    1  0.3296424E-002  0.1250051E+03  0.7818608E-02  0.1235061E+00
          4   -1    0    0  501    0  0.00000000000E+00  0.00000000000E+00  0.54789010439E+01  0.56241671960E+01  0.12700000000E+01 0. -1.
         -4   -1    0    0    0  501 -0.00000000000E+00 -0.00000000000E+00 -0.70354575021E+03  0.70354689648E+03  0.12700000000E+01 0. -1.
         25    2    1    2    0    0  0.00000000000E+00  0.00000000000E+00 -0.69806684917E+03  0.70917106367E+03  0.12500508647E+03 0.  0.
    9000005    1    3    3    0    0 -0.60185368233E+02  0.16131054356E+02 -0.32177965318E+03  0.32775850053E+03  0.10000000000E+01 0.  0.
    9000005    1    3    3    0    0  0.60185368233E+02 -0.16131054356E+02 -0.37628719598E+03  0.38141256315E+03  0.10000000000E+01 0.  0.
<mgrwt>
<rscale>  0 0.12500509E+03</rscale>
<asrwt>0</asrwt>
<pdfrwt beam="1">  1        4 0.85417090E-03 0.12500509E+03</pdfrwt>
<pdfrwt beam="2">  1       -4 0.10824900E+00 0.12500509E+03</pdfrwt>
<totfact> 0.42602254E+03</totfact>
</mgrwt>
</event>
<event>
 5    1  0.3296424E-002  0.1249853E+03  0.7818608E-02  0.1235092E+00
          4   -1    0    0  501    0  0.00000000000E+00  0.00000000000E+00  0.96035057574E+02  0.96043454661E+02  0.12700000000E+01 0. -1.
         -4   -1    0    0    0  501 -0.00000000000E+00 -0.00000000000E+00 -0.40645600544E+02  0.40665436719E+02  0.12700000000E+01 0. -1.
         25    2    1    2    0    0  0.00000000000E+00  0.00000000000E+00  0.55389457030E+02  0.13670889138E+03  0.12498531527E+03 0.  0.
    9000005    1    3    3    0    0  0.47057467162E+02  0.39968143140E+02  0.38213110696E+02  0.72616110546E+02  0.10000000000E+01 0.  0.
    9000005    1    3    3    0    0 -0.47057467162E+02 -0.39968143140E+02  0.17176346334E+02  0.64092780834E+02  0.10000000000E+01 0.  0.
<mgrwt>
<rscale>  0 0.12498532E+03</rscale>
<asrwt>0</asrwt>
<pdfrwt beam="1">  1        4 0.14776796E-01 0.12498532E+03</pdfrwt>
<pdfrwt beam="2">  1       -4 0.62553411E-02 0.12498532E+03</pdfrwt>
<totfact> 0.10205555E+04</totfact>
</mgrwt>
</event>
<event>
 5    1  0.3296424E-002  0.1250098E+03  0.7818608E-02  0.1235054E+00
         -4   -1    0    0    0  501 -0.00000000000E+00  0.00000000000E+00  0.13225523046E+03  0.13226132800E+03  0.12700000000E+01 0.  1.
          4   -1    0    0  501    0  0.00000000000E+00 -0.00000000000E+00 -0.29519902781E+02  0.29547209009E+02  0.12700000000E+01 0.  1.
         25    2    1    2    0    0  0.00000000000E+00  0.00000000000E+00  0.10273532768E+03  0.16180853701E+03  0.12500982000E+03 0.  0.
    9000005    1    3    3    0    0 -0.40762981064E+01 -0.55794834175E+02  0.15306506764E+02  0.58008351779E+02  0.10000000000E+01 0.  0.
    9000005    1    3    3    0    0  0.40762981064E+01  0.55794834175E+02  0.87428820915E+02  0.10380018523E+03  0.10000000000E+01 0.  0.
<mgrwt>
<rscale>  0 0.12500982E+03</rscale>
<asrwt>0</asrwt>
<pdfrwt beam="2">  1        4 0.45440930E-02 0.12500982E+03</pdfrwt>
<pdfrwt beam="1">  1       -4 0.20349528E-01 0.12500982E+03</pdfrwt>
<totfact> 0.96973840E+03</totfact>
</mgrwt>
</event>
<event>
 5    1  0.3296424E-002  0.1250076E+03  0.7818608E-02  0.1235057E+00
         -4   -1    0    0    0  501 -0.00000000000E+00  0.00000000000E+00  0.47011177956E+02  0.47028329258E+02  0.12700000000E+01 0.  1.
          4   -1    0    0  501    0  0.00000000000E+00 -0.00000000000E+00 -0.83064851130E+02  0.83074559242E+02  0.12700000000E+01 0.  1.
         25    2    1    2    0    0  0.00000000000E+00  0.00000000000E+00 -0.36053673174E+02  0.13010288850E+03  0.12500757676E+03 0.  0.
    9000005    1    3    3    0    0  0.22109135467E+02 -0.15101239967E+01  0.42789797190E+02  0.48198144043E+02  0.10000000000E+01 0.  0.
    9000005    1    3    3    0    0 -0.22109135467E+02  0.15101239967E+01 -0.78843470364E+02  0.81904744458E+02  0.10000000000E+01 0.  0.
<mgrwt>
<rscale>  0 0.12500758E+03</rscale>
<asrwt>0</asrwt>
<pdfrwt beam="2">  1        4 0.12781274E-01 0.12500758E+03</pdfrwt>
<pdfrwt beam="1">  1       -4 0.72345551E-02 0.12500758E+03</pdfrwt>
<totfact> 0.10340538E+04</totfact>
</mgrwt>
</event>
<event>
 5    1  0.3296424E-002  0.1249977E+03  0.7818608E-02  0.1235073E+00
          4   -1    0    0  501    0  0.00000000000E+00  0.00000000000E+00  0.13907227207E+02  0.13965094650E+02  0.12700000000E+01 0. -1.
         -4   -1    0    0    0  501 -0.00000000000E+00 -0.00000000000E+00 -0.28022646129E+03  0.28022933913E+03  0.12700000000E+01 0. -1.
         25    2    1    2    0    0  0.00000000000E+00  0.00000000000E+00 -0.26631923408E+03  0.29419443378E+03  0.12499772167E+03 0.  0.
    9000005    1    3    3    0    0 -0.20703949011E+02 -0.47292123731E+02 -0.50283902855E+02  0.72074054680E+02  0.10000000000E+01 0.  0.
    9000005    1    3    3    0    0  0.20703949011E+02  0.47292123731E+02 -0.21603533123E+03  0.22212037910E+03  0.10000000000E+01 0.  0.
<mgrwt>
<rscale>  0 0.12499772E+03</rscale>
<asrwt>0</asrwt>
<pdfrwt beam="1">  1        4 0.21442463E-02 0.12499772E+03</pdfrwt>
<pdfrwt beam="2">  1       -4 0.43116432E-01 0.12499772E+03</pdfrwt>
<totfact> 0.76336761E+03</totfact>
</mgrwt>
</event>
<event>
 5    1  0.3296424E-002  0.1249965E+03  0.7818608E-02  0.1235075E+00
          4   -1    0    0  501    0  0.00000000000E+00  0.00000000000E+00  0.21800504140E+03  0.21800874059E+03  0.12700000000E+01 0. -1.
         -4   -1    0    0    0  501 -0.00000000000E+00 -0.00000000000E+00 -0.17890797848E+02  0.17935817451E+02  0.12700000000E+01 0. -1.
         25    2    1    2    0    0  0.00000000000E+00  0.00000000000E+00  0.20011424355E+03  0.23594455804E+03  0.12499649595E+03 0.  0.
    9000005    1    3    3    0    0  0.53127042593E+02 -0.24593749598E+02  0.58801052313E+02  0.82981316735E+02  0.10000000000E+01 0.  0.
    9000005    1    3    3    0    0 -0.53127042593E+02  0.24593749598E+02  0.14131319124E+03  0.15296324131E+03  0.10000000000E+01 0.  0.
<mgrwt>
<rscale>  0 0.12499650E+03</rscale>
<asrwt>0</asrwt>
<pdfrwt beam="1">  1        4 0.33542983E-01 0.12499650E+03</pdfrwt>
<pdfrwt beam="2">  1       -4 0.27561782E-02 0.12499650E+03</pdfrwt>
<totfact> 0.84411682E+03</totfact>
</mgrwt>
</event>
<event>
 5    1  0.3296424E-002  0.1250003E+03  0.7818608E-02  0.1235069E+00
         -4   -1    0    0    0  501 -0.00000000000E+00  0.00000000000E+00  0.16940318651E+02  0.16987857310E+02  0.12700000000E+01 0.  1.
          4   -1    0    0  501    0  0.00000000000E+00 -0.00000000000E+00 -0.23021752113E+03  0.23022102410E+03  0.12700000000E+01 0.  1.
         25    2    1    2    0    0  0.00000000000E+00  0.00000000000E+00 -0.21327720248E+03  0.24720888141E+03  0.12500026379E+03 0.  0.
    9000005    1    3    3    0    0 -0.25038260367E+02  0.36635386038E+02 -0.19366044956E+03  0.19868174480E+03  0.10000000000E+01 0.  0.
    9000005    1    3    3    0    0  0.25038260367E+02 -0.36635386038E+02 -0.19616752924E+02  0.48527136611E+02  0.10000000000E+01 0.  0.
<mgrwt>
<rscale>  0 0.12500026E+03</rscale>
<asrwt>0</asrwt>
<pdfrwt beam="2">  1        4 0.35422004E-01 0.12500026E+03</pdfrwt>
<pdfrwt beam="1">  1       -4 0.26101293E-02 0.12500026E+03</pdfrwt>
<totfact> 0.82734827E+03</totfact>
</mgrwt>
</event>
<event>
 5    1  0.3296424E-002  0.1250004E+03  0.7818608E-02  0.1235069E+00
          4   -1    0    0  501    0  0.00000000000E+00  0.00000000000E+00  0.72958524424E+01  0.74055629672E+01  0.12700000000E+01 0.  1.
         -4   -1    0    0    0  501 -0.00000000000E+00 -0.00000000000E+00 -0.53130402429E+03  0.53130554216E+03  0.12700000000E+01 0.  1.
         25    2    1    2    0    0  0.00000000000E+00  0.00000000000E+00 -0.52400817185E+03  0.53871110512E+03  0.12500036248E+03 0.  0.
    9000005    1    3    3    0    0 -0.38094542800E+02  0.19221614388E+02 -0.65235005319E+02  0.77956850692E+02  0.10000000000E+01 0.  0.
    9000005    1    3    3    0    0  0.38094542800E+02 -0.19221614388E+02 -0.45877316653E+03  0.46075425443E+03  0.10000000000E+01 0.  0.
<mgrwt>
<rscale>  0 0.12500036E+03</rscale>
<asrwt>0</asrwt>
<pdfrwt beam="1">  1        4 0.11309953E-02 0.12500036E+03</pdfrwt>
<pdfrwt beam="2">  1       -4 0.81747607E-01 0.12500036E+03</pdfrwt>
<totfact> 0.52980761E+03</totfact>
</mgrwt>
</event>
<event>
 5    1  0.3296424E-002  0.1249961E+03  0.7818608E-02  0.1235075E+00
          4   -1    0    0  501    0  0.00000000000E+00  0.00000000000E+00  0.58922071964E+02  0.58935757096E+02  0.12700000000E+01 0.  1.
         -4   -1    0    0    0  501 -0.00000000000E+00 -0.00000000000E+00 -0.66263632474E+02  0.66275801682E+02  0.12700000000E+01 0.  1.
         25    2    1    2    0    0  0.00000000000E+00  0.00000000000E+00 -0.73415605100E+01  0.12521155878E+03  0.12499614370E+03 0.  0.
    9000005    1    3    3    0    0 -0.20847919661E+02  0.28255505551E+02 -0.55451252261E+02  0.65641836700E+02  0.10000000000E+01 0.  0.
    9000005    1    3    3    0    0  0.20847919661E+02 -0.28255505551E+02  0.48109691751E+02  0.59569722078E+02  0.10000000000E+01 0.  0.
<mgrwt>
<rscale>  0 0.12499614E+03</rscale>
<asrwt>0</asrwt>
<pdfrwt beam="1">  1        4 0.90669229E-02 0.12499614E+03</pdfrwt>
<pdfrwt beam="2">  1       -4 0.10196394E-01 0.12499614E+03</pdfrwt>
<totfact> 0.10449180E+04</totfact>
</mgrwt>
</event>
<event>
 5    1  0.3296424E-002  0.1250119E+03  0.7818608E-02  0.1235051E+00
         -4   -1    0    0    0  501 -0.00000000000E+00  0.00000000000E+00  0.17725086529E+02  0.17770525948E+02  0.12700000000E+01 0. -1.
          4   -1    0    0  501    0  0.00000000000E+00 -0.00000000000E+00 -0.22009212143E+03  0.22009578554E+03  0.12700000000E+01 0. -1.
         25    2    1    2    0    0  0.00000000000E+00  0.00000000000E+00 -0.20236703490E+03  0.23786631149E+03  0.12501186075E+03 0.  0.
    9000005    1    3    3    0    0  0.15608326261E+02 -0.28424705229E+02  0.47405025225E+00  0.32447009718E+02  0.10000000000E+01 0.  0.
    9000005    1    3    3    0    0 -0.15608326261E+02  0.28424705229E+02 -0.20284108515E+03  0.20541930177E+03  0.10000000000E+01 0.  0.
<mgrwt>
<rscale>  0 0.12501186E+03</rscale>
<asrwt>0</asrwt>
<pdfrwt beam="2">  1        4 0.33864102E-01 0.12501186E+03</pdfrwt>
<pdfrwt beam="1">  1       -4 0.27307137E-02 0.12501186E+03</pdfrwt>
<totfact> 0.84093931E+03</totfact>
</mgrwt>
</event>
<event>
 5    1  0.3296424E-002  0.1250001E+03  0.7818608E-02  0.1235069E+00
         -4   -1    0    0    0  501 -0.00000000000E+00  0.00000000000E+00  0.15884472542E+02  0.15935161372E+02  0.12700000000E+01 0.  1.
          4   -1    0    0  501    0  0.00000000000E+00 -0.00000000000E+00 -0.24547274583E+03  0.24547603110E+03  0.12700000000E+01 0.  1.
         25    2    1    2    0    0  0.00000000000E+00  0.00000000000E+00 -0.22958827329E+03  0.26141119247E+03  0.12500014528E+03 0.  0.
    9000005    1    3    3    0    0  0.65176306016E+01 -0.61912977617E+02 -0.12616481173E+03  0.14069206098E+03  0.10000000000E+01 0.  0.
    9000005    1    3    3    0    0 -0.65176306016E+01  0.61912977617E+02 -0.10342346156E+03  0.12071913149E+03  0.10000000000E+01 0.  0.
<mgrwt>
<rscale>  0 0.12500015E+03</rscale>
<asrwt>0</asrwt>
<pdfrwt beam="2">  1        4 0.37769187E-01 0.12500015E+03</pdfrwt>
<pdfrwt beam="1">  1       -4 0.24479170E-02 0.12500015E+03</pdfrwt>
<totfact> 0.80708167E+03</totfact>
</mgrwt>
</event>
<event>
 5    1  0.3296424E-002  0.1250021E+03  0.7818608E-02  0.1235066E+00
         -4   -1    0    0    0  501 -0.00000000000E+00  0.00000000000E+00  0.59404898520E+02  0.59418472449E+02  0.12700000000E+01 0. -1.
          4   -1    0    0  501    0  0.00000000000E+00 -0.00000000000E+00 -0.65731298407E+02  0.65743566151E+02  0.12700000000E+01 0. -1.
         25    2    1    2    0    0  0.00000000000E+00  0.00000000000E+00 -0.63263998874E+01  0.12516203860E+03  0.12500205027E+03 0.  0.
    9000005    1    3    3    0    0  0.95781574310E+01 -0.21390647876E+02  0.54842605924E+02  0.59649076614E+02  0.10000000000E+01 0.  0.
    9000005    1    3    3    0    0 -0.95781574310E+01  0.21390647876E+02 -0.61169005811E+02  0.65512961987E+02  0.10000000000E+01 0.  0.
<mgrwt>
<rscale>  0 0.12500205E+03</rscale>
<asrwt>0</asrwt>
<pdfrwt beam="2">  1        4 0.10114495E-01 0.12500205E+03</pdfrwt>
<pdfrwt beam="1">  1       -4 0.91412030E-02 0.12500205E+03</pdfrwt>
<totfact> 0.10448860E+04</totfact>
</mgrwt>
</event>
<event>
 5    1  0.3296424E-002  0.1250383E+03  0.7818608E-02  0.1235009E+00
         -4   -1    0    0    0  501 -0.00000000000E+00  0.00000000000E+00  0.10720482407E+03  0.10721234632E+03  0.12700000000E+01 0. -1.
          4   -1    0    0  501    0  0.00000000000E+00 -0.00000000000E+00 -0.36439726293E+02  0.36461850643E+02  0.12700000000E+01 0. -1.
         25    2    1    2    0    0  0.00000000000E+00  0.00000000000E+00  0.70765097777E+02  0.14367419697E+03  0.12503829737E+03 0.  0.
    9000005    1    3    3    0    0 -0.26322597588E+02  0.56681868045E+02  0.36979114614E+02  0.72623468841E+02  0.10000000000E+01 0.  0.
    9000005    1    3    3    0    0  0.26322597588E+02 -0.56681868045E+02  0.33785983163E+02  0.71050728125E+02  0.10000000000E+01 0.  0.
<mgrwt>
<rscale>  0 0.12503830E+03</rscale>
<asrwt>0</asrwt>
<pdfrwt beam="2">  1        4 0.56083923E-02 0.12503830E+03</pdfrwt>
<pdfrwt beam="1">  1       -4 0.16495330E-01 0.12503830E+03</pdfrwt>
<totfact> 0.10049326E+04</totfact>
</mgrwt>
</event>
<event>
 5    1  0.3296424E-002  0.1249986E+03  0.7818608E-02  0.1235071E+00
         -4   -1    0    0    0  501 -0.00000000000E+00  0.00000000000E+00  0.35151080289E+02  0.35174015203E+02  0.12700000000E+01 0.  1.
          4   -1    0    0  501    0  0.00000000000E+00 -0.00000000000E+00 -0.11106212969E+03  0.11106939070E+03  0.12700000000E+01 0.  1.
         25    2    1    2    0    0  0.00000000000E+00  0.00000000000E+00 -0.75911049402E+02  0.14624340591E+03  0.12499858539E+03 0.  0.
    9000005    1    3    3    0    0  0.32040193209E+02  0.42770196692E+02 -0.57149346508E-01  0.53449667651E+02  0.10000000000E+01 0.  0.
    9000005    1    3    3    0    0 -0.32040193209E+02 -0.42770196692E+02 -0.75853900055E+02  0.92793738256E+02  0.10000000000E+01 0.  0.
<mgrwt>
<rscale>  0 0.12499859E+03</rscale>
<asrwt>0</asrwt>
<pdfrwt beam="2">  1        4 0.17088804E-01 0.12499859E+03</pdfrwt>
<pdfrwt beam="1">  1       -4 0.54101813E-02 0.12499859E+03</pdfrwt>
<totfact> 0.10006105E+04</totfact>
</mgrwt>
</event>
<event>
 5    1  0.3296424E-002  0.1249994E+03  0.7818608E-02  0.1235070E+00
         -4   -1    0    0    0  501 -0.00000000000E+00  0.00000000000E+00  0.65689012624E+02  0.65701288264E+02  0.12700000000E+01 0. -1.
          4   -1    0    0  501    0  0.00000000000E+00 -0.00000000000E+00 -0.59440635996E+02  0.59454201766E+02  0.12700000000E+01 0. -1.
         25    2    1    2    0    0  0.00000000000E+00  0.00000000000E+00  0.62483766283E+01  0.12515549003E+03  0.12499941790E+03 0.  0.
    9000005    1    3    3    0    0  0.29386316078E+02  0.53913277134E+02  0.14758360561E+02  0.63158580022E+02  0.10000000000E+01 0.  0.
    9000005    1    3    3    0    0 -0.29386316078E+02 -0.53913277134E+02 -0.85099839332E+01  0.61996910008E+02  0.10000000000E+01 0.  0.
<mgrwt>
<rscale>  0 0.12499942E+03</rscale>
<asrwt>0</asrwt>
<pdfrwt beam="2">  1        4 0.91467010E-02 0.12499942E+03</pdfrwt>
<pdfrwt beam="1">  1       -4 0.10107990E-01 0.12499942E+03</pdfrwt>
<totfact> 0.10449624E+04</totfact>
</mgrwt>
</event>
<event>
 5    1  0.3296424E-002  0.1250141E+03  0.7818608E-02  0.1235047E+00
          4   -1    0    0  501    0  0.00000000000E+00  0.00000000000E+00  0.60390926981E+02  0.60404279332E+02  0.12700000000E+01 0.  1.
         -4   -1    0    0    0  501 -0.00000000000E+00 -0.00000000000E+00 -0.64670550880E+02  0.64683019806E+02  0.12700000000E+01 0.  1.
         25    2    1    2    0    0  0.00000000000E+00  0.00000000000E+00 -0.42796238999E+01  0.12508729914E+03  0.12501406811E+03 0.  0.
    9000005    1    3    3    0    0 -0.61418412498E+02 -0.89552344634E+01 -0.94729308817E+01  0.62794538278E+02  0.10000000000E+01 0.  0.
    9000005    1    3    3    0    0  0.61418412498E+02  0.89552344634E+01  0.51933069818E+01  0.62292760859E+02  0.10000000000E+01 0.  0.
<mgrwt>
<rscale>  0 0.12501407E+03</rscale>
<asrwt>0</asrwt>
<pdfrwt beam="1">  1        4 0.92928980E-02 0.12501407E+03</pdfrwt>
<pdfrwt beam="2">  1       -4 0.99513019E-02 0.12501407E+03</pdfrwt>
<totfact> 0.10447645E+04</totfact>
</mgrwt>
</event>
<event>
 5    1  0.3296424E-002  0.1250111E+03  0.7818608E-02  0.1235052E+00
          4   -1    0    0  501    0  0.00000000000E+00  0.00000000000E+00  0.17168003408E+02  0.17214913332E+02  0.12700000000E+01 0.  1.
         -4   -1    0    0    0  501 -0.00000000000E+00 -0.00000000000E+00 -0.22721198151E+03  0.22721553082E+03  0.12700000000E+01 0.  1.
         25    2    1    2    0    0  0.00000000000E+00  0.00000000000E+00 -0.21004397811E+03  0.24443044415E+03  0.12501107666E+03 0.  0.
    9000005    1    3    3    0    0 -0.25601037438E+02 -0.36290352545E+02 -0.19044783107E+02  0.48333286350E+02  0.10000000000E+01 0.  0.
    9000005    1    3    3    0    0  0.25601037438E+02  0.36290352545E+02 -0.19099919500E+03  0.19609715780E+03  0.10000000000E+01 0.  0.
<mgrwt>
<rscale>  0 0.12501108E+03</rscale>
<asrwt>0</asrwt>
<pdfrwt beam="1">  1        4 0.26451129E-02 0.12501108E+03</pdfrwt>
<pdfrwt beam="2">  1       -4 0.34959569E-01 0.12501108E+03</pdfrwt>
<totfact> 0.83121405E+03</totfact>
</mgrwt>
</event>
<event>
 5    1  0.3296424E-002  0.1250004E+03  0.7818608E-02  0.1235069E+00
         -4   -1    0    0    0  501 -0.00000000000E+00  0.00000000000E+00  0.44922905248E+03  0.44923084766E+03  0.12700000000E+01 0. -1.
          4   -1    0    0  501    0  0.00000000000E+00 -0.00000000000E+00 -0.86473197212E+01  0.87400822857E+01  0.12700000000E+01 0. -1.
         25    2    1    2    0    0  0.00000000000E+00  0.00000000000E+00  0.44058173275E+03  0.45797092994E+03  0.12500043775E+03 0.  0.
    9000005    1    3    3    0    0 -0.25101924627E+02  0.53011143811E+02  0.29929464997E+03  0.30498946783E+03  0.10000000000E+01 0.  0.
    9000005    1    3    3    0    0  0.25101924627E+02 -0.53011143811E+02  0.14128708278E+03  0.15298146211E+03  0.10000000000E+01 0.  0.
<mgrwt>
<rscale>  0 0.12500044E+03</rscale>
<asrwt>0</asrwt>
<pdfrwt beam="2">  1        4 0.13376303E-02 0.12500044E+03</pdfrwt>
<pdfrwt beam="1">  1       -4 0.69119447E-01 0.12500044E+03</pdfrwt>
<totfact> 0.59278861E+03</totfact>
</mgrwt>
</event>
<event>
 5    1  0.3296424E-002  0.1249992E+03  0.7818608E-02  0.1235071E+00
         -4   -1    0    0    0  501 -0.00000000000E+00  0.00000000000E+00  0.29361753486E+03  0.29362028144E+03  0.12700000000E+01 0.  1.
          4   -1    0    0  501    0  0.00000000000E+00 -0.00000000000E+00 -0.13270577547E+02  0.13331208813E+02  0.12700000000E+01 0.  1.
         25    2    1    2    0    0  0.00000000000E+00  0.00000000000E+00  0.28034695731E+03  0.30695149026E+03  0.12499920359E+03 0.  0.
    9000005    1    3    3    0    0 -0.15417958311E+02 -0.27871263288E+02  0.81465655722E+01  0.32892055065E+02  0.10000000000E+01 0.  0.
    9000005    1    3    3    0    0  0.15417958311E+02  0.27871263288E+02  0.27220039174E+03  0.27405943519E+03  0.10000000000E+01 0.  0.
<mgrwt>
<rscale>  0 0.12499920E+03</rscale>
<asrwt>0</asrwt>
<pdfrwt beam="2">  1        4 0.20465025E-02 0.12499920E+03</pdfrwt>
<pdfrwt beam="1">  1       -4 0.45176804E-01 0.12499920E+03</pdfrwt>
<totfact> 0.74736368E+03</totfact>
</mgrwt>
</event>
<event>
 5    1  0.3296424E-002  0.1249992E+03  0.7818608E-02  0.1235070E+00
          4   -1    0    0  501    0  0.00000000000E+00  0.00000000000E+00  0.21170352755E+03  0.21170733686E+03  0.12700000000E+01 0.  1.
         -4   -1    0    0    0  501 -0.00000000000E+00 -0.00000000000E+00 -0.18425451079E+02  0.18469167481E+02  0.12700000000E+01 0.  1.
         25    2    1    2    0    0  0.00000000000E+00  0.00000000000E+00  0.19327807647E+03  0.23017650434E+03  0.12499923321E+03 0.  0.
    9000005    1    3    3    0    0  0.12418881564E+02 -0.41084527903E+02  0.13000402212E+02  0.44857301636E+02  0.10000000000E+01 0.  0.
    9000005    1    3    3    0    0 -0.12418881564E+02  0.41084527903E+02  0.18027767426E+03  0.18531920270E+03  0.10000000000E+01 0.  0.
<mgrwt>
<rscale>  0 0.12499923E+03</rscale>
<asrwt>0</asrwt>
<pdfrwt beam="1">  1        4 0.32573429E-01 0.12499923E+03</pdfrwt>
<pdfrwt beam="2">  1       -4 0.28383406E-02 0.12499923E+03</pdfrwt>
<totfact> 0.85283960E+03</totfact>
</mgrwt>
</event>
<event>
 5    1  0.3296424E-002  0.1250149E+03  0.7818608E-02  0.1235046E+00
         -4   -1    0    0    0  501 -0.00000000000E+00  0.00000000000E+00  0.39276586654E+02  0.39297113878E+02  0.12700000000E+01 0. -1.
          4   -1    0    0  501    0  0.00000000000E+00 -0.00000000000E+00 -0.99428129367E+02  0.99436239920E+02  0.12700000000E+01 0. -1.
         25    2    1    2    0    0  0.00000000000E+00  0.00000000000E+00 -0.60151542714E+02  0.13873335380E+03  0.12501494057E+03 0.  0.
    9000005    1    3    3    0    0 -0.59685372022E+02 -0.91641108996E+01 -0.47964854451E+02  0.77122965610E+02  0.10000000000E+01 0.  0.
    9000005    1    3    3    0    0  0.59685372022E+02  0.91641108996E+01 -0.12186688262E+02  0.61610388188E+02  0.10000000000E+01 0.  0.
<mgrwt>
<rscale>  0 0.12501494E+03</rscale>
<asrwt>0</asrwt>
<pdfrwt beam="2">  1        4 0.15298838E-01 0.12501494E+03</pdfrwt>
<pdfrwt beam="1">  1       -4 0.60447547E-02 0.12501494E+03</pdfrwt>
<totfact> 0.10156486E+04</totfact>
</mgrwt>
</event>
<event>
 5    1  0.3296424E-002  0.1250002E+03  0.7818608E-02  0.1235069E+00
          4   -1    0    0  501    0  0.00000000000E+00  0.00000000000E+00  0.40627758511E+02  0.40647603394E+02  0.12700000000E+01 0. -1.
         -4   -1    0    0    0  501 -0.00000000000E+00 -0.00000000000E+00 -0.96100054096E+02  0.96108445504E+02  0.12700000000E+01 0. -1.
         25    2    1    2    0    0  0.00000000000E+00  0.00000000000E+00 -0.55472295584E+02  0.13675604890E+03  0.12500016533E+03 0.  0.
    9000005    1    3    3    0    0  0.19457346200E+02 -0.28459860572E+02  0.29287824379E+02  0.45247415857E+02  0.10000000000E+01 0.  0.
    9000005    1    3    3    0    0 -0.19457346200E+02  0.28459860572E+02 -0.84760119963E+02  0.91508633041E+02  0.10000000000E+01 0.  0.
<mgrwt>
<rscale>  0 0.12500017E+03</rscale>
<asrwt>0</asrwt>
<pdfrwt beam="1">  1        4 0.62525964E-02 0.12500017E+03</pdfrwt>
<pdfrwt beam="2">  1       -4 0.14786796E-01 0.12500017E+03</pdfrwt>
<totfact> 0.10201151E+04</totfact>
</mgrwt>
</event>
<event>
 5    1  0.3296424E-002  0.1249982E+03  0.7818608E-02  0.1235072E+00
         -4   -1    0    0    0  501 -0.00000000000E+00  0.00000000000E+00  0.70939812696E+02  0.70951179873E+02  0.12700000000E+01 0.  1.
          4   -1    0    0  501    0  0.00000000000E+00 -0.00000000000E+00 -0.55039626683E+02  0.55054276904E+02  0.12700000000E+01 0.  1.
         25    2    1    2    0    0  0.00000000000E+00  0.00000000000E+00  0.15900186013E+02  0.12600545678E+03  0.12499823688E+03 0.  0.
    9000005    1    3    3    0    0  0.10609032518E+02 -0.27317287074E+02  0.63588623960E+02  0.70023559186E+02  0.10000000000E+01 0.  0.
    9000005    1    3    3    0    0 -0.10609032518E+02  0.27317287074E+02 -0.47688437947E+02  0.55981897591E+02  0.10000000000E+01 0.  0.
<mgrwt>
<rscale>  0 0.12499824E+03</rscale>
<asrwt>0</asrwt>
<pdfrwt beam="2">  1        4 0.84696362E-02 0.12499824E+03</pdfrwt>
<pdfrwt beam="1">  1       -4 0.10915819E-01 0.12499824E+03</pdfrwt>
<totfact> 0.10431252E+04</totfact>
</mgrwt>
</event>
<event>
 5    1  0.3296424E-002  0.1249985E+03  0.7818608E-02  0.1235072E+00
         -4   -1    0    0    0  501 -0.00000000000E+00  0.00000000000E+00  0.27359523005E+03  0.27359817764E+03  0.12700000000E+01 0. -1.
          4   -1    0    0  501    0  0.00000000000E+00 -0.00000000000E+00 -0.14245858860E+02  0.14302356262E+02  0.12700000000E+01 0. -1.
         25    2    1    2    0    0  0.00000000000E+00  0.00000000000E+00  0.25934937119E+03  0.28790053390E+03  0.12499848432E+03 0.  0.
    9000005    1    3    3    0    0  0.62267012272E+02  0.50042390470E+01  0.12573081157E+03  0.14039750782E+03  0.10000000000E+01 0.  0.
    9000005    1    3    3    0    0 -0.62267012272E+02 -0.50042390470E+01  0.13361855962E+03  0.14750302608E+03  0.10000000000E+01 0.  0.
<mgrwt>
<rscale>  0 0.12499848E+03</rscale>
<asrwt>0</asrwt>
<pdfrwt beam="2">  1        4 0.21962434E-02 0.12499848E+03</pdfrwt>
<pdfrwt beam="1">  1       -4 0.42096145E-01 0.12499848E+03</pdfrwt>
<totfact> 0.77144677E+03</totfact>
</mgrwt>
</event>
<event>
 5    1  0.3296424E-002  0.1249824E+03  0.7818608E-02  0.1235097E+00
         -4   -1    0    0    0  501 -0.00000000000E+00  0.00000000000E+00  0.16969742232E+03  0.16970217453E+03  0.12700000000E+01 0. -1.
          4   -1    0    0  501    0  0.00000000000E+00 -0.00000000000E+00 -0.22989838377E+02  0.23024890198E+02  0.12700000000E+01 0. -1.
         25    2    1    2    0    0  0.00000000000E+00  0.00000000000E+00  0.14670758394E+03  0.19272706473E+03  0.12498242394E+03 0.  0.
    9000005    1    3    3    0    0 -0.35067611603E+02 -0.47725662616E+02  0.10406602208E+03  0.11974227828E+03  0.10000000000E+01 0.  0.
    9000005    1    3    3    0    0  0.35067611603E+02  0.47725662616E+02  0.42641561861E+02  0.72984786453E+02  0.10000000000E+01 0.  0.
<mgrwt>
<rscale>  0 0.12498242E+03</rscale>
<asrwt>0</asrwt>
<pdfrwt beam="2">  1        4 0.35399601E-02 0.12498242E+03</pdfrwt>
<pdfrwt beam="1">  1       -4 0.26110358E-01 0.12498242E+03</pdfrwt>
<totfact> 0.91410942E+03</totfact>
</mgrwt>
</event>
<event>
 5    1  0.3296424E-002  0.1250027E+03  0.7818608E-02  0.1235065E+00
          4   -1    0    0  501    0  0.00000000000E+00  0.00000000000E+00  0.84028819284E+03  0.84028915257E+03  0.12700000000E+01 0. -1.
         -4   -1    0    0    0  501 -0.00000000000E+00 -0.00000000000E+00 -0.45611863102E+01  0.47346932907E+01  0.12700000000E+01 0. -1.
         25    2    1    2    0    0  0.00000000000E+00  0.00000000000E+00  0.83572700653E+03  0.84502384586E+03  0.12500268249E+03 0.  0.
    9000005    1    3    3    0    0  0.62037920848E+02  0.73759628168E+01  0.42813611895E+03  0.43267152067E+03  0.10000000000E+01 0.  0.
    9000005    1    3    3    0    0 -0.62037920848E+02 -0.73759628168E+01  0.40759088759E+03  0.41235232520E+03  0.10000000000E+01 0.  0.
<mgrwt>
<rscale>  0 0.12500268E+03</rscale>
<asrwt>0</asrwt>
<pdfrwt beam="1">  1        4 0.12928848E+00 0.12500268E+03</pdfrwt>
<pdfrwt beam="2">  1       -4 0.71514173E-03 0.12500268E+03</pdfrwt>
<totfact> 0.36329704E+03</totfact>
</mgrwt>
</event>
<event>
 5    1  0.3296424E-002  0.1250017E+03  0.7818608E-02  0.1235067E+00
         -4   -1    0    0    0  501 -0.00000000000E+00  0.00000000000E+00  0.21368940687E+03  0.21369318077E+03  0.12700000000E+01 0. -1.
          4   -1    0    0  501    0  0.00000000000E+00 -0.00000000000E+00 -0.18254542484E+02  0.18298667200E+02  0.12700000000E+01 0. -1.
         25    2    1    2    0    0  0.00000000000E+00  0.00000000000E+00  0.19543486439E+03  0.23199184797E+03  0.12500172522E+03 0.  0.
    9000005    1    3    3    0    0 -0.30584429102E+02  0.52805142159E+02  0.72709616710E+02  0.94928808610E+02  0.10000000000E+01 0.  0.
    9000005    1    3    3    0    0  0.30584429102E+02 -0.52805142159E+02  0.12272524768E+03  0.13706303936E+03  0.10000000000E+01 0.  0.
<mgrwt>
<rscale>  0 0.12500173E+03</rscale>
<asrwt>0</asrwt>
<pdfrwt beam="2">  1        4 0.28120756E-02 0.12500173E+03</pdfrwt>
<pdfrwt beam="1">  1       -4 0.32878978E-01 0.12500173E+03</pdfrwt>
<totfact> 0.85001410E+03</totfact>
</mgrwt>
</event>
<event>
 5    1  0.3296424E-002  0.1249989E+03  0.7818608E-02  0.1235071E+00
         -4   -1    0    0    0  501 -0.00000000000E+00  0.00000000000E+00  0.34470472828E+03  0.34470706782E+03  0.12700000000E+01 0.  1.
          4   -1    0    0  501    0  0.00000000000E+00 -0.00000000000E+00 -0.11293985454E+02  0.11365166406E+02  0.12700000000E+01 0.  1.
         25    2    1    2    0    0  0.00000000000E+00  0.00000000000E+00  0.33341074283E+03  0.35607223422E+03  0.12499885019E+03 0.  0.
    9000005    1    3    3    0    0 -0.44476439636E+02  0.38117749611E+01  0.42129989884E+02  0.61389081754E+02  0.10000000000E+01 0.  0.
    9000005    1    3    3    0    0  0.44476439636E+02 -0.38117749611E+01  0.29128075295E+03  0.29468315247E+03  0.10000000000E+01 0.  0.
<mgrwt>
<rscale>  0 0.12499885E+03</rscale>
<asrwt>0</asrwt>
<pdfrwt beam="2">  1        4 0.17431918E-02 0.12499885E+03</pdfrwt>
<pdfrwt beam="1">  1       -4 0.53037149E-01 0.12499885E+03</pdfrwt>
<totfact> 0.69063419E+03</totfact>
</mgrwt>
</event>
<event>
 5    1  0.3296424E-002  0.1250026E+03  0.7818608E-02  0.1235065E+00
         -4   -1    0    0    0  501 -0.00000000000E+00  0.00000000000E+00  0.51518008792E+02  0.51533660164E+02  0.12700000000E+01 0. -1.
          4   -1    0    0  501    0  0.00000000000E+00 -0.00000000000E+00 -0.75793724406E+02  0.75804363722E+02  0.12700000000E+01 0. -1.
         25    2    1    2    0    0  0.00000000000E+00  0.00000000000E+00 -0.24275715614E+02  0.12733802389E+03  0.12500264781E+03 0.  0.
    9000005    1    3    3    0    0  0.21249726785E+02 -0.36512568238E+02  0.34773521312E+02  0.54725828566E+02  0.10000000000E+01 0.  0.
    9000005    1    3    3    0    0 -0.21249726785E+02  0.36512568238E+02 -0.59049236926E+02  0.72612195321E+02  0.10000000000E+01 0.  0.
<mgrwt>
<rscale>  0 0.12500265E+03</rscale>
<asrwt>0</asrwt>
<pdfrwt beam="2">  1        4 0.11662595E-01 0.12500265E+03</pdfrwt>
<pdfrwt beam="1">  1       -4 0.79278699E-02 0.12500265E+03</pdfrwt>
<totfact> 0.10401188E+04</totfact>
</mgrwt>
</event>
<event>
 5    1  0.3296424E-002  0.1250018E+03  0.7818608E-02  0.1235066E+00
          4   -1    0    0  501    0  0.00000000000E+00  0.00000000000E+00  0.12870005485E+03  0.12870632082E+03  0.12700000000E+01 0. -1.
         -4   -1    0    0    0  501 -0.00000000000E+00 -0.00000000000E+00 -0.30332173958E+02  0.30358749595E+02  0.12700000000E+01 0. -1.
         25    2    1    2    0    0  0.00000000000E+00  0.00000000000E+00  0.98367880893E+02  0.15906507041E+03  0.12500182652E+03 0.  0.
    9000005    1    3    3    0    0 -0.11992782578E+00  0.21717222367E+02  0.12374986344E+03  0.12564505892E+03  0.10000000000E+01 0.  0.
    9000005    1    3    3    0    0  0.11992782578E+00 -0.21717222367E+02 -0.25381982548E+02  0.33420011491E+02  0.10000000000E+01 0.  0.
<mgrwt>
<rscale>  0 0.12500183E+03</rscale>
<asrwt>0</asrwt>
<pdfrwt beam="1">  1        4 0.19802535E-01 0.12500183E+03</pdfrwt>
<pdfrwt beam="2">  1       -4 0.46690145E-02 0.12500183E+03</pdfrwt>
<totfact> 0.97519331E+03</totfact>
</mgrwt>
</event>
<event>
 5    1  0.3296424E-002  0.1249973E+03  0.7818608E-02  0.1235074E+00
         -4   -1    0    0    0  501 -0.00000000000E+00  0.00000000000E+00  0.16544894845E+03  0.16545382269E+03  0.12700000000E+01 0. -1.
          4   -1    0    0  501    0  0.00000000000E+00 -0.00000000000E+00 -0.23586669309E+02  0.23620835487E+02  0.12700000000E+01 0. -1.
         25    2    1    2    0    0  0.00000000000E+00  0.00000000000E+00  0.14186227914E+03  0.18907465817E+03  0.12499728046E+03 0.  0.
    9000005    1    3    3    0    0 -0.57419862329E+02  0.10358463638E+02  0.37082624026E+02  0.69140866089E+02  0.10000000000E+01 0.  0.
    9000005    1    3    3    0    0  0.57419862329E+02 -0.10358463638E+02  0.10477965511E+03  0.11993379209E+03  0.10000000000E+01 0.  0.
<mgrwt>
<rscale>  0 0.12499728E+03</rscale>
<asrwt>0</asrwt>
<pdfrwt beam="2">  1        4 0.36317214E-02 0.12499728E+03</pdfrwt>
<pdfrwt beam="1">  1       -4 0.25456688E-01 0.12499728E+03</pdfrwt>
<totfact> 0.92014176E+03</totfact>
</mgrwt>
</event>
<event>
 5    1  0.3296424E-002  0.1250009E+03  0.7818608E-02  0.1235068E+00
          4   -1    0    0  501    0  0.00000000000E+00  0.00000000000E+00  0.56727967568E+02  0.56742181879E+02  0.12700000000E+01 0.  1.
         -4   -1    0    0    0  501 -0.00000000000E+00 -0.00000000000E+00 -0.68831627133E+02  0.68843342407E+02  0.12700000000E+01 0.  1.
         25    2    1    2    0    0  0.00000000000E+00  0.00000000000E+00 -0.12103659565E+02  0.12558552429E+03  0.12500090134E+03 0.  0.
    9000005    1    3    3    0    0  0.20392143709E+02  0.15033694406E+02 -0.63445664425E+02  0.68324255040E+02  0.10000000000E+01 0.  0.
    9000005    1    3    3    0    0 -0.20392143709E+02 -0.15033694406E+02  0.51342004860E+02  0.57261269245E+02  0.10000000000E+01 0.  0.
<mgrwt>
<rscale>  0 0.12500090E+03</rscale>
<asrwt>0</asrwt>
<pdfrwt beam="1">  1        4 0.87293742E-02 0.12500090E+03</pdfrwt>
<pdfrwt beam="2">  1       -4 0.10591476E-01 0.12500090E+03</pdfrwt>
<totfact> 0.10439854E+04</totfact>
</mgrwt>
</event>
<event>
 5    1  0.3296424E-002  0.1249956E+03  0.7818608E-02  0.1235076E+00
          4   -1    0    0  501    0  0.00000000000E+00  0.00000000000E+00  0.54765148162E+02  0.54779871789E+02  0.12700000000E+01 0. -1.
         -4   -1    0    0    0  501 -0.00000000000E+00 -0.00000000000E+00 -0.71292315348E+02  0.71303626329E+02  0.12700000000E+01 0. -1.
         25    2    1    2    0    0  0.00000000000E+00  0.00000000000E+00 -0.16527167186E+02  0.12608349812E+03  0.12499560489E+03 0.  0.
    9000005    1    3    3    0    0 -0.36626970427E+02  0.42706669519E+02 -0.35695509523E+02  0.66637556860E+02  0.10000000000E+01 0.  0.
    9000005    1    3    3    0    0  0.36626970427E+02 -0.42706669519E+02  0.19168342338E+02  0.59445941258E+02  0.10000000000E+01 0.  0.
<mgrwt>
<rscale>  0 0.12499560E+03</rscale>
<asrwt>0</asrwt>
<pdfrwt beam="1">  1        4 0.84274100E-02 0.12499560E+03</pdfrwt>
<pdfrwt beam="2">  1       -4 0.10970051E-01 0.12499560E+03</pdfrwt>
<totfact> 0.10430162E+04</totfact>
</mgrwt>
</event>
<event>
 5    1  0.3296424E-002  0.1250061E+03  0.7818608E-02  0.1235060E+00
          4   -1    0    0  501    0  0.00000000000E+00  0.00000000000E+00  0.14825281924E+03  0.14825825883E+03  0.12700000000E+01 0. -1.
         -4   -1    0    0    0  501 -0.00000000000E+00 -0.00000000000E+00 -0.26329904093E+02  0.26360514971E+02  0.12700000000E+01 0. -1.
         25    2    1    2    0    0  0.00000000000E+00  0.00000000000E+00  0.12192291514E+03  0.17461877380E+03  0.12500607556E+03 0.  0.
    9000005    1    3    3    0    0  0.25257912967E+02  0.31042109792E+02 -0.60896926797E+01  0.40492704340E+02  0.10000000000E+01 0.  0.
    9000005    1    3    3    0    0 -0.25257912967E+02 -0.31042109792E+02  0.12801260782E+03  0.13412606946E+03  0.10000000000E+01 0.  0.
<mgrwt>
<rscale>  0 0.12500608E+03</rscale>
<asrwt>0</asrwt>
<pdfrwt beam="1">  1        4 0.22810899E-01 0.12500608E+03</pdfrwt>
<pdfrwt beam="2">  1       -4 0.40535275E-02 0.12500608E+03</pdfrwt>
<totfact> 0.94581815E+03</totfact>
</mgrwt>
</event>
<event>
 5    1  0.3296424E-002  0.1250010E+03  0.7818608E-02  0.1235068E+00
         -4   -1    0    0    0  501 -0.00000000000E+00  0.00000000000E+00  0.41767414501E+03  0.41767607582E+03  0.12700000000E+01 0. -1.
          4   -1    0    0  501    0  0.00000000000E+00 -0.00000000000E+00 -0.93074600839E+01  0.93937060425E+01  0.12700000000E+01 0. -1.
         25    2    1    2    0    0  0.00000000000E+00  0.00000000000E+00  0.40836668493E+03  0.42706978186E+03  0.12500099688E+03 0.  0.
    9000005    1    3    3    0    0  0.17729917385E+02  0.45116869192E+02  0.33892772384E+03  0.34237827595E+03  0.10000000000E+01 0.  0.
    9000005    1    3    3    0    0 -0.17729917385E+02 -0.45116869192E+02  0.69438961084E+02  0.84691505906E+02  0.10000000000E+01 0.  0.
<mgrwt>
<rscale>  0 0.12500100E+03</rscale>
<asrwt>0</asrwt>
<pdfrwt beam="2">  1        4 0.14387001E-02 0.12500100E+03</pdfrwt>
<pdfrwt beam="1">  1       -4 0.64264328E-01 0.12500100E+03</pdfrwt>
<totfact> 0.62001142E+03</totfact>
</mgrwt>
</event>
<event>
 5    1  0.3296424E-002  0.1249884E+03  0.7818608E-02  0.1235087E+00
          4   -1    0    0  501    0  0.00000000000E+00  0.00000000000E+00  0.11278683715E+03  0.11279398713E+03  0.12700000000E+01 0. -1.
         -4   -1    0    0    0  501 -0.00000000000E+00 -0.00000000000E+00 -0.34607620074E+02  0.34630914905E+02  0.12700000000E+01 0. -1.
         25    2    1    2    0    0  0.00000000000E+00  0.00000000000E+00  0.78179217072E+02  0.14742490204E+03  0.12498844650E+03 0.  0.
    9000005    1    3    3    0    0  0.20557315153E+02  0.30292720612E+02 -0.20639130404E+02  0.42038385223E+02  0.10000000000E+01 0.  0.
    9000005    1    3    3    0    0 -0.20557315153E+02 -0.30292720612E+02  0.98818347476E+02  0.10538651681E+03  0.10000000000E+01 0.  0.
<mgrwt>
<rscale>  0 0.12498845E+03</rscale>
<asrwt>0</asrwt>
<pdfrwt beam="1">  1        4 0.17354163E-01 0.12498845E+03</pdfrwt>
<pdfrwt beam="2">  1       -4 0.53265912E-02 0.12498845E+03</pdfrwt>
<totfact> 0.99845471E+03</totfact>
</mgrwt>
</event>
<event>
 5    1  0.3296424E-002  0.1250003E+03  0.7818608E-02  0.1235069E+00
          4   -1    0    0  501    0  0.00000000000E+00  0.00000000000E+00  0.10967660116E+03  0.10968395390E+03  0.12700000000E+01 0. -1.
         -4   -1    0    0    0  501 -0.00000000000E+00 -0.00000000000E+00 -0.35596382198E+02  0.35619030385E+02  0.12700000000E+01 0. -1.
         25    2    1    2    0    0  0.00000000000E+00  0.00000000000E+00  0.74080218965E+02  0.14530298428E+03  0.12500031360E+03 0.  0.
    9000005    1    3    3    0    0  0.45308840110E+02 -0.24316645409E+02 -0.42394107435E+01  0.51605841137E+02  0.10000000000E+01 0.  0.
    9000005    1    3    3    0    0 -0.45308840110E+02  0.24316645409E+02  0.78319629708E+02  0.93697143145E+02  0.10000000000E+01 0.  0.
<mgrwt>
<rscale>  0 0.12500031E+03</rscale>
<asrwt>0</asrwt>
<pdfrwt beam="1">  1        4 0.16875631E-01 0.12500031E+03</pdfrwt>
<pdfrwt beam="2">  1       -4 0.54786743E-02 0.12500031E+03</pdfrwt>
<totfact> 0.10024765E+04</totfact>
</mgrwt>
</event>
<event>
 5    1  0.3296424E-002  0.1250041E+03  0.7818608E-02  0.1235063E+00
         -4   -1    0    0    0  501 -0.00000000000E+00  0.00000000000E+00  0.14269018795E+03  0.14269583959E+03  0.12700000000E+01 0.  1.
          4   -1    0    0  501    0  0.00000000000E+00 -0.00000000000E+00 -0.27356606749E+02  0.27386070050E+02  0.12700000000E+01 0.  1.
         25    2    1    2    0    0  0.00000000000E+00  0.00000000000E+00  0.11533358120E+03  0.17008190964E+03  0.12500408407E+03 0.  0.
    9000005    1    3    3    0    0  0.24149193305E+02 -0.57593677508E+02  0.54537376088E+02  0.82918879736E+02  0.10000000000E+01 0.  0.
    9000005    1    3    3    0    0 -0.24149193305E+02  0.57593677508E+02  0.60796205109E+02  0.87163029903E+02  0.10000000000E+01 0.  0.
<mgrwt>
<rscale>  0 0.12500408E+03</rscale>
<asrwt>0</asrwt>
<pdfrwt beam="2">  1        4 0.42114098E-02 0.12500408E+03</pdfrwt>
<pdfrwt beam="1">  1       -4 0.21955038E-01 0.12500408E+03</pdfrwt>
<totfact> 0.95424624E+03</totfact>
</mgrwt>
</event>
<event>
 5    1  0.3296424E-002  0.1249997E+03  0.7818608E-02  0.1235070E+00
          4   -1    0    0  501    0  0.00000000000E+00  0.00000000000E+00  0.61065900879E+03  0.61066032941E+03  0.12700000000E+01 0.  1.
         -4   -1    0    0    0  501 -0.00000000000E+00 -0.00000000000E+00 -0.63323732221E+01  0.64584712296E+01  0.12700000000E+01 0.  1.
         25    2    1    2    0    0  0.00000000000E+00  0.00000000000E+00  0.60432663556E+03  0.61711880064E+03  0.12499972659E+03 0.  0.
    9000005    1    3    3    0    0 -0.61316949639E+00  0.39687553542E+02  0.54045827027E+03  0.54191477170E+03  0.10000000000E+01 0.  0.
    9000005    1    3    3    0    0  0.61316949639E+00 -0.39687553542E+02  0.63868365291E+02  0.75204028934E+02  0.10000000000E+01 0.  0.
<mgrwt>
<rscale>  0 0.12499973E+03</rscale>
<asrwt>0</asrwt>
<pdfrwt beam="1">  1        4 0.93957368E-01 0.12499973E+03</pdfrwt>
<pdfrwt beam="2">  1       -4 0.98401241E-03 0.12499973E+03</pdfrwt>
<totfact> 0.47804825E+03</totfact>
</mgrwt>
</event>
<event>
 5    1  0.3296424E-002  0.1250005E+03  0.7818608E-02  0.1235069E+00
          4   -1    0    0  501    0  0.00000000000E+00  0.00000000000E+00  0.44726067078E+03  0.44726247386E+03  0.12700000000E+01 0.  1.
         -4   -1    0    0    0  501 -0.00000000000E+00 -0.00000000000E+00 -0.86857904598E+01  0.87781464963E+01  0.12700000000E+01 0.  1.
         25    2    1    2    0    0  0.00000000000E+00  0.00000000000E+00  0.43857488032E+03  0.45604062036E+03  0.12500048708E+03 0.  0.
    9000005    1    3    3    0    0  0.27393393597E+02 -0.25733441763E+02  0.40143544787E+03  0.40319229512E+03  0.10000000000E+01 0.  0.
    9000005    1    3    3    0    0 -0.27393393597E+02  0.25733441763E+02  0.37139432444E+02  0.52848325233E+02  0.10000000000E+01 0.  0.
<mgrwt>
<rscale>  0 0.12500049E+03</rscale>
<asrwt>0</asrwt>
<pdfrwt beam="1">  1        4 0.68816583E-01 0.12500049E+03</pdfrwt>
<pdfrwt beam="2">  1       -4 0.13435183E-02 0.12500049E+03</pdfrwt>
<totfact> 0.59443403E+03</totfact>
</mgrwt>
</event>
<event>
 5    1  0.3296424E-002  0.1250020E+03  0.7818608E-02  0.1235066E+00
         -4   -1    0    0    0  501 -0.00000000000E+00  0.00000000000E+00  0.62078492936E+01  0.63364258736E+01  0.12700000000E+01 0.  1.
          4   -1    0    0  501    0  0.00000000000E+00 -0.00000000000E+00 -0.62268427950E+03  0.62268557462E+03  0.12700000000E+01 0.  1.
         25    2    1    2    0    0  0.00000000000E+00  0.00000000000E+00 -0.61647643021E+03  0.62902200049E+03  0.12500195239E+03 0.  0.
    9000005    1    3    3    0    0  0.13232433698E+01  0.70683021720E+00 -0.62261833220E+03  0.62262094261E+03  0.10000000000E+01 0.  0.
    9000005    1    3    3    0    0 -0.13232433698E+01 -0.70683021720E+00  0.61419019918E+01  0.64010578851E+01  0.10000000000E+01 0.  0.
<mgrwt>
<rscale>  0 0.12500195E+03</rscale>
<asrwt>0</asrwt>
<pdfrwt beam="2">  1        4 0.95807523E-01 0.12500195E+03</pdfrwt>
<pdfrwt beam="1">  1       -4 0.96504436E-03 0.12500195E+03</pdfrwt>
<totfact> 0.47083452E+03</totfact>
</mgrwt>
</event>
<event>
 5    1  0.3296424E-002  0.1250002E+03  0.7818608E-02  0.1235069E+00
          4   -1    0    0  501    0  0.00000000000E+00  0.00000000000E+00  0.10025692969E+03  0.10026497320E+03  0.12700000000E+01 0.  1.
         -4   -1    0    0    0  501 -0.00000000000E+00 -0.00000000000E+00 -0.38942541072E+02  0.38963244284E+02  0.12700000000E+01 0.  1.
         25    2    1    2    0    0  0.00000000000E+00  0.00000000000E+00  0.61314388621E+02  0.13922821749E+03  0.12500016917E+03 0.  0.
    9000005    1    3    3    0    0  0.31771054611E+02 -0.16729211248E+02 -0.26311340087E+02  0.44525869303E+02  0.10000000000E+01 0.  0.
    9000005    1    3    3    0    0 -0.31771054611E+02  0.16729211248E+02  0.87625728707E+02  0.94702348184E+02  0.10000000000E+01 0.  0.
<mgrwt>
<rscale>  0 0.12500017E+03</rscale>
<asrwt>0</asrwt>
<pdfrwt beam="1">  1        4 0.15426354E-01 0.12500017E+03</pdfrwt>
<pdfrwt beam="2">  1       -4 0.59933715E-02 0.12500017E+03</pdfrwt>
<totfact> 0.10149568E+04</totfact>
</mgrwt>
</event>
<event>
 5    1  0.3296424E-002  0.1250019E+03  0.7818608E-02  0.1235066E+00
          4   -1    0    0  501    0  0.00000000000E+00  0.00000000000E+00  0.38298137415E+02  0.38319188790E+02  0.12700000000E+01 0. -1.
         -4   -1    0    0    0  501 -0.00000000000E+00 -0.00000000000E+00 -0.10194592486E+03  0.10195383512E+03  0.12700000000E+01 0. -1.
         25    2    1    2    0    0  0.00000000000E+00  0.00000000000E+00 -0.63647787446E+02  0.14027302391E+03  0.12500192155E+03 0.  0.
    9000005    1    3    3    0    0 -0.13339580220E+02  0.52253381312E+02  0.36090465543E+01  0.54059092445E+02  0.10000000000E+01 0.  0.
    9000005    1    3    3    0    0  0.13339580220E+02 -0.52253381312E+02 -0.67256834000E+02  0.86213931465E+02  0.10000000000E+01 0.  0.
<mgrwt>
<rscale>  0 0.12500192E+03</rscale>
<asrwt>0</asrwt>
<pdfrwt beam="1">  1        4 0.58942490E-02 0.12500192E+03</pdfrwt>
<pdfrwt beam="2">  1       -4 0.15686216E-01 0.12500192E+03</pdfrwt>
<totfact> 0.10127492E+04</totfact>
</mgrwt>
</event>
<event>
 5    1  0.3296424E-002  0.1249995E+03  0.7818608E-02  0.1235070E+00
          4   -1    0    0  501    0  0.00000000000E+00  0.00000000000E+00  0.12060880734E+03  0.12061549364E+03  0.12700000000E+01 0.  1.
         -4   -1    0    0    0  501 -0.00000000000E+00 -0.00000000000E+00 -0.32367447745E+02  0.32392353627E+02  0.12700000000E+01 0.  1.
         25    2    1    2    0    0  0.00000000000E+00  0.00000000000E+00  0.88241359590E+02  0.15300784727E+03  0.12499945514E+03 0.  0.
    9000005    1    3    3    0    0  0.21222579608E+02 -0.26715527227E+02 -0.19966021674E+02  0.39544396590E+02  0.10000000000E+01 0.  0.
    9000005    1    3    3    0    0 -0.21222579608E+02  0.26715527227E+02  0.10820738126E+03  0.11346345068E+03  0.10000000000E+01 0.  0.
<mgrwt>
<rscale>  0 0.12499946E+03</rscale>
<asrwt>0</asrwt>
<pdfrwt beam="1">  1        4 0.18557631E-01 0.12499946E+03</pdfrwt>
<pdfrwt beam="2">  1       -4 0.49820376E-02 0.12499946E+03</pdfrwt>
<totfact> 0.98708683E+03</totfact>
</mgrwt>
</event>
<event>
 5    1  0.3296424E-002  0.1250009E+03  0.7818608E-02  0.1235068E+00
          4   -1    0    0  501    0  0.00000000000E+00  0.00000000000E+00  0.12974084104E+03  0.12974705675E+03  0.12700000000E+01 0.  1.
         -4   -1    0    0    0  501 -0.00000000000E+00 -0.00000000000E+00 -0.30088193880E+02  0.30114984824E+02  0.12700000000E+01 0.  1.
         25    2    1    2    0    0  0.00000000000E+00  0.00000000000E+00  0.99652647161E+02  0.15986204157E+03  0.12500088899E+03 0.  0.
    9000005    1    3    3    0    0  0.47517771816E+02  0.27275891954E+02  0.11387461043E+02  0.55969520180E+02  0.10000000000E+01 0.  0.
    9000005    1    3    3    0    0 -0.47517771816E+02 -0.27275891954E+02  0.88265186118E+02  0.10389252139E+03  0.10000000000E+01 0.  0.
<mgrwt>
<rscale>  0 0.12500089E+03</rscale>
<asrwt>0</asrwt>
<pdfrwt beam="1">  1        4 0.19962668E-01 0.12500089E+03</pdfrwt>
<pdfrwt beam="2">  1       -4 0.46314919E-02 0.12500089E+03</pdfrwt>
<totfact> 0.97367443E+03</totfact>
</mgrwt>
</event>
<event>
 5    1  0.3296424E-002  0.1250005E+03  0.7818608E-02  0.1235069E+00
          4   -1    0    0  501    0  0.00000000000E+00  0.00000000000E+00  0.60661577401E+02  0.60674870191E+02  0.12700000000E+01 0. -1.
         -4   -1    0    0    0  501 -0.00000000000E+00 -0.00000000000E+00 -0.64368019237E+02  0.64380546755E+02  0.12700000000E+01 0. -1.
         25    2    1    2    0    0  0.00000000000E+00  0.00000000000E+00 -0.37064418361E+01  0.12505541695E+03  0.12500047839E+03 0.  0.
    9000005    1    3    3    0    0 -0.29573781590E+02 -0.35171909705E+02 -0.44222845199E+02  0.63783476131E+02  0.10000000000E+01 0.  0.
    9000005    1    3    3    0    0  0.29573781590E+02  0.35171909705E+02  0.40516403363E+02  0.61271940815E+02  0.10000000000E+01 0.  0.
<mgrwt>
<rscale>  0 0.12500048E+03</rscale>
<asrwt>0</asrwt>
<pdfrwt beam="1">  1        4 0.93345365E-02 0.12500048E+03</pdfrwt>
<pdfrwt beam="2">  1       -4 0.99047584E-02 0.12500048E+03</pdfrwt>
<totfact> 0.10451546E+04</totfact>
</mgrwt>
</event>
<event>
 5    1  0.3296424E-002  0.1249991E+03  0.7818608E-02  0.1235071E+00
          4   -1    0    0  501    0  0.00000000000E+00  0.00000000000E+00  0.68765302646E+01  0.69928226404E+01  0.12700000000E+01 0. -1.
         -4   -1    0    0    0  501 -0.00000000000E+00 -0.00000000000E+00 -0.56316761068E+03  0.56316904266E+03  0.12700000000E+01 0. -1.
         25    2    1    2    0    0  0.00000000000E+00  0.00000000000E+00 -0.55629108041E+03  0.57016186530E+03  0.12499914600E+03 0.  0.
    9000005    1    3    3    0    0  0.51482752744E+02 -0.49601747665E+01 -0.11816588169E+03  0.12899322757E+03  0.10000000000E+01 0.  0.
    9000005    1    3    3    0    0 -0.51482752744E+02  0.49601747665E+01 -0.43812519872E+03  0.44116863773E+03  0.10000000000E+01 0.  0.
<mgrwt>
<rscale>  0 0.12499915E+03</rscale>
<asrwt>0</asrwt>
<pdfrwt beam="1">  1        4 0.10669839E-02 0.12499915E+03</pdfrwt>
<pdfrwt beam="2">  1       -4 0.86650191E-01 0.12499915E+03</pdfrwt>
<totfact> 0.50807892E+03</totfact>
</mgrwt>
</event>
<event>
 5    1  0.3296424E-002  0.1250015E+03  0.7818608E-02  0.1235067E+00
         -4   -1    0    0    0  501 -0.00000000000E+00  0.00000000000E+00  0.94234775007E+02  0.94243332500E+02  0.12700000000E+01 0. -1.
          4   -1    0    0  501    0  0.00000000000E+00 -0.00000000000E+00 -0.41433112099E+02  0.41452571431E+02  0.12700000000E+01 0. -1.
         25    2    1    2    0    0  0.00000000000E+00  0.00000000000E+00  0.52801662908E+02  0.13569590393E+03  0.12500145094E+03 0.  0.
    9000005    1    3    3    0    0  0.23794219751E+02  0.57774159943E+02  0.25152569287E+02  0.67362231201E+02  0.10000000000E+01 0.  0.
    9000005    1    3    3    0    0 -0.23794219751E+02 -0.57774159943E+02  0.27649093621E+02  0.68333672730E+02  0.10000000000E+01 0.  0.
<mgrwt>
<rscale>  0 0.12500145E+03</rscale>
<asrwt>0</asrwt>
<pdfrwt beam="2">  1        4 0.63764801E-02 0.12500145E+03</pdfrwt>
<pdfrwt beam="1">  1       -4 0.14499813E-01 0.12500145E+03</pdfrwt>
<totfact> 0.10223089E+04</totfact>
</mgrwt>
</event>
<event>
 5    1  0.3296424E-002  0.1249957E+03  0.7818608E-02  0.1235076E+00
         -4   -1    0    0    0  501 -0.00000000000E+00  0.00000000000E+00  0.30522382608E+02  0.30548792776E+02  0.12700000000E+01 0. -1.
          4   -1    0    0  501    0  0.00000000000E+00 -0.00000000000E+00 -0.12788612123E+03  0.12789242708E+03  0.12700000000E+01 0. -1.
         25    2    1    2    0    0  0.00000000000E+00  0.00000000000E+00 -0.97363738623E+02  0.15844121985E+03  0.12499569013E+03 0.  0.
    9000005    1    3    3    0    0 -0.58915908769E+02  0.10726079050E+02 -0.71316045250E+02  0.93129540899E+02  0.10000000000E+01 0.  0.
    9000005    1    3    3    0    0  0.58915908769E+02 -0.10726079050E+02 -0.26047693373E+02  0.65311678955E+02  0.10000000000E+01 0.  0.
<mgrwt>
<rscale>  0 0.12499569E+03</rscale>
<asrwt>0</asrwt>
<pdfrwt beam="2">  1        4 0.19677304E-01 0.12499569E+03</pdfrwt>
<pdfrwt beam="1">  1       -4 0.46982679E-02 0.12499569E+03</pdfrwt>
<totfact> 0.97653611E+03</totfact>
</mgrwt>
</event>
<event>
 5    1  0.3296424E-002  0.1250177E+03  0.7818608E-02  0.1235042E+00
         -4   -1    0    0    0  501 -0.00000000000E+00  0.00000000000E+00  0.63977464698E+02  0.63990068676E+02  0.12700000000E+01 0. -1.
          4   -1    0    0  501    0  0.00000000000E+00 -0.00000000000E+00 -0.61048721621E+02  0.61061930133E+02  0.12700000000E+01 0. -1.
         25    2    1    2    0    0  0.00000000000E+00  0.00000000000E+00  0.29287430765E+01  0.12505199881E+03  0.12501769823E+03 0.  0.
    9000005    1    3    3    0    0 -0.47100883217E+02 -0.40425538555E+02  0.87902358322E+01  0.62697572626E+02  0.10000000000E+01 0.  0.
    9000005    1    3    3    0    0  0.47100883217E+02  0.40425538555E+02 -0.58614927556E+01  0.62354426183E+02  0.10000000000E+01 0.  0.
<mgrwt>
<rscale>  0 0.12501770E+03</rscale>
<asrwt>0</asrwt>
<pdfrwt beam="2">  1        4 0.93940966E-02 0.12501770E+03</pdfrwt>
<pdfrwt beam="1">  1       -4 0.98446724E-02 0.12501770E+03</pdfrwt>
<totfact> 0.10447554E+04</totfact>
</mgrwt>
</event>
<event>
 5    1  0.3296424E-002  0.1250091E+03  0.7818608E-02  0.1235055E+00
         -4   -1    0    0    0  501 -0.00000000000E+00  0.00000000000E+00  0.49081824313E+02  0.49098252289E+02  0.12700000000E+01 0.  1.
          4   -1    0    0  501    0  0.00000000000E+00 -0.00000000000E+00 -0.79563296215E+02  0.79573431525E+02  0.12700000000E+01 0.  1.
         25    2    1    2    0    0  0.00000000000E+00  0.00000000000E+00 -0.30481471903E+02  0.12867168381E+03  0.12500912801E+03 0.  0.
    9000005    1    3    3    0    0  0.12128661032E+02  0.45664523450E+02  0.26865836141E+02  0.54361073130E+02  0.10000000000E+01 0.  0.
    9000005    1    3    3    0    0 -0.12128661032E+02 -0.45664523450E+02 -0.57347308043E+02  0.74310610684E+02  0.10000000000E+01 0.  0.
<mgrwt>
<rscale>  0 0.12500913E+03</rscale>
<asrwt>0</asrwt>
<pdfrwt beam="2">  1        4 0.12242550E-01 0.12500913E+03</pdfrwt>
<pdfrwt beam="1">  1       -4 0.75530932E-02 0.12500913E+03</pdfrwt>
<totfact> 0.10370870E+04</totfact>
</mgrwt>
</event>
<event>
 5    1  0.3296424E-002  0.1250117E+03  0.7818608E-02  0.1235051E+00
         -4   -1    0    0    0  501 -0.00000000000E+00  0.00000000000E+00  0.46941307441E+02  0.46958484263E+02  0.12700000000E+01 0. -1.
          4   -1    0    0  501    0  0.00000000000E+00 -0.00000000000E+00 -0.83193885526E+02  0.83203578582E+02  0.12700000000E+01 0. -1.
         25    2    1    2    0    0  0.00000000000E+00  0.00000000000E+00 -0.36252578085E+02  0.13016206285E+03  0.12501165220E+03 0.  0.
    9000005    1    3    3    0    0 -0.56144343313E+02  0.44520401439E+00  0.10456348309E+02  0.57120230327E+02  0.10000000000E+01 0.  0.
    9000005    1    3    3    0    0  0.56144343313E+02 -0.44520401439E+00 -0.46708926394E+02  0.73041832518E+02  0.10000000000E+01 0.  0.
<mgrwt>
<rscale>  0 0.12501165E+03</rscale>
<asrwt>0</asrwt>
<pdfrwt beam="2">  1        4 0.12801126E-01 0.12501165E+03</pdfrwt>
<pdfrwt beam="1">  1       -4 0.72238065E-02 0.12501165E+03</pdfrwt>
<totfact> 0.10338323E+04</totfact>
</mgrwt>
</event>
<event>
 5    1  0.3296424E-002  0.1249993E+03  0.7818608E-02  0.1235070E+00
          4   -1    0    0  501    0  0.00000000000E+00  0.00000000000E+00  0.20821129912E+01  0.24388715645E+01  0.12700000000E+01 0. -1.
         -4   -1    0    0    0  501 -0.00000000000E+00 -0.00000000000E+00 -0.17276776166E+04  0.17276780834E+04  0.12700000000E+01 0. -1.
         25    2    1    2    0    0  0.00000000000E+00  0.00000000000E+00 -0.17255955037E+04  0.17301169550E+04  0.12499934288E+03 0.  0.
    9000005    1    3    3    0    0 -0.11592224506E+02 -0.59994739461E+02 -0.10440359655E+04  0.10458230470E+04  0.10000000000E+01 0.  0.
    9000005    1    3    3    0    0  0.11592224506E+02  0.59994739461E+02 -0.68155953818E+03  0.68429390799E+03  0.10000000000E+01 0.  0.
<mgrwt>
<rscale>  0 0.12499934E+03</rscale>
<asrwt>0</asrwt>
<pdfrwt beam="1">  1        4 0.34780533E-03 0.12499934E+03</pdfrwt>
<pdfrwt beam="2">  1       -4 0.26582298E+00 0.12499934E+03</pdfrwt>
<totfact> 0.13811760E+03</totfact>
</mgrwt>
</event>
<event>
 5    1  0.3296424E-002  0.1249990E+03  0.7818608E-02  0.1235071E+00
         -4   -1    0    0    0  501 -0.00000000000E+00  0.00000000000E+00  0.11519210813E+04  0.11519217814E+04  0.12700000000E+01 0. -1.
          4   -1    0    0  501    0  0.00000000000E+00 -0.00000000000E+00 -0.32713850948E+01  0.35092535443E+01  0.12700000000E+01 0. -1.
         25    2    1    2    0    0  0.00000000000E+00  0.00000000000E+00  0.11486496962E+04  0.11554310349E+04  0.12499900760E+03 0.  0.
    9000005    1    3    3    0    0 -0.27954707905E+02 -0.40184143831E+02  0.93339216476E+03  0.93467543262E+03  0.10000000000E+01 0.  0.
    9000005    1    3    3    0    0  0.27954707905E+02  0.40184143831E+02  0.21525753145E+03  0.22075560232E+03  0.10000000000E+01 0.  0.
<mgrwt>
<rscale>  0 0.12499901E+03</rscale>
<asrwt>0</asrwt>
<pdfrwt beam="2">  1        4 0.52164088E-03 0.12499901E+03</pdfrwt>
<pdfrwt beam="1">  1       -4 0.17723717E+00 0.12499901E+03</pdfrwt>
<totfact> 0.25910548E+03</totfact>
</mgrwt>
</event>
<event>
 5    1  0.3296424E-002  0.1250028E+03  0.7818608E-02  0.1235065E+00
          4   -1    0    0  501    0  0.00000000000E+00  0.00000000000E+00  0.78368600543E+01  0.79390979028E+01  0.12700000000E+01 0.  1.
         -4   -1    0    0    0  501 -0.00000000000E+00 -0.00000000000E+00 -0.49513463436E+03  0.49513626311E+03  0.12700000000E+01 0.  1.
         25    2    1    2    0    0  0.00000000000E+00  0.00000000000E+00 -0.48729777431E+03  0.50307536101E+03  0.12500279201E+03 0.  0.
    9000005    1    3    3    0    0 -0.10108946316E+02  0.52757506703E+02 -0.11512386123E+03  0.12704349151E+03  0.10000000000E+01 0.  0.
    9000005    1    3    3    0    0  0.10108946316E+02 -0.52757506703E+02 -0.37217391308E+03  0.37603186951E+03  0.10000000000E+01 0.  0.
<mgrwt>
<rscale>  0 0.12500279E+03</rscale>
<asrwt>0</asrwt>
<pdfrwt beam="1">  1        4 0.12136609E-02 0.12500279E+03</pdfrwt>
<pdfrwt beam="2">  1       -4 0.76182525E-01 0.12500279E+03</pdfrwt>
<totfact> 0.55623139E+03</totfact>
</mgrwt>
</event>
<event>
 5    1  0.3296424E-002  0.1249999E+03  0.7818608E-02  0.1235069E+00
          4   -1    0    0  501    0  0.00000000000E+00  0.00000000000E+00  0.14345642422E+02  0.14401748384E+02  0.12700000000E+01 0.  1.
         -4   -1    0    0    0  501 -0.00000000000E+00 -0.00000000000E+00 -0.27170562159E+03  0.27170858967E+03  0.12700000000E+01 0.  1.
         25    2    1    2    0    0  0.00000000000E+00  0.00000000000E+00 -0.25735997916E+03  0.28611033806E+03  0.12499986667E+03 0.  0.
    9000005    1    3    3    0    0  0.59211451233E+02  0.10060646213E+02 -0.16819420306E+03  0.17859871921E+03  0.10000000000E+01 0.  0.
    9000005    1    3    3    0    0 -0.59211451233E+02 -0.10060646213E+02 -0.89165776101E+02  0.10751161885E+03  0.10000000000E+01 0.  0.
<mgrwt>
<rscale>  0 0.12499987E+03</rscale>
<asrwt>0</asrwt>
<pdfrwt beam="1">  1        4 0.22115663E-02 0.12499987E+03</pdfrwt>
<pdfrwt beam="2">  1       -4 0.41805405E-01 0.12499987E+03</pdfrwt>
<totfact> 0.77375063E+03</totfact>
</mgrwt>
</event>
<event>
 5    1  0.3296424E-002  0.1249918E+03  0.7818608E-02  0.1235082E+00
         -4   -1    0    0    0  501 -0.00000000000E+00  0.00000000000E+00  0.38782089094E+02  0.38802877916E+02  0.12700000000E+01 0. -1.
          4   -1    0    0  501    0  0.00000000000E+00 -0.00000000000E+00 -0.10065807459E+03  0.10066608605E+03  0.12700000000E+01 0. -1.
         25    2    1    2    0    0  0.00000000000E+00  0.00000000000E+00 -0.61875985495E+02  0.13946896396E+03  0.12499181704E+03 0.  0.
    9000005    1    3    3    0    0 -0.27388745499E+02  0.33898797862E+02 -0.80907345181E+02  0.91903592861E+02  0.10000000000E+01 0.  0.
    9000005    1    3    3    0    0  0.27388745499E+02 -0.33898797862E+02  0.19031359686E+02  0.47565371102E+02  0.10000000000E+01 0.  0.
<mgrwt>
<rscale>  0 0.12499182E+03</rscale>
<asrwt>0</asrwt>
<pdfrwt beam="2">  1        4 0.15488073E-01 0.12499182E+03</pdfrwt>
<pdfrwt beam="1">  1       -4 0.59686907E-02 0.12499182E+03</pdfrwt>
<totfact> 0.10146474E+04</totfact>
</mgrwt>
</event>
<event>
 5    1  0.3296424E-002  0.1249998E+03  0.7818608E-02  0.1235070E+00
          4   -1    0    0  501    0  0.00000000000E+00  0.00000000000E+00  0.35264535003E+03  0.35264763688E+03  0.12700000000E+01 0. -1.
         -4   -1    0    0    0  501 -0.00000000000E+00 -0.00000000000E+00 -0.11038225411E+02  0.11111044966E+02  0.12700000000E+01 0. -1.
         25    2    1    2    0    0  0.00000000000E+00  0.00000000000E+00  0.34160712461E+03  0.36375868184E+03  0.12499980411E+03 0.  0.
    9000005    1    3    3    0    0  0.21122499579E+02  0.46254065397E+02  0.27651735138E+03  0.28115555155E+03  0.10000000000E+01 0.  0.
    9000005    1    3    3    0    0 -0.21122499579E+02 -0.46254065397E+02  0.65089773238E+02  0.82603130294E+02  0.10000000000E+01 0.  0.
<mgrwt>
<rscale>  0 0.12499980E+03</rscale>
<asrwt>0</asrwt>
<pdfrwt beam="1">  1        4 0.54258915E-01 0.12499980E+03</pdfrwt>
<pdfrwt beam="2">  1       -4 0.17039657E-02 0.12499980E+03</pdfrwt>
<totfact> 0.68237279E+03</totfact>
</mgrwt>
</event>
<event>
 5    1  0.3296424E-002  0.1250031E+03  0.7818608E-02  0.1235065E+00
         -4   -1    0    0    0  501 -0.00000000000E+00  0.00000000000E+00  0.73883564042E+02  0.73894478383E+02  0.12700000000E+01 0.  1.
          4   -1    0    0  501    0  0.00000000000E+00 -0.00000000000E+00 -0.52850483833E+02  0.52865740715E+02  0.12700000000E+01 0.  1.
         25    2    1    2    0    0  0.00000000000E+00  0.00000000000E+00  0.21033080209E+02  0.12676021910E+03  0.12500305069E+03 0.  0.
    9000005    1    3    3    0    0  0.48356231012E+02  0.31362860419E+02 -0.13978480256E+02  0.59315697767E+02  0.10000000000E+01 0.  0.
    9000005    1    3    3    0    0 -0.48356231012E+02 -0.31362860419E+02  0.35011560465E+02  0.67444521331E+02  0.10000000000E+01 0.  0.
<mgrwt>
<rscale>  0 0.12500305E+03</rscale>
<asrwt>0</asrwt>
<pdfrwt beam="2">  1        4 0.81328569E-02 0.12500305E+03</pdfrwt>
<pdfrwt beam="1">  1       -4 0.11368715E-01 0.12500305E+03</pdfrwt>
<totfact> 0.10413642E+04</totfact>
</mgrwt>
</event>
<event>
 5    1  0.3296424E-002  0.1249953E+03  0.7818608E-02  0.1235077E+00
         -4   -1    0    0    0  501 -0.00000000000E+00  0.00000000000E+00  0.10911149723E+02  0.10984811709E+02  0.12700000000E+01 0.  1.
          4   -1    0    0  501    0  0.00000000000E+00 -0.00000000000E+00 -0.35669922716E+03  0.35670148802E+03  0.12700000000E+01 0.  1.
         25    2    1    2    0    0  0.00000000000E+00  0.00000000000E+00 -0.34578807744E+03  0.36768629973E+03  0.12499528196E+03 0.  0.
    9000005    1    3    3    0    0 -0.93570550877E+01 -0.94946545225E+01  0.66943344775E+01  0.14950486899E+02  0.10000000000E+01 0.  0.
    9000005    1    3    3    0    0  0.93570550877E+01  0.94946545225E+01 -0.35248241191E+03  0.35273581283E+03  0.10000000000E+01 0.  0.
<mgrwt>
<rscale>  0 0.12499528E+03</rscale>
<asrwt>0</asrwt>
<pdfrwt beam="2">  1        4 0.54882635E-01 0.12499528E+03</pdfrwt>
<pdfrwt beam="1">  1       -4 0.16844789E-02 0.12499528E+03</pdfrwt>
<totfact> 0.67828769E+03</totfact>
</mgrwt>
</event>
<event>
 5    1  0.3296424E-002  0.1249999E+03  0.7818608E-02  0.1235070E+00
         -4   -1    0    0    0  501 -0.00000000000E+00  0.00000000000E+00  0.87736642022E+01  0.88651048236E+01  0.12700000000E+01 0. -1.
          4   -1    0    0  501    0  0.00000000000E+00 -0.00000000000E+00 -0.44282304210E+03  0.44282486326E+03  0.12700000000E+01 0. -1.
         25    2    1    2    0    0  0.00000000000E+00  0.00000000000E+00 -0.43404937790E+03  0.45168996808E+03  0.12499985923E+03 0.  0.
    9000005    1    3    3    0    0  0.35292048849E+02  0.30315022705E+02 -0.66261828480E+02  0.80970113172E+02  0.10000000000E+01 0.  0.
    9000005    1    3    3    0    0 -0.35292048849E+02 -0.30315022705E+02 -0.36778754942E+03  0.37071985491E+03  0.10000000000E+01 0.  0.
<mgrwt>
<rscale>  0 0.12499986E+03</rscale>
<asrwt>0</asrwt>
<pdfrwt beam="2">  1        4 0.68133778E-01 0.12499986E+03</pdfrwt>
<pdfrwt beam="1">  1       -4 0.13569688E-02 0.12499986E+03</pdfrwt>
<totfact> 0.59817865E+03</totfact>
</mgrwt>
</event>
<event>
 5    1  0.3296424E-002  0.1249955E+03  0.7818608E-02  0.1235076E+00
         -4   -1    0    0    0  501 -0.00000000000E+00  0.00000000000E+00  0.13768210666E+02  0.13826659934E+02  0.12700000000E+01 0.  1.
          4   -1    0    0  501    0  0.00000000000E+00 -0.00000000000E+00 -0.28303383542E+03  0.28303668471E+03  0.12700000000E+01 0.  1.
         25    2    1    2    0    0  0.00000000000E+00  0.00000000000E+00 -0.26926562475E+03  0.29686334465E+03  0.12499547480E+03 0.  0.
    9000005    1    3    3    0    0 -0.84791756963E+01  0.32703266097E+02 -0.97802970801E+01  0.35185995011E+02  0.10000000000E+01 0.  0.
    9000005    1    3    3    0    0  0.84791756963E+01 -0.32703266097E+02 -0.25948532767E+03  0.26167734963E+03  0.10000000000E+01 0.  0.
<mgrwt>
<rscale>  0 0.12499547E+03</rscale>
<asrwt>0</asrwt>
<pdfrwt beam="2">  1        4 0.43548378E-01 0.12499547E+03</pdfrwt>
<pdfrwt beam="1">  1       -4 0.21229017E-02 0.12499547E+03</pdfrwt>
<totfact> 0.76001625E+03</totfact>
</mgrwt>
</event>
<event>
 5    1  0.3296424E-002  0.1249997E+03  0.7818608E-02  0.1235070E+00
          4   -1    0    0  501    0  0.00000000000E+00  0.00000000000E+00  0.12126747455E+03  0.12127412455E+03  0.12700000000E+01 0.  1.
         -4   -1    0    0    0  501 -0.00000000000E+00 -0.00000000000E+00 -0.32191657630E+02  0.32216699411E+02  0.12700000000E+01 0.  1.
         25    2    1    2    0    0  0.00000000000E+00  0.00000000000E+00  0.89075816925E+02  0.15349082396E+03  0.12499972751E+03 0.  0.
    9000005    1    3    3    0    0  0.32007351262E+02 -0.26931547856E+02  0.10154681975E+03  0.10982957437E+03  0.10000000000E+01 0.  0.
    9000005    1    3    3    0    0 -0.32007351262E+02  0.26931547856E+02 -0.12471002821E+02  0.43661249594E+02  0.10000000000E+01 0.  0.
<mgrwt>
<rscale>  0 0.12499973E+03</rscale>
<asrwt>0</asrwt>
<pdfrwt beam="1">  1        4 0.18658972E-01 0.12499973E+03</pdfrwt>
<pdfrwt beam="2">  1       -4 0.49550006E-02 0.12499973E+03</pdfrwt>
<totfact> 0.98612955E+03</totfact>
</mgrwt>
</event>
<event>
 5    1  0.3296424E-002  0.1250003E+03  0.7818608E-02  0.1235069E+00
         -4   -1    0    0    0  501 -0.00000000000E+00  0.00000000000E+00  0.43955314712E+02  0.43973657926E+02  0.12700000000E+01 0. -1.
          4   -1    0    0  501    0  0.00000000000E+00 -0.00000000000E+00 -0.88827688674E+02  0.88836767023E+02  0.12700000000E+01 0. -1.
         25    2    1    2    0    0  0.00000000000E+00  0.00000000000E+00 -0.44872373962E+02  0.13281042495E+03  0.12500031612E+03 0.  0.
    9000005    1    3    3    0    0 -0.54966899208E+02 -0.21938189092E+02 -0.43755428619E+02  0.73608299007E+02  0.10000000000E+01 0.  0.
    9000005    1    3    3    0    0  0.54966899208E+02  0.21938189092E+02 -0.11169453432E+01  0.59202125942E+02  0.10000000000E+01 0.  0.
<mgrwt>
<rscale>  0 0.12500032E+03</rscale>
<asrwt>0</asrwt>
<pdfrwt beam="2">  1        4 0.13667908E-01 0.12500032E+03</pdfrwt>
<pdfrwt beam="1">  1       -4 0.67644655E-02 0.12500032E+03</pdfrwt>
<totfact> 0.10284357E+04</totfact>
</mgrwt>
</event>
<event>
 5    1  0.3296424E-002  0.1250000E+03  0.7818608E-02  0.1235069E+00
         -4   -1    0    0    0  501 -0.00000000000E+00  0.00000000000E+00  0.12413043260E+02  0.12477842080E+02  0.12700000000E+01 0. -1.
          4   -1    0    0  501    0  0.00000000000E+00 -0.00000000000E+00 -0.31380361456E+03  0.31380618446E+03  0.12700000000E+01 0. -1.
         25    2    1    2    0    0  0.00000000000E+00  0.00000000000E+00 -0.30139057130E+03  0.32628402655E+03  0.12499995805E+03 0.  0.
    9000005    1    3    3    0    0 -0.71751193699E+01 -0.40993458686E+02 -0.27238277315E+03  0.27554549734E+03  0.10000000000E+01 0.  0.
    9000005    1    3    3    0    0  0.71751193699E+01  0.40993458686E+02 -0.29007798143E+02  0.50738529208E+02  0.10000000000E+01 0.  0.
<mgrwt>
<rscale>  0 0.12499996E+03</rscale>
<asrwt>0</asrwt>
<pdfrwt beam="2">  1        4 0.48282655E-01 0.12499996E+03</pdfrwt>
<pdfrwt beam="1">  1       -4 0.19148814E-02 0.12499996E+03</pdfrwt>
<totfact> 0.72414975E+03</totfact>
</mgrwt>
</event>
<event>
 5    1  0.3296424E-002  0.1250027E+03  0.7818608E-02  0.1235065E+00
         -4   -1    0    0    0  501 -0.00000000000E+00  0.00000000000E+00  0.40543715565E+01  0.42486266861E+01  0.12700000000E+01 0. -1.
          4   -1    0    0  501    0  0.00000000000E+00 -0.00000000000E+00 -0.94077050361E+03  0.94077136083E+03  0.12700000000E+01 0. -1.
         25    2    1    2    0    0  0.00000000000E+00  0.00000000000E+00 -0.93671613205E+03  0.94501998751E+03  0.12500265901E+03 0.  0.
    9000005    1    3    3    0    0  0.47257241534E+02 -0.38534142749E+02 -0.57181939632E+03  0.57506221319E+03  0.10000000000E+01 0.  0.
    9000005    1    3    3    0    0 -0.47257241534E+02  0.38534142749E+02 -0.36489673573E+03  0.36995777432E+03  0.10000000000E+01 0.  0.
<mgrwt>
<rscale>  0 0.12500266E+03</rscale>
<asrwt>0</asrwt>
<pdfrwt beam="2">  1        4 0.14474876E+00 0.12500266E+03</pdfrwt>
<pdfrwt beam="1">  1       -4 0.63875886E-03 0.12500266E+03</pdfrwt>
<totfact> 0.32491597E+03</totfact>
</mgrwt>
</event>
<event>
 5    1  0.3296424E-002  0.1249857E+03  0.7818608E-02  0.1235092E+00
          4   -1    0    0  501    0  0.00000000000E+00  0.00000000000E+00  0.62147007128E+03  0.62147136892E+03  0.12700000000E+01 0.  1.
         -4   -1    0    0    0  501 -0.00000000000E+00 -0.00000000000E+00 -0.62185753814E+01  0.63469346754E+01  0.12700000000E+01 0.  1.
         25    2    1    2    0    0  0.00000000000E+00  0.00000000000E+00  0.61525149590E+03  0.62781830360E+03  0.12498567571E+03 0.  0.
    9000005    1    3    3    0    0 -0.96828320955E+01  0.47997299416E+02  0.11263692350E+03  0.12282334682E+03  0.10000000000E+01 0.  0.
    9000005    1    3    3    0    0  0.96828320955E+01 -0.47997299416E+02  0.50261457239E+03  0.50499495678E+03  0.10000000000E+01 0.  0.
<mgrwt>
<rscale>  0 0.12498568E+03</rscale>
<asrwt>0</asrwt>
<pdfrwt beam="1">  1        4 0.95620706E-01 0.12498568E+03</pdfrwt>
<pdfrwt beam="2">  1       -4 0.96667800E-03 0.12498568E+03</pdfrwt>
<totfact> 0.47172262E+03</totfact>
</mgrwt>
</event>
<event>
 5    1  0.3296424E-002  0.1250486E+03  0.7818608E-02  0.1234993E+00
         -4   -1    0    0    0  501 -0.00000000000E+00  0.00000000000E+00  0.40920599728E+02  0.40940302663E+02  0.12700000000E+01 0. -1.
          4   -1    0    0  501    0  0.00000000000E+00 -0.00000000000E+00 -0.95486524568E+02  0.95494969889E+02  0.12700000000E+01 0. -1.
         25    2    1    2    0    0  0.00000000000E+00  0.00000000000E+00 -0.54565924840E+02  0.13643527255E+03  0.12504856434E+03 0.  0.
    9000005    1    3    3    0    0  0.85860598573E+01  0.40636260162E+02 -0.78263059902E+02  0.88606617186E+02  0.10000000000E+01 0.  0.
    9000005    1    3    3    0    0 -0.85860598573E+01 -0.40636260162E+02  0.23697135063E+02  0.47828655365E+02  0.10000000000E+01 0.  0.
<mgrwt>
<rscale>  0 0.12504856E+03</rscale>
<asrwt>0</asrwt>
<pdfrwt beam="2">  1        4 0.14692400E-01 0.12504856E+03</pdfrwt>
<pdfrwt beam="1">  1       -4 0.62976422E-02 0.12504856E+03</pdfrwt>
<totfact> 0.10196736E+04</totfact>
</mgrwt>
</event>
<event>
 5    1  0.3296424E-002  0.1249989E+03  0.7818608E-02  0.1235071E+00
          4   -1    0    0  501    0  0.00000000000E+00  0.00000000000E+00  0.50497594936E+02  0.50513562479E+02  0.12700000000E+01 0.  1.
         -4   -1    0    0    0  501 -0.00000000000E+00 -0.00000000000E+00 -0.77320402554E+02  0.77330831827E+02  0.12700000000E+01 0.  1.
         25    2    1    2    0    0  0.00000000000E+00  0.00000000000E+00 -0.26822807618E+02  0.12784439431E+03  0.12499890458E+03 0.  0.
    9000005    1    3    3    0    0 -0.37090878880E+02 -0.46199914810E+02  0.69160455596E+01  0.59657330737E+02  0.10000000000E+01 0.  0.
    9000005    1    3    3    0    0  0.37090878880E+02  0.46199914810E+02 -0.33738853177E+02  0.68187063570E+02  0.10000000000E+01 0.  0.
<mgrwt>
<rscale>  0 0.12499890E+03</rscale>
<asrwt>0</asrwt>
<pdfrwt beam="1">  1        4 0.77708913E-02 0.12499890E+03</pdfrwt>
<pdfrwt beam="2">  1       -4 0.11897477E-01 0.12499890E+03</pdfrwt>
<totfact> 0.10391106E+04</totfact>
</mgrwt>
</event>
<event>
 5    1  0.3296424E-002  0.1249992E+03  0.7818608E-02  0.1235071E+00
         -4   -1    0    0    0  501 -0.00000000000E+00  0.00000000000E+00  0.73494383145E+02  0.73505355274E+02  0.12700000000E+01 0. -1.
          4   -1    0    0  501    0  0.00000000000E+00 -0.00000000000E+00 -0.53127095572E+02  0.53142273041E+02  0.12700000000E+01 0. -1.
         25    2    1    2    0    0  0.00000000000E+00  0.00000000000E+00  0.20367287573E+02  0.12664762831E+03  0.12499918142E+03 0.  0.
    9000005    1    3    3    0    0  0.20766878437E+02  0.56502679117E+02  0.27179330045E+02  0.66057035727E+02  0.10000000000E+01 0.  0.
    9000005    1    3    3    0    0 -0.20766878437E+02 -0.56502679117E+02 -0.68120424725E+01  0.60590592587E+02  0.10000000000E+01 0.  0.
<mgrwt>
<rscale>  0 0.12499918E+03</rscale>
<asrwt>0</asrwt>
<pdfrwt beam="2">  1        4 0.81754108E-02 0.12499918E+03</pdfrwt>
<pdfrwt beam="1">  1       -4 0.11308840E-01 0.12499918E+03</pdfrwt>
<totfact> 0.10417003E+04</totfact>
</mgrwt>
</event>
<event>
 5    1  0.3296424E-002  0.1250027E+03  0.7818608E-02  0.1235065E+00
          4   -1    0    0  501    0  0.00000000000E+00  0.00000000000E+00  0.11782979499E+02  0.11851223813E+02  0.12700000000E+01 0. -1.
         -4   -1    0    0    0  501 -0.00000000000E+00 -0.00000000000E+00 -0.33050370976E+03  0.33050614982E+03  0.12700000000E+01 0. -1.
         25    2    1    2    0    0  0.00000000000E+00  0.00000000000E+00 -0.31872073026E+03  0.34235737363E+03  0.12500266949E+03 0.  0.
    9000005    1    3    3    0    0 -0.21455551322E+02  0.16210750271E+02 -0.48597826547E+01  0.27344955556E+02  0.10000000000E+01 0.  0.
    9000005    1    3    3    0    0  0.21455551322E+02 -0.16210750271E+02 -0.31386094761E+03  0.31501241807E+03  0.10000000000E+01 0.  0.
<mgrwt>
<rscale>  0 0.12500267E+03</rscale>
<asrwt>0</asrwt>
<pdfrwt beam="1">  1        4 0.18182036E-02 0.12500267E+03</pdfrwt>
<pdfrwt beam="2">  1       -4 0.50852155E-01 0.12500267E+03</pdfrwt>
<totfact> 0.70569435E+03</totfact>
</mgrwt>
</event>
<event>
 5    1  0.3296424E-002  0.1250000E+03  0.7818608E-02  0.1235069E+00
          4   -1    0    0  501    0  0.00000000000E+00  0.00000000000E+00  0.31719610049E+02  0.31745024203E+02  0.12700000000E+01 0. -1.
         -4   -1    0    0    0  501 -0.00000000000E+00 -0.00000000000E+00 -0.12307140654E+03  0.12307795907E+03  0.12700000000E+01 0. -1.
         25    2    1    2    0    0  0.00000000000E+00  0.00000000000E+00 -0.91351796495E+02  0.15482298327E+03  0.12500002171E+03 0.  0.
    9000005    1    3    3    0    0  0.53843083545E+02 -0.30498424402E+02 -0.34876768436E+02  0.71039570052E+02  0.10000000000E+01 0.  0.
    9000005    1    3    3    0    0 -0.53843083545E+02  0.30498424402E+02 -0.56475028059E+02  0.83783413220E+02  0.10000000000E+01 0.  0.
<mgrwt>
<rscale>  0 0.12500002E+03</rscale>
<asrwt>0</asrwt>
<pdfrwt beam="1">  1        4 0.48823990E-02 0.12500002E+03</pdfrwt>
<pdfrwt beam="2">  1       -4 0.18936521E-01 0.12500002E+03</pdfrwt>
<totfact> 0.98350213E+03</totfact>
</mgrwt>
</event>
<event>
 5    1  0.3296424E-002  0.1249983E+03  0.7818608E-02  0.1235072E+00
          4   -1    0    0  501    0  0.00000000000E+00  0.00000000000E+00  0.75566355359E+01  0.76626131719E+01  0.12700000000E+01 0.  1.
         -4   -1    0    0    0  501 -0.00000000000E+00 -0.00000000000E+00 -0.51320969769E+03  0.51321126907E+03  0.12700000000E+01 0.  1.
         25    2    1    2    0    0  0.00000000000E+00  0.00000000000E+00 -0.50565306215E+03  0.52087388224E+03  0.12499832774E+03 0.  0.
    9000005    1    3    3    0    0  0.52522675308E+02  0.32027270077E+02 -0.29862008799E+03  0.30489233248E+03  0.10000000000E+01 0.  0.
    9000005    1    3    3    0    0 -0.52522675308E+02 -0.32027270077E+02 -0.20703297415E+03  0.21598154976E+03  0.10000000000E+01 0.  0.
<mgrwt>
<rscale>  0 0.12499833E+03</rscale>
<asrwt>0</asrwt>
<pdfrwt beam="1">  1        4 0.11708327E-02 0.12499833E+03</pdfrwt>
<pdfrwt beam="2">  1       -4 0.78963584E-01 0.12499833E+03</pdfrwt>
<totfact> 0.54282424E+03</totfact>
</mgrwt>
</event>
<event>
 5    1  0.3296424E-002  0.1249930E+03  0.7818608E-02  0.1235080E+00
          4   -1    0    0  501    0  0.00000000000E+00  0.00000000000E+00  0.69375450768E+01  0.70528314663E+01  0.12700000000E+01 0.  1.
         -4   -1    0    0    0  501 -0.00000000000E+00 -0.00000000000E+00 -0.55824110579E+03  0.55824255041E+03  0.12700000000E+01 0.  1.
         25    2    1    2    0    0  0.00000000000E+00  0.00000000000E+00 -0.55130356071E+03  0.56529538188E+03  0.12499301069E+03 0.  0.
    9000005    1    3    3    0    0  0.32499936736E+02 -0.50815788334E+02 -0.34945817713E+03  0.35462728011E+03  0.10000000000E+01 0.  0.
    9000005    1    3    3    0    0 -0.32499936736E+02  0.50815788334E+02 -0.20184538358E+03  0.21066810177E+03  0.10000000000E+01 0.  0.
<mgrwt>
<rscale>  0 0.12499301E+03</rscale>
<asrwt>0</asrwt>
<pdfrwt beam="1">  1        4 0.10762944E-02 0.12499301E+03</pdfrwt>
<pdfrwt beam="2">  1       -4 0.85892191E-01 0.12499301E+03</pdfrwt>
<totfact> 0.51142056E+03</totfact>
</mgrwt>
</event>
<event>
 5    1  0.3296424E-002  0.1249978E+03  0.7818608E-02  0.1235073E+00
         -4   -1    0    0    0  501 -0.00000000000E+00  0.00000000000E+00  0.12272838613E+02  0.12338373783E+02  0.12700000000E+01 0. -1.
          4   -1    0    0  501    0  0.00000000000E+00 -0.00000000000E+00 -0.31735868626E+03  0.31736122738E+03  0.12700000000E+01 0. -1.
         25    2    1    2    0    0  0.00000000000E+00  0.00000000000E+00 -0.30508584765E+03  0.32969960116E+03  0.12499781027E+03 0.  0.
    9000005    1    3    3    0    0 -0.56558220804E+01  0.62182498696E+02 -0.14583808099E+03  0.15864550840E+03  0.10000000000E+01 0.  0.
    9000005    1    3    3    0    0  0.56558220804E+01 -0.62182498696E+02 -0.15924776666E+03  0.17105409277E+03  0.10000000000E+01 0.  0.
<mgrwt>
<rscale>  0 0.12499781E+03</rscale>
<asrwt>0</asrwt>
<pdfrwt beam="2">  1        4 0.48829644E-01 0.12499781E+03</pdfrwt>
<pdfrwt beam="1">  1       -4 0.18933659E-02 0.12499781E+03</pdfrwt>
<totfact> 0.72020643E+03</totfact>
</mgrwt>
</event>
<event>
 5    1  0.3296424E-002  0.1249938E+03  0.7818608E-02  0.1235079E+00
          4   -1    0    0  501    0  0.00000000000E+00  0.00000000000E+00  0.41367950142E+02  0.41387440111E+02  0.12700000000E+01 0.  1.
         -4   -1    0    0    0  501 -0.00000000000E+00 -0.00000000000E+00 -0.94371572128E+02  0.94380117217E+02  0.12700000000E+01 0.  1.
         25    2    1    2    0    0  0.00000000000E+00  0.00000000000E+00 -0.53003621986E+02  0.13576755733E+03  0.12499378256E+03 0.  0.
    9000005    1    3    3    0    0  0.21576307760E+02 -0.40348641297E+02  0.19726089187E+02  0.49836417464E+02  0.10000000000E+01 0.  0.
    9000005    1    3    3    0    0 -0.21576307760E+02  0.40348641297E+02 -0.72729711173E+02  0.85931139864E+02  0.10000000000E+01 0.  0.
<mgrwt>
<rscale>  0 0.12499378E+03</rscale>
<asrwt>0</asrwt>
<pdfrwt beam="1">  1        4 0.63664566E-02 0.12499378E+03</pdfrwt>
<pdfrwt beam="2">  1       -4 0.14520860E-01 0.12499378E+03</pdfrwt>
<totfact> 0.10223351E+04</totfact>
</mgrwt>
</event>
<event>
 5    1  0.3296424E-002  0.1250000E+03  0.7818608E-02  0.1235069E+00
          4   -1    0    0  501    0  0.00000000000E+00  0.00000000000E+00  0.11258120133E+02  0.11329526421E+02  0.12700000000E+01 0. -1.
         -4   -1    0    0    0  501 -0.00000000000E+00 -0.00000000000E+00 -0.34580222238E+03  0.34580455449E+03  0.12700000000E+01 0. -1.
         25    2    1    2    0    0  0.00000000000E+00  0.00000000000E+00 -0.33454410225E+03  0.35713408091E+03  0.12499998159E+03 0.  0.
    9000005    1    3    3    0    0  0.90957968794E+01 -0.33843119581E+02 -0.31510062812E+03  0.31704494335E+03  0.10000000000E+01 0.  0.
    9000005    1    3    3    0    0 -0.90957968794E+01  0.33843119581E+02 -0.19443474130E+02  0.40089137557E+02  0.10000000000E+01 0.  0.
<mgrwt>
<rscale>  0 0.12499998E+03</rscale>
<asrwt>0</asrwt>
<pdfrwt beam="1">  1        4 0.17376909E-02 0.12499998E+03</pdfrwt>
<pdfrwt beam="2">  1       -4 0.53206006E-01 0.12499998E+03</pdfrwt>
<totfact> 0.68946817E+03</totfact>
</mgrwt>
</event>
<event>
 5    1  0.3296424E-002  0.1250053E+03  0.7818608E-02  0.1235061E+00
         -4   -1    0    0    0  501 -0.00000000000E+00  0.00000000000E+00  0.21619509988E+02  0.21656779819E+02  0.12700000000E+01 0.  1.
          4   -1    0    0  501    0  0.00000000000E+00 -0.00000000000E+00 -0.18050198866E+03  0.18050645643E+03  0.12700000000E+01 0.  1.
         25    2    1    2    0    0  0.00000000000E+00  0.00000000000E+00 -0.15888247867E+03  0.20216323624E+03  0.12500532812E+03 0.  0.
    9000005    1    3    3    0    0  0.32685884734E+02  0.53256711488E+02 -0.77874408467E+02  0.99850227208E+02  0.10000000000E+01 0.  0.
    9000005    1    3    3    0    0 -0.32685884734E+02 -0.53256711488E+02 -0.81008070207E+02  0.10231300904E+03  0.10000000000E+01 0.  0.
<mgrwt>
<rscale>  0 0.12500533E+03</rscale>
<asrwt>0</asrwt>
<pdfrwt beam="2">  1        4 0.27772746E-01 0.12500533E+03</pdfrwt>
<pdfrwt beam="1">  1       -4 0.33292892E-02 0.12500533E+03</pdfrwt>
<totfact> 0.89761238E+03</totfact>
</mgrwt>
</event>
<event>
 5    1  0.3296424E-002  0.1250000E+03  0.7818608E-02  0.1235069E+00
          4   -1    0    0  501    0  0.00000000000E+00  0.00000000000E+00  0.68384009934E+03  0.68384127864E+03  0.12700000000E+01 0. -1.
         -4   -1    0    0    0  501 -0.00000000000E+00 -0.00000000000E+00 -0.56404383605E+01  0.57816472479E+01  0.12700000000E+01 0. -1.
         25    2    1    2    0    0  0.00000000000E+00  0.00000000000E+00  0.67819966098E+03  0.68962292588E+03  0.12499999900E+03 0.  0.
    9000005    1    3    3    0    0 -0.11970433884E+02 -0.61002362631E+02  0.37428348302E+03  0.37941231556E+03  0.10000000000E+01 0.  0.
    9000005    1    3    3    0    0  0.11970433884E+02  0.61002362631E+02  0.30391617796E+03  0.31021061033E+03  0.10000000000E+01 0.  0.
<mgrwt>
<rscale>  0 0.12500000E+03</rscale>
<asrwt>0</asrwt>
<pdfrwt beam="1">  1        4 0.10521713E+00 0.12500000E+03</pdfrwt>
<pdfrwt beam="2">  1       -4 0.87871265E-03 0.12500000E+03</pdfrwt>
<totfact> 0.43640171E+03</totfact>
</mgrwt>
</event>
<event>
 5    1  0.3296424E-002  0.1250006E+03  0.7818608E-02  0.1235068E+00
         -4   -1    0    0    0  501 -0.00000000000E+00  0.00000000000E+00  0.11486088059E+03  0.11486790148E+03  0.12700000000E+01 0. -1.
          4   -1    0    0  501    0  0.00000000000E+00 -0.00000000000E+00 -0.33988952747E+02  0.34012671298E+02  0.12700000000E+01 0. -1.
         25    2    1    2    0    0  0.00000000000E+00  0.00000000000E+00  0.80871927843E+02  0.14888057277E+03  0.12500062495E+03 0.  0.
    9000005    1    3    3    0    0  0.40506682843E+02 -0.47584700410E+02  0.39911377706E+02  0.74155331152E+02  0.10000000000E+01 0.  0.
    9000005    1    3    3    0    0 -0.40506682843E+02  0.47584700410E+02  0.40960550137E+02  0.74725241622E+02  0.10000000000E+01 0.  0.
<mgrwt>
<rscale>  0 0.12500062E+03</rscale>
<asrwt>0</asrwt>
<pdfrwt beam="2">  1        4 0.52314343E-02 0.12500062E+03</pdfrwt>
<pdfrwt beam="1">  1       -4 0.17673269E-01 0.12500062E+03</pdfrwt>
<totfact> 0.99525908E+03</totfact>
</mgrwt>
</event>
<event>
 5    1  0.3296424E-002  0.1250144E+03  0.7818608E-02  0.1235047E+00
         -4   -1    0    0    0  501 -0.00000000000E+00  0.00000000000E+00  0.82046703546E+01  0.83023801183E+01  0.12700000000E+01 0. -1.
          4   -1    0    0  501    0  0.00000000000E+00 -0.00000000000E+00 -0.47329277952E+03  0.47329448344E+03  0.12700000000E+01 0. -1.
         25    2    1    2    0    0  0.00000000000E+00  0.00000000000E+00 -0.46508810917E+03  0.48159686355E+03  0.12501435795E+03 0.  0.
    9000005    1    3    3    0    0  0.13332146390E+02 -0.42179324756E+02 -0.40262816747E+03  0.40505219763E+03  0.10000000000E+01 0.  0.
    9000005    1    3    3    0    0 -0.13332146390E+02  0.42179324756E+02 -0.62459941700E+02  0.76544665924E+02  0.10000000000E+01 0.  0.
<mgrwt>
<rscale>  0 0.12501436E+03</rscale>
<asrwt>0</asrwt>
<pdfrwt beam="2">  1        4 0.72821900E-01 0.12501436E+03</pdfrwt>
<pdfrwt beam="1">  1       -4 0.12699046E-02 0.12501436E+03</pdfrwt>
<totfact> 0.57302945E+03</totfact>
</mgrwt>
</event>
<event>
 5    1  0.3296424E-002  0.1250005E+03  0.7818608E-02  0.1235068E+00
          4   -1    0    0  501    0  0.00000000000E+00  0.00000000000E+00  0.14195533306E+02  0.14252230206E+02  0.12700000000E+01 0. -1.
         -4   -1    0    0    0  501 -0.00000000000E+00 -0.00000000000E+00 -0.27457040110E+03  0.27457333822E+03  0.12700000000E+01 0. -1.
         25    2    1    2    0    0  0.00000000000E+00  0.00000000000E+00 -0.26037486780E+03  0.28882556843E+03  0.12500054879E+03 0.  0.
    9000005    1    3    3    0    0 -0.29486730063E+02  0.14341983465E+02 -0.72663185864E+01  0.33599986984E+02  0.10000000000E+01 0.  0.
    9000005    1    3    3    0    0  0.29486730063E+02 -0.14341983465E+02 -0.25310854921E+03  0.25522558144E+03  0.10000000000E+01 0.  0.
<mgrwt>
<rscale>  0 0.12500055E+03</rscale>
<asrwt>0</asrwt>
<pdfrwt beam="1">  1        4 0.21885156E-02 0.12500055E+03</pdfrwt>
<pdfrwt beam="2">  1       -4 0.42246183E-01 0.12500055E+03</pdfrwt>
<totfact> 0.77021328E+03</totfact>
</mgrwt>
</event>
<event>
 5    1  0.3296424E-002  0.1250024E+03  0.7818608E-02  0.1235066E+00
          4   -1    0    0  501    0  0.00000000000E+00  0.00000000000E+00  0.55629580405E+02  0.55644075300E+02  0.12700000000E+01 0.  1.
         -4   -1    0    0    0  501 -0.00000000000E+00 -0.00000000000E+00 -0.70192196892E+02  0.70203685121E+02  0.12700000000E+01 0.  1.
         25    2    1    2    0    0  0.00000000000E+00  0.00000000000E+00 -0.14562616487E+02  0.12584776042E+03  0.12500235599E+03 0.  0.
    9000005    1    3    3    0    0 -0.29681032682E+02 -0.49370043606E+02 -0.31673920262E+02  0.65746499006E+02  0.10000000000E+01 0.  0.
    9000005    1    3    3    0    0  0.29681032682E+02  0.49370043606E+02  0.17111303775E+02  0.60101261415E+02  0.10000000000E+01 0.  0.
<mgrwt>
<rscale>  0 0.12500236E+03</rscale>
<asrwt>0</asrwt>
<pdfrwt beam="1">  1        4 0.85603957E-02 0.12500236E+03</pdfrwt>
<pdfrwt beam="2">  1       -4 0.10800798E-01 0.12500236E+03</pdfrwt>
<totfact> 0.10433742E+04</totfact>
</mgrwt>
</event>
<event>
 5    1  0.3296424E-002  0.1250010E+03  0.7818608E-02  0.1235068E+00
         -4   -1    0    0    0  501 -0.00000000000E+00  0.00000000000E+00  0.35372749136E+02  0.35395540417E+02  0.12700000000E+01 0. -1.
          4   -1    0    0  501    0  0.00000000000E+00 -0.00000000000E+00 -0.11037081436E+03  0.11037812085E+03  0.12700000000E+01 0. -1.
         25    2    1    2    0    0  0.00000000000E+00  0.00000000000E+00 -0.74998065220E+02  0.14577366126E+03  0.12500100212E+03 0.  0.
    9000005    1    3    3    0    0  0.16875515651E+02  0.48085819241E+02 -0.79679997922E+02  0.94588218661E+02  0.10000000000E+01 0.  0.
    9000005    1    3    3    0    0 -0.16875515651E+02 -0.48085819241E+02  0.46819327023E+01  0.51185442602E+02  0.10000000000E+01 0.  0.
<mgrwt>
<rscale>  0 0.12500100E+03</rscale>
<asrwt>0</asrwt>
<pdfrwt beam="2">  1        4 0.16982440E-01 0.12500100E+03</pdfrwt>
<pdfrwt beam="1">  1       -4 0.54442767E-02 0.12500100E+03</pdfrwt>
<totfact> 0.10015067E+04</totfact>
</mgrwt>
</event>
<event>
 5    1  0.3296424E-002  0.1250051E+03  0.7818608E-02  0.1235061E+00
         -4   -1    0    0    0  501 -0.00000000000E+00  0.00000000000E+00  0.18802579080E+02  0.18845420665E+02  0.12700000000E+01 0. -1.
          4   -1    0    0  501    0  0.00000000000E+00 -0.00000000000E+00 -0.20748637472E+03  0.20749026145E+03  0.12700000000E+01 0. -1.
         25    2    1    2    0    0  0.00000000000E+00  0.00000000000E+00 -0.18868379564E+03  0.22633568211E+03  0.12500506493E+03 0.  0.
    9000005    1    3    3    0    0  0.50583678219E+02  0.17769472386E+02 -0.36201682740E+02  0.64699493695E+02  0.10000000000E+01 0.  0.
    9000005    1    3    3    0    0 -0.50583678219E+02 -0.17769472386E+02 -0.15248211290E+03  0.16163618842E+03  0.10000000000E+01 0.  0.
<mgrwt>
<rscale>  0 0.12500506E+03</rscale>
<asrwt>0</asrwt>
<pdfrwt beam="2">  1        4 0.31924574E-01 0.12500506E+03</pdfrwt>
<pdfrwt beam="1">  1       -4 0.28962991E-02 0.12500506E+03</pdfrwt>
<totfact> 0.85865745E+03</totfact>
</mgrwt>
</event>
<event>
 5    1  0.3296424E-002  0.1250137E+03  0.7818608E-02  0.1235048E+00
          4   -1    0    0  501    0  0.00000000000E+00  0.00000000000E+00  0.11485675138E+03  0.11486377252E+03  0.12700000000E+01 0.  1.
         -4   -1    0    0    0  501 -0.00000000000E+00 -0.00000000000E+00 -0.33997267436E+02  0.34020980190E+02  0.12700000000E+01 0.  1.
         25    2    1    2    0    0  0.00000000000E+00  0.00000000000E+00  0.80859483940E+02  0.14888475271E+03  0.12501365304E+03 0.  0.
    9000005    1    3    3    0    0 -0.30063212282E+00  0.61968939486E+02  0.50095039970E+02  0.79691611041E+02  0.10000000000E+01 0.  0.
    9000005    1    3    3    0    0  0.30063212282E+00 -0.61968939486E+02  0.30764443971E+02  0.69193141666E+02  0.10000000000E+01 0.  0.
<mgrwt>
<rscale>  0 0.12501365E+03</rscale>
<asrwt>0</asrwt>
<pdfrwt beam="1">  1        4 0.17672634E-01 0.12501365E+03</pdfrwt>
<pdfrwt beam="2">  1       -4 0.52327129E-02 0.12501365E+03</pdfrwt>
<totfact> 0.99495892E+03</totfact>
</mgrwt>
</event>
<event>
 5    1  0.3296424E-002  0.1249986E+03  0.7818608E-02  0.1235071E+00
         -4   -1    0    0    0  501 -0.00000000000E+00  0.00000000000E+00  0.27841272764E+03  0.27841562422E+03  0.12700000000E+01 0. -1.
          4   -1    0    0  501    0  0.00000000000E+00 -0.00000000000E+00 -0.13998406520E+02  0.14055898587E+02  0.12700000000E+01 0. -1.
         25    2    1    2    0    0  0.00000000000E+00  0.00000000000E+00  0.26441432112E+03  0.29247152281E+03  0.12499863376E+03 0.  0.
    9000005    1    3    3    0    0  0.37784555157E+02 -0.49762378683E+02  0.12964653016E+03  0.14392077586E+03  0.10000000000E+01 0.  0.
    9000005    1    3    3    0    0 -0.37784555157E+02  0.49762378683E+02  0.13476779096E+03  0.14855074695E+03  0.10000000000E+01 0.  0.
<mgrwt>
<rscale>  0 0.12499863E+03</rscale>
<asrwt>0</asrwt>
<pdfrwt beam="2">  1        4 0.21582461E-02 0.12499863E+03</pdfrwt>
<pdfrwt beam="1">  1       -4 0.42837375E-01 0.12499863E+03</pdfrwt>
<totfact> 0.76555326E+03</totfact>
</mgrwt>
</event>
<event>
 5    1  0.3296424E-002  0.1249976E+03  0.7818608E-02  0.1235073E+00
          4   -1    0    0  501    0  0.00000000000E+00  0.00000000000E+00  0.37887975785E+02  0.37909254927E+02  0.12700000000E+01 0. -1.
         -4   -1    0    0    0  501 -0.00000000000E+00 -0.00000000000E+00 -0.10304187436E+03  0.10304970050E+03  0.12700000000E+01 0. -1.
         25    2    1    2    0    0  0.00000000000E+00  0.00000000000E+00 -0.65153898578E+02  0.14095895542E+03  0.12499758643E+03 0.  0.
    9000005    1    3    3    0    0  0.30780081525E+02  0.18166083830E+02  0.25229622123E+02  0.43760185704E+02  0.10000000000E+01 0.  0.
    9000005    1    3    3    0    0 -0.30780081525E+02 -0.18166083830E+02 -0.90383520701E+02  0.97198769719E+02  0.10000000000E+01 0.  0.
<mgrwt>
<rscale>  0 0.12499759E+03</rscale>
<asrwt>0</asrwt>
<pdfrwt beam="1">  1        4 0.58311583E-02 0.12499759E+03</pdfrwt>
<pdfrwt beam="2">  1       -4 0.15854835E-01 0.12499759E+03</pdfrwt>
<totfact> 0.10114299E+04</totfact>
</mgrwt>
</event>
<event>
 5    1  0.3296424E-002  0.1250002E+03  0.7818608E-02  0.1235069E+00
          4   -1    0    0  501    0  0.00000000000E+00  0.00000000000E+00  0.71309498583E+01  0.72431585570E+01  0.12700000000E+01 0. -1.
         -4   -1    0    0    0  501 -0.00000000000E+00 -0.00000000000E+00 -0.54340039367E+03  0.54340187775E+03  0.12700000000E+01 0. -1.
         25    2    1    2    0    0  0.00000000000E+00  0.00000000000E+00 -0.53626944382E+03  0.55064503631E+03  0.12500015857E+03 0.  0.
    9000005    1    3    3    0    0  0.56994822447E+02  0.18861151823E+02 -0.19169455160E+03  0.20087795784E+03  0.10000000000E+01 0.  0.
    9000005    1    3    3    0    0 -0.56994822447E+02 -0.18861151823E+02 -0.34457489222E+03  0.34976707847E+03  0.10000000000E+01 0.  0.
<mgrwt>
<rscale>  0 0.12500016E+03</rscale>
<asrwt>0</asrwt>
<pdfrwt beam="1">  1        4 0.11058152E-02 0.12500016E+03</pdfrwt>
<pdfrwt beam="2">  1       -4 0.83608774E-01 0.12500016E+03</pdfrwt>
<totfact> 0.52138832E+03</totfact>
</mgrwt>
</event>
<event>
 5    1  0.3296424E-002  0.1250048E+03  0.7818608E-02  0.1235062E+00
          4   -1    0    0  501    0  0.00000000000E+00  0.00000000000E+00  0.12805700317E+03  0.12806330060E+03  0.12700000000E+01 0.  1.
         -4   -1    0    0    0  501 -0.00000000000E+00 -0.00000000000E+00 -0.30486072073E+02  0.30512513670E+02  0.12700000000E+01 0.  1.
         25    2    1    2    0    0  0.00000000000E+00  0.00000000000E+00  0.97570931099E+02  0.15857581427E+03  0.12500480902E+03 0.  0.
    9000005    1    3    3    0    0  0.56026103771E+02 -0.21418234382E+02  0.71044424488E+02  0.92983736850E+02  0.10000000000E+01 0.  0.
    9000005    1    3    3    0    0 -0.56026103771E+02  0.21418234382E+02  0.26526506612E+02  0.65592077424E+02  0.10000000000E+01 0.  0.
<mgrwt>
<rscale>  0 0.12500481E+03</rscale>
<asrwt>0</asrwt>
<pdfrwt beam="1">  1        4 0.19703596E-01 0.12500481E+03</pdfrwt>
<pdfrwt beam="2">  1       -4 0.46926833E-02 0.12500481E+03</pdfrwt>
<totfact> 0.97607508E+03</totfact>
</mgrwt>
</event>
<event>
 5    1  0.3296424E-002  0.1249949E+03  0.7818608E-02  0.1235077E+00
         -4   -1    0    0    0  501 -0.00000000000E+00  0.00000000000E+00  0.81708360379E+02  0.81718229642E+02  0.12700000000E+01 0. -1.
          4   -1    0    0  501    0  0.00000000000E+00 -0.00000000000E+00 -0.47782097226E+02  0.47798971907E+02  0.12700000000E+01 0. -1.
         25    2    1    2    0    0  0.00000000000E+00  0.00000000000E+00  0.33926263153E+02  0.12951720155E+03  0.12499485656E+03 0.  0.
    9000005    1    3    3    0    0 -0.18273618370E+02 -0.38181747980E+02 -0.30669134898E+02  0.52281610941E+02  0.10000000000E+01 0.  0.
    9000005    1    3    3    0    0  0.18273618370E+02  0.38181747980E+02  0.64595398051E+02  0.77235590608E+02  0.10000000000E+01 0.  0.
<mgrwt>
<rscale>  0 0.12499486E+03</rscale>
<asrwt>0</asrwt>
<pdfrwt beam="2">  1        4 0.73531491E-02 0.12499486E+03</pdfrwt>
<pdfrwt beam="1">  1       -4 0.12572574E-01 0.12499486E+03</pdfrwt>
<totfact> 0.10356049E+04</totfact>
</mgrwt>
</event>
<event>
 5    1  0.3296424E-002  0.1249965E+03  0.7818608E-02  0.1235075E+00
         -4   -1    0    0    0  501 -0.00000000000E+00  0.00000000000E+00  0.26795465341E+01  0.29652773274E+01  0.12700000000E+01 0. -1.
          4   -1    0    0  501    0  0.00000000000E+00 -0.00000000000E+00 -0.13836486660E+04  0.13836492488E+04  0.12700000000E+01 0. -1.
         25    2    1    2    0    0  0.00000000000E+00  0.00000000000E+00 -0.13809691194E+04  0.13866145261E+04  0.12499654102E+03 0.  0.
    9000005    1    3    3    0    0 -0.14786263948E+02 -0.60359998989E+02 -0.76328749749E+03  0.76581379388E+03  0.10000000000E+01 0.  0.
    9000005    1    3    3    0    0  0.14786263948E+02  0.60359998989E+02 -0.61768162196E+03  0.62080073227E+03  0.10000000000E+01 0.  0.
<mgrwt>
<rscale>  0 0.12499654E+03</rscale>
<asrwt>0</asrwt>
<pdfrwt beam="2">  1        4 0.21289051E+00 0.12499654E+03</pdfrwt>
<pdfrwt beam="1">  1       -4 0.43426316E-03 0.12499654E+03</pdfrwt>
<totfact> 0.20271609E+03</totfact>
</mgrwt>
</event>
<event>
 5    1  0.3296424E-002  0.1250019E+03  0.7818608E-02  0.1235066E+00
          4   -1    0    0  501    0  0.00000000000E+00  0.00000000000E+00  0.15015308587E+03  0.15015845663E+03  0.12700000000E+01 0. -1.
         -4   -1    0    0    0  501 -0.00000000000E+00 -0.00000000000E+00 -0.25994584027E+02  0.26025589307E+02  0.12700000000E+01 0. -1.
         25    2    1    2    0    0  0.00000000000E+00  0.00000000000E+00  0.12415850185E+03  0.17618404594E+03  0.12500193783E+03 0.  0.
    9000005    1    3    3    0    0 -0.96632059625E+01 -0.20742994413E+02 -0.19883923199E+02  0.30331827648E+02  0.10000000000E+01 0.  0.
    9000005    1    3    3    0    0  0.96632059625E+01  0.20742994413E+02  0.14404242505E+03  0.14585221829E+03  0.10000000000E+01 0.  0.
<mgrwt>
<rscale>  0 0.12500194E+03</rscale>
<asrwt>0</asrwt>
<pdfrwt beam="1">  1        4 0.23103273E-01 0.12500194E+03</pdfrwt>
<pdfrwt beam="2">  1       -4 0.40019650E-02 0.12500194E+03</pdfrwt>
<totfact> 0.94304333E+03</totfact>
</mgrwt>
</event>
<event>
 5    1  0.3296424E-002  0.1250025E+03  0.7818608E-02  0.1235065E+00
          4   -1    0    0  501    0  0.00000000000E+00  0.00000000000E+00  0.27207993531E+02  0.27237617590E+02  0.12700000000E+01 0. -1.
         -4   -1    0    0    0  501 -0.00000000000E+00 -0.00000000000E+00 -0.14346514067E+03  0.14347076178E+03  0.12700000000E+01 0. -1.
         25    2    1    2    0    0  0.00000000000E+00  0.00000000000E+00 -0.11625714714E+03  0.17070837937E+03  0.12500250609E+03 0.  0.
    9000005    1    3    3    0    0 -0.44505503373E+02 -0.43009916613E+02 -0.46316471466E+02  0.77309820118E+02  0.10000000000E+01 0.  0.
    9000005    1    3    3    0    0  0.44505503373E+02  0.43009916613E+02 -0.69940675669E+02  0.93398559254E+02  0.10000000000E+01 0.  0.
<mgrwt>
<rscale>  0 0.12500251E+03</rscale>
<asrwt>0</asrwt>
<pdfrwt beam="1">  1        4 0.41885564E-02 0.12500251E+03</pdfrwt>
<pdfrwt beam="2">  1       -4 0.22074271E-01 0.12500251E+03</pdfrwt>
<totfact> 0.95311408E+03</totfact>
</mgrwt>
</event>
<event>
 5    1  0.3296424E-002  0.1250010E+03  0.7818608E-02  0.1235068E+00
         -4   -1    0    0    0  501 -0.00000000000E+00  0.00000000000E+00  0.31402840882E+02  0.31428511188E+02  0.12700000000E+01 0. -1.
          4   -1    0    0  501    0  0.00000000000E+00 -0.00000000000E+00 -0.12431392033E+03  0.12432040737E+03  0.12700000000E+01 0. -1.
         25    2    1    2    0    0  0.00000000000E+00  0.00000000000E+00 -0.92911079447E+02  0.15574891855E+03  0.12500102778E+03 0.  0.
    9000005    1    3    3    0    0  0.14714550885E+02 -0.55850347465E+01  0.28899061337E+02  0.32922125798E+02  0.10000000000E+01 0.  0.
    9000005    1    3    3    0    0 -0.14714550885E+02  0.55850347465E+01 -0.12181014078E+03  0.12282679276E+03  0.10000000000E+01 0.  0.
<mgrwt>
<rscale>  0 0.12500103E+03</rscale>
<asrwt>0</asrwt>
<pdfrwt beam="2">  1        4 0.19127692E-01 0.12500103E+03</pdfrwt>
<pdfrwt beam="1">  1       -4 0.48336800E-02 0.12500103E+03</pdfrwt>
<totfact> 0.98166408E+03</totfact>
</mgrwt>
</event>
<event>
 5    1  0.3296424E-002  0.1250038E+03  0.7818608E-02  0.1235063E+00
          4   -1    0    0  501    0  0.00000000000E+00  0.00000000000E+00  0.23612403058E+02  0.23646532054E+02  0.12700000000E+01 0. -1.
         -4   -1    0    0    0  501 -0.00000000000E+00 -0.00000000000E+00 -0.16528620137E+03  0.16529108041E+03  0.12700000000E+01 0. -1.
         25    2    1    2    0    0  0.00000000000E+00  0.00000000000E+00 -0.14167379832E+03  0.18893761247E+03  0.12500382505E+03 0.  0.
    9000005    1    3    3    0    0 -0.14961055173E+01  0.60863431752E+02 -0.49520918351E+02  0.78485138788E+02  0.10000000000E+01 0.  0.
    9000005    1    3    3    0    0  0.14961055173E+01 -0.60863431752E+02 -0.92152879965E+02  0.11045247368E+03  0.10000000000E+01 0.  0.
<mgrwt>
<rscale>  0 0.12500383E+03</rscale>
<asrwt>0</asrwt>
<pdfrwt beam="1">  1        4 0.36356781E-02 0.12500383E+03</pdfrwt>
<pdfrwt beam="2">  1       -4 0.25431646E-01 0.12500383E+03</pdfrwt>
<totfact> 0.92024610E+03</totfact>
</mgrwt>
</event>
<event>
 5    1  0.3296424E-002  0.1250026E+03  0.7818608E-02  0.1235065E+00
          4   -1    0    0  501    0  0.00000000000E+00  0.00000000000E+00  0.45115542223E+02  0.45133413898E+02  0.12700000000E+01 0. -1.
         -4   -1    0    0    0  501 -0.00000000000E+00 -0.00000000000E+00 -0.86547156700E+02  0.86556474240E+02  0.12700000000E+01 0. -1.
         25    2    1    2    0    0  0.00000000000E+00  0.00000000000E+00 -0.41431614477E+02  0.13168988814E+03  0.12500259181E+03 0.  0.
    9000005    1    3    3    0    0  0.15186544458E+02  0.53207129345E+02  0.98861075903E+01  0.56217122561E+02  0.10000000000E+01 0.  0.
    9000005    1    3    3    0    0 -0.15186544458E+02 -0.53207129345E+02 -0.51317722068E+02  0.75472765578E+02  0.10000000000E+01 0.  0.
<mgrwt>
<rscale>  0 0.12500259E+03</rscale>
<asrwt>0</asrwt>
<pdfrwt beam="1">  1        4 0.69429442E-02 0.12500259E+03</pdfrwt>
<pdfrwt beam="2">  1       -4 0.13317039E-01 0.12500259E+03</pdfrwt>
<totfact> 0.10307719E+04</totfact>
</mgrwt>
</event>
<event>
 5    1  0.3296424E-002  0.1249960E+03  0.7818608E-02  0.1235076E+00
         -4   -1    0    0    0  501 -0.00000000000E+00  0.00000000000E+00  0.17816963374E+01  0.21879995061E+01  0.12700000000E+01 0. -1.
          4   -1    0    0  501    0  0.00000000000E+00 -0.00000000000E+00 -0.19675022372E+04  0.19675026471E+04  0.12700000000E+01 0. -1.
         25    2    1    2    0    0  0.00000000000E+00  0.00000000000E+00 -0.19657205408E+04  0.19696906466E+04  0.12499599393E+03 0.  0.
    9000005    1    3    3    0    0  0.58605742599E+02 -0.21081856239E+01 -0.64271957947E+03  0.64539021944E+03  0.10000000000E+01 0.  0.
    9000005    1    3    3    0    0 -0.58605742599E+02  0.21081856239E+01 -0.13230009614E+04  0.13243004271E+04  0.10000000000E+01 0.  0.
<mgrwt>
<rscale>  0 0.12499599E+03</rscale>
<asrwt>0</asrwt>
<pdfrwt beam="2">  1        4 0.30272238E+00 0.12499599E+03</pdfrwt>
<pdfrwt beam="1">  1       -4 0.30539432E-03 0.12499599E+03</pdfrwt>
<totfact> 0.10263160E+03</totfact>
</mgrwt>
</event>
<event>
 5    1  0.3296424E-002  0.1249894E+03  0.7818608E-02  0.1235086E+00
          4   -1    0    0  501    0  0.00000000000E+00  0.00000000000E+00  0.50426353396E+03  0.50426513322E+03  0.12700000000E+01 0.  1.
         -4   -1    0    0    0  501 -0.00000000000E+00 -0.00000000000E+00 -0.76914444930E+01  0.77955896755E+01  0.12700000000E+01 0.  1.
         25    2    1    2    0    0  0.00000000000E+00  0.00000000000E+00  0.49657208947E+03  0.51206072290E+03  0.12498937513E+03 0.  0.
    9000005    1    3    3    0    0 -0.45608618875E+02 -0.18791812971E+02  0.91141209934E+02  0.10363878858E+03  0.10000000000E+01 0.  0.
    9000005    1    3    3    0    0  0.45608618875E+02  0.18791812971E+02  0.40543087953E+03  0.40842193431E+03  0.10000000000E+01 0.  0.
<mgrwt>
<rscale>  0 0.12498938E+03</rscale>
<asrwt>0</asrwt>
<pdfrwt beam="1">  1        4 0.77587161E-01 0.12498938E+03</pdfrwt>
<pdfrwt beam="2">  1       -4 0.11914330E-02 0.12498938E+03</pdfrwt>
<totfact> 0.54953417E+03</totfact>
</mgrwt>
</event>
<event>
 5    1  0.3296424E-002  0.1250019E+03  0.7818608E-02  0.1235066E+00
          4   -1    0    0  501    0  0.00000000000E+00  0.00000000000E+00  0.59503581118E+03  0.59503716648E+03  0.12700000000E+01 0. -1.
         -4   -1    0    0    0  501 -0.00000000000E+00 -0.00000000000E+00 -0.65021379658E+01  0.66250055189E+01  0.12700000000E+01 0. -1.
         25    2    1    2    0    0  0.00000000000E+00  0.00000000000E+00  0.58853367322E+03  0.60166217200E+03  0.12500193879E+03 0.  0.
    9000005    1    3    3    0    0 -0.12838797647E+02  0.12830261403E+02  0.58209275990E+03  0.58237653752E+03  0.10000000000E+01 0.  0.
    9000005    1    3    3    0    0  0.12838797647E+02 -0.12830261403E+02  0.64409133211E+01  0.19285634475E+02  0.10000000000E+01 0.  0.
<mgrwt>
<rscale>  0 0.12500194E+03</rscale>
<asrwt>0</asrwt>
<pdfrwt beam="1">  1        4 0.91553581E-01 0.12500194E+03</pdfrwt>
<pdfrwt beam="2">  1       -4 0.10098839E-02 0.12500194E+03</pdfrwt>
<totfact> 0.48760762E+03</totfact>
</mgrwt>
</event>
<event>
 5    1  0.3296424E-002  0.1250001E+03  0.7818608E-02  0.1235069E+00
          4   -1    0    0  501    0  0.00000000000E+00  0.00000000000E+00  0.65639175013E+01  0.66856497787E+01  0.12700000000E+01 0. -1.
         -4   -1    0    0    0  501 -0.00000000000E+00 -0.00000000000E+00 -0.58952027286E+03  0.58952164083E+03  0.12700000000E+01 0. -1.
         25    2    1    2    0    0  0.00000000000E+00  0.00000000000E+00 -0.58295635536E+03  0.59620729061E+03  0.12500008451E+03 0.  0.
    9000005    1    3    3    0    0  0.50670270691E+02  0.34545807979E+02 -0.34878675004E+03  0.35413851271E+03  0.10000000000E+01 0.  0.
    9000005    1    3    3    0    0 -0.50670270691E+02 -0.34545807979E+02 -0.23416960532E+03  0.24206877791E+03  0.10000000000E+01 0.  0.
<mgrwt>
<rscale>  0 0.12500008E+03</rscale>
<asrwt>0</asrwt>
<pdfrwt beam="1">  1        4 0.10193032E-02 0.12500008E+03</pdfrwt>
<pdfrwt beam="2">  1       -4 0.90704855E-01 0.12500008E+03</pdfrwt>
<totfact> 0.49107821E+03</totfact>
</mgrwt>
</event>
<event>
 5    1  0.3296424E-002  0.1250048E+03  0.7818608E-02  0.1235062E+00
          4   -1    0    0  501    0  0.00000000000E+00  0.00000000000E+00  0.57489662155E+02  0.57503688183E+02  0.12700000000E+01 0.  1.
         -4   -1    0    0    0  501 -0.00000000000E+00 -0.00000000000E+00 -0.67923949507E+02  0.67935821307E+02  0.12700000000E+01 0.  1.
         25    2    1    2    0    0  0.00000000000E+00  0.00000000000E+00 -0.10434287352E+02  0.12543950949E+03  0.12500478466E+03 0.  0.
    9000005    1    3    3    0    0  0.44025063804E+02 -0.41096668152E+02  0.11526405790E+02  0.61326995740E+02  0.10000000000E+01 0.  0.
    9000005    1    3    3    0    0 -0.44025063804E+02  0.41096668152E+02 -0.21960693142E+02  0.64112513750E+02  0.10000000000E+01 0.  0.
<mgrwt>
<rscale>  0 0.12500478E+03</rscale>
<asrwt>0</asrwt>
<pdfrwt beam="1">  1        4 0.88465556E-02 0.12500478E+03</pdfrwt>
<pdfrwt beam="2">  1       -4 0.10451830E-01 0.12500478E+03</pdfrwt>
<totfact> 0.10442165E+04</totfact>
</mgrwt>
</event>
<event>
 5    1  0.3296424E-002  0.1250021E+03  0.7818608E-02  0.1235066E+00
          4   -1    0    0  501    0  0.00000000000E+00  0.00000000000E+00  0.10276917235E+03  0.10277701925E+03  0.12700000000E+01 0.  1.
         -4   -1    0    0    0  501 -0.00000000000E+00 -0.00000000000E+00 -0.37991282213E+02  0.38012503524E+02  0.12700000000E+01 0.  1.
         25    2    1    2    0    0  0.00000000000E+00  0.00000000000E+00  0.64777890136E+02  0.14078952277E+03  0.12500205867E+03 0.  0.
    9000005    1    3    3    0    0 -0.34461552486E+02 -0.26935531456E+02  0.82660911723E+02  0.93525118452E+02  0.10000000000E+01 0.  0.
    9000005    1    3    3    0    0  0.34461552486E+02  0.26935531456E+02 -0.17883021587E+02  0.47264404319E+02  0.10000000000E+01 0.  0.
<mgrwt>
<rscale>  0 0.12500206E+03</rscale>
<asrwt>0</asrwt>
<pdfrwt beam="1">  1        4 0.15812878E-01 0.12500206E+03</pdfrwt>
<pdfrwt beam="2">  1       -4 0.58470487E-02 0.12500206E+03</pdfrwt>
<totfact> 0.10116780E+04</totfact>
</mgrwt>
</event>
<event>
 5    1  0.3296424E-002  0.1249927E+03  0.7818608E-02  0.1235081E+00
          4   -1    0    0  501    0  0.00000000000E+00  0.00000000000E+00  0.49413288210E+03  0.49413451415E+03  0.12700000000E+01 0.  1.
         -4   -1    0    0    0  501 -0.00000000000E+00 -0.00000000000E+00 -0.78516686598E+01  0.79537161593E+01  0.12700000000E+01 0.  1.
         25    2    1    2    0    0  0.00000000000E+00  0.00000000000E+00  0.48628121344E+03  0.50208823031E+03  0.12499268966E+03 0.  0.
    9000005    1    3    3    0    0  0.50431410229E+02 -0.28989939213E+02  0.15144788183E+03  0.16223811089E+03  0.10000000000E+01 0.  0.
    9000005    1    3    3    0    0 -0.50431410229E+02  0.28989939213E+02  0.33483333161E+03  0.33985011942E+03  0.10000000000E+01 0.  0.
<mgrwt>
<rscale>  0 0.12499269E+03</rscale>
<asrwt>0</asrwt>
<pdfrwt beam="1">  1        4 0.76028407E-01 0.12499269E+03</pdfrwt>
<pdfrwt beam="2">  1       -4 0.12159246E-02 0.12499269E+03</pdfrwt>
<totfact> 0.55711667E+03</totfact>
</mgrwt>
</event>
<event>
 5    1  0.3296424E-002  0.1250002E+03  0.7818608E-02  0.1235069E+00
         -4   -1    0    0    0  501 -0.00000000000E+00  0.00000000000E+00  0.85050956574E+00  0.15284850413E+01  0.12700000000E+01 0.  1.
          4   -1    0    0  501    0  0.00000000000E+00 -0.00000000000E+00 -0.32832833369E+04  0.32832835826E+04  0.12700000000E+01 0.  1.
         25    2    1    2    0    0  0.00000000000E+00  0.00000000000E+00 -0.32824328274E+04  0.32848120676E+04  0.12500021302E+03 0.  0.
    9000005    1    3    3    0    0  0.28630563022E+02  0.51916883015E+02 -0.11221312225E+04  0.11236968240E+04  0.10000000000E+01 0.  0.
    9000005    1    3    3    0    0 -0.28630563022E+02 -0.51916883015E+02 -0.21603016049E+04  0.21611152436E+04  0.10000000000E+01 0.  0.
<mgrwt>
<rscale>  0 0.12500021E+03</rscale>
<asrwt>0</asrwt>
<pdfrwt beam="2">  1        4 0.50516543E+00 0.12500021E+03</pdfrwt>
<pdfrwt beam="1">  1       -4 0.18302111E-03 0.12500021E+03</pdfrwt>
<totfact> 0.96898913E+01</totfact>
</mgrwt>
</event>
<event>
 5    1  0.3296424E-002  0.1249998E+03  0.7818608E-02  0.1235070E+00
          4   -1    0    0  501    0  0.00000000000E+00  0.00000000000E+00  0.64782923089E+03  0.64783047574E+03  0.12700000000E+01 0.  1.
         -4   -1    0    0    0  501 -0.00000000000E+00 -0.00000000000E+00 -0.59615944379E+01  0.60953677692E+01  0.12700000000E+01 0.  1.
         25    2    1    2    0    0  0.00000000000E+00  0.00000000000E+00  0.64186763646E+03  0.65392584351E+03  0.12499978433E+03 0.  0.
    9000005    1    3    3    0    0  0.26336712622E+02  0.55517975658E+02  0.38043607734E+03  0.38536797609E+03  0.10000000000E+01 0.  0.
    9000005    1    3    3    0    0 -0.26336712622E+02 -0.55517975658E+02  0.26143155911E+03  0.26855786742E+03  0.10000000000E+01 0.  0.
<mgrwt>
<rscale>  0 0.12499978E+03</rscale>
<asrwt>0</asrwt>
<pdfrwt beam="1">  1        4 0.99676412E-01 0.12499978E+03</pdfrwt>
<pdfrwt beam="2">  1       -4 0.92755447E-03 0.12499978E+03</pdfrwt>
<totfact> 0.45631464E+03</totfact>
</mgrwt>
</event>
<event>
 5    1  0.3296424E-002  0.1250037E+03  0.7818608E-02  0.1235063E+00
         -4   -1    0    0    0  501 -0.00000000000E+00  0.00000000000E+00  0.38271682791E+02  0.38292748708E+02  0.12700000000E+01 0. -1.
          4   -1    0    0  501    0  0.00000000000E+00 -0.00000000000E+00 -0.10201930115E+03  0.10202720572E+03  0.12700000000E+01 0. -1.
         25    2    1    2    0    0  0.00000000000E+00  0.00000000000E+00 -0.63747618355E+02  0.14031995442E+03  0.12500372300E+03 0.  0.
    9000005    1    3    3    0    0  0.25431295379E+02 -0.56738688237E+02 -0.24823025300E+02  0.66956792878E+02  0.10000000000E+01 0.  0.
    9000005    1    3    3    0    0 -0.25431295379E+02  0.56738688237E+02 -0.38924593055E+02  0.73363161546E+02  0.10000000000E+01 0.  0.
<mgrwt>
<rscale>  0 0.12500372E+03</rscale>
<asrwt>0</asrwt>
<pdfrwt beam="2">  1        4 0.15697506E-01 0.12500372E+03</pdfrwt>
<pdfrwt beam="1">  1       -4 0.58901797E-02 0.12500372E+03</pdfrwt>
<totfact> 0.10126110E+04</totfact>
</mgrwt>
</event>
<event>
 5    1  0.3296424E-002  0.1250022E+03  0.7818608E-02  0.1235066E+00
         -4   -1    0    0    0  501 -0.00000000000E+00  0.00000000000E+00  0.85924244429E+03  0.85924338285E+03  0.12700000000E+01 0. -1.
          4   -1    0    0  501    0  0.00000000000E+00 -0.00000000000E+00 -0.44566638276E+01  0.46340859371E+01  0.12700000000E+01 0. -1.
         25    2    1    2    0    0  0.00000000000E+00  0.00000000000E+00  0.85478578046E+03  0.86387746879E+03  0.12500220236E+03 0.  0.
    9000005    1    3    3    0    0 -0.35708801040E+02 -0.35913542873E+02  0.68041922432E+03  0.68230214850E+03  0.10000000000E+01 0.  0.
    9000005    1    3    3    0    0  0.35708801040E+02  0.35913542873E+02  0.17436655615E+03  0.18157532028E+03  0.10000000000E+01 0.  0.
<mgrwt>
<rscale>  0 0.12500220E+03</rscale>
<asrwt>0</asrwt>
<pdfrwt beam="2">  1        4 0.69936103E-03 0.12500220E+03</pdfrwt>
<pdfrwt beam="1">  1       -4 0.13220479E+00 0.12500220E+03</pdfrwt>
<totfact> 0.35564387E+03</totfact>
</mgrwt>
</event>
<event>
 5    1  0.3296424E-002  0.1250006E+03  0.7818608E-02  0.1235068E+00
         -4   -1    0    0    0  501 -0.00000000000E+00  0.00000000000E+00  0.16553557844E+02  0.16602203989E+02  0.12700000000E+01 0. -1.
          4   -1    0    0  501    0  0.00000000000E+00 -0.00000000000E+00 -0.23558198074E+03  0.23558540394E+03  0.12700000000E+01 0. -1.
         25    2    1    2    0    0  0.00000000000E+00  0.00000000000E+00 -0.21902842290E+03  0.25218760793E+03  0.12500055823E+03 0.  0.
    9000005    1    3    3    0    0 -0.13760857461E+02  0.53406021971E+02 -0.50221896664E+02  0.74597609113E+02  0.10000000000E+01 0.  0.
    9000005    1    3    3    0    0  0.13760857461E+02 -0.53406021971E+02 -0.16880652624E+03  0.17758999882E+03  0.10000000000E+01 0.  0.
<mgrwt>
<rscale>  0 0.12500056E+03</rscale>
<asrwt>0</asrwt>
<pdfrwt beam="2">  1        4 0.36247385E-01 0.12500056E+03</pdfrwt>
<pdfrwt beam="1">  1       -4 0.25507067E-02 0.12500056E+03</pdfrwt>
<totfact> 0.82014056E+03</totfact>
</mgrwt>
</event>
<event>
 5    1  0.3296424E-002  0.1250037E+03  0.7818608E-02  0.1235063E+00
          4   -1    0    0  501    0  0.00000000000E+00  0.00000000000E+00  0.58159824309E+02  0.58173688757E+02  0.12700000000E+01 0.  1.
         -4   -1    0    0    0  501 -0.00000000000E+00 -0.00000000000E+00 -0.67140204988E+02  0.67152215346E+02  0.12700000000E+01 0.  1.
         25    2    1    2    0    0  0.00000000000E+00  0.00000000000E+00 -0.89803806795E+01  0.12532590410E+03  0.12500373995E+03 0.  0.
    9000005    1    3    3    0    0 -0.59035175284E+01  0.36317452905E+02  0.46154101851E+02  0.59033973459E+02  0.10000000000E+01 0.  0.
    9000005    1    3    3    0    0  0.59035175284E+01 -0.36317452905E+02 -0.55134482530E+02  0.66291930645E+02  0.10000000000E+01 0.  0.
<mgrwt>
<rscale>  0 0.12500374E+03</rscale>
<asrwt>0</asrwt>
<pdfrwt beam="1">  1        4 0.89496556E-02 0.12500374E+03</pdfrwt>
<pdfrwt beam="2">  1       -4 0.10331253E-01 0.12500374E+03</pdfrwt>
<totfact> 0.10444905E+04</totfact>
</mgrwt>
</event>
<event>
 5    1  0.3296424E-002  0.1249989E+03  0.7818608E-02  0.1235071E+00
         -4   -1    0    0    0  501 -0.00000000000E+00  0.00000000000E+00  0.51645477615E+01  0.53184070530E+01  0.12700000000E+01 0. -1.
          4   -1    0    0  501    0  0.00000000000E+00 -0.00000000000E+00 -0.74508991696E+03  0.74509099931E+03  0.12700000000E+01 0. -1.
         25    2    1    2    0    0  0.00000000000E+00  0.00000000000E+00 -0.73992536920E+03  0.75040940636E+03  0.12499890070E+03 0.  0.
    9000005    1    3    3    0    0  0.12294438567E+02 -0.50218076773E+02 -0.58069342422E+03  0.58299130473E+03  0.10000000000E+01 0.  0.
    9000005    1    3    3    0    0 -0.12294438567E+02  0.50218076773E+02 -0.15923194498E+03  0.16741810164E+03  0.10000000000E+01 0.  0.
<mgrwt>
<rscale>  0 0.12499890E+03</rscale>
<asrwt>0</asrwt>
<pdfrwt beam="2">  1        4 0.11464105E+00 0.12499890E+03</pdfrwt>
<pdfrwt beam="1">  1       -4 0.80646499E-03 0.12499890E+03</pdfrwt>
<totfact> 0.40555560E+03</totfact>
</mgrwt>
</event>
<event>
 5    1  0.3296424E-002  0.1250087E+03  0.7818608E-02  0.1235056E+00
         -4   -1    0    0    0  501 -0.00000000000E+00  0.00000000000E+00  0.46776875244E+02  0.46794112424E+02  0.12700000000E+01 0.  1.
          4   -1    0    0  501    0  0.00000000000E+00 -0.00000000000E+00 -0.83482356780E+02  0.83492016346E+02  0.12700000000E+01 0.  1.
         25    2    1    2    0    0  0.00000000000E+00  0.00000000000E+00 -0.36705481536E+02  0.13028612877E+03  0.12500873160E+03 0.  0.
    9000005    1    3    3    0    0 -0.96226567984E+01 -0.58047600751E+02  0.36001102673E+01  0.58958292637E+02  0.10000000000E+01 0.  0.
    9000005    1    3    3    0    0  0.96226567984E+01  0.58047600751E+02 -0.40305591803E+02  0.71327836133E+02  0.10000000000E+01 0.  0.
<mgrwt>
<rscale>  0 0.12500873E+03</rscale>
<asrwt>0</asrwt>
<pdfrwt beam="2">  1        4 0.12845508E-01 0.12500873E+03</pdfrwt>
<pdfrwt beam="1">  1       -4 0.71985113E-02 0.12500873E+03</pdfrwt>
<totfact> 0.10336353E+04</totfact>
</mgrwt>
</event>
<event>
 5    1  0.3296424E-002  0.1249985E+03  0.7818608E-02  0.1235072E+00
          4   -1    0    0  501    0  0.00000000000E+00  0.00000000000E+00  0.21747543394E+04  0.21747547102E+04  0.12700000000E+01 0.  1.
         -4   -1    0    0    0  501 -0.00000000000E+00 -0.00000000000E+00 -0.15712252960E+01  0.20203091176E+01  0.12700000000E+01 0.  1.
         25    2    1    2    0    0  0.00000000000E+00  0.00000000000E+00  0.21731831141E+04  0.21767750193E+04  0.12499854959E+03 0.  0.
    9000005    1    3    3    0    0 -0.11603661166E+02  0.48364870516E+02  0.17454347348E+04  0.17461435276E+04  0.10000000000E+01 0.  0.
    9000005    1    3    3    0    0  0.11603661166E+02 -0.48364870516E+02  0.42774837930E+03  0.43063149171E+03  0.10000000000E+01 0.  0.
<mgrwt>
<rscale>  0 0.12499855E+03</rscale>
<asrwt>0</asrwt>
<pdfrwt beam="1">  1        4 0.33461264E+00 0.12499855E+03</pdfrwt>
<pdfrwt beam="2">  1       -4 0.27630001E-03 0.12499855E+03</pdfrwt>
<totfact> 0.77270055E+02</totfact>
</mgrwt>
</event>
<event>
 5    1  0.3296424E-002  0.1249960E+03  0.7818608E-02  0.1235076E+00
         -4   -1    0    0    0  501 -0.00000000000E+00  0.00000000000E+00  0.99830409427E+02  0.99838487300E+02  0.12700000000E+01 0.  1.
          4   -1    0    0  501    0  0.00000000000E+00 -0.00000000000E+00 -0.39106385543E+02  0.39127002061E+02  0.12700000000E+01 0.  1.
         25    2    1    2    0    0  0.00000000000E+00  0.00000000000E+00  0.60724023883E+02  0.13896548936E+03  0.12499600056E+03 0.  0.
    9000005    1    3    3    0    0  0.13755048393E+02  0.47041742477E+02  0.73461489542E+02  0.88316008386E+02  0.10000000000E+01 0.  0.
    9000005    1    3    3    0    0 -0.13755048393E+02 -0.47041742477E+02 -0.12737465659E+02  0.50649480974E+02  0.10000000000E+01 0.  0.
<mgrwt>
<rscale>  0 0.12499600E+03</rscale>
<asrwt>0</asrwt>
<pdfrwt beam="2">  1        4 0.60185742E-02 0.12499600E+03</pdfrwt>
<pdfrwt beam="1">  1       -4 0.15360732E-01 0.12499600E+03</pdfrwt>
<totfact> 0.10155987E+04</totfact>
</mgrwt>
</event>
<event>
 5    1  0.3296424E-002  0.1250005E+03  0.7818608E-02  0.1235069E+00
         -4   -1    0    0    0  501 -0.00000000000E+00  0.00000000000E+00  0.51631396356E+01  0.53170396742E+01  0.12700000000E+01 0. -1.
          4   -1    0    0  501    0  0.00000000000E+00 -0.00000000000E+00 -0.74530601748E+03  0.74530709952E+03  0.12700000000E+01 0. -1.
         25    2    1    2    0    0  0.00000000000E+00  0.00000000000E+00 -0.74014287785E+03  0.75062413920E+03  0.12500047486E+03 0.  0.
    9000005    1    3    3    0    0 -0.33630174742E+02 -0.43540839607E+02 -0.54805437358E+03  0.55080975823E+03  0.10000000000E+01 0.  0.
    9000005    1    3    3    0    0  0.33630174742E+02  0.43540839607E+02 -0.19208850427E+03  0.19981438096E+03  0.10000000000E+01 0.  0.
<mgrwt>
<rscale>  0 0.12500047E+03</rscale>
<asrwt>0</asrwt>
<pdfrwt beam="2">  1        4 0.11467430E+00 0.12500047E+03</pdfrwt>
<pdfrwt beam="1">  1       -4 0.80625146E-03 0.12500047E+03</pdfrwt>
<totfact> 0.40543904E+03</totfact>
</mgrwt>
</event>
<event>
 5    1  0.3296424E-002  0.1249961E+03  0.7818608E-02  0.1235075E+00
         -4   -1    0    0    0  501 -0.00000000000E+00  0.00000000000E+00  0.26549742542E+02  0.26580100245E+02  0.12700000000E+01 0. -1.
          4   -1    0    0  501    0  0.00000000000E+00 -0.00000000000E+00 -0.14700316594E+03  0.14700865177E+03  0.12700000000E+01 0. -1.
         25    2    1    2    0    0  0.00000000000E+00  0.00000000000E+00 -0.12045342340E+03  0.17358875202E+03  0.12499611042E+03 0.  0.
    9000005    1    3    3    0    0  0.44318088768E+02 -0.14513740596E+01 -0.12137614254E+03  0.12922603243E+03  0.10000000000E+01 0.  0.
    9000005    1    3    3    0    0 -0.44318088768E+02  0.14513740596E+01  0.92271914550E+00  0.44362719589E+02  0.10000000000E+01 0.  0.
<mgrwt>
<rscale>  0 0.12499611E+03</rscale>
<asrwt>0</asrwt>
<pdfrwt beam="2">  1        4 0.22618628E-01 0.12499611E+03</pdfrwt>
<pdfrwt beam="1">  1       -4 0.40873331E-02 0.12499611E+03</pdfrwt>
<totfact> 0.94792217E+03</totfact>
</mgrwt>
</event>
<event>
 5    1  0.3296424E-002  0.1249940E+03  0.7818608E-02  0.1235079E+00
         -4   -1    0    0    0  501 -0.00000000000E+00  0.00000000000E+00  0.13901858692E+03  0.13902438782E+03  0.12700000000E+01 0.  1.
          4   -1    0    0  501    0  0.00000000000E+00 -0.00000000000E+00 -0.28075310547E+02  0.28104020394E+02  0.12700000000E+01 0.  1.
         25    2    1    2    0    0  0.00000000000E+00  0.00000000000E+00  0.11094327637E+03  0.16712840821E+03  0.12499397689E+03 0.  0.
    9000005    1    3    3    0    0  0.50652858163E+02  0.11976881350E+02  0.10170709806E+03  0.11425625376E+03  0.10000000000E+01 0.  0.
    9000005    1    3    3    0    0 -0.50652858163E+02 -0.11976881350E+02  0.92361783090E+01  0.52872154454E+02  0.10000000000E+01 0.  0.
<mgrwt>
<rscale>  0 0.12499398E+03</rscale>
<asrwt>0</asrwt>
<pdfrwt beam="2">  1        4 0.43219332E-02 0.12499398E+03</pdfrwt>
<pdfrwt beam="1">  1       -4 0.21390130E-01 0.12499398E+03</pdfrwt>
<totfact> 0.95998803E+03</totfact>
</mgrwt>
</event>
<event>
 5    1  0.3296424E-002  0.1250024E+03  0.7818608E-02  0.1235066E+00
         -4   -1    0    0    0  501 -0.00000000000E+00  0.00000000000E+00  0.71360194688E+03  0.71360307699E+03  0.12700000000E+01 0.  1.
          4   -1    0    0  501    0  0.00000000000E+00 -0.00000000000E+00 -0.53993927894E+01  0.55467416106E+01  0.12700000000E+01 0.  1.
         25    2    1    2    0    0  0.00000000000E+00  0.00000000000E+00  0.70820255409E+03  0.71914981860E+03  0.12500241587E+03 0.  0.
    9000005    1    3    3    0    0 -0.51749506233E+02 -0.29358243962E+02  0.46408657214E+03  0.46788595226E+03  0.10000000000E+01 0.  0.
    9000005    1    3    3    0    0  0.51749506233E+02  0.29358243962E+02  0.24411598195E+03  0.25126386634E+03  0.10000000000E+01 0.  0.
<mgrwt>
<rscale>  0 0.12500242E+03</rscale>
<asrwt>0</asrwt>
<pdfrwt beam="2">  1        4 0.84209775E-03 0.12500242E+03</pdfrwt>
<pdfrwt beam="1">  1       -4 0.10979627E+00 0.12500242E+03</pdfrwt>
<totfact> 0.42092678E+03</totfact>
</mgrwt>
</event>
<event>
 5    1  0.3296424E-002  0.1250180E+03  0.7818608E-02  0.1235041E+00
          4   -1    0    0  501    0  0.00000000000E+00  0.00000000000E+00  0.16080813427E+03  0.16081314917E+03  0.12700000000E+01 0.  1.
         -4   -1    0    0    0  501 -0.00000000000E+00 -0.00000000000E+00 -0.24276377402E+02  0.24309574240E+02  0.12700000000E+01 0.  1.
         25    2    1    2    0    0  0.00000000000E+00  0.00000000000E+00  0.13653175686E+03  0.18512272341E+03  0.12501800707E+03 0.  0.
    9000005    1    3    3    0    0 -0.46589663015E+02 -0.37489748941E+02  0.95177497919E+02  0.11240922598E+03  0.10000000000E+01 0.  0.
    9000005    1    3    3    0    0  0.46589663015E+02  0.37489748941E+02  0.41354258945E+02  0.72713497429E+02  0.10000000000E+01 0.  0.
<mgrwt>
<rscale>  0 0.12501801E+03</rscale>
<asrwt>0</asrwt>
<pdfrwt beam="1">  1        4 0.24742652E-01 0.12501801E+03</pdfrwt>
<pdfrwt beam="2">  1       -4 0.37377667E-02 0.12501801E+03</pdfrwt>
<totfact> 0.92665539E+03</totfact>
</mgrwt>
</event>
<event>
 5    1  0.3296424E-002  0.1250024E+03  0.7818608E-02  0.1235066E+00
          4   -1    0    0  501    0  0.00000000000E+00  0.00000000000E+00  0.71355258769E+02  0.71366559774E+02  0.12700000000E+01 0. -1.
         -4   -1    0    0    0  501 -0.00000000000E+00 -0.00000000000E+00 -0.54722748499E+02  0.54737483530E+02  0.12700000000E+01 0. -1.
         25    2    1    2    0    0  0.00000000000E+00  0.00000000000E+00  0.16632510271E+02  0.12610404330E+03  0.12500235734E+03 0.  0.
    9000005    1    3    3    0    0 -0.53686629094E+02  0.20922238332E+02 -0.16092089703E+02  0.59832679627E+02  0.10000000000E+01 0.  0.
    9000005    1    3    3    0    0  0.53686629094E+02 -0.20922238332E+02  0.32724599974E+02  0.66271363678E+02  0.10000000000E+01 0.  0.
<mgrwt>
<rscale>  0 0.12500236E+03</rscale>
<asrwt>0</asrwt>
<pdfrwt beam="1">  1        4 0.10979735E-01 0.12500236E+03</pdfrwt>
<pdfrwt beam="2">  1       -4 0.84208871E-02 0.12500236E+03</pdfrwt>
<totfact> 0.10428123E+04</totfact>
</mgrwt>
</event>
<event>
 5    1  0.3296424E-002  0.1249995E+03  0.7818608E-02  0.1235070E+00
          4   -1    0    0  501    0  0.00000000000E+00  0.00000000000E+00  0.10402815670E+02  0.10480051233E+02  0.12700000000E+01 0. -1.
         -4   -1    0    0    0  501 -0.00000000000E+00 -0.00000000000E+00 -0.37402941252E+03  0.37403156863E+03  0.12700000000E+01 0. -1.
         25    2    1    2    0    0  0.00000000000E+00  0.00000000000E+00 -0.36362659685E+03  0.38451161986E+03  0.12499953548E+03 0.  0.
    9000005    1    3    3    0    0  0.56281193032E+02  0.95124729063E+01 -0.10355916536E+03  0.11825210594E+03  0.10000000000E+01 0.  0.
    9000005    1    3    3    0    0 -0.56281193032E+02 -0.95124729063E+01 -0.26006743149E+03  0.26625951392E+03  0.10000000000E+01 0.  0.
<mgrwt>
<rscale>  0 0.12499954E+03</rscale>
<asrwt>0</asrwt>
<pdfrwt beam="1">  1        4 0.16065405E-02 0.12499954E+03</pdfrwt>
<pdfrwt beam="2">  1       -4 0.57549083E-01 0.12499954E+03</pdfrwt>
<totfact> 0.66088255E+03</totfact>
</mgrwt>
</event>
<event>
 5    1  0.3296424E-002  0.1250000E+03  0.7818608E-02  0.1235069E+00
          4   -1    0    0  501    0  0.00000000000E+00  0.00000000000E+00  0.16266228258E+04  0.16266233216E+04  0.12700000000E+01 0.  1.
         -4   -1    0    0    0  501 -0.00000000000E+00 -0.00000000000E+00 -0.22330094954E+01  0.25688969240E+01  0.12700000000E+01 0.  1.
         25    2    1    2    0    0  0.00000000000E+00  0.00000000000E+00  0.16243898163E+04  0.16291922185E+04  0.12500003810E+03 0.  0.
    9000005    1    3    3    0    0  0.22597242432E+02 -0.56353075531E+02  0.61933916888E+03  0.62230885466E+03  0.10000000000E+01 0.  0.
    9000005    1    3    3    0    0 -0.22597242432E+02  0.56353075531E+02  0.10050506474E+04  0.10068833638E+04  0.10000000000E+01 0.  0.
<mgrwt>
<rscale>  0 0.12500004E+03</rscale>
<asrwt>0</asrwt>
<pdfrwt beam="1">  1        4 0.25027612E+00 0.12500004E+03</pdfrwt>
<pdfrwt beam="2">  1       -4 0.36941470E-03 0.12500004E+03</pdfrwt>
<totfact> 0.15524087E+03</totfact>
</mgrwt>
</event>
<event>
 5    1  0.3296424E-002  0.1249949E+03  0.7818608E-02  0.1235077E+00
         -4   -1    0    0    0  501 -0.00000000000E+00  0.00000000000E+00  0.12988349682E+04  0.12988355891E+04  0.12700000000E+01 0.  1.
          4   -1    0    0  501    0  0.00000000000E+00 -0.00000000000E+00 -0.28725262003E+01  0.31407493965E+01  0.12700000000E+01 0.  1.
         25    2    1    2    0    0  0.00000000000E+00  0.00000000000E+00  0.12959624420E+04  0.13019763385E+04  0.12499493965E+03 0.  0.
    9000005    1    3    3    0    0  0.34737859153E+02 -0.19479936461E+02  0.11495579033E+04  0.11502480427E+04  0.10000000000E+01 0.  0.
    9000005    1    3    3    0    0 -0.34737859153E+02  0.19479936461E+02  0.14640453874E+03  0.15172829580E+03  0.10000000000E+01 0.  0.
<mgrwt>
<rscale>  0 0.12499494E+03</rscale>
<asrwt>0</asrwt>
<pdfrwt beam="2">  1        4 0.46260728E-03 0.12499494E+03</pdfrwt>
<pdfrwt beam="1">  1       -4 0.19984151E+00 0.12499494E+03</pdfrwt>
<totfact> 0.22184358E+03</totfact>
</mgrwt>
</event>
<event>
 5    1  0.3296424E-002  0.1250095E+03  0.7818608E-02  0.1235055E+00
         -4   -1    0    0    0  501 -0.00000000000E+00  0.00000000000E+00  0.17648814492E+02  0.17694449778E+02  0.12700000000E+01 0. -1.
          4   -1    0    0  501    0  0.00000000000E+00 -0.00000000000E+00 -0.22103235011E+03  0.22103599864E+03  0.12700000000E+01 0. -1.
         25    2    1    2    0    0  0.00000000000E+00  0.00000000000E+00 -0.20338353562E+03  0.23873044842E+03  0.12500945741E+03 0.  0.
    9000005    1    3    3    0    0  0.44303372857E+02 -0.43965440630E+02 -0.10775857084E+03  0.12453376412E+03  0.10000000000E+01 0.  0.
    9000005    1    3    3    0    0 -0.44303372857E+02  0.43965440630E+02 -0.95624964778E+02  0.11419668430E+03  0.10000000000E+01 0.  0.
<mgrwt>
<rscale>  0 0.12500946E+03</rscale>
<asrwt>0</asrwt>
<pdfrwt beam="2">  1        4 0.34008766E-01 0.12500946E+03</pdfrwt>
<pdfrwt beam="1">  1       -4 0.27189934E-02 0.12500946E+03</pdfrwt>
<totfact> 0.83969102E+03</totfact>
</mgrwt>
</event>
<event>
 5    1  0.3296424E-002  0.1250023E+03  0.7818608E-02  0.1235066E+00
         -4   -1    0    0    0  501 -0.00000000000E+00  0.00000000000E+00  0.36085782258E+02  0.36108123479E+02  0.12700000000E+01 0. -1.
          4   -1    0    0  501    0  0.00000000000E+00 -0.00000000000E+00 -0.10819340938E+03  0.10820086290E+03  0.12700000000E+01 0. -1.
         25    2    1    2    0    0  0.00000000000E+00  0.00000000000E+00 -0.72107627119E+02  0.14430898638E+03  0.12500229462E+03 0.  0.
    9000005    1    3    3    0    0 -0.17925114302E+01 -0.60893739358E+02 -0.19968672339E+02  0.64117146422E+02  0.10000000000E+01 0.  0.
    9000005    1    3    3    0    0  0.17925114302E+01  0.60893739358E+02 -0.52138954781E+02  0.80191839958E+02  0.10000000000E+01 0.  0.
<mgrwt>
<rscale>  0 0.12500229E+03</rscale>
<asrwt>0</asrwt>
<pdfrwt beam="2">  1        4 0.16647432E-01 0.12500229E+03</pdfrwt>
<pdfrwt beam="1">  1       -4 0.55539508E-02 0.12500229E+03</pdfrwt>
<totfact> 0.10044528E+04</totfact>
</mgrwt>
</event>
<event>
 5    1  0.3296424E-002  0.1249997E+03  0.7818608E-02  0.1235070E+00
          4   -1    0    0  501    0  0.00000000000E+00  0.00000000000E+00  0.91742316832E+02  0.91751106793E+02  0.12700000000E+01 0.  1.
         -4   -1    0    0    0  501 -0.00000000000E+00 -0.00000000000E+00 -0.42558001219E+02  0.42576946435E+02  0.12700000000E+01 0.  1.
         25    2    1    2    0    0  0.00000000000E+00  0.00000000000E+00  0.49184315613E+02  0.13432805323E+03  0.12499971593E+03 0.  0.
    9000005    1    3    3    0    0 -0.38083035277E+02  0.49088247104E+02  0.31821662897E+02  0.69811115227E+02  0.10000000000E+01 0.  0.
    9000005    1    3    3    0    0  0.38083035277E+02 -0.49088247104E+02  0.17362652716E+02  0.64516938001E+02  0.10000000000E+01 0.  0.
<mgrwt>
<rscale>  0 0.12499972E+03</rscale>
<asrwt>0</asrwt>
<pdfrwt beam="1">  1        4 0.14116336E-01 0.12499972E+03</pdfrwt>
<pdfrwt beam="2">  1       -4 0.65495183E-02 0.12499972E+03</pdfrwt>
<totfact> 0.10252319E+04</totfact>
</mgrwt>
</event>
<event>
 5    1  0.3296424E-002  0.1250002E+03  0.7818608E-02  0.1235069E+00
          4   -1    0    0  501    0  0.00000000000E+00  0.00000000000E+00  0.13795685807E+04  0.13795691653E+04  0.12700000000E+01 0. -1.
         -4   -1    0    0    0  501 -0.00000000000E+00 -0.00000000000E+00 -0.26884912730E+01  0.29733626293E+01  0.12700000000E+01 0. -1.
         25    2    1    2    0    0  0.00000000000E+00  0.00000000000E+00  0.13768800895E+04  0.13825425279E+04  0.12500024312E+03 0.  0.
    9000005    1    3    3    0    0 -0.57837765508E+02 -0.21751072008E+02  0.79157355383E+03  0.79398237221E+03  0.10000000000E+01 0.  0.
    9000005    1    3    3    0    0  0.57837765508E+02  0.21751072008E+02  0.58530653565E+03  0.58856015574E+03  0.10000000000E+01 0.  0.
<mgrwt>
<rscale>  0 0.12500024E+03</rscale>
<asrwt>0</asrwt>
<pdfrwt beam="1">  1        4 0.21226334E+00 0.12500024E+03</pdfrwt>
<pdfrwt beam="2">  1       -4 0.43557207E-03 0.12500024E+03</pdfrwt>
<totfact> 0.20358558E+03</totfact>
</mgrwt>
</event>
<event>
 5    1  0.3296424E-002  0.1250012E+03  0.7818608E-02  0.1235067E+00
         -4   -1    0    0    0  501 -0.00000000000E+00  0.00000000000E+00  0.48505536085E+02  0.48522159174E+02  0.12700000000E+01 0.  1.
          4   -1    0    0  501    0  0.00000000000E+00 -0.00000000000E+00 -0.80498159518E+02  0.80508177136E+02  0.12700000000E+01 0.  1.
         25    2    1    2    0    0  0.00000000000E+00  0.00000000000E+00 -0.31992623433E+02  0.12903033631E+03  0.12500119893E+03 0.  0.
    9000005    1    3    3    0    0  0.62359154550E+02  0.35836478815E-01 -0.11783145989E+02  0.63470528356E+02  0.10000000000E+01 0.  0.
    9000005    1    3    3    0    0 -0.62359154550E+02 -0.35836478815E-01 -0.20209477443E+02  0.65559807954E+02  0.10000000000E+01 0.  0.
<mgrwt>
<rscale>  0 0.12500120E+03</rscale>
<asrwt>0</asrwt>
<pdfrwt beam="2">  1        4 0.12386381E-01 0.12500120E+03</pdfrwt>
<pdfrwt beam="1">  1       -4 0.74644395E-02 0.12500120E+03</pdfrwt>
<totfact> 0.10365014E+04</totfact>
</mgrwt>
</event>
<event>
 5    1  0.3296424E-002  0.1250044E+03  0.7818608E-02  0.1235062E+00
         -4   -1    0    0    0  501 -0.00000000000E+00  0.00000000000E+00  0.10604361489E+03  0.10605121950E+03  0.12700000000E+01 0. -1.
          4   -1    0    0  501    0  0.00000000000E+00 -0.00000000000E+00 -0.36818956760E+02  0.36840853368E+02  0.12700000000E+01 0. -1.
         25    2    1    2    0    0  0.00000000000E+00  0.00000000000E+00  0.69224658127E+02  0.14289207287E+03  0.12500436471E+03 0.  0.
    9000005    1    3    3    0    0 -0.42665491163E+02 -0.20250666272E+02  0.81396821866E+02  0.94110978268E+02  0.10000000000E+01 0.  0.
    9000005    1    3    3    0    0  0.42665491163E+02  0.20250666272E+02 -0.12172163739E+02  0.48781094604E+02  0.10000000000E+01 0.  0.
<mgrwt>
<rscale>  0 0.12500436E+03</rscale>
<asrwt>0</asrwt>
<pdfrwt beam="2">  1        4 0.56667243E-02 0.12500436E+03</pdfrwt>
<pdfrwt beam="1">  1       -4 0.16316671E-01 0.12500436E+03</pdfrwt>
<totfact> 0.10073004E+04</totfact>
</mgrwt>
</event>
<event>
 5    1  0.3296424E-002  0.1249991E+03  0.7818608E-02  0.1235071E+00
          4   -1    0    0  501    0  0.00000000000E+00  0.00000000000E+00  0.67393148980E+01  0.68579344772E+01  0.12700000000E+01 0.  1.
         -4   -1    0    0    0  501 -0.00000000000E+00 -0.00000000000E+00 -0.57443757894E+03  0.57443898284E+03  0.12700000000E+01 0.  1.
         25    2    1    2    0    0  0.00000000000E+00  0.00000000000E+00 -0.56769826405E+03  0.58129691731E+03  0.12499914831E+03 0.  0.
    9000005    1    3    3    0    0 -0.62104353697E+02  0.57712344631E+00 -0.25165939553E+03  0.25921175741E+03  0.10000000000E+01 0.  0.
    9000005    1    3    3    0    0  0.62104353697E+02 -0.57712344631E+00 -0.31603886852E+03  0.32208515991E+03  0.10000000000E+01 0.  0.
<mgrwt>
<rscale>  0 0.12499915E+03</rscale>
<asrwt>0</asrwt>
<pdfrwt beam="1">  1        4 0.10460507E-02 0.12499915E+03</pdfrwt>
<pdfrwt beam="2">  1       -4 0.88384207E-01 0.12499915E+03</pdfrwt>
<totfact> 0.50070844E+03</totfact>
</mgrwt>
</event>
<event>
 5    1  0.3296424E-002  0.1249997E+03  0.7818608E-02  0.1235070E+00
          4   -1    0    0  501    0  0.00000000000E+00  0.00000000000E+00  0.10625814378E+02  0.10701440613E+02  0.12700000000E+01 0. -1.
         -4   -1    0    0    0  501 -0.00000000000E+00 -0.00000000000E+00 -0.36623691673E+03  0.36623911871E+03  0.12700000000E+01 0. -1.
         25    2    1    2    0    0  0.00000000000E+00  0.00000000000E+00 -0.35561110235E+03  0.37694055933E+03  0.12499971660E+03 0.  0.
    9000005    1    3    3    0    0  0.49519143939E+02 -0.20716638664E+02 -0.27429819718E+03  0.27950281878E+03  0.10000000000E+01 0.  0.
    9000005    1    3    3    0    0 -0.49519143939E+02  0.20716638664E+02 -0.81312905176E+02  0.97437740543E+02  0.10000000000E+01 0.  0.
<mgrwt>
<rscale>  0 0.12499972E+03</rscale>
<asrwt>0</asrwt>
<pdfrwt beam="1">  1        4 0.16407277E-02 0.12499972E+03</pdfrwt>
<pdfrwt beam="2">  1       -4 0.56350118E-01 0.12499972E+03</pdfrwt>
<totfact> 0.66859445E+03</totfact>
</mgrwt>
</event>
<event>
 5    1  0.3296424E-002  0.1250002E+03  0.7818608E-02  0.1235069E+00
         -4   -1    0    0    0  501 -0.00000000000E+00  0.00000000000E+00  0.76654106481E+02  0.76664626396E+02  0.12700000000E+01 0.  1.
          4   -1    0    0  501    0  0.00000000000E+00 -0.00000000000E+00 -0.50937656255E+02  0.50953485894E+02  0.12700000000E+01 0.  1.
         25    2    1    2    0    0  0.00000000000E+00  0.00000000000E+00  0.25716450226E+02  0.12761811229E+03  0.12500018709E+03 0.  0.
    9000005    1    3    3    0    0  0.34027288857E+02 -0.30166000710E+02  0.56621075602E+02  0.72627750813E+02  0.10000000000E+01 0.  0.
    9000005    1    3    3    0    0 -0.34027288857E+02  0.30166000710E+02 -0.30904625376E+02  0.54990361477E+02  0.10000000000E+01 0.  0.
<mgrwt>
<rscale>  0 0.12500019E+03</rscale>
<asrwt>0</asrwt>
<pdfrwt beam="2">  1        4 0.78385894E-02 0.12500019E+03</pdfrwt>
<pdfrwt beam="1">  1       -4 0.11794966E-01 0.12500019E+03</pdfrwt>
<totfact> 0.10395700E+04</totfact>
</mgrwt>
</event>
<event>
 5    1  0.3296424E-002  0.1249989E+03  0.7818608E-02  0.1235071E+00
         -4   -1    0    0    0  501 -0.00000000000E+00  0.00000000000E+00  0.25543496165E+02  0.25575048315E+02  0.12700000000E+01 0.  1.
          4   -1    0    0  501    0  0.00000000000E+00 -0.00000000000E+00 -0.15279420328E+03  0.15279948120E+03  0.12700000000E+01 0.  1.
         25    2    1    2    0    0  0.00000000000E+00  0.00000000000E+00 -0.12725070711E+03  0.17837452952E+03  0.12499892127E+03 0.  0.
    9000005    1    3    3    0    0 -0.60969254774E+02 -0.11506210989E+02 -0.52990581456E+02  0.81600518639E+02  0.10000000000E+01 0.  0.
    9000005    1    3    3    0    0  0.60969254774E+02  0.11506210989E+02 -0.74260125657E+02  0.96774010879E+02  0.10000000000E+01 0.  0.
<mgrwt>
<rscale>  0 0.12499892E+03</rscale>
<asrwt>0</asrwt>
<pdfrwt beam="2">  1        4 0.23509633E-01 0.12499892E+03</pdfrwt>
<pdfrwt beam="1">  1       -4 0.39326018E-02 0.12499892E+03</pdfrwt>
<totfact> 0.93912686E+03</totfact>
</mgrwt>
</event>
<event>
 5    1  0.3296424E-002  0.1249988E+03  0.7818608E-02  0.1235071E+00
          4   -1    0    0  501    0  0.00000000000E+00  0.00000000000E+00  0.11077695337E+04  0.11077702617E+04  0.12700000000E+01 0.  1.
         -4   -1    0    0    0  501 -0.00000000000E+00 -0.00000000000E+00 -0.34110590930E+01  0.36398110028E+01  0.12700000000E+01 0.  1.
         25    2    1    2    0    0  0.00000000000E+00  0.00000000000E+00  0.11043584746E+04  0.11114100727E+04  0.12499883702E+03 0.  0.
    9000005    1    3    3    0    0 -0.56591475007E+02 -0.23665169612E+02  0.65833407901E+03  0.66118635412E+03  0.10000000000E+01 0.  0.
    9000005    1    3    3    0    0  0.56591475007E+02  0.23665169612E+02  0.44602439559E+03  0.45022371856E+03  0.10000000000E+01 0.  0.
<mgrwt>
<rscale>  0 0.12499884E+03</rscale>
<asrwt>0</asrwt>
<pdfrwt beam="1">  1        4 0.17044381E+00 0.12499884E+03</pdfrwt>
<pdfrwt beam="2">  1       -4 0.54243039E-03 0.12499884E+03</pdfrwt>
<totfact> 0.27152508E+03</totfact>
</mgrwt>
</event>
<event>
 5    1  0.3296424E-002  0.1250066E+03  0.7818608E-02  0.1235059E+00
          4   -1    0    0  501    0  0.00000000000E+00  0.00000000000E+00  0.52314649743E+03  0.52314803896E+03  0.12700000000E+01 0.  1.
         -4   -1    0    0    0  501 -0.00000000000E+00 -0.00000000000E+00 -0.74120637898E+01  0.75200790970E+01  0.12700000000E+01 0.  1.
         25    2    1    2    0    0  0.00000000000E+00  0.00000000000E+00  0.51573443364E+03  0.53066811806E+03  0.12500658177E+03 0.  0.
    9000005    1    3    3    0    0  0.44072129879E+02  0.41255758999E+02  0.32648485952E+03  0.33202071288E+03  0.10000000000E+01 0.  0.
    9000005    1    3    3    0    0 -0.44072129879E+02 -0.41255758999E+02  0.18924957412E+03  0.19864740519E+03  0.10000000000E+01 0.  0.
<mgrwt>
<rscale>  0 0.12500658E+03</rscale>
<asrwt>0</asrwt>
<pdfrwt beam="1">  1        4 0.80492511E-01 0.12500658E+03</pdfrwt>
<pdfrwt beam="2">  1       -4 0.11487449E-02 0.12500658E+03</pdfrwt>
<totfact> 0.53553263E+03</totfact>
</mgrwt>
</event>
<event>
 5    1  0.3296424E-002  0.1249980E+03  0.7818608E-02  0.1235072E+00
         -4   -1    0    0    0  501 -0.00000000000E+00  0.00000000000E+00  0.10590386022E+02  0.10666263455E+02  0.12700000000E+01 0.  1.
          4   -1    0    0  501    0  0.00000000000E+00 -0.00000000000E+00 -0.36744347476E+03  0.36744566951E+03  0.12700000000E+01 0.  1.
         25    2    1    2    0    0  0.00000000000E+00  0.00000000000E+00 -0.35685308873E+03  0.37811193296E+03  0.12499802763E+03 0.  0.
    9000005    1    3    3    0    0 -0.58122745366E+02 -0.19160375511E+02 -0.21665986500E+03  0.22513966914E+03  0.10000000000E+01 0.  0.
    9000005    1    3    3    0    0  0.58122745366E+02  0.19160375511E+02 -0.14019322374E+03  0.15297226383E+03  0.10000000000E+01 0.  0.
<mgrwt>
<rscale>  0 0.12499803E+03</rscale>
<asrwt>0</asrwt>
<pdfrwt beam="2">  1        4 0.56535761E-01 0.12499803E+03</pdfrwt>
<pdfrwt beam="1">  1       -4 0.16352960E-02 0.12499803E+03</pdfrwt>
<totfact> 0.66741644E+03</totfact>
</mgrwt>
</event>
<event>
 5    1  0.3296424E-002  0.1249986E+03  0.7818608E-02  0.1235071E+00
          4   -1    0    0  501    0  0.00000000000E+00  0.00000000000E+00  0.71199994647E+03  0.71200107912E+03  0.12700000000E+01 0. -1.
         -4   -1    0    0    0  501 -0.00000000000E+00 -0.00000000000E+00 -0.54115361150E+01  0.55585630449E+01  0.12700000000E+01 0. -1.
         25    2    1    2    0    0  0.00000000000E+00  0.00000000000E+00  0.70658841035E+03  0.71755964217E+03  0.12499863368E+03 0.  0.
    9000005    1    3    3    0    0 -0.16431561873E+02  0.11396755428E+02  0.69316530859E+03  0.69345441616E+03  0.10000000000E+01 0.  0.
    9000005    1    3    3    0    0  0.16431561873E+02 -0.11396755428E+02  0.13423101764E+02  0.24105226007E+02  0.10000000000E+01 0.  0.
<mgrwt>
<rscale>  0 0.12499863E+03</rscale>
<asrwt>0</asrwt>
<pdfrwt beam="1">  1        4 0.10954983E+00 0.12499863E+03</pdfrwt>
<pdfrwt beam="2">  1       -4 0.84394105E-03 0.12499863E+03</pdfrwt>
<totfact> 0.42177072E+03</totfact>
</mgrwt>
</event>
<event>
 5    1  0.3296424E-002  0.1249897E+03  0.7818608E-02  0.1235085E+00
         -4   -1    0    0    0  501 -0.00000000000E+00  0.00000000000E+00  0.26849032794E+03  0.26849333157E+03  0.12700000000E+01 0.  1.
          4   -1    0    0  501    0  0.00000000000E+00 -0.00000000000E+00 -0.14515744032E+02  0.14571195037E+02  0.12700000000E+01 0.  1.
         25    2    1    2    0    0  0.00000000000E+00  0.00000000000E+00  0.25397458391E+03  0.28306452660E+03  0.12498974739E+03 0.  0.
    9000005    1    3    3    0    0  0.80467727479E+01 -0.18496472847E+02 -0.69510035669E+01  0.21358523124E+02  0.10000000000E+01 0.  0.
    9000005    1    3    3    0    0 -0.80467727479E+01  0.18496472847E+02  0.26092558747E+03  0.26170600348E+03  0.10000000000E+01 0.  0.
<mgrwt>
<rscale>  0 0.12498975E+03</rscale>
<asrwt>0</asrwt>
<pdfrwt beam="2">  1        4 0.22376878E-02 0.12498975E+03</pdfrwt>
<pdfrwt beam="1">  1       -4 0.41310702E-01 0.12498975E+03</pdfrwt>
<totfact> 0.77791240E+03</totfact>
</mgrwt>
</event>
<event>
 5    1  0.3296424E-002  0.1250015E+03  0.7818608E-02  0.1235067E+00
          4   -1    0    0  501    0  0.00000000000E+00  0.00000000000E+00  0.58456833413E+03  0.58456971370E+03  0.12700000000E+01 0. -1.
         -4   -1    0    0    0  501 -0.00000000000E+00 -0.00000000000E+00 -0.66207012722E+01  0.67414082605E+01  0.12700000000E+01 0. -1.
         25    2    1    2    0    0  0.00000000000E+00  0.00000000000E+00  0.57794763286E+03  0.59131112196E+03  0.12500150647E+03 0.  0.
    9000005    1    3    3    0    0 -0.21290342670E+02 -0.31371069971E+02  0.52397306066E+03  0.52534387883E+03  0.10000000000E+01 0.  0.
    9000005    1    3    3    0    0  0.21290342670E+02  0.31371069971E+02  0.53974572203E+02  0.65967243133E+02  0.10000000000E+01 0.  0.
<mgrwt>
<rscale>  0 0.12500151E+03</rscale>
<asrwt>0</asrwt>
<pdfrwt beam="1">  1        4 0.89942965E-01 0.12500151E+03</pdfrwt>
<pdfrwt beam="2">  1       -4 0.10279609E-02 0.12500151E+03</pdfrwt>
<totfact> 0.49419085E+03</totfact>
</mgrwt>
</event>
<event>
 5    1  0.3296424E-002  0.1249932E+03  0.7818608E-02  0.1235080E+00
         -4   -1    0    0    0  501 -0.00000000000E+00  0.00000000000E+00  0.86955174809E+01  0.87877712908E+01  0.12700000000E+01 0.  1.
          4   -1    0    0  501    0  0.00000000000E+00 -0.00000000000E+00 -0.44671369654E+03  0.44671550183E+03  0.12700000000E+01 0.  1.
         25    2    1    2    0    0  0.00000000000E+00  0.00000000000E+00 -0.43801817906E+03  0.45550327312E+03  0.12499322637E+03 0.  0.
    9000005    1    3    3    0    0  0.43966503413E+02 -0.44401175207E+02 -0.21698374842E+03  0.22580404084E+03  0.10000000000E+01 0.  0.
    9000005    1    3    3    0    0 -0.43966503413E+02  0.44401175207E+02 -0.22103443065E+03  0.22969923229E+03  0.10000000000E+01 0.  0.
<mgrwt>
<rscale>  0 0.12499323E+03</rscale>
<asrwt>0</asrwt>
<pdfrwt beam="2">  1        4 0.68732402E-01 0.12499323E+03</pdfrwt>
<pdfrwt beam="1">  1       -4 0.13450076E-02 0.12499323E+03</pdfrwt>
<totfact> 0.59498877E+03</totfact>
</mgrwt>
</event>
<event>
 5    1  0.3296424E-002  0.1250035E+03  0.7818608E-02  0.1235064E+00
          4   -1    0    0  501    0  0.00000000000E+00  0.00000000000E+00  0.50687593718E+02  0.50703501427E+02  0.12700000000E+01 0. -1.
         -4   -1    0    0    0  501 -0.00000000000E+00 -0.00000000000E+00 -0.77036279481E+02  0.77046747214E+02  0.12700000000E+01 0. -1.
         25    2    1    2    0    0  0.00000000000E+00  0.00000000000E+00 -0.26348685763E+02  0.12775024864E+03  0.12500349110E+03 0.  0.
    9000005    1    3    3    0    0  0.73634157111E+01 -0.41221995252E+02  0.34234601200E+02  0.54096956503E+02  0.10000000000E+01 0.  0.
    9000005    1    3    3    0    0 -0.73634157111E+01  0.41221995252E+02 -0.60583286963E+02  0.73653292138E+02  0.10000000000E+01 0.  0.
<mgrwt>
<rscale>  0 0.12500349E+03</rscale>
<asrwt>0</asrwt>
<pdfrwt beam="1">  1        4 0.78001202E-02 0.12500349E+03</pdfrwt>
<pdfrwt beam="2">  1       -4 0.11853764E-01 0.12500349E+03</pdfrwt>
<totfact> 0.10392066E+04</totfact>
</mgrwt>
</event>
<event>
 5    1  0.3296424E-002  0.1250021E+03  0.7818608E-02  0.1235066E+00
         -4   -1    0    0    0  501 -0.00000000000E+00  0.00000000000E+00  0.30210453340E+03  0.30210720283E+03  0.12700000000E+01 0.  1.
          4   -1    0    0  501    0  0.00000000000E+00 -0.00000000000E+00 -0.12896652584E+02  0.12959033447E+02  0.12700000000E+01 0.  1.
         25    2    1    2    0    0  0.00000000000E+00  0.00000000000E+00  0.28920788082E+03  0.31506623628E+03  0.12500213964E+03 0.  0.
    9000005    1    3    3    0    0  0.34819245510E+02  0.51326046662E+02  0.12530273735E+03  0.13981601808E+03  0.10000000000E+01 0.  0.
    9000005    1    3    3    0    0 -0.34819245510E+02 -0.51326046662E+02  0.16390514346E+03  0.17525021820E+03  0.10000000000E+01 0.  0.
<mgrwt>
<rscale>  0 0.12500214E+03</rscale>
<asrwt>0</asrwt>
<pdfrwt beam="2">  1        4 0.19891043E-02 0.12500214E+03</pdfrwt>
<pdfrwt beam="1">  1       -4 0.46482623E-01 0.12500214E+03</pdfrwt>
<totfact> 0.73743300E+03</totfact>
</mgrwt>
</event>
<event>
 5    1  0.3296424E-002  0.1250040E+03  0.7818608E-02  0.1235063E+00
          4   -1    0    0  501    0  0.00000000000E+00  0.00000000000E+00  0.25906215466E+03  0.25906526760E+03  0.12700000000E+01 0.  1.
         -4   -1    0    0    0  501 -0.00000000000E+00 -0.00000000000E+00 -0.15049449187E+02  0.15102940801E+02  0.12700000000E+01 0.  1.
         25    2    1    2    0    0  0.00000000000E+00  0.00000000000E+00  0.24401270547E+03  0.27416820840E+03  0.12500402420E+03 0.  0.
    9000005    1    3    3    0    0 -0.52001658470E+01  0.59267445637E+02  0.16395641096E+03  0.17442011505E+03  0.10000000000E+01 0.  0.
    9000005    1    3    3    0    0  0.52001658470E+01 -0.59267445637E+02  0.80056294509E+02  0.99748093354E+02  0.10000000000E+01 0.  0.
<mgrwt>
<rscale>  0 0.12500402E+03</rscale>
<asrwt>0</asrwt>
<pdfrwt beam="1">  1        4 0.39860073E-01 0.12500402E+03</pdfrwt>
<pdfrwt beam="2">  1       -4 0.23196539E-02 0.12500402E+03</pdfrwt>
<totfact> 0.78950698E+03</totfact>
</mgrwt>
</event>
<event>
 4    1  0.3296424E-002  0.1248774E+03  0.7818608E-02  0.1235261E+00
         -4   -1    0    0    0  501 -0.00000000000E+00  0.00000000000E+00  0.89849826239E+02  0.89858801323E+02  0.12700000000E+01 0. -1.
          4   -1    0    0  501    0  0.00000000000E+00 -0.00000000000E+00 -0.43369665176E+02  0.43388255986E+02  0.12700000000E+01 0. -1.
    9000005    1    1    2    0    0  0.31155590527E+02 -0.39086843161E+02  0.63152166444E+02  0.80545938793E+02  0.10000000000E+01 0.  0.
    9000005    1    1    2    0    0 -0.31155590527E+02  0.39086843161E+02 -0.16672005381E+02  0.52701118516E+02  0.10000000000E+01 0.  0.
<mgrwt>
<rscale>  0 0.12487743E+03</rscale>
<asrwt>0</asrwt>
<pdfrwt beam="2">  1        4 0.66743767E-02 0.12487743E+03</pdfrwt>
<pdfrwt beam="1">  1       -4 0.13825170E-01 0.12487743E+03</pdfrwt>
<totfact> 0.10303611E+04</totfact>
</mgrwt>
</event>
<event>
 5    1  0.3296424E-002  0.1249947E+03  0.7818608E-02  0.1235078E+00
         -4   -1    0    0    0  501 -0.00000000000E+00  0.00000000000E+00  0.76579591468E+02  0.76590121618E+02  0.12700000000E+01 0.  1.
          4   -1    0    0  501    0  0.00000000000E+00 -0.00000000000E+00 -0.50982731606E+02  0.50998547254E+02  0.12700000000E+01 0.  1.
         25    2    1    2    0    0  0.00000000000E+00  0.00000000000E+00  0.25596859861E+02  0.12758866887E+03  0.12499467665E+03 0.  0.
    9000005    1    3    3    0    0 -0.48763937366E+02  0.23642942418E+02 -0.18960059283E+02  0.57422941075E+02  0.10000000000E+01 0.  0.
    9000005    1    3    3    0    0  0.48763937366E+02 -0.23642942418E+02  0.44556919145E+02  0.70165727797E+02  0.10000000000E+01 0.  0.
<mgrwt>
<rscale>  0 0.12499468E+03</rscale>
<asrwt>0</asrwt>
<pdfrwt beam="2">  1        4 0.78455238E-02 0.12499468E+03</pdfrwt>
<pdfrwt beam="1">  1       -4 0.11783502E-01 0.12499468E+03</pdfrwt>
<totfact> 0.10397630E+04</totfact>
</mgrwt>
</event>
<event>
 5    1  0.3296424E-002  0.1249993E+03  0.7818608E-02  0.1235070E+00
          4   -1    0    0  501    0  0.00000000000E+00  0.00000000000E+00  0.36495374614E+02  0.36517465250E+02  0.12700000000E+01 0.  1.
         -4   -1    0    0    0  501 -0.00000000000E+00 -0.00000000000E+00 -0.10697462528E+03  0.10698216371E+03  0.12700000000E+01 0.  1.
         25    2    1    2    0    0  0.00000000000E+00  0.00000000000E+00 -0.70479250661E+02  0.14349962896E+03  0.12499927495E+03 0.  0.
    9000005    1    3    3    0    0 -0.54801086567E+02  0.28046396883E+02 -0.22904849596E+02  0.65691640275E+02  0.10000000000E+01 0.  0.
    9000005    1    3    3    0    0  0.54801086567E+02 -0.28046396883E+02 -0.47574401065E+02  0.77807988688E+02  0.10000000000E+01 0.  0.
<mgrwt>
<rscale>  0 0.12499927E+03</rscale>
<asrwt>0</asrwt>
<pdfrwt beam="1">  1        4 0.56169522E-02 0.12499927E+03</pdfrwt>
<pdfrwt beam="2">  1       -4 0.16459914E-01 0.12499927E+03</pdfrwt>
<totfact> 0.10061726E+04</totfact>
</mgrwt>
</event>
<event>
 5    1  0.3296424E-002  0.1250011E+03  0.7818608E-02  0.1235068E+00
         -4   -1    0    0    0  501 -0.00000000000E+00  0.00000000000E+00  0.12731097374E+02  0.12794285457E+02  0.12700000000E+01 0. -1.
          4   -1    0    0  501    0  0.00000000000E+00 -0.00000000000E+00 -0.30600871044E+03  0.30601134581E+03  0.12700000000E+01 0. -1.
         25    2    1    2    0    0  0.00000000000E+00  0.00000000000E+00 -0.29327761306E+03  0.31880563127E+03  0.12500108881E+03 0.  0.
    9000005    1    3    3    0    0 -0.24777125143E+02 -0.43440185398E+02 -0.24221545268E+03  0.24732626459E+03  0.10000000000E+01 0.  0.
    9000005    1    3    3    0    0  0.24777125143E+02  0.43440185398E+02 -0.51062160383E+02  0.71479366678E+02  0.10000000000E+01 0.  0.
<mgrwt>
<rscale>  0 0.12500109E+03</rscale>
<asrwt>0</asrwt>
<pdfrwt beam="2">  1        4 0.47083321E-01 0.12500109E+03</pdfrwt>
<pdfrwt beam="1">  1       -4 0.19636939E-02 0.12500109E+03</pdfrwt>
<totfact> 0.73296638E+03</totfact>
</mgrwt>
</event>
<event>
 5    1  0.3296424E-002  0.1250014E+03  0.7818608E-02  0.1235067E+00
         -4   -1    0    0    0  501 -0.00000000000E+00  0.00000000000E+00  0.24018525947E+03  0.24018861706E+03  0.12700000000E+01 0.  1.
          4   -1    0    0  501    0  0.00000000000E+00 -0.00000000000E+00 -0.16235570607E+02  0.16285166654E+02  0.12700000000E+01 0.  1.
         25    2    1    2    0    0  0.00000000000E+00  0.00000000000E+00  0.22394968886E+03  0.25647378372E+03  0.12500135436E+03 0.  0.
    9000005    1    3    3    0    0 -0.42718273885E+02  0.37458530283E+02  0.16537374779E+03  0.17486414405E+03  0.10000000000E+01 0.  0.
    9000005    1    3    3    0    0  0.42718273885E+02 -0.37458530283E+02  0.58575941073E+02  0.81609639671E+02  0.10000000000E+01 0.  0.
<mgrwt>
<rscale>  0 0.12500135E+03</rscale>
<asrwt>0</asrwt>
<pdfrwt beam="2">  1        4 0.25018533E-02 0.12500135E+03</pdfrwt>
<pdfrwt beam="1">  1       -4 0.36955654E-01 0.12500135E+03</pdfrwt>
<totfact> 0.81401018E+03</totfact>
</mgrwt>
</event>
<event>
 5    1  0.3296424E-002  0.1250047E+03  0.7818608E-02  0.1235062E+00
         -4   -1    0    0    0  501 -0.00000000000E+00  0.00000000000E+00  0.26982051372E+02  0.27011923224E+02  0.12700000000E+01 0. -1.
          4   -1    0    0  501    0  0.00000000000E+00 -0.00000000000E+00 -0.14467021288E+03  0.14467578718E+03  0.12700000000E+01 0. -1.
         25    2    1    2    0    0  0.00000000000E+00  0.00000000000E+00 -0.11768816151E+03  0.17168771040E+03  0.12500466609E+03 0.  0.
    9000005    1    3    3    0    0 -0.47876504738E+02  0.37065452722E+02 -0.80100822639E+02  0.10041488574E+03  0.10000000000E+01 0.  0.
    9000005    1    3    3    0    0  0.47876504738E+02 -0.37065452722E+02 -0.37587338871E+02  0.71272824659E+02  0.10000000000E+01 0.  0.
<mgrwt>
<rscale>  0 0.12500467E+03</rscale>
<asrwt>0</asrwt>
<pdfrwt beam="2">  1        4 0.22259682E-01 0.12500467E+03</pdfrwt>
<pdfrwt beam="1">  1       -4 0.41538115E-02 0.12500467E+03</pdfrwt>
<totfact> 0.95125042E+03</totfact>
</mgrwt>
</event>
<event>
 5    1  0.3296424E-002  0.1250018E+03  0.7818608E-02  0.1235067E+00
          4   -1    0    0  501    0  0.00000000000E+00  0.00000000000E+00  0.97928987879E+01  0.98749059069E+01  0.12700000000E+01 0. -1.
         -4   -1    0    0    0  501 -0.00000000000E+00 -0.00000000000E+00 -0.39715091704E+03  0.39715294762E+03  0.12700000000E+01 0. -1.
         25    2    1    2    0    0  0.00000000000E+00  0.00000000000E+00 -0.38735801825E+03  0.40702785353E+03  0.12500175697E+03 0.  0.
    9000005    1    3    3    0    0 -0.15931776662E+02 -0.66147750520E+01  0.19026921657E+01  0.17383814141E+02  0.10000000000E+01 0.  0.
    9000005    1    3    3    0    0  0.15931776662E+02  0.66147750520E+01 -0.38926071042E+03  0.38964403939E+03  0.10000000000E+01 0.  0.
<mgrwt>
<rscale>  0 0.12500176E+03</rscale>
<asrwt>0</asrwt>
<pdfrwt beam="1">  1        4 0.15130646E-02 0.12500176E+03</pdfrwt>
<pdfrwt beam="2">  1       -4 0.61106593E-01 0.12500176E+03</pdfrwt>
<totfact> 0.63872489E+03</totfact>
</mgrwt>
</event>
<event>
 5    1  0.3296424E-002  0.1250012E+03  0.7818608E-02  0.1235067E+00
         -4   -1    0    0    0  501 -0.00000000000E+00  0.00000000000E+00  0.23446918878E+02  0.23481288399E+02  0.12700000000E+01 0.  1.
          4   -1    0    0  501    0  0.00000000000E+00 -0.00000000000E+00 -0.16644401107E+03  0.16644885617E+03  0.12700000000E+01 0.  1.
         25    2    1    2    0    0  0.00000000000E+00  0.00000000000E+00 -0.14299709219E+03  0.18993014457E+03  0.12500116576E+03 0.  0.
    9000005    1    3    3    0    0  0.36437538434E+02  0.43776558265E+02 -0.32427060952E+02  0.65548421359E+02  0.10000000000E+01 0.  0.
    9000005    1    3    3    0    0 -0.36437538434E+02 -0.43776558265E+02 -0.11057003124E+03  0.12438172321E+03  0.10000000000E+01 0.  0.
<mgrwt>
<rscale>  0 0.12500117E+03</rscale>
<asrwt>0</asrwt>
<pdfrwt beam="2">  1        4 0.25609787E-01 0.12500117E+03</pdfrwt>
<pdfrwt beam="1">  1       -4 0.36102349E-02 0.12500117E+03</pdfrwt>
<totfact> 0.91857072E+03</totfact>
</mgrwt>
</event>
<event>
 5    1  0.3296424E-002  0.1250169E+03  0.7818608E-02  0.1235043E+00
         -4   -1    0    0    0  501 -0.00000000000E+00  0.00000000000E+00  0.33592670010E+03  0.33592910076E+03  0.12700000000E+01 0. -1.
          4   -1    0    0  501    0  0.00000000000E+00 -0.00000000000E+00 -0.11594313523E+02  0.11663661778E+02  0.12700000000E+01 0. -1.
         25    2    1    2    0    0  0.00000000000E+00  0.00000000000E+00  0.32433238657E+03  0.34759276254E+03  0.12501692521E+03 0.  0.
    9000005    1    3    3    0    0 -0.59705459833E+02  0.92467502827E+01  0.20665756669E+03  0.21531046002E+03  0.10000000000E+01 0.  0.
    9000005    1    3    3    0    0  0.59705459833E+02 -0.92467502827E+01  0.11767481988E+03  0.13228230252E+03  0.10000000000E+01 0.  0.
<mgrwt>
<rscale>  0 0.12501693E+03</rscale>
<asrwt>0</asrwt>
<pdfrwt beam="2">  1        4 0.17892599E-02 0.12501693E+03</pdfrwt>
<pdfrwt beam="1">  1       -4 0.51686543E-01 0.12501693E+03</pdfrwt>
<totfact> 0.69963986E+03</totfact>
</mgrwt>
</event>
<event>
 4    1  0.3296424E-002  0.1249341E+03  0.7818608E-02  0.1235172E+00
          4   -1    0    0  501    0  0.00000000000E+00  0.00000000000E+00  0.52313008175E+02  0.52328421764E+02  0.12700000000E+01 0. -1.
         -4   -1    0    0    0  501 -0.00000000000E+00 -0.00000000000E+00 -0.74560171213E+02  0.74570986525E+02  0.12700000000E+01 0. -1.
    9000005    1    1    2    0    0 -0.54055336289E+02 -0.20020967791E+02 -0.35550007193E+02  0.67731983169E+02  0.10000000000E+01 0.  0.
    9000005    1    1    2    0    0  0.54055336289E+02  0.20020967791E+02  0.13302844155E+02  0.59167425119E+02  0.10000000000E+01 0.  0.
<mgrwt>
<rscale>  0 0.12493408E+03</rscale>
<asrwt>0</asrwt>
<pdfrwt beam="1">  1        4 0.80501727E-02 0.12493408E+03</pdfrwt>
<pdfrwt beam="2">  1       -4 0.11472813E-01 0.12493408E+03</pdfrwt>
<totfact> 0.10426840E+04</totfact>
</mgrwt>
</event>
<event>
 5    1  0.3296424E-002  0.1250008E+03  0.7818608E-02  0.1235068E+00
         -4   -1    0    0    0  501 -0.00000000000E+00  0.00000000000E+00  0.21369185075E+02  0.21406890731E+02  0.12700000000E+01 0. -1.
          4   -1    0    0  501    0  0.00000000000E+00 -0.00000000000E+00 -0.18259943363E+03  0.18260385007E+03  0.12700000000E+01 0. -1.
         25    2    1    2    0    0  0.00000000000E+00  0.00000000000E+00 -0.16123024856E+03  0.20401074081E+03  0.12500075726E+03 0.  0.
    9000005    1    3    3    0    0  0.51512077221E+02  0.11987028450E+02 -0.26286002614E+02  0.59068916395E+02  0.10000000000E+01 0.  0.
    9000005    1    3    3    0    0 -0.51512077221E+02 -0.11987028450E+02 -0.13494424594E+03  0.14494182441E+03  0.10000000000E+01 0.  0.
<mgrwt>
<rscale>  0 0.12500076E+03</rscale>
<asrwt>0</asrwt>
<pdfrwt beam="2">  1        4 0.28095460E-01 0.12500076E+03</pdfrwt>
<pdfrwt beam="1">  1       -4 0.32908072E-02 0.12500076E+03</pdfrwt>
<totfact> 0.89461928E+03</totfact>
</mgrwt>
</event>
<event>
 5    1  0.3296424E-002  0.1249985E+03  0.7818608E-02  0.1235072E+00
          4   -1    0    0  501    0  0.00000000000E+00  0.00000000000E+00  0.62986173312E+02  0.62998975615E+02  0.12700000000E+01 0. -1.
         -4   -1    0    0    0  501 -0.00000000000E+00 -0.00000000000E+00 -0.61990488367E+02  0.62003496256E+02  0.12700000000E+01 0. -1.
         25    2    1    2    0    0  0.00000000000E+00  0.00000000000E+00  0.99568494551E+00  0.12500247187E+03  0.12499850633E+03 0.  0.
    9000005    1    3    3    0    0  0.32228939295E+02 -0.62619431766E+01 -0.52675643170E+02  0.62077691998E+02  0.10000000000E+01 0.  0.
    9000005    1    3    3    0    0 -0.32228939295E+02  0.62619431766E+01  0.53671328115E+02  0.62924779873E+02  0.10000000000E+01 0.  0.
<mgrwt>
<rscale>  0 0.12499851E+03</rscale>
<asrwt>0</asrwt>
<pdfrwt beam="1">  1        4 0.96921659E-02 0.12499851E+03</pdfrwt>
<pdfrwt beam="2">  1       -4 0.95389836E-02 0.12499851E+03</pdfrwt>
<totfact> 0.10453162E+04</totfact>
</mgrwt>
</event>
<event>
 5    1  0.3296424E-002  0.1249977E+03  0.7818608E-02  0.1235073E+00
         -4   -1    0    0    0  501 -0.00000000000E+00  0.00000000000E+00  0.38630546012E+03  0.38630754771E+03  0.12700000000E+01 0. -1.
          4   -1    0    0  501    0  0.00000000000E+00 -0.00000000000E+00 -0.10069441735E+02  0.10149214593E+02  0.12700000000E+01 0. -1.
         25    2    1    2    0    0  0.00000000000E+00  0.00000000000E+00  0.37623601838E+03  0.39645676230E+03  0.12499769137E+03 0.  0.
    9000005    1    3    3    0    0  0.55321940141E+02 -0.75224195151E+01  0.99083686747E+02  0.11373513457E+03  0.10000000000E+01 0.  0.
    9000005    1    3    3    0    0 -0.55321940141E+02  0.75224195151E+01  0.27715233164E+03  0.28272162773E+03  0.10000000000E+01 0.  0.
<mgrwt>
<rscale>  0 0.12499769E+03</rscale>
<asrwt>0</asrwt>
<pdfrwt beam="2">  1        4 0.15554420E-02 0.12499769E+03</pdfrwt>
<pdfrwt beam="1">  1       -4 0.59437902E-01 0.12499769E+03</pdfrwt>
<totfact> 0.64902174E+03</totfact>
</mgrwt>
</event>
<event>
 5    1  0.3296424E-002  0.1250021E+03  0.7818608E-02  0.1235066E+00
          4   -1    0    0  501    0  0.00000000000E+00  0.00000000000E+00  0.12704514684E+03  0.12705149442E+03  0.12700000000E+01 0.  1.
         -4   -1    0    0    0  501 -0.00000000000E+00 -0.00000000000E+00 -0.30727756291E+02  0.30753990094E+02  0.12700000000E+01 0.  1.
         25    2    1    2    0    0  0.00000000000E+00  0.00000000000E+00  0.96317390544E+02  0.15780548451E+03  0.12500212487E+03 0.  0.
    9000005    1    3    3    0    0  0.99507351707E+01 -0.61566722937E+02  0.43124129707E+02  0.75829869225E+02  0.10000000000E+01 0.  0.
    9000005    1    3    3    0    0 -0.99507351707E+01  0.61566722937E+02  0.53193260837E+02  0.81975615290E+02  0.10000000000E+01 0.  0.
<mgrwt>
<rscale>  0 0.12500212E+03</rscale>
<asrwt>0</asrwt>
<pdfrwt beam="1">  1        4 0.19547913E-01 0.12500212E+03</pdfrwt>
<pdfrwt beam="2">  1       -4 0.47298535E-02 0.12500212E+03</pdfrwt>
<totfact> 0.97762876E+03</totfact>
</mgrwt>
</event>
<event>
 5    1  0.3296424E-002  0.1250016E+03  0.7818608E-02  0.1235067E+00
          4   -1    0    0  501    0  0.00000000000E+00  0.00000000000E+00  0.19840150549E+03  0.19840557019E+03  0.12700000000E+01 0. -1.
         -4   -1    0    0    0  501 -0.00000000000E+00 -0.00000000000E+00 -0.19664361802E+02  0.19705329865E+02  0.12700000000E+01 0. -1.
         25    2    1    2    0    0  0.00000000000E+00  0.00000000000E+00  0.17873714369E+03  0.21811090005E+03  0.12500159274E+03 0.  0.
    9000005    1    3    3    0    0  0.23244207513E+02  0.54489078366E+02  0.12409080173E+03  0.13750956301E+03  0.10000000000E+01 0.  0.
    9000005    1    3    3    0    0 -0.23244207513E+02 -0.54489078366E+02  0.54646341959E+02  0.80601337046E+02  0.10000000000E+01 0.  0.
<mgrwt>
<rscale>  0 0.12500159E+03</rscale>
<asrwt>0</asrwt>
<pdfrwt beam="1">  1        4 0.30526774E-01 0.12500159E+03</pdfrwt>
<pdfrwt beam="2">  1       -4 0.30287503E-02 0.12500159E+03</pdfrwt>
<totfact> 0.87165057E+03</totfact>
</mgrwt>
</event>
<event>
 5    1  0.3296424E-002  0.1250054E+03  0.7818608E-02  0.1235061E+00
          4   -1    0    0  501    0  0.00000000000E+00  0.00000000000E+00  0.11797528880E+02  0.11865689515E+02  0.12700000000E+01 0.  1.
         -4   -1    0    0    0  501 -0.00000000000E+00 -0.00000000000E+00 -0.33011284128E+03  0.33011528423E+03  0.12700000000E+01 0.  1.
         25    2    1    2    0    0  0.00000000000E+00  0.00000000000E+00 -0.31831531240E+03  0.34198097374E+03  0.12500539305E+03 0.  0.
    9000005    1    3    3    0    0 -0.34122878373E+02 -0.51419121982E+02 -0.13217357677E+03  0.14587375134E+03  0.10000000000E+01 0.  0.
    9000005    1    3    3    0    0  0.34122878373E+02  0.51419121982E+02 -0.18614173563E+03  0.19610722240E+03  0.10000000000E+01 0.  0.
<mgrwt>
<rscale>  0 0.12500539E+03</rscale>
<asrwt>0</asrwt>
<pdfrwt beam="1">  1        4 0.18204357E-02 0.12500539E+03</pdfrwt>
<pdfrwt beam="2">  1       -4 0.50792015E-01 0.12500539E+03</pdfrwt>
<totfact> 0.70607422E+03</totfact>
</mgrwt>
</event>
<event>
 5    1  0.3296424E-002  0.1250017E+03  0.7818608E-02  0.1235067E+00
          4   -1    0    0  501    0  0.00000000000E+00  0.00000000000E+00  0.46554251076E+03  0.46554424303E+03  0.12700000000E+01 0.  1.
         -4   -1    0    0    0  501 -0.00000000000E+00 -0.00000000000E+00 -0.83411698082E+01  0.84372989617E+01  0.12700000000E+01 0.  1.
         25    2    1    2    0    0  0.00000000000E+00  0.00000000000E+00  0.45720134095E+03  0.47398154199E+03  0.12500174394E+03 0.  0.
    9000005    1    3    3    0    0  0.75652467938E+01 -0.60770788153E+02  0.18138746158E+03  0.19144903465E+03  0.10000000000E+01 0.  0.
    9000005    1    3    3    0    0 -0.75652467938E+01  0.60770788153E+02  0.27581387937E+03  0.28253250734E+03  0.10000000000E+01 0.  0.
<mgrwt>
<rscale>  0 0.12500174E+03</rscale>
<asrwt>0</asrwt>
<pdfrwt beam="1">  1        4 0.71629473E-01 0.12500174E+03</pdfrwt>
<pdfrwt beam="2">  1       -4 0.12907843E-02 0.12500174E+03</pdfrwt>
<totfact> 0.57938907E+03</totfact>
</mgrwt>
</event>
<event>
 5    1  0.3296424E-002  0.1249851E+03  0.7818608E-02  0.1235093E+00
         -4   -1    0    0    0  501 -0.00000000000E+00  0.00000000000E+00  0.17130571974E+01  0.21324785958E+01  0.12700000000E+01 0.  1.
          4   -1    0    0  501    0  0.00000000000E+00 -0.00000000000E+00 -0.20306731287E+04  0.20306735258E+04  0.12700000000E+01 0.  1.
         25    2    1    2    0    0  0.00000000000E+00  0.00000000000E+00 -0.20289600715E+04  0.20328060044E+04  0.12498511869E+03 0.  0.
    9000005    1    3    3    0    0 -0.35296113822E+02  0.45920351204E+01 -0.17920967171E+03  0.18271291381E+03  0.10000000000E+01 0.  0.
    9000005    1    3    3    0    0  0.35296113822E+02 -0.45920351204E+01 -0.18497503998E+04  0.18500930906E+04  0.10000000000E+01 0.  0.
<mgrwt>
<rscale>  0 0.12498512E+03</rscale>
<asrwt>0</asrwt>
<pdfrwt beam="2">  1        4 0.31244183E+00 0.12498512E+03</pdfrwt>
<pdfrwt beam="1">  1       -4 0.29584262E-03 0.12498512E+03</pdfrwt>
<totfact> 0.94422894E+02</totfact>
</mgrwt>
</event>
<event>
 5    1  0.3296424E-002  0.1249994E+03  0.7818608E-02  0.1235070E+00
         -4   -1    0    0    0  501 -0.00000000000E+00  0.00000000000E+00  0.11370923440E+02  0.11441625753E+02  0.12700000000E+01 0. -1.
          4   -1    0    0  501    0  0.00000000000E+00 -0.00000000000E+00 -0.34239011213E+03  0.34239246748E+03  0.12700000000E+01 0. -1.
         25    2    1    2    0    0  0.00000000000E+00  0.00000000000E+00 -0.33101918869E+03  0.35383409323E+03  0.12499944900E+03 0.  0.
    9000005    1    3    3    0    0  0.50214288230E+02  0.35799396269E+02 -0.13690089538E+03  0.15015301087E+03  0.10000000000E+01 0.  0.
    9000005    1    3    3    0    0 -0.50214288230E+02 -0.35799396269E+02 -0.19411829331E+03  0.20368108236E+03  0.10000000000E+01 0.  0.
<mgrwt>
<rscale>  0 0.12499945E+03</rscale>
<asrwt>0</asrwt>
<pdfrwt beam="2">  1        4 0.52681014E-01 0.12499945E+03</pdfrwt>
<pdfrwt beam="1">  1       -4 0.17549929E-02 0.12499945E+03</pdfrwt>
<totfact> 0.69305657E+03</totfact>
</mgrwt>
</event>
<event>
 5    1  0.3296424E-002  0.1249993E+03  0.7818608E-02  0.1235070E+00
         -4   -1    0    0    0  501 -0.00000000000E+00  0.00000000000E+00  0.21826402447E+03  0.21826771928E+03  0.12700000000E+01 0. -1.
          4   -1    0    0  501    0  0.00000000000E+00 -0.00000000000E+00 -0.17870319908E+02  0.17915390970E+02  0.12700000000E+01 0. -1.
         25    2    1    2    0    0  0.00000000000E+00  0.00000000000E+00  0.20039370456E+03  0.23618311025E+03  0.12499929895E+03 0.  0.
    9000005    1    3    3    0    0  0.49537103668E+02  0.44008287126E+01  0.17169581905E+03  0.17875610819E+03  0.10000000000E+01 0.  0.
    9000005    1    3    3    0    0 -0.49537103668E+02 -0.44008287126E+01  0.28697885511E+02  0.57427002063E+02  0.10000000000E+01 0.  0.
<mgrwt>
<rscale>  0 0.12499930E+03</rscale>
<asrwt>0</asrwt>
<pdfrwt beam="2">  1        4 0.27530311E-02 0.12499930E+03</pdfrwt>
<pdfrwt beam="1">  1       -4 0.33582833E-01 0.12499930E+03</pdfrwt>
<totfact> 0.84370447E+03</totfact>
</mgrwt>
</event>
<event>
 5    1  0.3296424E-002  0.1249990E+03  0.7818608E-02  0.1235071E+00
          4   -1    0    0  501    0  0.00000000000E+00  0.00000000000E+00  0.97005740239E+02  0.97014053308E+02  0.12700000000E+01 0.  1.
         -4   -1    0    0    0  501 -0.00000000000E+00 -0.00000000000E+00 -0.40247555974E+02  0.40267588230E+02  0.12700000000E+01 0.  1.
         25    2    1    2    0    0  0.00000000000E+00  0.00000000000E+00  0.56758184265E+02  0.13728164154E+03  0.12499903049E+03 0.  0.
    9000005    1    3    3    0    0 -0.72376748096E+01 -0.47726816306E+02 -0.15206213634E+02  0.50620765150E+02  0.10000000000E+01 0.  0.
    9000005    1    3    3    0    0  0.72376748096E+01  0.47726816306E+02  0.71964397899E+02  0.86660876388E+02  0.10000000000E+01 0.  0.
<mgrwt>
<rscale>  0 0.12499903E+03</rscale>
<asrwt>0</asrwt>
<pdfrwt beam="1">  1        4 0.14926140E-01 0.12499903E+03</pdfrwt>
<pdfrwt beam="2">  1       -4 0.61941121E-02 0.12499903E+03</pdfrwt>
<totfact> 0.10190423E+04</totfact>
</mgrwt>
</event>
<event>
 4    1  0.3296424E-002  0.1249111E+03  0.7818608E-02  0.1235208E+00
         -4   -1    0    0    0  501 -0.00000000000E+00  0.00000000000E+00  0.18429887713E+02  0.18473593616E+02  0.12700000000E+01 0. -1.
          4   -1    0    0  501    0  0.00000000000E+00 -0.00000000000E+00 -0.21135413188E+03  0.21135794748E+03  0.12700000000E+01 0. -1.
    9000005    1    1    2    0    0 -0.35734422005E+02  0.15527863405E+02 -0.66684227887E+01  0.39541513886E+02  0.10000000000E+01 0.  0.
    9000005    1    1    2    0    0  0.35734422005E+02 -0.15527863405E+02 -0.18625582138E+03  0.19029002721E+03  0.10000000000E+01 0.  0.
<mgrwt>
<rscale>  0 0.12491106E+03</rscale>
<asrwt>0</asrwt>
<pdfrwt beam="2">  1        4 0.32519674E-01 0.12491106E+03</pdfrwt>
<pdfrwt beam="1">  1       -4 0.28390230E-02 0.12491106E+03</pdfrwt>
<totfact> 0.85505032E+03</totfact>
</mgrwt>
</event>
<event>
 5    1  0.3296424E-002  0.1249991E+03  0.7818608E-02  0.1235071E+00
          4   -1    0    0  501    0  0.00000000000E+00  0.00000000000E+00  0.13942637806E+02  0.14000358888E+02  0.12700000000E+01 0.  1.
         -4   -1    0    0    0  501 -0.00000000000E+00 -0.00000000000E+00 -0.27952397272E+03  0.27952685779E+03  0.12700000000E+01 0.  1.
         25    2    1    2    0    0  0.00000000000E+00  0.00000000000E+00 -0.26558133491E+03  0.29352721668E+03  0.12499912590E+03 0.  0.
    9000005    1    3    3    0    0 -0.22525552313E+01 -0.19245679889E+02  0.67214230129E+01  0.20534062598E+02  0.10000000000E+01 0.  0.
    9000005    1    3    3    0    0  0.22525552313E+01  0.19245679889E+02 -0.27230275793E+03  0.27299315408E+03  0.10000000000E+01 0.  0.
<mgrwt>
<rscale>  0 0.12499913E+03</rscale>
<asrwt>0</asrwt>
<pdfrwt beam="1">  1        4 0.21496834E-02 0.12499913E+03</pdfrwt>
<pdfrwt beam="2">  1       -4 0.43008346E-01 0.12499913E+03</pdfrwt>
<totfact> 0.76419498E+03</totfact>
</mgrwt>
</event>
<event>
 5    1  0.3296424E-002  0.1250014E+03  0.7818608E-02  0.1235067E+00
         -4   -1    0    0    0  501 -0.00000000000E+00  0.00000000000E+00  0.27409704971E+02  0.27439111257E+02  0.12700000000E+01 0.  1.
          4   -1    0    0  501    0  0.00000000000E+00 -0.00000000000E+00 -0.14240798781E+03  0.14241365065E+03  0.12700000000E+01 0.  1.
         25    2    1    2    0    0  0.00000000000E+00  0.00000000000E+00 -0.11499828284E+03  0.16985276191E+03  0.12500142268E+03 0.  0.
    9000005    1    3    3    0    0  0.16366797142E+02 -0.14425518978E+02  0.22073708000E+02  0.31051831369E+02  0.10000000000E+01 0.  0.
    9000005    1    3    3    0    0 -0.16366797142E+02  0.14425518978E+02 -0.13707199084E+03  0.13880093054E+03  0.10000000000E+01 0.  0.
<mgrwt>
<rscale>  0 0.12500142E+03</rscale>
<asrwt>0</asrwt>
<pdfrwt beam="2">  1        4 0.21911618E-01 0.12500142E+03</pdfrwt>
<pdfrwt beam="1">  1       -4 0.42195754E-02 0.12500142E+03</pdfrwt>
<totfact> 0.95473038E+03</totfact>
</mgrwt>
</event>
<event>
 5    1  0.3296424E-002  0.1249983E+03  0.7818608E-02  0.1235072E+00
         -4   -1    0    0    0  501 -0.00000000000E+00  0.00000000000E+00  0.21981169803E+02  0.22017827457E+02  0.12700000000E+01 0.  1.
          4   -1    0    0  501    0  0.00000000000E+00 -0.00000000000E+00 -0.17751706124E+03  0.17752160412E+03  0.12700000000E+01 0.  1.
         25    2    1    2    0    0  0.00000000000E+00  0.00000000000E+00 -0.15553589143E+03  0.19953943158E+03  0.12499828491E+03 0.  0.
    9000005    1    3    3    0    0 -0.56718093424E+01  0.25844076737E+02  0.12605857899E+02  0.29325643676E+02  0.10000000000E+01 0.  0.
    9000005    1    3    3    0    0  0.56718093424E+01 -0.25844076737E+02 -0.16814174933E+03  0.17021378790E+03  0.10000000000E+01 0.  0.
<mgrwt>
<rscale>  0 0.12499828E+03</rscale>
<asrwt>0</asrwt>
<pdfrwt beam="2">  1        4 0.27313485E-01 0.12499828E+03</pdfrwt>
<pdfrwt beam="1">  1       -4 0.33848878E-02 0.12499828E+03</pdfrwt>
<totfact> 0.90216706E+03</totfact>
</mgrwt>
</event>
<event>
 5    1  0.3296424E-002  0.1250010E+03  0.7818608E-02  0.1235068E+00
          4   -1    0    0  501    0  0.00000000000E+00  0.00000000000E+00  0.14686771642E+02  0.14741579334E+02  0.12700000000E+01 0. -1.
         -4   -1    0    0    0  501 -0.00000000000E+00 -0.00000000000E+00 -0.26542311154E+03  0.26542614988E+03  0.12700000000E+01 0. -1.
         25    2    1    2    0    0  0.00000000000E+00  0.00000000000E+00 -0.25073633990E+03  0.28016772922E+03  0.12500097739E+03 0.  0.
    9000005    1    3    3    0    0 -0.47146981971E+02 -0.36291454782E+02 -0.16821227204E+03  0.17842722905E+03  0.10000000000E+01 0.  0.
    9000005    1    3    3    0    0  0.47146981971E+02  0.36291454782E+02 -0.82524067858E+02  0.10174050017E+03  0.10000000000E+01 0.  0.
<mgrwt>
<rscale>  0 0.12500098E+03</rscale>
<asrwt>0</asrwt>
<pdfrwt beam="1">  1        4 0.22639532E-02 0.12500098E+03</pdfrwt>
<pdfrwt beam="2">  1       -4 0.40838771E-01 0.12500098E+03</pdfrwt>
<totfact> 0.78154175E+03</totfact>
</mgrwt>
</event>
<event>
 5    1  0.3296424E-002  0.1250007E+03  0.7818608E-02  0.1235068E+00
         -4   -1    0    0    0  501 -0.00000000000E+00  0.00000000000E+00  0.31364687440E+03  0.31364944560E+03  0.12700000000E+01 0.  1.
          4   -1    0    0  501    0  0.00000000000E+00 -0.00000000000E+00 -0.12419425917E+02  0.12484191608E+02  0.12700000000E+01 0.  1.
         25    2    1    2    0    0  0.00000000000E+00  0.00000000000E+00  0.30122744849E+03  0.32613363721E+03  0.12500069438E+03 0.  0.
    9000005    1    3    3    0    0 -0.47605210403E+02 -0.16026471149E+02  0.53614787630E+02  0.73475501275E+02  0.10000000000E+01 0.  0.
    9000005    1    3    3    0    0  0.47605210403E+02  0.16026471149E+02  0.24761266086E+03  0.25265813593E+03  0.10000000000E+01 0.  0.
<mgrwt>
<rscale>  0 0.12500069E+03</rscale>
<asrwt>0</asrwt>
<pdfrwt beam="2">  1        4 0.19158607E-02 0.12500069E+03</pdfrwt>
<pdfrwt beam="1">  1       -4 0.48258545E-01 0.12500069E+03</pdfrwt>
<totfact> 0.72431385E+03</totfact>
</mgrwt>
</event>
<event>
 5    1  0.3296424E-002  0.1250048E+03  0.7818608E-02  0.1235062E+00
         -4   -1    0    0    0  501 -0.00000000000E+00  0.00000000000E+00  0.44981878131E+03  0.44982057414E+03  0.12700000000E+01 0. -1.
          4   -1    0    0  501    0  0.00000000000E+00 -0.00000000000E+00 -0.86364642568E+01  0.87293421779E+01  0.12700000000E+01 0. -1.
         25    2    1    2    0    0  0.00000000000E+00  0.00000000000E+00  0.44118231706E+03  0.45854991632E+03  0.12500475541E+03 0.  0.
    9000005    1    3    3    0    0  0.13797900905E+02  0.28016605053E+02  0.41916009460E+03  0.42032308661E+03  0.10000000000E+01 0.  0.
    9000005    1    3    3    0    0 -0.13797900905E+02 -0.28016605053E+02  0.22022222453E+02  0.38226829712E+02  0.10000000000E+01 0.  0.
<mgrwt>
<rscale>  0 0.12500476E+03</rscale>
<asrwt>0</asrwt>
<pdfrwt beam="2">  1        4 0.13359694E-02 0.12500476E+03</pdfrwt>
<pdfrwt beam="1">  1       -4 0.69210162E-01 0.12500476E+03</pdfrwt>
<totfact> 0.59224009E+03</totfact>
</mgrwt>
</event>
<event>
 5    1  0.3296424E-002  0.1249997E+03  0.7818608E-02  0.1235070E+00
          4   -1    0    0  501    0  0.00000000000E+00  0.00000000000E+00  0.25921402170E+02  0.25952494879E+02  0.12700000000E+01 0.  1.
         -4   -1    0    0    0  501 -0.00000000000E+00 -0.00000000000E+00 -0.15057109292E+03  0.15057644876E+03  0.12700000000E+01 0.  1.
         25    2    1    2    0    0  0.00000000000E+00  0.00000000000E+00 -0.12464969075E+03  0.17652894364E+03  0.12499969016E+03 0.  0.
    9000005    1    3    3    0    0  0.37359508136E+02 -0.48556234106E+02 -0.44925678775E+02  0.75978663664E+02  0.10000000000E+01 0.  0.
    9000005    1    3    3    0    0 -0.37359508136E+02  0.48556234106E+02 -0.79724011971E+02  0.10055027998E+03  0.10000000000E+01 0.  0.
<mgrwt>
<rscale>  0 0.12499969E+03</rscale>
<asrwt>0</asrwt>
<pdfrwt beam="1">  1        4 0.39907118E-02 0.12499969E+03</pdfrwt>
<pdfrwt beam="2">  1       -4 0.23167587E-01 0.12499969E+03</pdfrwt>
<totfact> 0.94246217E+03</totfact>
</mgrwt>
</event>
<event>
 5    1  0.3296424E-002  0.1249997E+03  0.7818608E-02  0.1235070E+00
         -4   -1    0    0    0  501 -0.00000000000E+00  0.00000000000E+00  0.38648096185E+03  0.38648304849E+03  0.12700000000E+01 0.  1.
          4   -1    0    0  501    0  0.00000000000E+00 -0.00000000000E+00 -0.10065159926E+02  0.10144966453E+02  0.12700000000E+01 0.  1.
         25    2    1    2    0    0  0.00000000000E+00  0.00000000000E+00  0.37641580192E+03  0.39662801494E+03  0.12499970520E+03 0.  0.
    9000005    1    3    3    0    0 -0.67103537945E+01 -0.21455237881E+02  0.37322245969E+03  0.37390020125E+03  0.10000000000E+01 0.  0.
    9000005    1    3    3    0    0  0.67103537945E+01  0.21455237881E+02  0.31933422342E+01  0.22727813692E+02  0.10000000000E+01 0.  0.
<mgrwt>
<rscale>  0 0.12499971E+03</rscale>
<asrwt>0</asrwt>
<pdfrwt beam="2">  1        4 0.15547858E-02 0.12499971E+03</pdfrwt>
<pdfrwt beam="1">  1       -4 0.59464902E-01 0.12499971E+03</pdfrwt>
<totfact> 0.64882496E+03</totfact>
</mgrwt>
</event>
<event>
 5    1  0.3296424E-002  0.1250007E+03  0.7818608E-02  0.1235068E+00
         -4   -1    0    0    0  501 -0.00000000000E+00  0.00000000000E+00  0.11442102965E+03  0.11442807752E+03  0.12700000000E+01 0. -1.
          4   -1    0    0  501    0  0.00000000000E+00 -0.00000000000E+00 -0.34119754167E+02  0.34143381854E+02  0.12700000000E+01 0. -1.
         25    2    1    2    0    0  0.00000000000E+00  0.00000000000E+00  0.80301275481E+02  0.14857145938E+03  0.12500073479E+03 0.  0.
    9000005    1    3    3    0    0  0.45830574541E+02 -0.11967484092E+02 -0.82989925545E+01  0.48099225729E+02  0.10000000000E+01 0.  0.
    9000005    1    3    3    0    0 -0.45830574541E+02  0.11967484092E+02  0.88600268035E+02  0.10047223365E+03  0.10000000000E+01 0.  0.
<mgrwt>
<rscale>  0 0.12500073E+03</rscale>
<asrwt>0</asrwt>
<pdfrwt beam="2">  1        4 0.52515526E-02 0.12500073E+03</pdfrwt>
<pdfrwt beam="1">  1       -4 0.17605595E-01 0.12500073E+03</pdfrwt>
<totfact> 0.99587574E+03</totfact>
</mgrwt>
</event>
<event>
 5    1  0.3296424E-002  0.1250022E+03  0.7818608E-02  0.1235066E+00
         -4   -1    0    0    0  501 -0.00000000000E+00  0.00000000000E+00  0.89995630837E+02  0.90004591381E+02  0.12700000000E+01 0.  1.
          4   -1    0    0  501    0  0.00000000000E+00 -0.00000000000E+00 -0.43386007961E+02  0.43404591770E+02  0.12700000000E+01 0.  1.
         25    2    1    2    0    0  0.00000000000E+00  0.00000000000E+00  0.46609622876E+02  0.13340918315E+03  0.12500221280E+03 0.  0.
    9000005    1    3    3    0    0 -0.24133207516E+02 -0.57138890608E+02  0.15168174555E+02  0.63861866903E+02  0.10000000000E+01 0.  0.
    9000005    1    3    3    0    0  0.24133207516E+02  0.57138890608E+02  0.31441448321E+02  0.69547316249E+02  0.10000000000E+01 0.  0.
<mgrwt>
<rscale>  0 0.12500221E+03</rscale>
<asrwt>0</asrwt>
<pdfrwt beam="2">  1        4 0.66768893E-02 0.12500221E+03</pdfrwt>
<pdfrwt beam="1">  1       -4 0.13847600E-01 0.12500221E+03</pdfrwt>
<totfact> 0.10271198E+04</totfact>
</mgrwt>
</event>
<event>
 5    1  0.3296424E-002  0.1250009E+03  0.7818608E-02  0.1235068E+00
          4   -1    0    0  501    0  0.00000000000E+00  0.00000000000E+00  0.44250574998E+03  0.44250757244E+03  0.12700000000E+01 0. -1.
         -4   -1    0    0    0  501 -0.00000000000E+00 -0.00000000000E+00 -0.87801658867E+01  0.88715394943E+01  0.12700000000E+01 0. -1.
         25    2    1    2    0    0  0.00000000000E+00  0.00000000000E+00  0.43372558410E+03  0.45137911194E+03  0.12500088157E+03 0.  0.
    9000005    1    3    3    0    0  0.27403222948E+02  0.48818063577E+02  0.31713996374E+03  0.32204486731E+03  0.10000000000E+01 0.  0.
    9000005    1    3    3    0    0 -0.27403222948E+02 -0.48818063577E+02  0.11658562036E+03  0.12933424463E+03  0.10000000000E+01 0.  0.
<mgrwt>
<rscale>  0 0.12500088E+03</rscale>
<asrwt>0</asrwt>
<pdfrwt beam="1">  1        4 0.68084973E-01 0.12500088E+03</pdfrwt>
<pdfrwt beam="2">  1       -4 0.13579638E-02 0.12500088E+03</pdfrwt>
<totfact> 0.59843346E+03</totfact>
</mgrwt>
</event>
<event>
 5    1  0.3296424E-002  0.1250106E+03  0.7818608E-02  0.1235053E+00
          4   -1    0    0  501    0  0.00000000000E+00  0.00000000000E+00  0.23473936751E+02  0.23508266771E+02  0.12700000000E+01 0. -1.
         -4   -1    0    0    0  501 -0.00000000000E+00 -0.00000000000E+00 -0.16627794159E+03  0.16628279153E+03  0.12700000000E+01 0. -1.
         25    2    1    2    0    0  0.00000000000E+00  0.00000000000E+00 -0.14280400484E+03  0.18979105831E+03  0.12501064760E+03 0.  0.
    9000005    1    3    3    0    0  0.61504222452E+02 -0.89841976195E-01 -0.88249091905E+02  0.10757174198E+03  0.10000000000E+01 0.  0.
    9000005    1    3    3    0    0 -0.61504222452E+02  0.89841976195E-01 -0.54554912937E+02  0.82219316323E+02  0.10000000000E+01 0.  0.
<mgrwt>
<rscale>  0 0.12501065E+03</rscale>
<asrwt>0</asrwt>
<pdfrwt beam="1">  1        4 0.36143888E-02 0.12501065E+03</pdfrwt>
<pdfrwt beam="2">  1       -4 0.25584235E-01 0.12501065E+03</pdfrwt>
<totfact> 0.91861771E+03</totfact>
</mgrwt>
</event>
<event>
 5    1  0.3296424E-002  0.1250026E+03  0.7818608E-02  0.1235065E+00
          4   -1    0    0  501    0  0.00000000000E+00  0.00000000000E+00  0.16048194318E+01  0.20465447488E+01  0.12700000000E+01 0.  1.
         -4   -1    0    0    0  501 -0.00000000000E+00 -0.00000000000E+00 -0.21392591743E+04  0.21392595513E+04  0.12700000000E+01 0.  1.
         25    2    1    2    0    0  0.00000000000E+00  0.00000000000E+00 -0.21376543549E+04  0.21413060960E+04  0.12500262392E+03 0.  0.
    9000005    1    3    3    0    0  0.48906986251E+02  0.37261500742E+02 -0.12604249507E+04  0.12619240742E+04  0.10000000000E+01 0.  0.
    9000005    1    3    3    0    0 -0.48906986251E+02 -0.37261500742E+02 -0.87722940414E+03  0.87938202178E+03  0.10000000000E+01 0.  0.
<mgrwt>
<rscale>  0 0.12500262E+03</rscale>
<asrwt>0</asrwt>
<pdfrwt beam="1">  1        4 0.28090488E-03 0.12500262E+03</pdfrwt>
<pdfrwt beam="2">  1       -4 0.32914880E+00 0.12500262E+03</pdfrwt>
<totfact> 0.81274541E+02</totfact>
</mgrwt>
</event>
<event>
 5    1  0.3296424E-002  0.1250065E+03  0.7818608E-02  0.1235059E+00
          4   -1    0    0  501    0  0.00000000000E+00  0.00000000000E+00  0.25006414845E+03  0.25006737340E+03  0.12700000000E+01 0.  1.
         -4   -1    0    0    0  501 -0.00000000000E+00 -0.00000000000E+00 -0.15593477327E+02  0.15645108985E+02  0.12700000000E+01 0.  1.
         25    2    1    2    0    0  0.00000000000E+00  0.00000000000E+00  0.23447067112E+03  0.26571248239E+03  0.12500651055E+03 0.  0.
    9000005    1    3    3    0    0 -0.11534249671E+02 -0.56263415090E+02  0.16960625162E+03  0.17906951550E+03  0.10000000000E+01 0.  0.
    9000005    1    3    3    0    0  0.11534249671E+02  0.56263415090E+02  0.64864419498E+02  0.86642966881E+02  0.10000000000E+01 0.  0.
<mgrwt>
<rscale>  0 0.12500651E+03</rscale>
<asrwt>0</asrwt>
<pdfrwt beam="1">  1        4 0.38475626E-01 0.12500651E+03</pdfrwt>
<pdfrwt beam="2">  1       -4 0.24032163E-02 0.12500651E+03</pdfrwt>
<totfact> 0.80099415E+03</totfact>
</mgrwt>
</event>
<event>
 5    1  0.3296424E-002  0.1249973E+03  0.7818608E-02  0.1235073E+00
          4   -1    0    0  501    0  0.00000000000E+00  0.00000000000E+00  0.78986945893E+03  0.78987047993E+03  0.12700000000E+01 0.  1.
         -4   -1    0    0    0  501 -0.00000000000E+00 -0.00000000000E+00 -0.48626455584E+01  0.50257558463E+01  0.12700000000E+01 0.  1.
         25    2    1    2    0    0  0.00000000000E+00  0.00000000000E+00  0.78500681338E+03  0.79489623577E+03  0.12499731436E+03 0.  0.
    9000005    1    3    3    0    0  0.43740030778E+01 -0.23117682918E+02  0.76065853909E+03  0.76102297748E+03  0.10000000000E+01 0.  0.
    9000005    1    3    3    0    0 -0.43740030778E+01  0.23117682918E+02  0.24348274288E+02  0.33873258290E+02  0.10000000000E+01 0.  0.
<mgrwt>
<rscale>  0 0.12499731E+03</rscale>
<asrwt>0</asrwt>
<pdfrwt beam="1">  1        4 0.12153095E+00 0.12499731E+03</pdfrwt>
<pdfrwt beam="2">  1       -4 0.76072516E-03 0.12499731E+03</pdfrwt>
<totfact> 0.38495864E+03</totfact>
</mgrwt>
</event>
<event>
 5    1  0.3296424E-002  0.1250005E+03  0.7818608E-02  0.1235069E+00
          4   -1    0    0  501    0  0.00000000000E+00  0.00000000000E+00  0.52021986237E+02  0.52037486027E+02  0.12700000000E+01 0.  1.
         -4   -1    0    0    0  501 -0.00000000000E+00 -0.00000000000E+00 -0.75056958190E+02  0.75067701928E+02  0.12700000000E+01 0.  1.
         25    2    1    2    0    0  0.00000000000E+00  0.00000000000E+00 -0.23034971953E+02  0.12710518796E+03  0.12500047549E+03 0.  0.
    9000005    1    3    3    0    0 -0.22220035724E+02  0.34161113086E+01  0.47772780333E+02  0.52807559542E+02  0.10000000000E+01 0.  0.
    9000005    1    3    3    0    0  0.22220035724E+02 -0.34161113086E+01 -0.70807752286E+02  0.74297628413E+02  0.10000000000E+01 0.  0.
<mgrwt>
<rscale>  0 0.12500048E+03</rscale>
<asrwt>0</asrwt>
<pdfrwt beam="1">  1        4 0.80054012E-02 0.12500048E+03</pdfrwt>
<pdfrwt beam="2">  1       -4 0.11549243E-01 0.12500048E+03</pdfrwt>
<totfact> 0.10406749E+04</totfact>
</mgrwt>
</event>
<event>
 5    1  0.3296424E-002  0.1249989E+03  0.7818608E-02  0.1235071E+00
         -4   -1    0    0    0  501 -0.00000000000E+00  0.00000000000E+00  0.29296954017E+02  0.29324467850E+02  0.12700000000E+01 0. -1.
          4   -1    0    0  501    0  0.00000000000E+00 -0.00000000000E+00 -0.13323750944E+03  0.13324356203E+03  0.12700000000E+01 0. -1.
         25    2    1    2    0    0  0.00000000000E+00  0.00000000000E+00 -0.10394055543E+03  0.16256802988E+03  0.12499890110E+03 0.  0.
    9000005    1    3    3    0    0 -0.47949304314E+02  0.36383566300E+02 -0.73821224649E+02  0.95254778828E+02  0.10000000000E+01 0.  0.
    9000005    1    3    3    0    0  0.47949304314E+02 -0.36383566300E+02 -0.30119330778E+02  0.67313251054E+02  0.10000000000E+01 0.  0.
<mgrwt>
<rscale>  0 0.12499890E+03</rscale>
<asrwt>0</asrwt>
<pdfrwt beam="2">  1        4 0.20500660E-01 0.12499890E+03</pdfrwt>
<pdfrwt beam="1">  1       -4 0.45098058E-02 0.12499890E+03</pdfrwt>
<totfact> 0.96852353E+03</totfact>
</mgrwt>
</event>
<event>
 5    1  0.3296424E-002  0.1249959E+03  0.7818608E-02  0.1235076E+00
         -4   -1    0    0    0  501 -0.00000000000E+00  0.00000000000E+00  0.32662399783E+02  0.32687080928E+02  0.12700000000E+01 0. -1.
          4   -1    0    0  501    0  0.00000000000E+00 -0.00000000000E+00 -0.11951362734E+03  0.11952037491E+03  0.12700000000E+01 0. -1.
         25    2    1    2    0    0  0.00000000000E+00  0.00000000000E+00 -0.86851227557E+02  0.15220745584E+03  0.12499589548E+03 0.  0.
    9000005    1    3    3    0    0 -0.25975590041E+02  0.10247872142E+02  0.24648514963E+02  0.37259890651E+02  0.10000000000E+01 0.  0.
    9000005    1    3    3    0    0  0.25975590041E+02 -0.10247872142E+02 -0.11149974252E+03  0.11494756519E+03  0.10000000000E+01 0.  0.
<mgrwt>
<rscale>  0 0.12499590E+03</rscale>
<asrwt>0</asrwt>
<pdfrwt beam="2">  1        4 0.18389129E-01 0.12499590E+03</pdfrwt>
<pdfrwt beam="1">  1       -4 0.50274022E-02 0.12499590E+03</pdfrwt>
<totfact> 0.98874613E+03</totfact>
</mgrwt>
</event>
<event>
 5    1  0.3296424E-002  0.1249992E+03  0.7818608E-02  0.1235070E+00
         -4   -1    0    0    0  501 -0.00000000000E+00  0.00000000000E+00  0.92868396908E+02  0.92877080296E+02  0.12700000000E+01 0. -1.
          4   -1    0    0  501    0  0.00000000000E+00 -0.00000000000E+00 -0.42041448978E+02  0.42060626863E+02  0.12700000000E+01 0. -1.
         25    2    1    2    0    0  0.00000000000E+00  0.00000000000E+00  0.50826947930E+02  0.13493770716E+03  0.12499922471E+03 0.  0.
    9000005    1    3    3    0    0  0.47671182551E+02  0.39255495893E+02  0.15078009287E+02  0.63575797027E+02  0.10000000000E+01 0.  0.
    9000005    1    3    3    0    0 -0.47671182551E+02 -0.39255495893E+02  0.35748938643E+02  0.71361910132E+02  0.10000000000E+01 0.  0.
<mgrwt>
<rscale>  0 0.12499922E+03</rscale>
<asrwt>0</asrwt>
<pdfrwt beam="2">  1        4 0.64700584E-02 0.12499922E+03</pdfrwt>
<pdfrwt beam="1">  1       -4 0.14289589E-01 0.12499922E+03</pdfrwt>
<totfact> 0.10239563E+04</totfact>
</mgrwt>
</event>
<event>
 5    1  0.3296424E-002  0.1249999E+03  0.7818608E-02  0.1235069E+00
         -4   -1    0    0    0  501 -0.00000000000E+00  0.00000000000E+00  0.22049392037E+02  0.22085936458E+02  0.12700000000E+01 0.  1.
          4   -1    0    0  501    0  0.00000000000E+00 -0.00000000000E+00 -0.17697340542E+03  0.17697796226E+03  0.12700000000E+01 0.  1.
         25    2    1    2    0    0  0.00000000000E+00  0.00000000000E+00 -0.15492401338E+03  0.19906389871E+03  0.12499994340E+03 0.  0.
    9000005    1    3    3    0    0 -0.36815439168E+02  0.62411807988E+01 -0.15726127633E+03  0.16163674685E+03  0.10000000000E+01 0.  0.
    9000005    1    3    3    0    0  0.36815439168E+02 -0.62411807988E+01  0.23372629487E+01  0.37427151868E+02  0.10000000000E+01 0.  0.
<mgrwt>
<rscale>  0 0.12499994E+03</rscale>
<asrwt>0</asrwt>
<pdfrwt beam="2">  1        4 0.27229838E-01 0.12499994E+03</pdfrwt>
<pdfrwt beam="1">  1       -4 0.33953759E-02 0.12499994E+03</pdfrwt>
<totfact> 0.90293743E+03</totfact>
</mgrwt>
</event>
<event>
 5    1  0.3296424E-002  0.1249996E+03  0.7818608E-02  0.1235070E+00
          4   -1    0    0  501    0  0.00000000000E+00  0.00000000000E+00  0.62892729818E+03  0.62892858044E+03  0.12700000000E+01 0.  1.
         -4   -1    0    0    0  501 -0.00000000000E+00 -0.00000000000E+00 -0.61447044662E+01  0.62745751232E+01  0.12700000000E+01 0.  1.
         25    2    1    2    0    0  0.00000000000E+00  0.00000000000E+00  0.62278259371E+03  0.63520315556E+03  0.12499955922E+03 0.  0.
    9000005    1    3    3    0    0 -0.30535659900E+02  0.29437016231E+01  0.34727183999E+02  0.46347267592E+02  0.10000000000E+01 0.  0.
    9000005    1    3    3    0    0  0.30535659900E+02 -0.29437016231E+01  0.58805540972E+03  0.58885588797E+03  0.10000000000E+01 0.  0.
<mgrwt>
<rscale>  0 0.12499956E+03</rscale>
<asrwt>0</asrwt>
<pdfrwt beam="1">  1        4 0.96768164E-01 0.12499956E+03</pdfrwt>
<pdfrwt beam="2">  1       -4 0.95542755E-03 0.12499956E+03</pdfrwt>
<totfact> 0.46718744E+03</totfact>
</mgrwt>
</event>
<event>
 5    1  0.3296424E-002  0.1249955E+03  0.7818608E-02  0.1235076E+00
          4   -1    0    0  501    0  0.00000000000E+00  0.00000000000E+00  0.39747584437E+03  0.39747787329E+03  0.12700000000E+01 0. -1.
         -4   -1    0    0    0  501 -0.00000000000E+00 -0.00000000000E+00 -0.97838353584E+01  0.98659178144E+01  0.12700000000E+01 0. -1.
         25    2    1    2    0    0  0.00000000000E+00  0.00000000000E+00  0.38769200901E+03  0.40734379111E+03  0.12499548113E+03 0.  0.
    9000005    1    3    3    0    0  0.35245872810E+02  0.51338897140E+02  0.17690814404E+03  0.18755118058E+03  0.10000000000E+01 0.  0.
    9000005    1    3    3    0    0 -0.35245872810E+02 -0.51338897140E+02  0.21078386498E+03  0.21979261053E+03  0.10000000000E+01 0.  0.
<mgrwt>
<rscale>  0 0.12499548E+03</rscale>
<asrwt>0</asrwt>
<pdfrwt beam="1">  1        4 0.61156603E-01 0.12499548E+03</pdfrwt>
<pdfrwt beam="2">  1       -4 0.15116755E-02 0.12499548E+03</pdfrwt>
<totfact> 0.63851117E+03</totfact>
</mgrwt>
</event>
<event>
 5    1  0.3296424E-002  0.1249993E+03  0.7818608E-02  0.1235070E+00
         -4   -1    0    0    0  501 -0.00000000000E+00  0.00000000000E+00  0.45295471159E+03  0.45295649201E+03  0.12700000000E+01 0.  1.
          4   -1    0    0  501    0  0.00000000000E+00 -0.00000000000E+00 -0.85752740960E+01  0.86688076355E+01  0.12700000000E+01 0.  1.
         25    2    1    2    0    0  0.00000000000E+00  0.00000000000E+00  0.44437943750E+03  0.46162529965E+03  0.12499933121E+03 0.  0.
    9000005    1    3    3    0    0 -0.53000220522E+02  0.29217225805E+02  0.16467588812E+03  0.17544747871E+03  0.10000000000E+01 0.  0.
    9000005    1    3    3    0    0  0.53000220522E+02 -0.29217225805E+02  0.27970354938E+03  0.28617782093E+03  0.10000000000E+01 0.  0.
<mgrwt>
<rscale>  0 0.12499933E+03</rscale>
<asrwt>0</asrwt>
<pdfrwt beam="2">  1        4 0.13266043E-02 0.12499933E+03</pdfrwt>
<pdfrwt beam="1">  1       -4 0.69692699E-01 0.12499933E+03</pdfrwt>
<totfact> 0.58970614E+03</totfact>
</mgrwt>
</event>
<event>
 5    1  0.3296424E-002  0.1249950E+03  0.7818608E-02  0.1235077E+00
          4   -1    0    0  501    0  0.00000000000E+00  0.00000000000E+00  0.46786580673E+02  0.46803814279E+02  0.12700000000E+01 0.  1.
         -4   -1    0    0    0  501 -0.00000000000E+00 -0.00000000000E+00 -0.83446658967E+02  0.83456322665E+02  0.12700000000E+01 0.  1.
         25    2    1    2    0    0  0.00000000000E+00  0.00000000000E+00 -0.36660078294E+02  0.13026013694E+03  0.12499496764E+03 0.  0.
    9000005    1    3    3    0    0 -0.60153506151E+02  0.16172273782E+02 -0.23535309996E+02  0.66595026527E+02  0.10000000000E+01 0.  0.
    9000005    1    3    3    0    0  0.60153506151E+02 -0.16172273782E+02 -0.13124768298E+02  0.63665110418E+02  0.10000000000E+01 0.  0.
<mgrwt>
<rscale>  0 0.12499497E+03</rscale>
<asrwt>0</asrwt>
<pdfrwt beam="1">  1        4 0.72000045E-02 0.12499497E+03</pdfrwt>
<pdfrwt beam="2">  1       -4 0.12840017E-01 0.12499497E+03</pdfrwt>
<totfact> 0.10340120E+04</totfact>
</mgrwt>
</event>
<event>
 5    1  0.3296424E-002  0.1249980E+03  0.7818608E-02  0.1235072E+00
          4   -1    0    0  501    0  0.00000000000E+00  0.00000000000E+00  0.12874869302E+02  0.12937355199E+02  0.12700000000E+01 0. -1.
         -4   -1    0    0    0  501 -0.00000000000E+00 -0.00000000000E+00 -0.30259305381E+03  0.30259571893E+03  0.12700000000E+01 0. -1.
         25    2    1    2    0    0  0.00000000000E+00  0.00000000000E+00 -0.28971818450E+03  0.31553307412E+03  0.12499797772E+03 0.  0.
    9000005    1    3    3    0    0  0.10574868771E+02 -0.45765218786E+02 -0.40814813047E+02  0.62234492559E+02  0.10000000000E+01 0.  0.
    9000005    1    3    3    0    0 -0.10574868771E+02  0.45765218786E+02 -0.24890337146E+03  0.25329858156E+03  0.10000000000E+01 0.  0.
<mgrwt>
<rscale>  0 0.12499798E+03</rscale>
<asrwt>0</asrwt>
<pdfrwt beam="1">  1        4 0.19857610E-02 0.12499798E+03</pdfrwt>
<pdfrwt beam="2">  1       -4 0.46557784E-01 0.12499798E+03</pdfrwt>
<totfact> 0.73693882E+03</totfact>
</mgrwt>
</event>
<event>
 5    1  0.3296424E-002  0.1249920E+03  0.7818608E-02  0.1235082E+00
         -4   -1    0    0    0  501 -0.00000000000E+00  0.00000000000E+00  0.11449504242E+02  0.11519724276E+02  0.12700000000E+01 0.  1.
          4   -1    0    0  501    0  0.00000000000E+00 -0.00000000000E+00 -0.34001375706E+03  0.34001612887E+03  0.12700000000E+01 0.  1.
         25    2    1    2    0    0  0.00000000000E+00  0.00000000000E+00 -0.32856425282E+03  0.35153585314E+03  0.12499195100E+03 0.  0.
    9000005    1    3    3    0    0  0.17944779822E+02  0.20184611020E+02 -0.32276446465E+03  0.32389401551E+03  0.10000000000E+01 0.  0.
    9000005    1    3    3    0    0 -0.17944779822E+02 -0.20184611020E+02 -0.57997881706E+01  0.27641837633E+02  0.10000000000E+01 0.  0.
<mgrwt>
<rscale>  0 0.12499195E+03</rscale>
<asrwt>0</asrwt>
<pdfrwt beam="2">  1        4 0.52315385E-01 0.12499195E+03</pdfrwt>
<pdfrwt beam="1">  1       -4 0.17670464E-02 0.12499195E+03</pdfrwt>
<totfact> 0.69568317E+03</totfact>
</mgrwt>
</event>
<event>
 5    1  0.3296424E-002  0.1250125E+03  0.7818608E-02  0.1235050E+00
          4   -1    0    0  501    0  0.00000000000E+00  0.00000000000E+00  0.32818753839E+02  0.32843317486E+02  0.12700000000E+01 0. -1.
         -4   -1    0    0    0  501 -0.00000000000E+00 -0.00000000000E+00 -0.11897626368E+03  0.11898304173E+03  0.12700000000E+01 0. -1.
         25    2    1    2    0    0  0.00000000000E+00  0.00000000000E+00 -0.86157509838E+02  0.15182635921E+03  0.12501250678E+03 0.  0.
    9000005    1    3    3    0    0  0.22550969517E+02 -0.19665546184E+02  0.23560662217E+02  0.38097043678E+02  0.10000000000E+01 0.  0.
    9000005    1    3    3    0    0 -0.22550969517E+02  0.19665546184E+02 -0.10971817206E+03  0.11372931554E+03  0.10000000000E+01 0.  0.
<mgrwt>
<rscale>  0 0.12501251E+03</rscale>
<asrwt>0</asrwt>
<pdfrwt beam="1">  1        4 0.50514500E-02 0.12501251E+03</pdfrwt>
<pdfrwt beam="2">  1       -4 0.18306451E-01 0.12501251E+03</pdfrwt>
<totfact> 0.98913041E+03</totfact>
</mgrwt>
</event>
<event>
 5    1  0.3296424E-002  0.1249990E+03  0.7818608E-02  0.1235071E+00
          4   -1    0    0  501    0  0.00000000000E+00  0.00000000000E+00  0.17697478269E+03  0.17697933950E+03  0.12700000000E+01 0.  1.
         -4   -1    0    0    0  501 -0.00000000000E+00 -0.00000000000E+00 -0.22048903710E+02  0.22085448938E+02  0.12700000000E+01 0.  1.
         25    2    1    2    0    0  0.00000000000E+00  0.00000000000E+00  0.15492587898E+03  0.19906478844E+03  0.12499904806E+03 0.  0.
    9000005    1    3    3    0    0  0.49780021014E+02  0.21505237030E+02  0.12692542717E+03  0.13802749645E+03  0.10000000000E+01 0.  0.
    9000005    1    3    3    0    0 -0.49780021014E+02 -0.21505237030E+02  0.28000451808E+02  0.61037291989E+02  0.10000000000E+01 0.  0.
<mgrwt>
<rscale>  0 0.12499905E+03</rscale>
<asrwt>0</asrwt>
<pdfrwt beam="1">  1        4 0.27230051E-01 0.12499905E+03</pdfrwt>
<pdfrwt beam="2">  1       -4 0.33953008E-02 0.12499905E+03</pdfrwt>
<totfact> 0.90295401E+03</totfact>
</mgrwt>
</event>
<event>
 5    1  0.3296424E-002  0.1249995E+03  0.7818608E-02  0.1235070E+00
         -4   -1    0    0    0  501 -0.00000000000E+00  0.00000000000E+00  0.68997611432E+02  0.69009298528E+02  0.12700000000E+01 0. -1.
          4   -1    0    0  501    0  0.00000000000E+00 -0.00000000000E+00 -0.56590205162E+02  0.56604454067E+02  0.12700000000E+01 0. -1.
         25    2    1    2    0    0  0.00000000000E+00  0.00000000000E+00  0.12407406270E+02  0.12561375259E+03  0.12499948444E+03 0.  0.
    9000005    1    3    3    0    0 -0.31366054102E+02  0.25322210160E+02 -0.41782122585E+02  0.58067111561E+02  0.10000000000E+01 0.  0.
    9000005    1    3    3    0    0  0.31366054102E+02 -0.25322210160E+02  0.54189528855E+02  0.67546641034E+02  0.10000000000E+01 0.  0.
<mgrwt>
<rscale>  0 0.12499948E+03</rscale>
<asrwt>0</asrwt>
<pdfrwt beam="2">  1        4 0.87081804E-02 0.12499948E+03</pdfrwt>
<pdfrwt beam="1">  1       -4 0.10617012E-01 0.12499948E+03</pdfrwt>
<totfact> 0.10439565E+04</totfact>
</mgrwt>
</event>
<event>
 5    1  0.3296424E-002  0.1250013E+03  0.7818608E-02  0.1235067E+00
         -4   -1    0    0    0  501 -0.00000000000E+00  0.00000000000E+00  0.28826296770E+01  0.31499926753E+01  0.12700000000E+01 0.  1.
          4   -1    0    0  501    0  0.00000000000E+00 -0.00000000000E+00 -0.12948013118E+04  0.12948019347E+04  0.12700000000E+01 0.  1.
         25    2    1    2    0    0  0.00000000000E+00  0.00000000000E+00 -0.12919186822E+04  0.12979519273E+04  0.12500129757E+03 0.  0.
    9000005    1    3    3    0    0 -0.57354915401E+02  0.20436745567E+02 -0.49981937104E+03  0.50351529327E+03  0.10000000000E+01 0.  0.
    9000005    1    3    3    0    0  0.57354915401E+02 -0.20436745567E+02 -0.79209931111E+03  0.79443663407E+03  0.10000000000E+01 0.  0.
<mgrwt>
<rscale>  0 0.12500130E+03</rscale>
<asrwt>0</asrwt>
<pdfrwt beam="2">  1        4 0.19922037E+00 0.12500130E+03</pdfrwt>
<pdfrwt beam="1">  1       -4 0.46409682E-03 0.12500130E+03</pdfrwt>
<totfact> 0.22276341E+03</totfact>
</mgrwt>
</event>
<event>
 5    1  0.3296424E-002  0.1249939E+03  0.7818608E-02  0.1235079E+00
          4   -1    0    0  501    0  0.00000000000E+00  0.00000000000E+00  0.86183970106E+02  0.86193326907E+02  0.12700000000E+01 0.  1.
         -4   -1    0    0    0  501 -0.00000000000E+00 -0.00000000000E+00 -0.45299419388E+02  0.45317218547E+02  0.12700000000E+01 0.  1.
         25    2    1    2    0    0  0.00000000000E+00  0.00000000000E+00  0.40884550719E+02  0.13151054545E+03  0.12499390816E+03 0.  0.
    9000005    1    3    3    0    0 -0.26405007517E+02  0.36707111278E+02 -0.24936772992E+02  0.51647643582E+02  0.10000000000E+01 0.  0.
    9000005    1    3    3    0    0  0.26405007517E+02 -0.36707111278E+02  0.65821323711E+02  0.79862901872E+02  0.10000000000E+01 0.  0.
<mgrwt>
<rscale>  0 0.12499391E+03</rscale>
<asrwt>0</asrwt>
<pdfrwt beam="1">  1        4 0.13261161E-01 0.12499391E+03</pdfrwt>
<pdfrwt beam="2">  1       -4 0.69712304E-02 0.12499391E+03</pdfrwt>
<totfact> 0.10313574E+04</totfact>
</mgrwt>
</event>
<event>
 5    1  0.3296424E-002  0.1249995E+03  0.7818608E-02  0.1235070E+00
         -4   -1    0    0    0  501 -0.00000000000E+00  0.00000000000E+00  0.96832589843E+01  0.97661867972E+01  0.12700000000E+01 0.  1.
          4   -1    0    0  501    0  0.00000000000E+00 -0.00000000000E+00 -0.40159550809E+03  0.40159751620E+03  0.12700000000E+01 0.  1.
         25    2    1    2    0    0  0.00000000000E+00  0.00000000000E+00 -0.39191224911E+03  0.41136370300E+03  0.12499954058E+03 0.  0.
    9000005    1    3    3    0    0 -0.18012020834E+02  0.55966620522E+02 -0.12625957848E+03  0.13928092714E+03  0.10000000000E+01 0.  0.
    9000005    1    3    3    0    0  0.18012020834E+02 -0.55966620522E+02 -0.26565267063E+03  0.27208277586E+03  0.10000000000E+01 0.  0.
<mgrwt>
<rscale>  0 0.12499954E+03</rscale>
<asrwt>0</asrwt>
<pdfrwt beam="2">  1        4 0.61790445E-01 0.12499954E+03</pdfrwt>
<pdfrwt beam="1">  1       -4 0.14962660E-02 0.12499954E+03</pdfrwt>
<totfact> 0.63463023E+03</totfact>
</mgrwt>
</event>
<event>
 5    1  0.3296424E-002  0.1250324E+03  0.7818608E-02  0.1235019E+00
         -4   -1    0    0    0  501 -0.00000000000E+00  0.00000000000E+00  0.69543875411E+02  0.69555470721E+02  0.12700000000E+01 0.  1.
          4   -1    0    0  501    0  0.00000000000E+00 -0.00000000000E+00 -0.56175254618E+02  0.56189608749E+02  0.12700000000E+01 0.  1.
         25    2    1    2    0    0  0.00000000000E+00  0.00000000000E+00  0.13368620793E+02  0.12574507947E+03  0.12503241575E+03 0.  0.
    9000005    1    3    3    0    0 -0.38484811782E+02  0.34140368281E+02  0.42392047438E+02  0.66668817075E+02  0.10000000000E+01 0.  0.
    9000005    1    3    3    0    0  0.38484811782E+02 -0.34140368281E+02 -0.29023426645E+02  0.59076262394E+02  0.10000000000E+01 0.  0.
<mgrwt>
<rscale>  0 0.12503242E+03</rscale>
<asrwt>0</asrwt>
<pdfrwt beam="2">  1        4 0.86443430E-02 0.12503242E+03</pdfrwt>
<pdfrwt beam="1">  1       -4 0.10701054E-01 0.12503242E+03</pdfrwt>
<totfact> 0.10428923E+04</totfact>
</mgrwt>
</event>
<event>
 5    1  0.3296424E-002  0.1250012E+03  0.7818608E-02  0.1235067E+00
         -4   -1    0    0    0  501 -0.00000000000E+00  0.00000000000E+00  0.56048516516E+02  0.56062903097E+02  0.12700000000E+01 0.  1.
          4   -1    0    0  501    0  0.00000000000E+00 -0.00000000000E+00 -0.69666284195E+02  0.69677859134E+02  0.12700000000E+01 0.  1.
         25    2    1    2    0    0  0.00000000000E+00  0.00000000000E+00 -0.13617767679E+02  0.12574076223E+03  0.12500118275E+03 0.  0.
    9000005    1    3    3    0    0 -0.52006917840E+02 -0.26618422053E+02  0.15504877027E+02  0.60453793160E+02  0.10000000000E+01 0.  0.
    9000005    1    3    3    0    0  0.52006917840E+02  0.26618422053E+02 -0.29122644706E+02  0.65286969071E+02  0.10000000000E+01 0.  0.
<mgrwt>
<rscale>  0 0.12500118E+03</rscale>
<asrwt>0</asrwt>
<pdfrwt beam="2">  1        4 0.10719887E-01 0.12500118E+03</pdfrwt>
<pdfrwt beam="1">  1       -4 0.86248457E-02 0.12500118E+03</pdfrwt>
<totfact> 0.10436369E+04</totfact>
</mgrwt>
</event>
<event>
 5    1  0.3296424E-002  0.1249977E+03  0.7818608E-02  0.1235073E+00
          4   -1    0    0  501    0  0.00000000000E+00  0.00000000000E+00  0.92082944167E+03  0.92083031745E+03  0.12700000000E+01 0. -1.
         -4   -1    0    0    0  501 -0.00000000000E+00 -0.00000000000E+00 -0.41459901553E+01  0.43361427984E+01  0.12700000000E+01 0. -1.
         25    2    1    2    0    0  0.00000000000E+00  0.00000000000E+00  0.91668345151E+03  0.92516646025E+03  0.12499771557E+03 0.  0.
    9000005    1    3    3    0    0  0.62209810043E+02  0.43316058961E+01  0.48820914355E+03  0.49217678848E+03  0.10000000000E+01 0.  0.
    9000005    1    3    3    0    0 -0.62209810043E+02 -0.43316058961E+01  0.42847430796E+03  0.43298967177E+03  0.10000000000E+01 0.  0.
<mgrwt>
<rscale>  0 0.12499772E+03</rscale>
<asrwt>0</asrwt>
<pdfrwt beam="1">  1        4 0.14168070E+00 0.12499772E+03</pdfrwt>
<pdfrwt beam="2">  1       -4 0.65253942E-03 0.12499772E+03</pdfrwt>
<totfact> 0.33216053E+03</totfact>
</mgrwt>
</event>
<event>
 5    1  0.3296424E-002  0.1249917E+03  0.7818608E-02  0.1235082E+00
         -4   -1    0    0    0  501 -0.00000000000E+00  0.00000000000E+00  0.83379062236E+02  0.83388733767E+02  0.12700000000E+01 0.  1.
          4   -1    0    0  501    0  0.00000000000E+00 -0.00000000000E+00 -0.46822072551E+02  0.46839293098E+02  0.12700000000E+01 0.  1.
         25    2    1    2    0    0  0.00000000000E+00  0.00000000000E+00  0.36556989685E+02  0.13022802687E+03  0.12499170167E+03 0.  0.
    9000005    1    3    3    0    0 -0.29587099383E+02 -0.49171117819E+00  0.75621387036E+02  0.81211036239E+02  0.10000000000E+01 0.  0.
    9000005    1    3    3    0    0  0.29587099383E+02  0.49171117819E+00 -0.39064397350E+02  0.49016990627E+02  0.10000000000E+01 0.  0.
<mgrwt>
<rscale>  0 0.12499170E+03</rscale>
<asrwt>0</asrwt>
<pdfrwt beam="2">  1        4 0.72054644E-02 0.12499170E+03</pdfrwt>
<pdfrwt beam="1">  1       -4 0.12829617E-01 0.12499170E+03</pdfrwt>
<totfact> 0.10341569E+04</totfact>
</mgrwt>
</event>
<event>
 5    1  0.3296424E-002  0.1250166E+03  0.7818608E-02  0.1235043E+00
         -4   -1    0    0    0  501 -0.00000000000E+00  0.00000000000E+00  0.15734936302E+02  0.15786105297E+02  0.12700000000E+01 0.  1.
          4   -1    0    0  501    0  0.00000000000E+00 -0.00000000000E+00 -0.24786334179E+03  0.24786659537E+03  0.12700000000E+01 0.  1.
         25    2    1    2    0    0  0.00000000000E+00  0.00000000000E+00 -0.23212840549E+03  0.26365270067E+03  0.12501659865E+03 0.  0.
    9000005    1    3    3    0    0 -0.16680852406E+01 -0.62213201450E+02 -0.10394511885E+03  0.12115631504E+03  0.10000000000E+01 0.  0.
    9000005    1    3    3    0    0  0.16680852406E+01  0.62213201450E+02 -0.12818328664E+03  0.14249638563E+03  0.10000000000E+01 0.  0.
<mgrwt>
<rscale>  0 0.12501660E+03</rscale>
<asrwt>0</asrwt>
<pdfrwt beam="2">  1        4 0.38137005E-01 0.12501660E+03</pdfrwt>
<pdfrwt beam="1">  1       -4 0.24249460E-02 0.12501660E+03</pdfrwt>
<totfact> 0.80366485E+03</totfact>
</mgrwt>
</event>
<event>
 5    1  0.3296424E-002  0.1250010E+03  0.7818608E-02  0.1235068E+00
         -4   -1    0    0    0  501 -0.00000000000E+00  0.00000000000E+00  0.50212259148E+02  0.50228317400E+02  0.12700000000E+01 0.  1.
          4   -1    0    0  501    0  0.00000000000E+00 -0.00000000000E+00 -0.77762282077E+02  0.77772652094E+02  0.12700000000E+01 0.  1.
         25    2    1    2    0    0  0.00000000000E+00  0.00000000000E+00 -0.27550022928E+02  0.12800096949E+03  0.12500097771E+03 0.  0.
    9000005    1    3    3    0    0 -0.57845597199E+02  0.57999559972E+01  0.97002469821E+01  0.58947836232E+02  0.10000000000E+01 0.  0.
    9000005    1    3    3    0    0  0.57845597199E+02 -0.57999559972E+01 -0.37250269911E+02  0.69053133262E+02  0.10000000000E+01 0.  0.
<mgrwt>
<rscale>  0 0.12500098E+03</rscale>
<asrwt>0</asrwt>
<pdfrwt beam="2">  1        4 0.11965461E-01 0.12500098E+03</pdfrwt>
<pdfrwt beam="1">  1       -4 0.77269959E-02 0.12500098E+03</pdfrwt>
<totfact> 0.10387237E+04</totfact>
</mgrwt>
</event>
<event>
 5    1  0.3296424E-002  0.1250024E+03  0.7818608E-02  0.1235066E+00
         -4   -1    0    0    0  501 -0.00000000000E+00  0.00000000000E+00  0.41635726784E+02  0.41655091463E+02  0.12700000000E+01 0.  1.
          4   -1    0    0  501    0  0.00000000000E+00 -0.00000000000E+00 -0.93777717162E+02  0.93786316359E+02  0.12700000000E+01 0.  1.
         25    2    1    2    0    0  0.00000000000E+00  0.00000000000E+00 -0.52141990378E+02  0.13544140782E+03  0.12500235115E+03 0.  0.
    9000005    1    3    3    0    0 -0.34660735530E+02  0.27768735924E+02 -0.73707630510E+02  0.86059770379E+02  0.10000000000E+01 0.  0.
    9000005    1    3    3    0    0  0.34660735530E+02 -0.27768735924E+02  0.21565640131E+02  0.49381637443E+02  0.10000000000E+01 0.  0.
<mgrwt>
<rscale>  0 0.12500235E+03</rscale>
<asrwt>0</asrwt>
<pdfrwt beam="2">  1        4 0.14429492E-01 0.12500235E+03</pdfrwt>
<pdfrwt beam="1">  1       -4 0.64076475E-02 0.12500235E+03</pdfrwt>
<totfact> 0.10228233E+04</totfact>
</mgrwt>
</event>
<event>
 5    1  0.3296424E-002  0.1250015E+03  0.7818608E-02  0.1235067E+00
         -4   -1    0    0    0  501 -0.00000000000E+00  0.00000000000E+00  0.41198436715E+02  0.41218006838E+02  0.12700000000E+01 0. -1.
          4   -1    0    0  501    0  0.00000000000E+00 -0.00000000000E+00 -0.94771476680E+02  0.94779985715E+02  0.12700000000E+01 0. -1.
         25    2    1    2    0    0  0.00000000000E+00  0.00000000000E+00 -0.53573039965E+02  0.13599799255E+03  0.12500153346E+03 0.  0.
    9000005    1    3    3    0    0  0.30969848666E+02  0.43129383556E+02  0.90681875031E+01  0.53874922524E+02  0.10000000000E+01 0.  0.
    9000005    1    3    3    0    0 -0.30969848666E+02 -0.43129383556E+02 -0.62641227468E+02  0.82123070030E+02  0.10000000000E+01 0.  0.
<mgrwt>
<rscale>  0 0.12500153E+03</rscale>
<asrwt>0</asrwt>
<pdfrwt beam="2">  1        4 0.14582387E-01 0.12500153E+03</pdfrwt>
<pdfrwt beam="1">  1       -4 0.63403810E-02 0.12500153E+03</pdfrwt>
<totfact> 0.10216725E+04</totfact>
</mgrwt>
</event>
<event>
 5    1  0.3296424E-002  0.1249989E+03  0.7818608E-02  0.1235071E+00
          4   -1    0    0  501    0  0.00000000000E+00  0.00000000000E+00  0.32040804947E+03  0.32041056641E+03  0.12700000000E+01 0.  1.
         -4   -1    0    0    0  501 -0.00000000000E+00 -0.00000000000E+00 -0.12155621473E+02  0.12221785196E+02  0.12700000000E+01 0.  1.
         25    2    1    2    0    0  0.00000000000E+00  0.00000000000E+00  0.30825242800E+03  0.33263235161E+03  0.12499888786E+03 0.  0.
    9000005    1    3    3    0    0  0.34908555092E+02 -0.30272076189E+02  0.26608711864E+03  0.27007102866E+03  0.10000000000E+01 0.  0.
    9000005    1    3    3    0    0 -0.34908555092E+02  0.30272076189E+02  0.42165309362E+02  0.62561322948E+02  0.10000000000E+01 0.  0.
<mgrwt>
<rscale>  0 0.12499889E+03</rscale>
<asrwt>0</asrwt>
<pdfrwt beam="1">  1        4 0.49298830E-01 0.12499889E+03</pdfrwt>
<pdfrwt beam="2">  1       -4 0.18753787E-02 0.12499889E+03</pdfrwt>
<totfact> 0.71680206E+03</totfact>
</mgrwt>
</event>
<event>
 5    1  0.3296424E-002  0.1249928E+03  0.7818608E-02  0.1235080E+00
          4   -1    0    0  501    0  0.00000000000E+00  0.00000000000E+00  0.10806874495E+03  0.10807620707E+03  0.12700000000E+01 0. -1.
         -4   -1    0    0    0  501 -0.00000000000E+00 -0.00000000000E+00 -0.36121961572E+02  0.36144280430E+02  0.12700000000E+01 0. -1.
         25    2    1    2    0    0  0.00000000000E+00  0.00000000000E+00  0.71946783378E+02  0.14422048750E+03  0.12499283730E+03 0.  0.
    9000005    1    3    3    0    0 -0.43656464160E+02 -0.43563277086E+02  0.47578212864E+02  0.77899501364E+02  0.10000000000E+01 0.  0.
    9000005    1    3    3    0    0  0.43656464160E+02  0.43563277086E+02  0.24368570514E+02  0.66320986137E+02  0.10000000000E+01 0.  0.
<mgrwt>
<rscale>  0 0.12499284E+03</rscale>
<asrwt>0</asrwt>
<pdfrwt beam="1">  1        4 0.16628252E-01 0.12499284E+03</pdfrwt>
<pdfrwt beam="2">  1       -4 0.55595157E-02 0.12499284E+03</pdfrwt>
<totfact> 0.10048471E+04</totfact>
</mgrwt>
</event>
<event>
 5    1  0.3296424E-002  0.1249969E+03  0.7818608E-02  0.1235074E+00
          4   -1    0    0  501    0  0.00000000000E+00  0.00000000000E+00  0.50743486229E+02  0.50759376421E+02  0.12700000000E+01 0. -1.
         -4   -1    0    0    0  501 -0.00000000000E+00 -0.00000000000E+00 -0.76943295556E+02  0.76953775938E+02  0.12700000000E+01 0. -1.
         25    2    1    2    0    0  0.00000000000E+00  0.00000000000E+00 -0.26199809328E+02  0.12771315236E+03  0.12499687707E+03 0.  0.
    9000005    1    3    3    0    0 -0.17199964829E+02  0.59979940390E+02 -0.16583209384E+02  0.64571161309E+02  0.10000000000E+01 0.  0.
    9000005    1    3    3    0    0  0.17199964829E+02 -0.59979940390E+02 -0.96165999436E+01  0.63141991050E+02  0.10000000000E+01 0.  0.
<mgrwt>
<rscale>  0 0.12499688E+03</rscale>
<asrwt>0</asrwt>
<pdfrwt beam="1">  1        4 0.78087187E-02 0.12499688E+03</pdfrwt>
<pdfrwt beam="2">  1       -4 0.11839459E-01 0.12499688E+03</pdfrwt>
<totfact> 0.10394420E+04</totfact>
</mgrwt>
</event>
<event>
 5    1  0.3296424E-002  0.1249970E+03  0.7818608E-02  0.1235074E+00
          4   -1    0    0  501    0  0.00000000000E+00  0.00000000000E+00  0.25258864863E+01  0.28271898666E+01  0.12700000000E+01 0. -1.
         -4   -1    0    0    0  501 -0.00000000000E+00 -0.00000000000E+00 -0.14590696518E+04  0.14590702045E+04  0.12700000000E+01 0. -1.
         25    2    1    2    0    0  0.00000000000E+00  0.00000000000E+00 -0.14565437653E+04  0.14618973944E+04  0.12499700567E+03 0.  0.
    9000005    1    3    3    0    0  0.10553870058E+02 -0.43274938700E+02 -0.21567464862E+03  0.22022865061E+03  0.10000000000E+01 0.  0.
    9000005    1    3    3    0    0 -0.10553870058E+02  0.43274938700E+02 -0.12408691167E+04  0.12416687438E+04  0.10000000000E+01 0.  0.
<mgrwt>
<rscale>  0 0.12499701E+03</rscale>
<asrwt>0</asrwt>
<pdfrwt beam="1">  1        4 0.41181879E-03 0.12499701E+03</pdfrwt>
<pdfrwt beam="2">  1       -4 0.22449484E+00 0.12499701E+03</pdfrwt>
<totfact> 0.18691671E+03</totfact>
</mgrwt>
</event>
<event>
 5    1  0.3296424E-002  0.1250042E+03  0.7818608E-02  0.1235063E+00
          4   -1    0    0  501    0  0.00000000000E+00  0.00000000000E+00  0.76836872490E+01  0.77879361669E+01  0.12700000000E+01 0.  1.
         -4   -1    0    0    0  501 -0.00000000000E+00 -0.00000000000E+00 -0.50488535941E+03  0.50488695670E+03  0.12700000000E+01 0.  1.
         25    2    1    2    0    0  0.00000000000E+00  0.00000000000E+00 -0.49720167217E+03  0.51267489287E+03  0.12500417184E+03 0.  0.
    9000005    1    3    3    0    0  0.24843125759E+02  0.47608813863E+02 -0.11750594674E+03  0.12919917792E+03  0.10000000000E+01 0.  0.
    9000005    1    3    3    0    0 -0.24843125759E+02 -0.47608813863E+02 -0.37969572542E+03  0.38347571496E+03  0.10000000000E+01 0.  0.
<mgrwt>
<rscale>  0 0.12500417E+03</rscale>
<asrwt>0</asrwt>
<pdfrwt beam="1">  1        4 0.11902481E-02 0.12500417E+03</pdfrwt>
<pdfrwt beam="2">  1       -4 0.77682787E-01 0.12500417E+03</pdfrwt>
<totfact> 0.54889167E+03</totfact>
</mgrwt>
</event>
<event>
 5    1  0.3296424E-002  0.1249983E+03  0.7818608E-02  0.1235072E+00
         -4   -1    0    0    0  501 -0.00000000000E+00  0.00000000000E+00  0.14252482487E+03  0.14253048307E+03  0.12700000000E+01 0. -1.
          4   -1    0    0  501    0  0.00000000000E+00 -0.00000000000E+00 -0.27385855098E+02  0.27415286966E+02  0.12700000000E+01 0. -1.
         25    2    1    2    0    0  0.00000000000E+00  0.00000000000E+00  0.11513896977E+03  0.16994577004E+03  0.12499832956E+03 0.  0.
    9000005    1    3    3    0    0 -0.86784674592E+01  0.16400937250E+02  0.13869964305E+03  0.13993890640E+03  0.10000000000E+01 0.  0.
    9000005    1    3    3    0    0  0.86784674592E+01 -0.16400937250E+02 -0.23560673281E+02  0.30006863641E+02  0.10000000000E+01 0.  0.
<mgrwt>
<rscale>  0 0.12499833E+03</rscale>
<asrwt>0</asrwt>
<pdfrwt beam="2">  1        4 0.42159076E-02 0.12499833E+03</pdfrwt>
<pdfrwt beam="1">  1       -4 0.21929596E-01 0.12499833E+03</pdfrwt>
<totfact> 0.95462324E+03</totfact>
</mgrwt>
</event>
<event>
 5    1  0.3296424E-002  0.1249994E+03  0.7818608E-02  0.1235070E+00
         -4   -1    0    0    0  501 -0.00000000000E+00  0.00000000000E+00  0.41684721789E+01  0.43576438939E+01  0.12700000000E+01 0. -1.
          4   -1    0    0  501    0  0.00000000000E+00 -0.00000000000E+00 -0.91610368315E+03  0.91610456346E+03  0.12700000000E+01 0. -1.
         25    2    1    2    0    0  0.00000000000E+00  0.00000000000E+00 -0.91193521097E+03  0.92046220735E+03  0.12499938458E+03 0.  0.
    9000005    1    3    3    0    0  0.50995960389E+02 -0.20452868042E+01 -0.19041943895E+03  0.19714292760E+03  0.10000000000E+01 0.  0.
    9000005    1    3    3    0    0 -0.50995960389E+02  0.20452868042E+01 -0.72151577203E+03  0.72331927975E+03  0.10000000000E+01 0.  0.
<mgrwt>
<rscale>  0 0.12499938E+03</rscale>
<asrwt>0</asrwt>
<pdfrwt beam="2">  1        4 0.14095349E+00 0.12499938E+03</pdfrwt>
<pdfrwt beam="1">  1       -4 0.65592353E-03 0.12499938E+03</pdfrwt>
<totfact> 0.33388896E+03</totfact>
</mgrwt>
</event>
<event>
 5    1  0.3296424E-002  0.1250008E+03  0.7818608E-02  0.1235068E+00
          4   -1    0    0  501    0  0.00000000000E+00  0.00000000000E+00  0.22141232785E+03  0.22141597012E+03  0.12700000000E+01 0. -1.
         -4   -1    0    0    0  501 -0.00000000000E+00 -0.00000000000E+00 -0.17616006987E+02  0.17661727044E+02  0.12700000000E+01 0. -1.
         25    2    1    2    0    0  0.00000000000E+00  0.00000000000E+00  0.20379632086E+03  0.23907769716E+03  0.12500081953E+03 0.  0.
    9000005    1    3    3    0    0 -0.26324619524E+02 -0.53363765949E+02  0.13841968475E+03  0.15067078760E+03  0.10000000000E+01 0.  0.
    9000005    1    3    3    0    0  0.26324619524E+02  0.53363765949E+02  0.65376636109E+02  0.88406909562E+02  0.10000000000E+01 0.  0.
<mgrwt>
<rscale>  0 0.12500082E+03</rscale>
<asrwt>0</asrwt>
<pdfrwt beam="1">  1        4 0.34067233E-01 0.12500082E+03</pdfrwt>
<pdfrwt beam="2">  1       -4 0.27139519E-02 0.12500082E+03</pdfrwt>
<totfact> 0.83933384E+03</totfact>
</mgrwt>
</event>
<event>
 5    1  0.3296424E-002  0.1250004E+03  0.7818608E-02  0.1235069E+00
         -4   -1    0    0    0  501 -0.00000000000E+00  0.00000000000E+00  0.36179365280E+02  0.36201648748E+02  0.12700000000E+01 0. -1.
          4   -1    0    0  501    0  0.00000000000E+00 -0.00000000000E+00 -0.10791048917E+03  0.10791796224E+03  0.12700000000E+01 0. -1.
         25    2    1    2    0    0  0.00000000000E+00  0.00000000000E+00 -0.71731123895E+02  0.14411961099E+03  0.12500043254E+03 0.  0.
    9000005    1    3    3    0    0  0.26079413242E+02 -0.51257279714E+02 -0.76751559003E+01  0.58028893983E+02  0.10000000000E+01 0.  0.
    9000005    1    3    3    0    0 -0.26079413242E+02  0.51257279714E+02 -0.64055967994E+02  0.86090717005E+02  0.10000000000E+01 0.  0.
<mgrwt>
<rscale>  0 0.12500043E+03</rscale>
<asrwt>0</asrwt>
<pdfrwt beam="2">  1        4 0.16603903E-01 0.12500043E+03</pdfrwt>
<pdfrwt beam="1">  1       -4 0.55683452E-02 0.12500043E+03</pdfrwt>
<totfact> 0.10048809E+04</totfact>
</mgrwt>
</event>
<event>
 4    1  0.3296424E-002  0.1251343E+03  0.7818608E-02  0.1234859E+00
          4   -1    0    0  501    0  0.00000000000E+00  0.00000000000E+00  0.26542314863E+02  0.26572681052E+02  0.12700000000E+01 0.  1.
         -4   -1    0    0    0  501 -0.00000000000E+00 -0.00000000000E+00 -0.14736971856E+03  0.14737519075E+03  0.12700000000E+01 0.  1.
    9000005    1    1    2    0    0 -0.34599629178E+02  0.17142582837E+02  0.80070394463E+01  0.39447625610E+02  0.10000000000E+01 0.  0.
    9000005    1    1    2    0    0  0.34599629178E+02 -0.17142582837E+02 -0.12883444315E+03  0.13450024619E+03  0.10000000000E+01 0.  0.
<mgrwt>
<rscale>  0 0.12513433E+03</rscale>
<asrwt>0</asrwt>
<pdfrwt beam="1">  1        4 0.40861899E-02 0.12513433E+03</pdfrwt>
<pdfrwt beam="2">  1       -4 0.22675021E-01 0.12513433E+03</pdfrwt>
<totfact> 0.94432993E+03</totfact>
</mgrwt>
</event>
<event>
 5    1  0.3296424E-002  0.1250058E+03  0.7818608E-02  0.1235060E+00
          4   -1    0    0  501    0  0.00000000000E+00  0.00000000000E+00  0.40747288833E+02  0.40767075530E+02  0.12700000000E+01 0. -1.
         -4   -1    0    0    0  501 -0.00000000000E+00 -0.00000000000E+00 -0.95826940573E+02  0.95835355895E+02  0.12700000000E+01 0. -1.
         25    2    1    2    0    0  0.00000000000E+00  0.00000000000E+00 -0.55079651739E+02  0.13660243143E+03  0.12500582481E+03 0.  0.
    9000005    1    3    3    0    0 -0.25932178717E+02  0.16296409932E+02 -0.87068768314E+02  0.92303961374E+02  0.10000000000E+01 0.  0.
    9000005    1    3    3    0    0  0.25932178717E+02 -0.16296409932E+02  0.31989116574E+02  0.44298470051E+02  0.10000000000E+01 0.  0.
<mgrwt>
<rscale>  0 0.12500582E+03</rscale>
<asrwt>0</asrwt>
<pdfrwt beam="1">  1        4 0.62709831E-02 0.12500582E+03</pdfrwt>
<pdfrwt beam="2">  1       -4 0.14744776E-01 0.12500582E+03</pdfrwt>
<totfact> 0.10203065E+04</totfact>
</mgrwt>
</event>
<event>
 5    1  0.3296424E-002  0.1249971E+03  0.7818608E-02  0.1235074E+00
          4   -1    0    0  501    0  0.00000000000E+00  0.00000000000E+00  0.19867002164E+02  0.19907553215E+02  0.12700000000E+01 0. -1.
         -4   -1    0    0    0  501 -0.00000000000E+00 -0.00000000000E+00 -0.19636770055E+03  0.19637180734E+03  0.12700000000E+01 0. -1.
         25    2    1    2    0    0  0.00000000000E+00  0.00000000000E+00 -0.17650069838E+03  0.21627936056E+03  0.12499706106E+03 0.  0.
    9000005    1    3    3    0    0  0.55871894137E+01 -0.45263955665E+02 -0.14332459592E+02  0.47816961070E+02  0.10000000000E+01 0.  0.
    9000005    1    3    3    0    0 -0.55871894137E+01  0.45263955665E+02 -0.16216823879E+03  0.16846239949E+03  0.10000000000E+01 0.  0.
<mgrwt>
<rscale>  0 0.12499706E+03</rscale>
<asrwt>0</asrwt>
<pdfrwt beam="1">  1        4 0.30598972E-02 0.12499706E+03</pdfrwt>
<pdfrwt beam="2">  1       -4 0.30213849E-01 0.12499706E+03</pdfrwt>
<totfact> 0.87466282E+03</totfact>
</mgrwt>
</event>
<event>
 5    1  0.3296424E-002  0.1249947E+03  0.7818608E-02  0.1235078E+00
         -4   -1    0    0    0  501 -0.00000000000E+00  0.00000000000E+00  0.38574929580E+02  0.38595829984E+02  0.12700000000E+01 0.  1.
          4   -1    0    0  501    0  0.00000000000E+00 -0.00000000000E+00 -0.10120311041E+03  0.10121107872E+03  0.12700000000E+01 0.  1.
         25    2    1    2    0    0  0.00000000000E+00  0.00000000000E+00 -0.62628180827E+02  0.13980690871E+03  0.12499473064E+03 0.  0.
    9000005    1    3    3    0    0 -0.44472685303E+02 -0.43077345590E+02 -0.21860049632E+02  0.65668403445E+02  0.10000000000E+01 0.  0.
    9000005    1    3    3    0    0  0.44472685303E+02  0.43077345590E+02 -0.40768131195E+02  0.74138505260E+02  0.10000000000E+01 0.  0.
<mgrwt>
<rscale>  0 0.12499473E+03</rscale>
<asrwt>0</asrwt>
<pdfrwt beam="2">  1        4 0.15571930E-01 0.12499473E+03</pdfrwt>
<pdfrwt beam="1">  1       -4 0.59368253E-02 0.12499473E+03</pdfrwt>
<totfact> 0.10138793E+04</totfact>
</mgrwt>
</event>
<event>
 5    1  0.3296424E-002  0.1249996E+03  0.7818608E-02  0.1235070E+00
         -4   -1    0    0    0  501 -0.00000000000E+00  0.00000000000E+00  0.99132228665E+01  0.99942427227E+01  0.12700000000E+01 0.  1.
          4   -1    0    0  501    0  0.00000000000E+00 -0.00000000000E+00 -0.39235630205E+03  0.39235835745E+03  0.12700000000E+01 0.  1.
         25    2    1    2    0    0  0.00000000000E+00  0.00000000000E+00 -0.38244307918E+03  0.40235260017E+03  0.12499962419E+03 0.  0.
    9000005    1    3    3    0    0  0.40962781960E+02  0.18394142173E+02 -0.33111787201E+03  0.33415017452E+03  0.10000000000E+01 0.  0.
    9000005    1    3    3    0    0 -0.40962781960E+02 -0.18394142173E+02 -0.51325207177E+02  0.68202425645E+02  0.10000000000E+01 0.  0.
<mgrwt>
<rscale>  0 0.12499962E+03</rscale>
<asrwt>0</asrwt>
<pdfrwt beam="2">  1        4 0.60368886E-01 0.12499962E+03</pdfrwt>
<pdfrwt beam="1">  1       -4 0.15315019E-02 0.12499962E+03</pdfrwt>
<totfact> 0.64325159E+03</totfact>
</mgrwt>
</event>
<event>
 5    1  0.3296424E-002  0.1250077E+03  0.7818608E-02  0.1235057E+00
         -4   -1    0    0    0  501 -0.00000000000E+00  0.00000000000E+00  0.10525242680E+04  0.10525250342E+04  0.12700000000E+01 0. -1.
          4   -1    0    0  501    0  0.00000000000E+00 -0.00000000000E+00 -0.36023484227E+01  0.38196615241E+01  0.12700000000E+01 0. -1.
         25    2    1    2    0    0  0.00000000000E+00  0.00000000000E+00  0.10489219195E+04  0.10563446957E+04  0.12500769106E+03 0.  0.
    9000005    1    3    3    0    0 -0.61883277400E+02 -0.83890068475E+01  0.54483856138E+03  0.54840675910E+03  0.10000000000E+01 0.  0.
    9000005    1    3    3    0    0  0.61883277400E+02  0.83890068475E+01  0.50408335815E+03  0.50793793658E+03  0.10000000000E+01 0.  0.
<mgrwt>
<rscale>  0 0.12500769E+03</rscale>
<asrwt>0</asrwt>
<pdfrwt beam="2">  1        4 0.57098189E-03 0.12500769E+03</pdfrwt>
<pdfrwt beam="1">  1       -4 0.16194384E+00 0.12500769E+03</pdfrwt>
<totfact> 0.28792605E+03</totfact>
</mgrwt>
</event>
<event>
 5    1  0.3296424E-002  0.1250006E+03  0.7818608E-02  0.1235068E+00
          4   -1    0    0  501    0  0.00000000000E+00  0.00000000000E+00  0.18087167069E+03  0.18087612932E+03  0.12700000000E+01 0. -1.
         -4   -1    0    0    0  501 -0.00000000000E+00 -0.00000000000E+00 -0.21573602479E+02  0.21610951482E+02  0.12700000000E+01 0. -1.
         25    2    1    2    0    0  0.00000000000E+00  0.00000000000E+00  0.15929806821E+03  0.20248708080E+03  0.12500057342E+03 0.  0.
    9000005    1    3    3    0    0  0.26627944011E+02 -0.49084802054E+02  0.34207730326E+02  0.65494534192E+02  0.10000000000E+01 0.  0.
    9000005    1    3    3    0    0 -0.26627944011E+02  0.49084802054E+02  0.12509033788E+03  0.13699254661E+03  0.10000000000E+01 0.  0.
<mgrwt>
<rscale>  0 0.12500057E+03</rscale>
<asrwt>0</asrwt>
<pdfrwt beam="1">  1        4 0.27829627E-01 0.12500057E+03</pdfrwt>
<pdfrwt beam="2">  1       -4 0.33222317E-02 0.12500057E+03</pdfrwt>
<totfact> 0.89716578E+03</totfact>
</mgrwt>
</event>
<event>
 5    1  0.3296424E-002  0.1249996E+03  0.7818608E-02  0.1235070E+00
         -4   -1    0    0    0  501 -0.00000000000E+00  0.00000000000E+00  0.72365524689E+02  0.72376667949E+02  0.12700000000E+01 0.  1.
          4   -1    0    0  501    0  0.00000000000E+00 -0.00000000000E+00 -0.53956274258E+02  0.53971218550E+02  0.12700000000E+01 0.  1.
         25    2    1    2    0    0  0.00000000000E+00  0.00000000000E+00  0.18409250431E+02  0.12634788650E+03  0.12499955169E+03 0.  0.
    9000005    1    3    3    0    0  0.12632225213E+02  0.11707367631E+02  0.69924110413E+02  0.72020946868E+02  0.10000000000E+01 0.  0.
    9000005    1    3    3    0    0 -0.12632225213E+02 -0.11707367631E+02 -0.51514859983E+02  0.54326939631E+02  0.10000000000E+01 0.  0.
<mgrwt>
<rscale>  0 0.12499955E+03</rscale>
<asrwt>0</asrwt>
<pdfrwt beam="2">  1        4 0.83029720E-02 0.12499955E+03</pdfrwt>
<pdfrwt beam="1">  1       -4 0.11135164E-01 0.12499955E+03</pdfrwt>
<totfact> 0.10423453E+04</totfact>
</mgrwt>
</event>
<event>
 5    1  0.3296424E-002  0.1250024E+03  0.7818608E-02  0.1235066E+00
          4   -1    0    0  501    0  0.00000000000E+00  0.00000000000E+00  0.14416930023E+03  0.14417489390E+03  0.12700000000E+01 0.  1.
         -4   -1    0    0    0  501 -0.00000000000E+00 -0.00000000000E+00 -0.27074920475E+02  0.27104689977E+02  0.12700000000E+01 0.  1.
         25    2    1    2    0    0  0.00000000000E+00  0.00000000000E+00  0.11709437976E+03  0.17127958387E+03  0.12500240830E+03 0.  0.
    9000005    1    3    3    0    0 -0.53649605518E+02  0.32011413981E+02  0.60665360709E+02  0.87087868198E+02  0.10000000000E+01 0.  0.
    9000005    1    3    3    0    0  0.53649605518E+02 -0.32011413981E+02  0.56429019050E+02  0.84191715675E+02  0.10000000000E+01 0.  0.
<mgrwt>
<rscale>  0 0.12500241E+03</rscale>
<asrwt>0</asrwt>
<pdfrwt beam="1">  1        4 0.22182613E-01 0.12500241E+03</pdfrwt>
<pdfrwt beam="2">  1       -4 0.41680926E-02 0.12500241E+03</pdfrwt>
<totfact> 0.95205530E+03</totfact>
</mgrwt>
</event>
<event>
 5    1  0.3296424E-002  0.1249968E+03  0.7818608E-02  0.1235074E+00
          4   -1    0    0  501    0  0.00000000000E+00  0.00000000000E+00  0.60151078716E+03  0.60151212787E+03  0.12700000000E+01 0.  1.
         -4   -1    0    0    0  501 -0.00000000000E+00 -0.00000000000E+00 -0.64302808986E+01  0.65544955897E+01  0.12700000000E+01 0.  1.
         25    2    1    2    0    0  0.00000000000E+00  0.00000000000E+00  0.59508050626E+03  0.60806662346E+03  0.12499683847E+03 0.  0.
    9000005    1    3    3    0    0 -0.23401473835E+02  0.57932435825E+02  0.30299281197E+03  0.30936942351E+03  0.10000000000E+01 0.  0.
    9000005    1    3    3    0    0  0.23401473835E+02 -0.57932435825E+02  0.29208769430E+03  0.29869719995E+03  0.10000000000E+01 0.  0.
<mgrwt>
<rscale>  0 0.12499684E+03</rscale>
<asrwt>0</asrwt>
<pdfrwt beam="1">  1        4 0.92549781E-01 0.12499684E+03</pdfrwt>
<pdfrwt beam="2">  1       -4 0.99893207E-03 0.12499684E+03</pdfrwt>
<totfact> 0.48365700E+03</totfact>
</mgrwt>
</event>
<event>
 5    1  0.3296424E-002  0.1250036E+03  0.7818608E-02  0.1235064E+00
          4   -1    0    0  501    0  0.00000000000E+00  0.00000000000E+00  0.10864936725E+02  0.10938909911E+02  0.12700000000E+01 0. -1.
         -4   -1    0    0    0  501 -0.00000000000E+00 -0.00000000000E+00 -0.35825381651E+03  0.35825606756E+03  0.12700000000E+01 0. -1.
         25    2    1    2    0    0  0.00000000000E+00  0.00000000000E+00 -0.34738887978E+03  0.36919497747E+03  0.12500359032E+03 0.  0.
    9000005    1    3    3    0    0  0.30161461992E+02  0.51546013172E+02 -0.11933371809E+03  0.13344752353E+03  0.10000000000E+01 0.  0.
    9000005    1    3    3    0    0 -0.30161461992E+02 -0.51546013172E+02 -0.22805516170E+03  0.23574745394E+03  0.10000000000E+01 0.  0.
<mgrwt>
<rscale>  0 0.12500359E+03</rscale>
<asrwt>0</asrwt>
<pdfrwt beam="1">  1        4 0.16773924E-02 0.12500359E+03</pdfrwt>
<pdfrwt beam="2">  1       -4 0.55121826E-01 0.12500359E+03</pdfrwt>
<totfact> 0.67657875E+03</totfact>
</mgrwt>
</event>
<event>
 5    1  0.3296424E-002  0.1249997E+03  0.7818608E-02  0.1235070E+00
         -4   -1    0    0    0  501 -0.00000000000E+00  0.00000000000E+00  0.43487591537E+02  0.43506131955E+02  0.12700000000E+01 0.  1.
          4   -1    0    0  501    0  0.00000000000E+00 -0.00000000000E+00 -0.89781920629E+02  0.89790902500E+02  0.12700000000E+01 0.  1.
         25    2    1    2    0    0  0.00000000000E+00  0.00000000000E+00 -0.46294329091E+02  0.13329703446E+03  0.12499973795E+03 0.  0.
    9000005    1    3    3    0    0 -0.36684193744E+02  0.40275810371E+02  0.95014838891E+01  0.55309575734E+02  0.10000000000E+01 0.  0.
    9000005    1    3    3    0    0  0.36684193744E+02 -0.40275810371E+02 -0.55795812980E+02  0.77987458722E+02  0.10000000000E+01 0.  0.
<mgrwt>
<rscale>  0 0.12499974E+03</rscale>
<asrwt>0</asrwt>
<pdfrwt beam="2">  1        4 0.13814720E-01 0.12499974E+03</pdfrwt>
<pdfrwt beam="1">  1       -4 0.66925158E-02 0.12499974E+03</pdfrwt>
<totfact> 0.10274152E+04</totfact>
</mgrwt>
</event>
<event>
 5    1  0.3296424E-002  0.1249934E+03  0.7818608E-02  0.1235080E+00
          4   -1    0    0  501    0  0.00000000000E+00  0.00000000000E+00  0.48676581609E+03  0.48676747284E+03  0.12700000000E+01 0. -1.
         -4   -1    0    0    0  501 -0.00000000000E+00 -0.00000000000E+00 -0.79721245065E+01  0.80726494502E+01  0.12700000000E+01 0. -1.
         25    2    1    2    0    0  0.00000000000E+00  0.00000000000E+00  0.47879369159E+03  0.49484012229E+03  0.12499338993E+03 0.  0.
    9000005    1    3    3    0    0 -0.20931023080E+02  0.51383307078E+02  0.35321075035E+03  0.35754326470E+03  0.10000000000E+01 0.  0.
    9000005    1    3    3    0    0  0.20931023080E+02 -0.51383307078E+02  0.12558294124E+03  0.13729685759E+03  0.10000000000E+01 0.  0.
<mgrwt>
<rscale>  0 0.12499339E+03</rscale>
<asrwt>0</asrwt>
<pdfrwt beam="1">  1        4 0.74894914E-01 0.12499339E+03</pdfrwt>
<pdfrwt beam="2">  1       -4 0.12343407E-02 0.12499339E+03</pdfrwt>
<totfact> 0.56275120E+03</totfact>
</mgrwt>
</event>
<event>
 5    1  0.3296424E-002  0.1250152E+03  0.7818608E-02  0.1235046E+00
         -4   -1    0    0    0  501 -0.00000000000E+00  0.00000000000E+00  0.14726679158E+03  0.14727226759E+03  0.12700000000E+01 0. -1.
          4   -1    0    0  501    0  0.00000000000E+00 -0.00000000000E+00 -0.26510271692E+02  0.26540674543E+02  0.12700000000E+01 0. -1.
         25    2    1    2    0    0  0.00000000000E+00  0.00000000000E+00  0.12075651989E+03  0.17381294214E+03  0.12501520611E+03 0.  0.
    9000005    1    3    3    0    0  0.45858859137E+02  0.95473150450E+01  0.28510968316E+01  0.46939481666E+02  0.10000000000E+01 0.  0.
    9000005    1    3    3    0    0 -0.45858859137E+02 -0.95473150450E+01  0.11790542306E+03  0.12687346047E+03  0.10000000000E+01 0.  0.
<mgrwt>
<rscale>  0 0.12501521E+03</rscale>
<asrwt>0</asrwt>
<pdfrwt beam="2">  1        4 0.40812633E-02 0.12501521E+03</pdfrwt>
<pdfrwt beam="1">  1       -4 0.22659189E-01 0.12501521E+03</pdfrwt>
<totfact> 0.94710382E+03</totfact>
</mgrwt>
</event>
<event>
 5    1  0.3296424E-002  0.1250022E+03  0.7818608E-02  0.1235066E+00
         -4   -1    0    0    0  501 -0.00000000000E+00  0.00000000000E+00  0.17936155310E+01  0.21977162403E+01  0.12700000000E+01 0. -1.
          4   -1    0    0  501    0  0.00000000000E+00 -0.00000000000E+00 -0.19570326682E+04  0.19570330803E+04  0.12700000000E+01 0. -1.
         25    2    1    2    0    0  0.00000000000E+00  0.00000000000E+00 -0.19552390527E+04  0.19592307965E+04  0.12500224375E+03 0.  0.
    9000005    1    3    3    0    0  0.37124483244E+02 -0.18040973400E+02 -0.24218247458E+03  0.24567672859E+03  0.10000000000E+01 0.  0.
    9000005    1    3    3    0    0 -0.37124483244E+02  0.18040973400E+02 -0.17130565781E+04  0.17135540679E+04  0.10000000000E+01 0.  0.
<mgrwt>
<rscale>  0 0.12500224E+03</rscale>
<asrwt>0</asrwt>
<pdfrwt beam="2">  1        4 0.30111153E+00 0.12500224E+03</pdfrwt>
<pdfrwt beam="1">  1       -4 0.30705879E-03 0.12500224E+03</pdfrwt>
<totfact> 0.10402468E+03</totfact>
</mgrwt>
</event>
<event>
 5    1  0.3296424E-002  0.1249971E+03  0.7818608E-02  0.1235074E+00
          4   -1    0    0  501    0  0.00000000000E+00  0.00000000000E+00  0.58826739824E+03  0.58826876913E+03  0.12700000000E+01 0.  1.
         -4   -1    0    0    0  501 -0.00000000000E+00 -0.00000000000E+00 -0.65778338913E+01  0.66993133008E+01  0.12700000000E+01 0.  1.
         25    2    1    2    0    0  0.00000000000E+00  0.00000000000E+00  0.58168956435E+03  0.59496808243E+03  0.12499707932E+03 0.  0.
    9000005    1    3    3    0    0 -0.51043182208E+02  0.36045139212E+02  0.29388866706E+03  0.30045999257E+03  0.10000000000E+01 0.  0.
    9000005    1    3    3    0    0  0.51043182208E+02 -0.36045139212E+02  0.28780089729E+03  0.29450808986E+03  0.10000000000E+01 0.  0.
<mgrwt>
<rscale>  0 0.12499708E+03</rscale>
<asrwt>0</asrwt>
<pdfrwt beam="1">  1        4 0.90512146E-01 0.12499708E+03</pdfrwt>
<pdfrwt beam="2">  1       -4 0.10214242E-02 0.12499708E+03</pdfrwt>
<totfact> 0.49189930E+03</totfact>
</mgrwt>
</event>
<event>
 5    1  0.3296424E-002  0.1249993E+03  0.7818608E-02  0.1235070E+00
         -4   -1    0    0    0  501 -0.00000000000E+00  0.00000000000E+00  0.17477098883E+02  0.17523181372E+02  0.12700000000E+01 0. -1.
          4   -1    0    0  501    0  0.00000000000E+00 -0.00000000000E+00 -0.22316220983E+03  0.22316582354E+03  0.12700000000E+01 0. -1.
         25    2    1    2    0    0  0.00000000000E+00  0.00000000000E+00 -0.20568511095E+03  0.24068900491E+03  0.12499932888E+03 0.  0.
    9000005    1    3    3    0    0 -0.21235226857E+02  0.49016564313E+02 -0.16528560498E+03  0.17370633164E+03  0.10000000000E+01 0.  0.
    9000005    1    3    3    0    0  0.21235226857E+02 -0.49016564313E+02 -0.40399505964E+02  0.66982673274E+02  0.10000000000E+01 0.  0.
<mgrwt>
<rscale>  0 0.12499933E+03</rscale>
<asrwt>0</asrwt>
<pdfrwt beam="2">  1        4 0.34336469E-01 0.12499933E+03</pdfrwt>
<pdfrwt beam="1">  1       -4 0.26926074E-02 0.12499933E+03</pdfrwt>
<totfact> 0.83696112E+03</totfact>
</mgrwt>
</event>
<event>
 5    1  0.3296424E-002  0.1249943E+03  0.7818608E-02  0.1235078E+00
          4   -1    0    0  501    0  0.00000000000E+00  0.00000000000E+00  0.14195719487E+03  0.14196287569E+03  0.12700000000E+01 0. -1.
         -4   -1    0    0    0  501 -0.00000000000E+00 -0.00000000000E+00 -0.27493695433E+02  0.27523011982E+02  0.12700000000E+01 0. -1.
         25    2    1    2    0    0  0.00000000000E+00  0.00000000000E+00  0.11446349943E+03  0.16948588767E+03  0.12499429354E+03 0.  0.
    9000005    1    3    3    0    0 -0.27578634998E+02 -0.17087304417E+02 -0.15185782048E+02  0.35835248806E+02  0.10000000000E+01 0.  0.
    9000005    1    3    3    0    0  0.27578634998E+02  0.17087304417E+02  0.12964928148E+03  0.13365063887E+03  0.10000000000E+01 0.  0.
<mgrwt>
<rscale>  0 0.12499429E+03</rscale>
<asrwt>0</asrwt>
<pdfrwt beam="1">  1        4 0.21842260E-01 0.12499429E+03</pdfrwt>
<pdfrwt beam="2">  1       -4 0.42324914E-02 0.12499429E+03</pdfrwt>
<totfact> 0.95556759E+03</totfact>
</mgrwt>
</event>
<event>
 5    1  0.3296424E-002  0.1249974E+03  0.7818608E-02  0.1235073E+00
          4   -1    0    0  501    0  0.00000000000E+00  0.00000000000E+00  0.19392856029E+03  0.19393271874E+03  0.12700000000E+01 0.  1.
         -4   -1    0    0    0  501 -0.00000000000E+00 -0.00000000000E+00 -0.20117476432E+02  0.20157523608E+02  0.12700000000E+01 0.  1.
         25    2    1    2    0    0  0.00000000000E+00  0.00000000000E+00  0.17381108386E+03  0.21409024235E+03  0.12499735595E+03 0.  0.
    9000005    1    3    3    0    0  0.15675091990E+02  0.44927763713E+01  0.19022889323E+03  0.19092911084E+03  0.10000000000E+01 0.  0.
    9000005    1    3    3    0    0 -0.15675091990E+02 -0.44927763713E+01 -0.16417809364E+02  0.23161131508E+02  0.10000000000E+01 0.  0.
<mgrwt>
<rscale>  0 0.12499736E+03</rscale>
<asrwt>0</asrwt>
<pdfrwt beam="1">  1        4 0.29838564E-01 0.12499736E+03</pdfrwt>
<pdfrwt beam="2">  1       -4 0.30983968E-02 0.12499736E+03</pdfrwt>
<totfact> 0.87817405E+03</totfact>
</mgrwt>
</event>
<event>
 5    1  0.3296424E-002  0.1250001E+03  0.7818608E-02  0.1235069E+00
         -4   -1    0    0    0  501 -0.00000000000E+00  0.00000000000E+00  0.20120170386E+03  0.20120571199E+03  0.12700000000E+01 0.  1.
          4   -1    0    0  501    0  0.00000000000E+00 -0.00000000000E+00 -0.19389656687E+02  0.19431203937E+02  0.12700000000E+01 0.  1.
         25    2    1    2    0    0  0.00000000000E+00  0.00000000000E+00  0.18181204718E+03  0.22063691593E+03  0.12500011269E+03 0.  0.
    9000005    1    3    3    0    0 -0.57545785969E+02 -0.24310589783E+02  0.93824991547E+02  0.11272378319E+03  0.10000000000E+01 0.  0.
    9000005    1    3    3    0    0  0.57545785969E+02  0.24310589783E+02  0.87987055631E+02  0.10791313274E+03  0.10000000000E+01 0.  0.
<mgrwt>
<rscale>  0 0.12500011E+03</rscale>
<asrwt>0</asrwt>
<pdfrwt beam="2">  1        4 0.29865283E-02 0.12500011E+03</pdfrwt>
<pdfrwt beam="1">  1       -4 0.30957613E-01 0.12500011E+03</pdfrwt>
<totfact> 0.86767446E+03</totfact>
</mgrwt>
</event>
<event>
 5    1  0.3296424E-002  0.1250086E+03  0.7818608E-02  0.1235056E+00
          4   -1    0    0  501    0  0.00000000000E+00  0.00000000000E+00  0.17073704625E+02  0.17120872922E+02  0.12700000000E+01 0.  1.
         -4   -1    0    0    0  501 -0.00000000000E+00 -0.00000000000E+00 -0.22845444615E+03  0.22845797614E+03  0.12700000000E+01 0.  1.
         25    2    1    2    0    0  0.00000000000E+00  0.00000000000E+00 -0.21138074152E+03  0.24557884907E+03  0.12500861259E+03 0.  0.
    9000005    1    3    3    0    0  0.28468756499E+02  0.69625036035E+01 -0.21412699116E+03  0.21612569236E+03  0.10000000000E+01 0.  0.
    9000005    1    3    3    0    0 -0.28468756499E+02 -0.69625036035E+01  0.27462496400E+01  0.29453156709E+02  0.10000000000E+01 0.  0.
<mgrwt>
<rscale>  0 0.12500861E+03</rscale>
<asrwt>0</asrwt>
<pdfrwt beam="1">  1        4 0.26306238E-02 0.12500861E+03</pdfrwt>
<pdfrwt beam="2">  1       -4 0.35150736E-01 0.12500861E+03</pdfrwt>
<totfact> 0.82957528E+03</totfact>
</mgrwt>
</event>
<event>
 5    1  0.3296424E-002  0.1249969E+03  0.7818608E-02  0.1235074E+00
         -4   -1    0    0    0  501 -0.00000000000E+00  0.00000000000E+00  0.22805861326E+03  0.22806214938E+03  0.12700000000E+01 0.  1.
          4   -1    0    0  501    0  0.00000000000E+00 -0.00000000000E+00 -0.17100216960E+02  0.17147312328E+02  0.12700000000E+01 0.  1.
         25    2    1    2    0    0  0.00000000000E+00  0.00000000000E+00  0.21095839630E+03  0.24520946171E+03  0.12499694054E+03 0.  0.
    9000005    1    3    3    0    0  0.79435688492E+01  0.57641369248E+02  0.15018890215E+03  0.16106934551E+03  0.10000000000E+01 0.  0.
    9000005    1    3    3    0    0 -0.79435688492E+01 -0.57641369248E+02  0.60769494145E+02  0.84140116196E+02  0.10000000000E+01 0.  0.
<mgrwt>
<rscale>  0 0.12499694E+03</rscale>
<asrwt>0</asrwt>
<pdfrwt beam="2">  1        4 0.26346974E-02 0.12499694E+03</pdfrwt>
<pdfrwt beam="1">  1       -4 0.35089835E-01 0.12499694E+03</pdfrwt>
<totfact> 0.83033237E+03</totfact>
</mgrwt>
</event>
<event>
 5    1  0.3296424E-002  0.1249996E+03  0.7818608E-02  0.1235070E+00
          4   -1    0    0  501    0  0.00000000000E+00  0.00000000000E+00  0.38209598100E+03  0.38209809158E+03  0.12700000000E+01 0.  1.
         -4   -1    0    0    0  501 -0.00000000000E+00 -0.00000000000E+00 -0.10181566792E+02  0.10260467939E+02  0.12700000000E+01 0.  1.
         25    2    1    2    0    0  0.00000000000E+00  0.00000000000E+00  0.37191441420E+03  0.39235855952E+03  0.12499963096E+03 0.  0.
    9000005    1    3    3    0    0 -0.60098073941E+02  0.16603367716E+02  0.19919144822E+03  0.20872394054E+03  0.10000000000E+01 0.  0.
    9000005    1    3    3    0    0  0.60098073941E+02 -0.16603367716E+02  0.17272296598E+03  0.18363461898E+03  0.10000000000E+01 0.  0.
<mgrwt>
<rscale>  0 0.12499963E+03</rscale>
<asrwt>0</asrwt>
<pdfrwt beam="1">  1        4 0.58790233E-01 0.12499963E+03</pdfrwt>
<pdfrwt beam="2">  1       -4 0.15726264E-02 0.12499963E+03</pdfrwt>
<totfact> 0.65303361E+03</totfact>
</mgrwt>
</event>
<event>
 5    1  0.3296424E-002  0.1250009E+03  0.7818608E-02  0.1235068E+00
          4   -1    0    0  501    0  0.00000000000E+00  0.00000000000E+00  0.13163404152E+02  0.13224526791E+02  0.12700000000E+01 0.  1.
         -4   -1    0    0    0  501 -0.00000000000E+00 -0.00000000000E+00 -0.29600518417E+03  0.29600790860E+03  0.12700000000E+01 0.  1.
         25    2    1    2    0    0  0.00000000000E+00  0.00000000000E+00 -0.28284178002E+03  0.30923243539E+03  0.12500090630E+03 0.  0.
    9000005    1    3    3    0    0  0.14571130831E+02 -0.40672504317E+02 -0.29721090310E+02  0.52449153190E+02  0.10000000000E+01 0.  0.
    9000005    1    3    3    0    0 -0.14571130831E+02  0.40672504317E+02 -0.25312068971E+03  0.25678328220E+03  0.10000000000E+01 0.  0.
<mgrwt>
<rscale>  0 0.12500091E+03</rscale>
<asrwt>0</asrwt>
<pdfrwt beam="1">  1        4 0.20300506E-02 0.12500091E+03</pdfrwt>
<pdfrwt beam="2">  1       -4 0.45544166E-01 0.12500091E+03</pdfrwt>
<totfact> 0.74453648E+03</totfact>
</mgrwt>
</event>
<event>
 5    1  0.3296424E-002  0.1249980E+03  0.7818608E-02  0.1235072E+00
         -4   -1    0    0    0  501 -0.00000000000E+00  0.00000000000E+00  0.18250625259E+03  0.18251067129E+03  0.12700000000E+01 0.  1.
          4   -1    0    0  501    0  0.00000000000E+00 -0.00000000000E+00 -0.21379185915E+02  0.21416873964E+02  0.12700000000E+01 0.  1.
         25    2    1    2    0    0  0.00000000000E+00  0.00000000000E+00  0.16112706667E+03  0.20392754525E+03  0.12499804838E+03 0.  0.
    9000005    1    3    3    0    0 -0.31295043846E+02 -0.36069451640E+02  0.14803051771E+02  0.50005154262E+02  0.10000000000E+01 0.  0.
    9000005    1    3    3    0    0  0.31295043846E+02  0.36069451640E+02  0.14632401490E+03  0.15392239099E+03  0.10000000000E+01 0.  0.
<mgrwt>
<rscale>  0 0.12499805E+03</rscale>
<asrwt>0</asrwt>
<pdfrwt beam="2">  1        4 0.32923446E-02 0.12499805E+03</pdfrwt>
<pdfrwt beam="1">  1       -4 0.28081123E-01 0.12499805E+03</pdfrwt>
<totfact> 0.89481202E+03</totfact>
</mgrwt>
</event>
<event>
 5    1  0.3296424E-002  0.1249985E+03  0.7818608E-02  0.1235072E+00
         -4   -1    0    0    0  501 -0.00000000000E+00  0.00000000000E+00  0.10591461752E+02  0.10667331534E+02  0.12700000000E+01 0. -1.
          4   -1    0    0  501    0  0.00000000000E+00 -0.00000000000E+00 -0.36740938065E+03  0.36741157561E+03  0.12700000000E+01 0. -1.
         25    2    1    2    0    0  0.00000000000E+00  0.00000000000E+00 -0.35681791890E+03  0.37807890714E+03  0.12499853110E+03 0.  0.
    9000005    1    3    3    0    0 -0.58191471542E+02 -0.24315394915E+01 -0.24691605665E+03  0.25369410473E+03  0.10000000000E+01 0.  0.
    9000005    1    3    3    0    0  0.58191471542E+02  0.24315394915E+01 -0.10990186225E+03  0.12438480241E+03  0.10000000000E+01 0.  0.
<mgrwt>
<rscale>  0 0.12499853E+03</rscale>
<asrwt>0</asrwt>
<pdfrwt beam="2">  1        4 0.56530515E-01 0.12499853E+03</pdfrwt>
<pdfrwt beam="1">  1       -4 0.16354609E-02 0.12499853E+03</pdfrwt>
<totfact> 0.66744288E+03</totfact>
</mgrwt>
</event>
<event>
 5    1  0.3296424E-002  0.1250094E+03  0.7818608E-02  0.1235055E+00
          4   -1    0    0  501    0  0.00000000000E+00  0.00000000000E+00  0.80199543268E+01  0.81198871546E+01  0.12700000000E+01 0.  1.
         -4   -1    0    0    0  501 -0.00000000000E+00 -0.00000000000E+00 -0.48402276706E+03  0.48402443320E+03  0.12700000000E+01 0.  1.
         25    2    1    2    0    0  0.00000000000E+00  0.00000000000E+00 -0.47600281273E+03  0.49214432035E+03  0.12500941695E+03 0.  0.
    9000005    1    3    3    0    0  0.51610531991E+02 -0.23603155750E+02 -0.13495775992E+03  0.14640817237E+03  0.10000000000E+01 0.  0.
    9000005    1    3    3    0    0 -0.51610531991E+02  0.23603155750E+02 -0.34104505282E+03  0.34573614799E+03  0.10000000000E+01 0.  0.
<mgrwt>
<rscale>  0 0.12500942E+03</rscale>
<asrwt>0</asrwt>
<pdfrwt beam="1">  1        4 0.12416548E-02 0.12500942E+03</pdfrwt>
<pdfrwt beam="2">  1       -4 0.74472834E-01 0.12500942E+03</pdfrwt>
<totfact> 0.56467377E+03</totfact>
</mgrwt>
</event>
<event>
 5    1  0.3296424E-002  0.1249907E+03  0.7818608E-02  0.1235084E+00
          4   -1    0    0  501    0  0.00000000000E+00  0.00000000000E+00  0.15604251599E+02  0.15655847725E+02  0.12700000000E+01 0. -1.
         -4   -1    0    0    0  501 -0.00000000000E+00 -0.00000000000E+00 -0.24982891113E+03  0.24983213911E+03  0.12700000000E+01 0. -1.
         25    2    1    2    0    0  0.00000000000E+00  0.00000000000E+00 -0.23422465953E+03  0.26548798684E+03  0.12499071976E+03 0.  0.
    9000005    1    3    3    0    0  0.50363817682E+02 -0.40067495707E+01 -0.39008594167E+02  0.63837595448E+02  0.10000000000E+01 0.  0.
    9000005    1    3    3    0    0 -0.50363817682E+02  0.40067495707E+01 -0.19521606536E+03  0.20165039139E+03  0.10000000000E+01 0.  0.
<mgrwt>
<rscale>  0 0.12499072E+03</rscale>
<asrwt>0</asrwt>
<pdfrwt beam="1">  1        4 0.24048715E-02 0.12499072E+03</pdfrwt>
<pdfrwt beam="2">  1       -4 0.38439431E-01 0.12499072E+03</pdfrwt>
<totfact> 0.80158568E+03</totfact>
</mgrwt>
</event>
<event>
 5    1  0.3296424E-002  0.1249960E+03  0.7818608E-02  0.1235076E+00
          4   -1    0    0  501    0  0.00000000000E+00  0.00000000000E+00  0.71481653855E+03  0.71481766675E+03  0.12700000000E+01 0. -1.
         -4   -1    0    0    0  501 -0.00000000000E+00 -0.00000000000E+00 -0.53893961665E+01  0.55370110204E+01  0.12700000000E+01 0. -1.
         25    2    1    2    0    0  0.00000000000E+00  0.00000000000E+00  0.70942714239E+03  0.72035467777E+03  0.12499596562E+03 0.  0.
    9000005    1    3    3    0    0  0.18118064546E+02  0.10619232787E+01  0.69932145440E+03  0.69955763774E+03  0.10000000000E+01 0.  0.
    9000005    1    3    3    0    0 -0.18118064546E+02 -0.10619232787E+01  0.10105687990E+02  0.20797040022E+02  0.10000000000E+01 0.  0.
<mgrwt>
<rscale>  0 0.12499597E+03</rscale>
<asrwt>0</asrwt>
<pdfrwt beam="1">  1        4 0.10998317E+00 0.12499597E+03</pdfrwt>
<pdfrwt beam="2">  1       -4 0.84058001E-03 0.12499597E+03</pdfrwt>
<totfact> 0.42037462E+03</totfact>
</mgrwt>
</event>
<event>
 5    1  0.3296424E-002  0.1250008E+03  0.7818608E-02  0.1235068E+00
          4   -1    0    0  501    0  0.00000000000E+00  0.00000000000E+00  0.20315847958E+03  0.20316244910E+03  0.12700000000E+01 0.  1.
         -4   -1    0    0    0  501 -0.00000000000E+00 -0.00000000000E+00 -0.19202725787E+02  0.19244676605E+02  0.12700000000E+01 0.  1.
         25    2    1    2    0    0  0.00000000000E+00  0.00000000000E+00  0.18395575379E+03  0.22240712571E+03  0.12500084084E+03 0.  0.
    9000005    1    3    3    0    0 -0.52429291924E+02  0.28288338926E+02  0.58395750609E+02  0.83427360380E+02  0.10000000000E+01 0.  0.
    9000005    1    3    3    0    0  0.52429291924E+02 -0.28288338926E+02  0.12556000318E+03  0.13897976533E+03  0.10000000000E+01 0.  0.
<mgrwt>
<rscale>  0 0.12500084E+03</rscale>
<asrwt>0</asrwt>
<pdfrwt beam="1">  1        4 0.31258683E-01 0.12500084E+03</pdfrwt>
<pdfrwt beam="2">  1       -4 0.29577979E-02 0.12500084E+03</pdfrwt>
<totfact> 0.86487256E+03</totfact>
</mgrwt>
</event>
<event>
 5    1  0.3296424E-002  0.1250115E+03  0.7818608E-02  0.1235051E+00
         -4   -1    0    0    0  501 -0.00000000000E+00  0.00000000000E+00  0.27569417575E+02  0.27598653688E+02  0.12700000000E+01 0.  1.
          4   -1    0    0  501    0  0.00000000000E+00 -0.00000000000E+00 -0.14160661643E+03  0.14161231132E+03  0.12700000000E+01 0.  1.
         25    2    1    2    0    0  0.00000000000E+00  0.00000000000E+00 -0.11403719885E+03  0.16921096501E+03  0.12501147130E+03 0.  0.
    9000005    1    3    3    0    0 -0.40624336545E+02 -0.40795396532E+02 -0.24102620816E+02  0.62422251066E+02  0.10000000000E+01 0.  0.
    9000005    1    3    3    0    0  0.40624336545E+02  0.40795396532E+02 -0.89934578038E+02  0.10678871394E+03  0.10000000000E+01 0.  0.
<mgrwt>
<rscale>  0 0.12501147E+03</rscale>
<asrwt>0</asrwt>
<pdfrwt beam="2">  1        4 0.21788320E-01 0.12501147E+03</pdfrwt>
<pdfrwt beam="1">  1       -4 0.42441359E-02 0.12501147E+03</pdfrwt>
<totfact> 0.95571173E+03</totfact>
</mgrwt>
</event>
<event>
 5    1  0.3296424E-002  0.1249995E+03  0.7818608E-02  0.1235070E+00
          4   -1    0    0  501    0  0.00000000000E+00  0.00000000000E+00  0.87502048081E+02  0.87511263951E+02  0.12700000000E+01 0. -1.
         -4   -1    0    0    0  501 -0.00000000000E+00 -0.00000000000E+00 -0.44620860922E+02  0.44638930649E+02  0.12700000000E+01 0. -1.
         25    2    1    2    0    0  0.00000000000E+00  0.00000000000E+00  0.42881187158E+02  0.13215019460E+03  0.12499951088E+03 0.  0.
    9000005    1    3    3    0    0  0.29890764328E+02  0.53105609571E+02  0.36072712630E+02  0.70823048201E+02  0.10000000000E+01 0.  0.
    9000005    1    3    3    0    0 -0.29890764328E+02 -0.53105609571E+02  0.68084745288E+01  0.61327146399E+02  0.10000000000E+01 0.  0.
<mgrwt>
<rscale>  0 0.12499951E+03</rscale>
<asrwt>0</asrwt>
<pdfrwt beam="1">  1        4 0.13463952E-01 0.12499951E+03</pdfrwt>
<pdfrwt beam="2">  1       -4 0.68668468E-02 0.12499951E+03</pdfrwt>
<totfact> 0.10298607E+04</totfact>
</mgrwt>
</event>
<event>
 5    1  0.3296424E-002  0.1249968E+03  0.7818608E-02  0.1235074E+00
         -4   -1    0    0    0  501 -0.00000000000E+00  0.00000000000E+00  0.11019513562E+02  0.11092455956E+02  0.12700000000E+01 0. -1.
          4   -1    0    0  501    0  0.00000000000E+00 -0.00000000000E+00 -0.35322322392E+03  0.35322550703E+03  0.12700000000E+01 0. -1.
         25    2    1    2    0    0  0.00000000000E+00  0.00000000000E+00 -0.34220371036E+03  0.36431796298E+03  0.12499679504E+03 0.  0.
    9000005    1    3    3    0    0  0.32084102516E+02  0.31606278686E+02 -0.29736584406E+03  0.30075869347E+03  0.10000000000E+01 0.  0.
    9000005    1    3    3    0    0 -0.32084102516E+02 -0.31606278686E+02 -0.44837866298E+02  0.63559269511E+02  0.10000000000E+01 0.  0.
<mgrwt>
<rscale>  0 0.12499680E+03</rscale>
<asrwt>0</asrwt>
<pdfrwt beam="2">  1        4 0.54347813E-01 0.12499680E+03</pdfrwt>
<pdfrwt beam="1">  1       -4 0.17010966E-02 0.12499680E+03</pdfrwt>
<totfact> 0.68182440E+03</totfact>
</mgrwt>
</event>
<event>
 5    1  0.3296424E-002  0.1249956E+03  0.7818608E-02  0.1235076E+00
         -4   -1    0    0    0  501 -0.00000000000E+00  0.00000000000E+00  0.13683878746E+03  0.13684468077E+03  0.12700000000E+01 0. -1.
          4   -1    0    0  501    0  0.00000000000E+00 -0.00000000000E+00 -0.28523704734E+02  0.28551963711E+02  0.12700000000E+01 0. -1.
         25    2    1    2    0    0  0.00000000000E+00  0.00000000000E+00  0.10831508273E+03  0.16539664448E+03  0.12499557135E+03 0.  0.
    9000005    1    3    3    0    0  0.48135948409E+02 -0.12283913989E+02  0.39970440084E+01  0.49849176853E+02  0.10000000000E+01 0.  0.
    9000005    1    3    3    0    0 -0.48135948409E+02  0.12283913989E+02  0.10431803872E+03  0.11554746763E+03  0.10000000000E+01 0.  0.
<mgrwt>
<rscale>  0 0.12499557E+03</rscale>
<asrwt>0</asrwt>
<pdfrwt beam="2">  1        4 0.43908893E-02 0.12499557E+03</pdfrwt>
<pdfrwt beam="1">  1       -4 0.21054749E-01 0.12499557E+03</pdfrwt>
<totfact> 0.96321908E+03</totfact>
</mgrwt>
</event>
<event>
 5    1  0.3296424E-002  0.1250199E+03  0.7818608E-02  0.1235038E+00
          4   -1    0    0  501    0  0.00000000000E+00  0.00000000000E+00  0.18848236322E+03  0.18848664183E+03  0.12700000000E+01 0.  1.
         -4   -1    0    0    0  501 -0.00000000000E+00 -0.00000000000E+00 -0.20707371711E+02  0.20746280225E+02  0.12700000000E+01 0.  1.
         25    2    1    2    0    0  0.00000000000E+00  0.00000000000E+00  0.16777499151E+03  0.20923292205E+03  0.12501986999E+03 0.  0.
    9000005    1    3    3    0    0  0.18027961508E+01 -0.62444499139E+02  0.80571227068E+02  0.10195728605E+03  0.10000000000E+01 0.  0.
    9000005    1    3    3    0    0 -0.18027961508E+01  0.62444499139E+02  0.87203764445E+02  0.10727563600E+03  0.10000000000E+01 0.  0.
<mgrwt>
<rscale>  0 0.12501987E+03</rscale>
<asrwt>0</asrwt>
<pdfrwt beam="1">  1        4 0.29000609E-01 0.12501987E+03</pdfrwt>
<pdfrwt beam="2">  1       -4 0.31890715E-02 0.12501987E+03</pdfrwt>
<totfact> 0.88561957E+03</totfact>
</mgrwt>
</event>
<event>
 5    1  0.3296424E-002  0.1250012E+03  0.7818608E-02  0.1235067E+00
          4   -1    0    0  501    0  0.00000000000E+00  0.00000000000E+00  0.20186339340E+02  0.20226250170E+02  0.12700000000E+01 0. -1.
         -4   -1    0    0    0  501 -0.00000000000E+00 -0.00000000000E+00 -0.19328014920E+03  0.19328432160E+03  0.12700000000E+01 0. -1.
         25    2    1    2    0    0  0.00000000000E+00  0.00000000000E+00 -0.17309380986E+03  0.21351057177E+03  0.12500118897E+03 0.  0.
    9000005    1    3    3    0    0 -0.21193819275E+02 -0.46943227028E+02 -0.14699611081E+03  0.15576168057E+03  0.10000000000E+01 0.  0.
    9000005    1    3    3    0    0  0.21193819275E+02  0.46943227028E+02 -0.26097699051E+02  0.57748891202E+02  0.10000000000E+01 0.  0.
<mgrwt>
<rscale>  0 0.12500119E+03</rscale>
<asrwt>0</asrwt>
<pdfrwt beam="1">  1        4 0.31089818E-02 0.12500119E+03</pdfrwt>
<pdfrwt beam="2">  1       -4 0.29738797E-01 0.12500119E+03</pdfrwt>
<totfact> 0.87903413E+03</totfact>
</mgrwt>
</event>
<event>
 5    1  0.3296424E-002  0.1250023E+03  0.7818608E-02  0.1235066E+00
         -4   -1    0    0    0  501 -0.00000000000E+00  0.00000000000E+00  0.94160254413E+02  0.94168818678E+02  0.12700000000E+01 0. -1.
          4   -1    0    0  501    0  0.00000000000E+00 -0.00000000000E+00 -0.41466497201E+02  0.41485940873E+02  0.12700000000E+01 0. -1.
         25    2    1    2    0    0  0.00000000000E+00  0.00000000000E+00  0.52693757212E+02  0.13565475955E+03  0.12500232694E+03 0.  0.
    9000005    1    3    3    0    0  0.30160471961E+02 -0.30072415651E+02 -0.23282012867E+02  0.48549524973E+02  0.10000000000E+01 0.  0.
    9000005    1    3    3    0    0 -0.30160471961E+02  0.30072415651E+02  0.75975770079E+02  0.87105234579E+02  0.10000000000E+01 0.  0.
<mgrwt>
<rscale>  0 0.12500233E+03</rscale>
<asrwt>0</asrwt>
<pdfrwt beam="2">  1        4 0.63816156E-02 0.12500233E+03</pdfrwt>
<pdfrwt beam="1">  1       -4 0.14488347E-01 0.12500233E+03</pdfrwt>
<totfact> 0.10223752E+04</totfact>
</mgrwt>
</event>
<event>
 5    1  0.3296424E-002  0.1249966E+03  0.7818608E-02  0.1235075E+00
         -4   -1    0    0    0  501 -0.00000000000E+00  0.00000000000E+00  0.41172120073E+03  0.41172315946E+03  0.12700000000E+01 0.  1.
          4   -1    0    0  501    0  0.00000000000E+00 -0.00000000000E+00 -0.94426011351E+01  0.95276238484E+01  0.12700000000E+01 0.  1.
         25    2    1    2    0    0  0.00000000000E+00  0.00000000000E+00  0.40227859960E+03  0.42125078330E+03  0.12499660292E+03 0.  0.
    9000005    1    3    3    0    0 -0.16337423011E+02 -0.59889349891E+02  0.22529894444E+03  0.23369694047E+03  0.10000000000E+01 0.  0.
    9000005    1    3    3    0    0  0.16337423011E+02  0.59889349891E+02  0.17697965516E+03  0.18755384283E+03  0.10000000000E+01 0.  0.
<mgrwt>
<rscale>  0 0.12499660E+03</rscale>
<asrwt>0</asrwt>
<pdfrwt beam="2">  1        4 0.14593992E-02 0.12499660E+03</pdfrwt>
<pdfrwt beam="1">  1       -4 0.63348395E-01 0.12499660E+03</pdfrwt>
<totfact> 0.62541836E+03</totfact>
</mgrwt>
</event>
<event>
 5    1  0.3296424E-002  0.1250021E+03  0.7818608E-02  0.1235066E+00
         -4   -1    0    0    0  501 -0.00000000000E+00  0.00000000000E+00  0.36294189048E+03  0.36294411245E+03  0.12700000000E+01 0. -1.
          4   -1    0    0  501    0  0.00000000000E+00 -0.00000000000E+00 -0.10723380807E+02  0.10798323755E+02  0.12700000000E+01 0. -1.
         25    2    1    2    0    0  0.00000000000E+00  0.00000000000E+00  0.35221850967E+03  0.37374243621E+03  0.12500212025E+03 0.  0.
    9000005    1    3    3    0    0  0.36377668733E+01 -0.66671909667E+01 -0.93529875676E+01  0.12089795683E+02  0.10000000000E+01 0.  0.
    9000005    1    3    3    0    0 -0.36377668733E+01  0.66671909667E+01  0.36157149724E+03  0.36165264052E+03  0.10000000000E+01 0.  0.
<mgrwt>
<rscale>  0 0.12500212E+03</rscale>
<asrwt>0</asrwt>
<pdfrwt beam="2">  1        4 0.16556868E-02 0.12500212E+03</pdfrwt>
<pdfrwt beam="1">  1       -4 0.55843146E-01 0.12500212E+03</pdfrwt>
<totfact> 0.67186069E+03</totfact>
</mgrwt>
</event>
<event>
 5    1  0.3296424E-002  0.1249987E+03  0.7818608E-02  0.1235071E+00
          4   -1    0    0  501    0  0.00000000000E+00  0.00000000000E+00  0.37671375871E+01  0.39754528798E+01  0.12700000000E+01 0.  1.
         -4   -1    0    0    0  501 -0.00000000000E+00 -0.00000000000E+00 -0.10088002641E+04  0.10088010635E+04  0.12700000000E+01 0.  1.
         25    2    1    2    0    0  0.00000000000E+00  0.00000000000E+00 -0.10050331265E+04  0.10127765164E+04  0.12499874708E+03 0.  0.
    9000005    1    3    3    0    0 -0.40881487636E+02  0.15506891376E+02 -0.14076826658E+03  0.14740578207E+03  0.10000000000E+01 0.  0.
    9000005    1    3    3    0    0  0.40881487636E+02 -0.15506891376E+02 -0.86426485990E+03  0.86537073429E+03  0.10000000000E+01 0.  0.
<mgrwt>
<rscale>  0 0.12499875E+03</rscale>
<asrwt>0</asrwt>
<pdfrwt beam="1">  1        4 0.59564618E-03 0.12499875E+03</pdfrwt>
<pdfrwt beam="2">  1       -4 0.15521592E+00 0.12499875E+03</pdfrwt>
<totfact> 0.30186909E+03</totfact>
</mgrwt>
</event>
<event>
 5    1  0.3296424E-002  0.1249951E+03  0.7818608E-02  0.1235077E+00
          4   -1    0    0  501    0  0.00000000000E+00  0.00000000000E+00  0.83089217957E+01  0.84054197639E+01  0.12700000000E+01 0.  1.
         -4   -1    0    0    0  501 -0.00000000000E+00 -0.00000000000E+00 -0.46727878426E+03  0.46728051010E+03  0.12700000000E+01 0.  1.
         25    2    1    2    0    0  0.00000000000E+00  0.00000000000E+00 -0.45896986246E+03  0.47568592986E+03  0.12499507678E+03 0.  0.
    9000005    1    3    3    0    0 -0.20897545729E+02 -0.47798204069E+02 -0.98559581082E+02  0.11151845925E+03  0.10000000000E+01 0.  0.
    9000005    1    3    3    0    0  0.20897545729E+02  0.47798204069E+02 -0.36041028138E+03  0.36416747062E+03  0.10000000000E+01 0.  0.
<mgrwt>
<rscale>  0 0.12499508E+03</rscale>
<asrwt>0</asrwt>
<pdfrwt beam="1">  1        4 0.12858517E-02 0.12499508E+03</pdfrwt>
<pdfrwt beam="2">  1       -4 0.71896579E-01 0.12499508E+03</pdfrwt>
<totfact> 0.57807726E+03</totfact>
</mgrwt>
</event>
<event>
 5    1  0.3296424E-002  0.1250050E+03  0.7818608E-02  0.1235061E+00
          4   -1    0    0  501    0  0.00000000000E+00  0.00000000000E+00  0.33729909644E+02  0.33753810223E+02  0.12700000000E+01 0.  1.
         -4   -1    0    0    0  501 -0.00000000000E+00 -0.00000000000E+00 -0.11575060472E+03  0.11575757164E+03  0.12700000000E+01 0.  1.
         25    2    1    2    0    0  0.00000000000E+00  0.00000000000E+00 -0.82020695073E+02  0.14951138186E+03  0.12500503545E+03 0.  0.
    9000005    1    3    3    0    0  0.32066716302E+02  0.52961680867E+02 -0.30836894656E+02  0.69174619671E+02  0.10000000000E+01 0.  0.
    9000005    1    3    3    0    0 -0.32066716302E+02 -0.52961680867E+02 -0.51183800416E+02  0.80336762193E+02  0.10000000000E+01 0.  0.
<mgrwt>
<rscale>  0 0.12500504E+03</rscale>
<asrwt>0</asrwt>
<pdfrwt beam="1">  1        4 0.51915914E-02 0.12500504E+03</pdfrwt>
<pdfrwt beam="2">  1       -4 0.17810159E-01 0.12500504E+03</pdfrwt>
<totfact> 0.99389921E+03</totfact>
</mgrwt>
</event>
<event>
 5    1  0.3296424E-002  0.1250029E+03  0.7818608E-02  0.1235065E+00
         -4   -1    0    0    0  501 -0.00000000000E+00  0.00000000000E+00  0.26627142744E+03  0.26627445610E+03  0.12700000000E+01 0.  1.
          4   -1    0    0  501    0  0.00000000000E+00 -0.00000000000E+00 -0.14640252483E+02  0.14695233675E+02  0.12700000000E+01 0.  1.
         25    2    1    2    0    0  0.00000000000E+00  0.00000000000E+00  0.25163117496E+03  0.28096968977E+03  0.12500287341E+03 0.  0.
    9000005    1    3    3    0    0 -0.54836099537E+02 -0.20541761935E+02  0.17487883052E+03  0.18442496349E+03  0.10000000000E+01 0.  0.
    9000005    1    3    3    0    0  0.54836099537E+02  0.20541761935E+02  0.76752344440E+02  0.96544726282E+02  0.10000000000E+01 0.  0.
<mgrwt>
<rscale>  0 0.12500287E+03</rscale>
<asrwt>0</asrwt>
<pdfrwt beam="2">  1        4 0.22568088E-02 0.12500287E+03</pdfrwt>
<pdfrwt beam="1">  1       -4 0.40969297E-01 0.12500287E+03</pdfrwt>
<totfact> 0.78044721E+03</totfact>
</mgrwt>
</event>
<event>
 5    1  0.3296424E-002  0.1250039E+03  0.7818608E-02  0.1235063E+00
         -4   -1    0    0    0  501 -0.00000000000E+00  0.00000000000E+00  0.21036615638E+02  0.21074916311E+02  0.12700000000E+01 0.  1.
          4   -1    0    0  501    0  0.00000000000E+00 -0.00000000000E+00 -0.18549034102E+03  0.18549468863E+03  0.12700000000E+01 0.  1.
         25    2    1    2    0    0  0.00000000000E+00  0.00000000000E+00 -0.16445372538E+03  0.20656960494E+03  0.12500389552E+03 0.  0.
    9000005    1    3    3    0    0 -0.60171254069E+02  0.12683497330E+02 -0.63822184847E+02  0.88632512090E+02  0.10000000000E+01 0.  0.
    9000005    1    3    3    0    0  0.60171254069E+02 -0.12683497330E+02 -0.10063154053E+03  0.11793709285E+03  0.10000000000E+01 0.  0.
<mgrwt>
<rscale>  0 0.12500390E+03</rscale>
<asrwt>0</asrwt>
<pdfrwt beam="2">  1        4 0.28540255E-01 0.12500390E+03</pdfrwt>
<pdfrwt beam="1">  1       -4 0.32396832E-02 0.12500390E+03</pdfrwt>
<totfact> 0.89031436E+03</totfact>
</mgrwt>
</event>
<event>
 5    1  0.3296424E-002  0.1250028E+03  0.7818608E-02  0.1235065E+00
         -4   -1    0    0    0  501 -0.00000000000E+00  0.00000000000E+00  0.26367123895E+03  0.26367429748E+03  0.12700000000E+01 0.  1.
          4   -1    0    0  501    0  0.00000000000E+00 -0.00000000000E+00 -0.14785159049E+02  0.14839603367E+02  0.12700000000E+01 0.  1.
         25    2    1    2    0    0  0.00000000000E+00  0.00000000000E+00  0.24888607990E+03  0.27851390084E+03  0.12500284875E+03 0.  0.
    9000005    1    3    3    0    0 -0.35979932746E+02 -0.46157054642E+02  0.75608407854E+02  0.95617260952E+02  0.10000000000E+01 0.  0.
    9000005    1    3    3    0    0  0.35979932746E+02  0.46157054642E+02  0.17327767205E+03  0.18289663989E+03  0.10000000000E+01 0.  0.
<mgrwt>
<rscale>  0 0.12500285E+03</rscale>
<asrwt>0</asrwt>
<pdfrwt beam="2">  1        4 0.22790633E-02 0.12500285E+03</pdfrwt>
<pdfrwt beam="1">  1       -4 0.40569226E-01 0.12500285E+03</pdfrwt>
<totfact> 0.78370603E+03</totfact>
</mgrwt>
</event>
<event>
 5    1  0.3296424E-002  0.1250013E+03  0.7818608E-02  0.1235067E+00
          4   -1    0    0  501    0  0.00000000000E+00  0.00000000000E+00  0.20181753411E+01  0.23845191774E+01  0.12700000000E+01 0.  1.
         -4   -1    0    0    0  501 -0.00000000000E+00 -0.00000000000E+00 -0.17741509939E+04  0.17741514484E+04  0.12700000000E+01 0.  1.
         25    2    1    2    0    0  0.00000000000E+00  0.00000000000E+00 -0.17721328185E+04  0.17765359676E+04  0.12500127071E+03 0.  0.
    9000005    1    3    3    0    0  0.62006616712E+02 -0.68418870861E+01 -0.83346710609E+03  0.83579904814E+03  0.10000000000E+01 0.  0.
    9000005    1    3    3    0    0 -0.62006616712E+02  0.68418870861E+01 -0.93866571244E+03  0.94073691946E+03  0.10000000000E+01 0.  0.
<mgrwt>
<rscale>  0 0.12500127E+03</rscale>
<asrwt>0</asrwt>
<pdfrwt beam="1">  1        4 0.33870519E-03 0.12500127E+03</pdfrwt>
<pdfrwt beam="2">  1       -4 0.27297338E+00 0.12500127E+03</pdfrwt>
<totfact> 0.13068229E+03</totfact>
</mgrwt>
</event>
<event>
 5    1  0.3296424E-002  0.1249983E+03  0.7818608E-02  0.1235072E+00
          4   -1    0    0  501    0  0.00000000000E+00  0.00000000000E+00  0.25571190830E+03  0.25571506203E+03  0.12700000000E+01 0.  1.
         -4   -1    0    0    0  501 -0.00000000000E+00 -0.00000000000E+00 -0.15245920089E+02  0.15298724762E+02  0.12700000000E+01 0.  1.
         25    2    1    2    0    0  0.00000000000E+00  0.00000000000E+00  0.24046598821E+03  0.27101378679E+03  0.12499832456E+03 0.  0.
    9000005    1    3    3    0    0  0.55360077452E+02  0.17886158029E+02  0.70768404030E+02  0.91617792123E+02  0.10000000000E+01 0.  0.
    9000005    1    3    3    0    0 -0.55360077452E+02 -0.17886158029E+02  0.16969758418E+03  0.17939599467E+03  0.10000000000E+01 0.  0.
<mgrwt>
<rscale>  0 0.12499832E+03</rscale>
<asrwt>0</asrwt>
<pdfrwt beam="1">  1        4 0.39344596E-01 0.12499832E+03</pdfrwt>
<pdfrwt beam="2">  1       -4 0.23498308E-02 0.12499832E+03</pdfrwt>
<totfact> 0.79387812E+03</totfact>
</mgrwt>
</event>
<event>
 5    1  0.3296424E-002  0.1250011E+03  0.7818608E-02  0.1235068E+00
          4   -1    0    0  501    0  0.00000000000E+00  0.00000000000E+00  0.55312226332E+02  0.55326804370E+02  0.12700000000E+01 0.  1.
         -4   -1    0    0    0  501 -0.00000000000E+00 -0.00000000000E+00 -0.70593414072E+02  0.70604837018E+02  0.12700000000E+01 0.  1.
         25    2    1    2    0    0  0.00000000000E+00  0.00000000000E+00 -0.15281187739E+02  0.12593164139E+03  0.12500105441E+03 0.  0.
    9000005    1    3    3    0    0 -0.33250079900E+02  0.38827831664E+01 -0.60803439351E+02  0.69416871547E+02  0.10000000000E+01 0.  0.
    9000005    1    3    3    0    0  0.33250079900E+02 -0.38827831664E+01  0.45522251611E+02  0.56514769841E+02  0.10000000000E+01 0.  0.
<mgrwt>
<rscale>  0 0.12500105E+03</rscale>
<asrwt>0</asrwt>
<pdfrwt beam="1">  1        4 0.85115734E-02 0.12500105E+03</pdfrwt>
<pdfrwt beam="2">  1       -4 0.10862525E-01 0.12500105E+03</pdfrwt>
<totfact> 0.10432207E+04</totfact>
</mgrwt>
</event>
<event>
 5    1  0.3296424E-002  0.1250061E+03  0.7818608E-02  0.1235060E+00
          4   -1    0    0  501    0  0.00000000000E+00  0.00000000000E+00  0.98923368140E+02  0.98931520074E+02  0.12700000000E+01 0. -1.
         -4   -1    0    0    0  501 -0.00000000000E+00 -0.00000000000E+00 -0.39471501794E+02  0.39491927706E+02  0.12700000000E+01 0. -1.
         25    2    1    2    0    0  0.00000000000E+00  0.00000000000E+00  0.59451866346E+02  0.13842344778E+03  0.12500610578E+03 0.  0.
    9000005    1    3    3    0    0 -0.15690900415E+02  0.55595601970E+02  0.33222096429E+01  0.57871516234E+02  0.10000000000E+01 0.  0.
    9000005    1    3    3    0    0  0.15690900415E+02 -0.55595601970E+02  0.56129656703E+02  0.80551931546E+02  0.10000000000E+01 0.  0.
<mgrwt>
<rscale>  0 0.12500611E+03</rscale>
<asrwt>0</asrwt>
<pdfrwt beam="1">  1        4 0.15221178E-01 0.12500611E+03</pdfrwt>
<pdfrwt beam="2">  1       -4 0.60747371E-02 0.12500611E+03</pdfrwt>
<totfact> 0.10164967E+04</totfact>
</mgrwt>
</event>
<event>
 5    1  0.3296424E-002  0.1250005E+03  0.7818608E-02  0.1235069E+00
         -4   -1    0    0    0  501 -0.00000000000E+00  0.00000000000E+00  0.34523958614E+02  0.34547309857E+02  0.12700000000E+01 0. -1.
          4   -1    0    0  501    0  0.00000000000E+00 -0.00000000000E+00 -0.11308176086E+03  0.11308889220E+03  0.12700000000E+01 0. -1.
         25    2    1    2    0    0  0.00000000000E+00  0.00000000000E+00 -0.78557802243E+02  0.14763620205E+03  0.12500047946E+03 0.  0.
    9000005    1    3    3    0    0  0.61249836828E+01  0.53026709101E+02 -0.77658399802E+02  0.94239982826E+02  0.10000000000E+01 0.  0.
    9000005    1    3    3    0    0 -0.61249836828E+01 -0.53026709101E+02 -0.89940244063E+00  0.53396219229E+02  0.10000000000E+01 0.  0.
<mgrwt>
<rscale>  0 0.12500048E+03</rscale>
<asrwt>0</asrwt>
<pdfrwt beam="2">  1        4 0.17399539E-01 0.12500048E+03</pdfrwt>
<pdfrwt beam="1">  1       -4 0.53137231E-02 0.12500048E+03</pdfrwt>
<totfact> 0.99775913E+03</totfact>
</mgrwt>
</event>
<event>
 5    1  0.3296424E-002  0.1249972E+03  0.7818608E-02  0.1235074E+00
         -4   -1    0    0    0  501 -0.00000000000E+00  0.00000000000E+00  0.23393974549E+01  0.26618941474E+01  0.12700000000E+01 0.  1.
          4   -1    0    0  501    0  0.00000000000E+00 -0.00000000000E+00 -0.15617034293E+04  0.15617039457E+04  0.12700000000E+01 0.  1.
         25    2    1    2    0    0  0.00000000000E+00  0.00000000000E+00 -0.15593640319E+04  0.15643658399E+04  0.12499718814E+03 0.  0.
    9000005    1    3    3    0    0 -0.43139810470E+02 -0.43590079349E+02 -0.62953289692E+03  0.63251387856E+03  0.10000000000E+01 0.  0.
    9000005    1    3    3    0    0  0.43139810470E+02  0.43590079349E+02 -0.92983113496E+03  0.93185196132E+03  0.10000000000E+01 0.  0.
<mgrwt>
<rscale>  0 0.12499719E+03</rscale>
<asrwt>0</asrwt>
<pdfrwt beam="2">  1        4 0.24028613E+00 0.12499719E+03</pdfrwt>
<pdfrwt beam="1">  1       -4 0.38475571E-03 0.12499719E+03</pdfrwt>
<totfact> 0.16700428E+03</totfact>
</mgrwt>
</event>
<event>
 5    1  0.3296424E-002  0.1250009E+03  0.7818608E-02  0.1235068E+00
         -4   -1    0    0    0  501 -0.00000000000E+00  0.00000000000E+00  0.56359158692E+02  0.56373465996E+02  0.12700000000E+01 0. -1.
          4   -1    0    0  501    0  0.00000000000E+00 -0.00000000000E+00 -0.69282024899E+02  0.69293664025E+02  0.12700000000E+01 0. -1.
         25    2    1    2    0    0  0.00000000000E+00  0.00000000000E+00 -0.12922866207E+02  0.12566713002E+03  0.12500090838E+03 0.  0.
    9000005    1    3    3    0    0  0.41537830406E+02  0.39248613293E+02 -0.31883790613E+02  0.65447850263E+02  0.10000000000E+01 0.  0.
    9000005    1    3    3    0    0 -0.41537830406E+02 -0.39248613293E+02  0.18960924406E+02  0.60219279758E+02  0.10000000000E+01 0.  0.
<mgrwt>
<rscale>  0 0.12500091E+03</rscale>
<asrwt>0</asrwt>
<pdfrwt beam="2">  1        4 0.10660769E-01 0.12500091E+03</pdfrwt>
<pdfrwt beam="1">  1       -4 0.86726356E-02 0.12500091E+03</pdfrwt>
<totfact> 0.10438054E+04</totfact>
</mgrwt>
</event>
<event>
 5    1  0.3296424E-002  0.1249779E+03  0.7818608E-02  0.1235104E+00
         -4   -1    0    0    0  501 -0.00000000000E+00  0.00000000000E+00  0.21976394425E+03  0.21976761384E+03  0.12700000000E+01 0. -1.
          4   -1    0    0  501    0  0.00000000000E+00 -0.00000000000E+00 -0.17741954815E+02  0.17787351142E+02  0.12700000000E+01 0. -1.
         25    2    1    2    0    0  0.00000000000E+00  0.00000000000E+00  0.20202198944E+03  0.23755496498E+03  0.12497790674E+03 0.  0.
    9000005    1    3    3    0    0  0.56320230750E+02  0.98799075848E+01  0.53139804546E+02  0.78066764969E+02  0.10000000000E+01 0.  0.
    9000005    1    3    3    0    0 -0.56320230750E+02 -0.98799075848E+01  0.14888218489E+03  0.15948820002E+03  0.10000000000E+01 0.  0.
<mgrwt>
<rscale>  0 0.12497791E+03</rscale>
<asrwt>0</asrwt>
<pdfrwt beam="2">  1        4 0.27333058E-02 0.12497791E+03</pdfrwt>
<pdfrwt beam="1">  1       -4 0.33813613E-01 0.12497791E+03</pdfrwt>
<totfact> 0.84204338E+03</totfact>
</mgrwt>
</event>
<event>
 5    1  0.3296424E-002  0.1250024E+03  0.7818608E-02  0.1235066E+00
          4   -1    0    0  501    0  0.00000000000E+00  0.00000000000E+00  0.45841402382E+02  0.45858991184E+02  0.12700000000E+01 0. -1.
         -4   -1    0    0    0  501 -0.00000000000E+00 -0.00000000000E+00 -0.85176872516E+02  0.85186339936E+02  0.12700000000E+01 0. -1.
         25    2    1    2    0    0  0.00000000000E+00  0.00000000000E+00 -0.39335470134E+02  0.13104533112E+03  0.12500239837E+03 0.  0.
    9000005    1    3    3    0    0 -0.44468896799E+02 -0.43907489059E+02 -0.19434443206E+02  0.65452639066E+02  0.10000000000E+01 0.  0.
    9000005    1    3    3    0    0  0.44468896799E+02  0.43907489059E+02 -0.19901026928E+02  0.65592692053E+02  0.10000000000E+01 0.  0.
<mgrwt>
<rscale>  0 0.12500240E+03</rscale>
<asrwt>0</asrwt>
<pdfrwt beam="1">  1        4 0.70546047E-02 0.12500240E+03</pdfrwt>
<pdfrwt beam="2">  1       -4 0.13106216E-01 0.12500240E+03</pdfrwt>
<totfact> 0.10321559E+04</totfact>
</mgrwt>
</event>
<event>
 5    1  0.3296424E-002  0.1249981E+03  0.7818608E-02  0.1235072E+00
         -4   -1    0    0    0  501 -0.00000000000E+00  0.00000000000E+00  0.25731694130E+03  0.25732007535E+03  0.12700000000E+01 0. -1.
          4   -1    0    0  501    0  0.00000000000E+00 -0.00000000000E+00 -0.15150444178E+02  0.15203580459E+02  0.12700000000E+01 0. -1.
         25    2    1    2    0    0  0.00000000000E+00  0.00000000000E+00  0.24216649712E+03  0.27252365581E+03  0.12499812258E+03 0.  0.
    9000005    1    3    3    0    0 -0.49759238022E+02 -0.36169082576E+02  0.14506057228E+03  0.15756825166E+03  0.10000000000E+01 0.  0.
    9000005    1    3    3    0    0  0.49759238022E+02  0.36169082576E+02  0.97105924843E+02  0.11495540415E+03  0.10000000000E+01 0.  0.
<mgrwt>
<rscale>  0 0.12499812E+03</rscale>
<asrwt>0</asrwt>
<pdfrwt beam="2">  1        4 0.23351660E-02 0.12499812E+03</pdfrwt>
<pdfrwt beam="1">  1       -4 0.39591552E-01 0.12499812E+03</pdfrwt>
<totfact> 0.79183277E+03</totfact>
</mgrwt>
</event>
<event>
 5    1  0.3296424E-002  0.1249950E+03  0.7818608E-02  0.1235077E+00
         -4   -1    0    0    0  501 -0.00000000000E+00  0.00000000000E+00  0.65807015823E+02  0.65819269454E+02  0.12700000000E+01 0.  1.
          4   -1    0    0  501    0  0.00000000000E+00 -0.00000000000E+00 -0.59329836152E+02  0.59343427250E+02  0.12700000000E+01 0.  1.
         25    2    1    2    0    0  0.00000000000E+00  0.00000000000E+00  0.64771796708E+01  0.12516269670E+03  0.12499498706E+03 0.  0.
    9000005    1    3    3    0    0 -0.32252053591E+02 -0.23405782615E+02 -0.44960295946E+02  0.60087052118E+02  0.10000000000E+01 0.  0.
    9000005    1    3    3    0    0  0.32252053591E+02  0.23405782615E+02  0.51437475616E+02  0.65075644587E+02  0.10000000000E+01 0.  0.
<mgrwt>
<rscale>  0 0.12499499E+03</rscale>
<asrwt>0</asrwt>
<pdfrwt beam="2">  1        4 0.91296551E-02 0.12499499E+03</pdfrwt>
<pdfrwt beam="1">  1       -4 0.10126144E-01 0.12499499E+03</pdfrwt>
<totfact> 0.10450514E+04</totfact>
</mgrwt>
</event>
<event>
 5    1  0.3296424E-002  0.1249990E+03  0.7818608E-02  0.1235071E+00
          4   -1    0    0  501    0  0.00000000000E+00  0.00000000000E+00  0.31064777751E+02  0.31090727182E+02  0.12700000000E+01 0. -1.
         -4   -1    0    0    0  501 -0.00000000000E+00 -0.00000000000E+00 -0.12566161541E+03  0.12566803288E+03  0.12700000000E+01 0. -1.
         25    2    1    2    0    0  0.00000000000E+00  0.00000000000E+00 -0.94596837656E+02  0.15675876006E+03  0.12499898864E+03 0.  0.
    9000005    1    3    3    0    0 -0.34524756986E+02 -0.39619065255E+02 -0.48897788323E+01  0.52787679562E+02  0.10000000000E+01 0.  0.
    9000005    1    3    3    0    0  0.34524756986E+02  0.39619065255E+02 -0.89707058824E+02  0.10397108050E+03  0.10000000000E+01 0.  0.
<mgrwt>
<rscale>  0 0.12499899E+03</rscale>
<asrwt>0</asrwt>
<pdfrwt beam="1">  1        4 0.47816864E-02 0.12499899E+03</pdfrwt>
<pdfrwt beam="2">  1       -4 0.19335046E-01 0.12499899E+03</pdfrwt>
<totfact> 0.97973563E+03</totfact>
</mgrwt>
</event>
<event>
 5    1  0.3296424E-002  0.1249672E+03  0.7818608E-02  0.1235121E+00
          4   -1    0    0  501    0  0.00000000000E+00  0.00000000000E+00  0.71816818023E+01  0.72931100026E+01  0.12700000000E+01 0. -1.
         -4   -1    0    0    0  501 -0.00000000000E+00 -0.00000000000E+00 -0.53933567419E+03  0.53933716946E+03  0.12700000000E+01 0. -1.
         25    2    1    2    0    0  0.00000000000E+00  0.00000000000E+00 -0.53215399239E+03  0.54663027946E+03  0.12496715890E+03 0.  0.
    9000005    1    3    3    0    0 -0.27118763897E+02 -0.53882962141E+02 -0.19495141410E+03  0.20407316047E+03  0.10000000000E+01 0.  0.
    9000005    1    3    3    0    0  0.27118763897E+02  0.53882962141E+02 -0.33720257829E+03  0.34255711899E+03  0.10000000000E+01 0.  0.
<mgrwt>
<rscale>  0 0.12496716E+03</rscale>
<asrwt>0</asrwt>
<pdfrwt beam="1">  1        4 0.11135610E-02 0.12496716E+03</pdfrwt>
<pdfrwt beam="2">  1       -4 0.82983374E-01 0.12496716E+03</pdfrwt>
<totfact> 0.52457478E+03</totfact>
</mgrwt>
</event>
<event>
 5    1  0.3296424E-002  0.1249913E+03  0.7818608E-02  0.1235083E+00
         -4   -1    0    0    0  501 -0.00000000000E+00  0.00000000000E+00  0.43426923703E+03  0.43427109406E+03  0.12700000000E+01 0.  1.
          4   -1    0    0  501    0  0.00000000000E+00 -0.00000000000E+00 -0.89470295734E+01  0.90367161174E+01  0.12700000000E+01 0.  1.
         25    2    1    2    0    0  0.00000000000E+00  0.00000000000E+00  0.42532220746E+03  0.44330781017E+03  0.12499133731E+03 0.  0.
    9000005    1    3    3    0    0  0.45516051024E+02 -0.40954190264E+02  0.16839795715E+03  0.17918657476E+03  0.10000000000E+01 0.  0.
    9000005    1    3    3    0    0 -0.45516051024E+02  0.40954190264E+02  0.25692425030E+03  0.26412123541E+03  0.10000000000E+01 0.  0.
<mgrwt>
<rscale>  0 0.12499134E+03</rscale>
<asrwt>0</asrwt>
<pdfrwt beam="2">  1        4 0.13835085E-02 0.12499134E+03</pdfrwt>
<pdfrwt beam="1">  1       -4 0.66817663E-01 0.12499134E+03</pdfrwt>
<totfact> 0.60559529E+03</totfact>
</mgrwt>
</event>
<event>
 5    1  0.3296424E-002  0.1249983E+03  0.7818608E-02  0.1235072E+00
          4   -1    0    0  501    0  0.00000000000E+00  0.00000000000E+00  0.75197104978E+02  0.75207828695E+02  0.12700000000E+01 0.  1.
         -4   -1    0    0    0  501 -0.00000000000E+00 -0.00000000000E+00 -0.51923241434E+02  0.51938770692E+02  0.12700000000E+01 0.  1.
         25    2    1    2    0    0  0.00000000000E+00  0.00000000000E+00  0.23273863544E+02  0.12714659939E+03  0.12499834003E+03 0.  0.
    9000005    1    3    3    0    0  0.57544639790E+01  0.39354145321E+02 -0.37391908544E+02  0.54598694437E+02  0.10000000000E+01 0.  0.
    9000005    1    3    3    0    0 -0.57544639790E+01 -0.39354145321E+02  0.60665772088E+02  0.72547904950E+02  0.10000000000E+01 0.  0.
<mgrwt>
<rscale>  0 0.12499834E+03</rscale>
<asrwt>0</asrwt>
<pdfrwt beam="1">  1        4 0.11570805E-01 0.12499834E+03</pdfrwt>
<pdfrwt beam="2">  1       -4 0.79902104E-02 0.12499834E+03</pdfrwt>
<totfact> 0.10406352E+04</totfact>
</mgrwt>
</event>
<event>
 5    1  0.3296424E-002  0.1250028E+03  0.7818608E-02  0.1235065E+00
          4   -1    0    0  501    0  0.00000000000E+00  0.00000000000E+00  0.50265187263E+02  0.50281228611E+02  0.12700000000E+01 0. -1.
         -4   -1    0    0    0  501 -0.00000000000E+00 -0.00000000000E+00 -0.77682652967E+02  0.77693033613E+02  0.12700000000E+01 0. -1.
         25    2    1    2    0    0  0.00000000000E+00  0.00000000000E+00 -0.27417465704E+02  0.12797426222E+03  0.12500277743E+03 0.  0.
    9000005    1    3    3    0    0  0.41703432869E+01 -0.30403864882E+02  0.42024657582E+02  0.52046696416E+02  0.10000000000E+01 0.  0.
    9000005    1    3    3    0    0 -0.41703432869E+01  0.30403864882E+02 -0.69442123286E+02  0.75927565807E+02  0.10000000000E+01 0.  0.
<mgrwt>
<rscale>  0 0.12500278E+03</rscale>
<asrwt>0</asrwt>
<pdfrwt beam="1">  1        4 0.77351382E-02 0.12500278E+03</pdfrwt>
<pdfrwt beam="2">  1       -4 0.11953210E-01 0.12500278E+03</pdfrwt>
<totfact> 0.10387392E+04</totfact>
</mgrwt>
</event>
<event>
 5    1  0.3296424E-002  0.1250036E+03  0.7818608E-02  0.1235064E+00
          4   -1    0    0  501    0  0.00000000000E+00  0.00000000000E+00  0.17858775299E+03  0.17859226864E+03  0.12700000000E+01 0. -1.
         -4   -1    0    0    0  501 -0.00000000000E+00 -0.00000000000E+00 -0.21851021993E+02  0.21887897618E+02  0.12700000000E+01 0. -1.
         25    2    1    2    0    0  0.00000000000E+00  0.00000000000E+00  0.15673673100E+03  0.20048016626E+03  0.12500357683E+03 0.  0.
    9000005    1    3    3    0    0 -0.35957123767E+02 -0.23762286885E+02  0.15094631182E+03  0.15698200559E+03  0.10000000000E+01 0.  0.
    9000005    1    3    3    0    0  0.35957123767E+02  0.23762286885E+02  0.57904191835E+01  0.43498160673E+02  0.10000000000E+01 0.  0.
<mgrwt>
<rscale>  0 0.12500358E+03</rscale>
<asrwt>0</asrwt>
<pdfrwt beam="1">  1        4 0.27478223E-01 0.12500358E+03</pdfrwt>
<pdfrwt beam="2">  1       -4 0.33648796E-02 0.12500358E+03</pdfrwt>
<totfact> 0.90047378E+03</totfact>
</mgrwt>
</event>
<event>
 5    1  0.3296424E-002  0.1249828E+03  0.7818608E-02  0.1235096E+00
          4   -1    0    0  501    0  0.00000000000E+00  0.00000000000E+00  0.35347109055E+02  0.35369916858E+02  0.12700000000E+01 0.  1.
         -4   -1    0    0    0  501 -0.00000000000E+00 -0.00000000000E+00 -0.11041863142E+03  0.11042593475E+03  0.12700000000E+01 0.  1.
         25    2    1    2    0    0  0.00000000000E+00  0.00000000000E+00 -0.75071522367E+02  0.14579585161E+03  0.12498278632E+03 0.  0.
    9000005    1    3    3    0    0  0.14049177153E+02  0.59928340926E+02 -0.50066502992E+02  0.79350111195E+02  0.10000000000E+01 0.  0.
    9000005    1    3    3    0    0 -0.14049177153E+02 -0.59928340926E+02 -0.25005019375E+02  0.66445740411E+02  0.10000000000E+01 0.  0.
<mgrwt>
<rscale>  0 0.12498279E+03</rscale>
<asrwt>0</asrwt>
<pdfrwt beam="1">  1        4 0.54403331E-02 0.12498279E+03</pdfrwt>
<pdfrwt beam="2">  1       -4 0.16989798E-01 0.12498279E+03</pdfrwt>
<totfact> 0.10018726E+04</totfact>
</mgrwt>
</event>
<event>
 5    1  0.3296424E-002  0.1249997E+03  0.7818608E-02  0.1235070E+00
          4   -1    0    0  501    0  0.00000000000E+00  0.00000000000E+00  0.33477072576E+02  0.33501153537E+02  0.12700000000E+01 0.  1.
         -4   -1    0    0    0  501 -0.00000000000E+00 -0.00000000000E+00 -0.11661424325E+03  0.11662115858E+03  0.12700000000E+01 0.  1.
         25    2    1    2    0    0  0.00000000000E+00  0.00000000000E+00 -0.83137170673E+02  0.15012231212E+03  0.12499967779E+03 0.  0.
    9000005    1    3    3    0    0 -0.61691427276E+01 -0.62182417295E+02 -0.42433391567E+02  0.75540082489E+02  0.10000000000E+01 0.  0.
    9000005    1    3    3    0    0  0.61691427276E+01  0.62182417295E+02 -0.40703779106E+02  0.74582229627E+02  0.10000000000E+01 0.  0.
<mgrwt>
<rscale>  0 0.12499968E+03</rscale>
<asrwt>0</asrwt>
<pdfrwt beam="1">  1        4 0.51527032E-02 0.12499968E+03</pdfrwt>
<pdfrwt beam="2">  1       -4 0.17943037E-01 0.12499968E+03</pdfrwt>
<totfact> 0.99280043E+03</totfact>
</mgrwt>
</event>
<event>
 5    1  0.3296424E-002  0.1250003E+03  0.7818608E-02  0.1235069E+00
         -4   -1    0    0    0  501 -0.00000000000E+00  0.00000000000E+00  0.36434695403E+02  0.36456822807E+02  0.12700000000E+01 0.  1.
          4   -1    0    0  501    0  0.00000000000E+00 -0.00000000000E+00 -0.10715446505E+03  0.10716199083E+03  0.12700000000E+01 0.  1.
         25    2    1    2    0    0  0.00000000000E+00  0.00000000000E+00 -0.70719769643E+02  0.14361881364E+03  0.12500031125E+03 0.  0.
    9000005    1    3    3    0    0 -0.20234807542E+02 -0.48941167679E+02  0.27565139847E+01  0.53040396863E+02  0.10000000000E+01 0.  0.
    9000005    1    3    3    0    0  0.20234807542E+02  0.48941167679E+02 -0.73476283627E+02  0.90578416776E+02  0.10000000000E+01 0.  0.
<mgrwt>
<rscale>  0 0.12500031E+03</rscale>
<asrwt>0</asrwt>
<pdfrwt beam="2">  1        4 0.16487583E-01 0.12500031E+03</pdfrwt>
<pdfrwt beam="1">  1       -4 0.56076188E-02 0.12500031E+03</pdfrwt>
<totfact> 0.10059056E+04</totfact>
</mgrwt>
</event>
<event>
 5    1  0.3296424E-002  0.1250039E+03  0.7818608E-02  0.1235063E+00
          4   -1    0    0  501    0  0.00000000000E+00  0.00000000000E+00  0.14701890820E+03  0.14702439344E+03  0.12700000000E+01 0.  1.
         -4   -1    0    0    0  501 -0.00000000000E+00 -0.00000000000E+00 -0.26550218428E+02  0.26580575588E+02  0.12700000000E+01 0.  1.
         25    2    1    2    0    0  0.00000000000E+00  0.00000000000E+00  0.12046868977E+03  0.17360496903E+03  0.12500392017E+03 0.  0.
    9000005    1    3    3    0    0  0.59362017923E+02 -0.65127999705E+01  0.34655249372E+02  0.69052531050E+02  0.10000000000E+01 0.  0.
    9000005    1    3    3    0    0 -0.59362017923E+02  0.65127999705E+01  0.85813440397E+02  0.10455243798E+03  0.10000000000E+01 0.  0.
<mgrwt>
<rscale>  0 0.12500392E+03</rscale>
<asrwt>0</asrwt>
<pdfrwt beam="1">  1        4 0.22621051E-01 0.12500392E+03</pdfrwt>
<pdfrwt beam="2">  1       -4 0.40874061E-02 0.12500392E+03</pdfrwt>
<totfact> 0.94772623E+03</totfact>
</mgrwt>
</event>
<event>
 5    1  0.3296424E-002  0.1249907E+03  0.7818608E-02  0.1235084E+00
          4   -1    0    0  501    0  0.00000000000E+00  0.00000000000E+00  0.68757954572E+03  0.68758071860E+03  0.12700000000E+01 0. -1.
         -4   -1    0    0    0  501 -0.00000000000E+00 -0.00000000000E+00 -0.56081379980E+01  0.57501401552E+01  0.12700000000E+01 0. -1.
         25    2    1    2    0    0  0.00000000000E+00  0.00000000000E+00  0.68197140772E+03  0.69333085875E+03  0.12499071467E+03 0.  0.
    9000005    1    3    3    0    0  0.39820785735E+02  0.15716491419E+02  0.88489905842E+02  0.98306492741E+02  0.10000000000E+01 0.  0.
    9000005    1    3    3    0    0 -0.39820785735E+02 -0.15716491419E+02  0.59348150188E+03  0.59502436601E+03  0.10000000000E+01 0.  0.
<mgrwt>
<rscale>  0 0.12499071E+03</rscale>
<asrwt>0</asrwt>
<pdfrwt beam="1">  1        4 0.10579250E+00 0.12499071E+03</pdfrwt>
<pdfrwt beam="2">  1       -4 0.87380377E-03 0.12499071E+03</pdfrwt>
<totfact> 0.43449909E+03</totfact>
</mgrwt>
</event>
<event>
 5    1  0.3296424E-002  0.1250037E+03  0.7818608E-02  0.1235064E+00
          4   -1    0    0  501    0  0.00000000000E+00  0.00000000000E+00  0.27000700215E+03  0.27000998890E+03  0.12700000000E+01 0.  1.
         -4   -1    0    0    0  501 -0.00000000000E+00 -0.00000000000E+00 -0.14437128293E+02  0.14492880091E+02  0.12700000000E+01 0.  1.
         25    2    1    2    0    0  0.00000000000E+00  0.00000000000E+00  0.25556987385E+03  0.28450286900E+03  0.12500368813E+03 0.  0.
    9000005    1    3    3    0    0  0.10251117556E+02  0.43259563324E+01 -0.12175819498E+02  0.16524221306E+02  0.10000000000E+01 0.  0.
    9000005    1    3    3    0    0 -0.10251117556E+02 -0.43259563324E+01  0.26774569335E+03  0.26797864769E+03  0.10000000000E+01 0.  0.
<mgrwt>
<rscale>  0 0.12500369E+03</rscale>
<asrwt>0</asrwt>
<pdfrwt beam="1">  1        4 0.41544053E-01 0.12500369E+03</pdfrwt>
<pdfrwt beam="2">  1       -4 0.22256152E-02 0.12500369E+03</pdfrwt>
<totfact> 0.77578465E+03</totfact>
</mgrwt>
</event>
<event>
 5    1  0.3296424E-002  0.1249961E+03  0.7818608E-02  0.1235075E+00
         -4   -1    0    0    0  501 -0.00000000000E+00  0.00000000000E+00  0.24395501048E+02  0.24428536006E+02  0.12700000000E+01 0. -1.
          4   -1    0    0  501    0  0.00000000000E+00 -0.00000000000E+00 -0.15996794809E+03  0.15997298934E+03  0.12700000000E+01 0. -1.
         25    2    1    2    0    0  0.00000000000E+00  0.00000000000E+00 -0.13557244705E+03  0.18440152534E+03  0.12499613654E+03 0.  0.
    9000005    1    3    3    0    0 -0.51623751760E+02  0.31160161568E+02 -0.43588347184E+02  0.74410425512E+02  0.10000000000E+01 0.  0.
    9000005    1    3    3    0    0  0.51623751760E+02 -0.31160161568E+02 -0.91984099862E+02  0.10999109983E+03  0.10000000000E+01 0.  0.
<mgrwt>
<rscale>  0 0.12499614E+03</rscale>
<asrwt>0</asrwt>
<pdfrwt beam="2">  1        4 0.24613382E-01 0.12499614E+03</pdfrwt>
<pdfrwt beam="1">  1       -4 0.37560830E-02 0.12499614E+03</pdfrwt>
<totfact> 0.92838699E+03</totfact>
</mgrwt>
</event>
<event>
 5    1  0.3296424E-002  0.1249897E+03  0.7818608E-02  0.1235085E+00
         -4   -1    0    0    0  501 -0.00000000000E+00  0.00000000000E+00  0.42008217956E+02  0.42027411006E+02  0.12700000000E+01 0. -1.
          4   -1    0    0  501    0  0.00000000000E+00 -0.00000000000E+00 -0.92927605594E+02  0.92936283450E+02  0.12700000000E+01 0. -1.
         25    2    1    2    0    0  0.00000000000E+00  0.00000000000E+00 -0.50919387638E+02  0.13496369446E+03  0.12498965871E+03 0.  0.
    9000005    1    3    3    0    0 -0.51501450029E+02  0.26757413776E+02 -0.50464561687E+02  0.76915736578E+02  0.10000000000E+01 0.  0.
    9000005    1    3    3    0    0  0.51501450029E+02 -0.26757413776E+02 -0.45482595051E+00  0.58047957878E+02  0.10000000000E+01 0.  0.
<mgrwt>
<rscale>  0 0.12498966E+03</rscale>
<asrwt>0</asrwt>
<pdfrwt beam="2">  1        4 0.14298699E-01 0.12498966E+03</pdfrwt>
<pdfrwt beam="1">  1       -4 0.64649467E-02 0.12498966E+03</pdfrwt>
<totfact> 0.10241224E+04</totfact>
</mgrwt>
</event>
<event>
 5    1  0.3296424E-002  0.1249918E+03  0.7818608E-02  0.1235082E+00
         -4   -1    0    0    0  501 -0.00000000000E+00  0.00000000000E+00  0.77647970777E+01  0.78679713814E+01  0.12700000000E+01 0.  1.
          4   -1    0    0  501    0  0.00000000000E+00 -0.00000000000E+00 -0.49958232923E+03  0.49958394347E+03  0.12700000000E+01 0.  1.
         25    2    1    2    0    0  0.00000000000E+00  0.00000000000E+00 -0.49181753215E+03  0.50745191485E+03  0.12499184357E+03 0.  0.
    9000005    1    3    3    0    0 -0.10830155120E+02 -0.35625104269E+02 -0.42173154063E+02  0.56267354991E+02  0.10000000000E+01 0.  0.
    9000005    1    3    3    0    0  0.10830155120E+02  0.35625104269E+02 -0.44964437808E+03  0.45118455986E+03  0.10000000000E+01 0.  0.
<mgrwt>
<rscale>  0 0.12499184E+03</rscale>
<asrwt>0</asrwt>
<pdfrwt beam="2">  1        4 0.76866855E-01 0.12499184E+03</pdfrwt>
<pdfrwt beam="1">  1       -4 0.12026452E-02 0.12499184E+03</pdfrwt>
<totfact> 0.55300716E+03</totfact>
</mgrwt>
</event>
<event>
 5    1  0.3296424E-002  0.1249975E+03  0.7818608E-02  0.1235073E+00
          4   -1    0    0  501    0  0.00000000000E+00  0.00000000000E+00  0.31476202889E+02  0.31501813413E+02  0.12700000000E+01 0. -1.
         -4   -1    0    0    0  501 -0.00000000000E+00 -0.00000000000E+00 -0.12401739850E+03  0.12402390104E+03  0.12700000000E+01 0. -1.
         25    2    1    2    0    0  0.00000000000E+00  0.00000000000E+00 -0.92541195608E+02  0.15552571446E+03  0.12499749987E+03 0.  0.
    9000005    1    3    3    0    0 -0.24527530158E+02 -0.51218804290E+02 -0.78719218139E+02  0.97070494760E+02  0.10000000000E+01 0.  0.
    9000005    1    3    3    0    0  0.24527530158E+02  0.51218804290E+02 -0.13821977469E+02  0.58455219696E+02  0.10000000000E+01 0.  0.
<mgrwt>
<rscale>  0 0.12499750E+03</rscale>
<asrwt>0</asrwt>
<pdfrwt beam="1">  1        4 0.48449630E-02 0.12499750E+03</pdfrwt>
<pdfrwt beam="2">  1       -4 0.19082070E-01 0.12499750E+03</pdfrwt>
<totfact> 0.98217915E+03</totfact>
</mgrwt>
</event>
<event>
 5    1  0.3296424E-002  0.1250026E+03  0.7818608E-02  0.1235065E+00
         -4   -1    0    0    0  501 -0.00000000000E+00  0.00000000000E+00  0.77342908883E+01  0.78378667726E+01  0.12700000000E+01 0. -1.
          4   -1    0    0  501    0  0.00000000000E+00 -0.00000000000E+00 -0.50161296816E+03  0.50161457587E+03  0.12700000000E+01 0. -1.
         25    2    1    2    0    0  0.00000000000E+00  0.00000000000E+00 -0.49387867727E+03  0.50945244264E+03  0.12500257378E+03 0.  0.
    9000005    1    3    3    0    0 -0.80979234402E+01  0.61943043043E+02 -0.25387244349E+03  0.26144738383E+03  0.10000000000E+01 0.  0.
    9000005    1    3    3    0    0  0.80979234402E+01 -0.61943043043E+02 -0.24000623378E+03  0.24800505882E+03  0.10000000000E+01 0.  0.
<mgrwt>
<rscale>  0 0.12500257E+03</rscale>
<asrwt>0</asrwt>
<pdfrwt beam="2">  1        4 0.77179291E-01 0.12500257E+03</pdfrwt>
<pdfrwt beam="1">  1       -4 0.11979823E-02 0.12500257E+03</pdfrwt>
<totfact> 0.55135252E+03</totfact>
</mgrwt>
</event>
<event>
 5    1  0.3296424E-002  0.1250006E+03  0.7818608E-02  0.1235068E+00
         -4   -1    0    0    0  501 -0.00000000000E+00  0.00000000000E+00  0.14300431188E+03  0.14300995111E+03  0.12700000000E+01 0.  1.
          4   -1    0    0  501    0  0.00000000000E+00 -0.00000000000E+00 -0.27294940187E+02  0.27324469982E+02  0.12700000000E+01 0.  1.
         25    2    1    2    0    0  0.00000000000E+00  0.00000000000E+00  0.11570937170E+03  0.17033442110E+03  0.12500062524E+03 0.  0.
    9000005    1    3    3    0    0  0.59775569165E+02 -0.17109356346E+02  0.49296917493E+02  0.79353858242E+02  0.10000000000E+01 0.  0.
    9000005    1    3    3    0    0 -0.59775569165E+02  0.17109356346E+02  0.66412454204E+02  0.90980562853E+02  0.10000000000E+01 0.  0.
<mgrwt>
<rscale>  0 0.12500063E+03</rscale>
<asrwt>0</asrwt>
<pdfrwt beam="2">  1        4 0.42019269E-02 0.12500063E+03</pdfrwt>
<pdfrwt beam="1">  1       -4 0.22003368E-01 0.12500063E+03</pdfrwt>
<totfact> 0.95385003E+03</totfact>
</mgrwt>
</event>
<event>
 5    1  0.3296424E-002  0.1249739E+03  0.7818608E-02  0.1235110E+00
          4   -1    0    0  501    0  0.00000000000E+00  0.00000000000E+00  0.50184403660E+03  0.50184564357E+03  0.12700000000E+01 0.  1.
         -4   -1    0    0    0  501 -0.00000000000E+00 -0.00000000000E+00 -0.77270913782E+01  0.78307624896E+01  0.12700000000E+01 0.  1.
         25    2    1    2    0    0  0.00000000000E+00  0.00000000000E+00  0.49411694522E+03  0.50967640606E+03  0.12497393064E+03 0.  0.
    9000005    1    3    3    0    0 -0.12737752226E+02  0.55576188613E+02  0.35124650927E+03  0.35584557514E+03  0.10000000000E+01 0.  0.
    9000005    1    3    3    0    0  0.12737752226E+02 -0.55576188613E+02  0.14287043595E+03  0.15383083092E+03  0.10000000000E+01 0.  0.
<mgrwt>
<rscale>  0 0.12497393E+03</rscale>
<asrwt>0</asrwt>
<pdfrwt beam="1">  1        4 0.77214859E-01 0.12497393E+03</pdfrwt>
<pdfrwt beam="2">  1       -4 0.11968818E-02 0.12497393E+03</pdfrwt>
<totfact> 0.55152940E+03</totfact>
</mgrwt>
</event>
<event>
 5    1  0.3296424E-002  0.1249764E+03  0.7818608E-02  0.1235106E+00
         -4   -1    0    0    0  501 -0.00000000000E+00  0.00000000000E+00  0.38488807000E+03  0.38489016528E+03  0.12700000000E+01 0.  1.
          4   -1    0    0  501    0  0.00000000000E+00 -0.00000000000E+00 -0.10103344432E+02  0.10182851698E+02  0.12700000000E+01 0.  1.
         25    2    1    2    0    0  0.00000000000E+00  0.00000000000E+00  0.37478472557E+03  0.39507301698E+03  0.12497639067E+03 0.  0.
    9000005    1    3    3    0    0 -0.43557464145E+02 -0.24831027422E+02  0.69537441477E+02  0.85733822805E+02  0.10000000000E+01 0.  0.
    9000005    1    3    3    0    0  0.43557464145E+02  0.24831027422E+02  0.30524728409E+03  0.30933919417E+03  0.10000000000E+01 0.  0.
<mgrwt>
<rscale>  0 0.12497639E+03</rscale>
<asrwt>0</asrwt>
<pdfrwt beam="2">  1        4 0.15606381E-02 0.12497639E+03</pdfrwt>
<pdfrwt beam="1">  1       -4 0.59219816E-01 0.12497639E+03</pdfrwt>
<totfact> 0.65068740E+03</totfact>
</mgrwt>
</event>
<event>
 5    1  0.3296424E-002  0.1250039E+03  0.7818608E-02  0.1235063E+00
         -4   -1    0    0    0  501 -0.00000000000E+00  0.00000000000E+00  0.12418527284E+03  0.12419176660E+03  0.12700000000E+01 0.  1.
          4   -1    0    0  501    0  0.00000000000E+00 -0.00000000000E+00 -0.31436860820E+02  0.31462503369E+02  0.12700000000E+01 0.  1.
         25    2    1    2    0    0  0.00000000000E+00  0.00000000000E+00  0.92748412018E+02  0.15565426996E+03  0.12500393524E+03 0.  0.
    9000005    1    3    3    0    0  0.59101347143E+02  0.11476546274E+02  0.67240627471E+02  0.90260635557E+02  0.10000000000E+01 0.  0.
    9000005    1    3    3    0    0 -0.59101347143E+02 -0.11476546274E+02  0.25507784547E+02  0.65393634407E+02  0.10000000000E+01 0.  0.
<mgrwt>
<rscale>  0 0.12500394E+03</rscale>
<asrwt>0</asrwt>
<pdfrwt beam="2">  1        4 0.48389123E-02 0.12500394E+03</pdfrwt>
<pdfrwt beam="1">  1       -4 0.19107898E-01 0.12500394E+03</pdfrwt>
<totfact> 0.98178522E+03</totfact>
</mgrwt>
</event>
<event>
 5    1  0.3296424E-002  0.1249997E+03  0.7818608E-02  0.1235070E+00
          4   -1    0    0  501    0  0.00000000000E+00  0.00000000000E+00  0.23776688613E+02  0.23810582131E+02  0.12700000000E+01 0.  1.
         -4   -1    0    0    0  501 -0.00000000000E+00 -0.00000000000E+00 -0.16413481665E+03  0.16413972992E+03  0.12700000000E+01 0.  1.
         25    2    1    2    0    0  0.00000000000E+00  0.00000000000E+00 -0.14035812804E+03  0.18795031205E+03  0.12499966277E+03 0.  0.
    9000005    1    3    3    0    0  0.15595925708E+02  0.47862245667E+01  0.20525782613E+02  0.26238303988E+02  0.10000000000E+01 0.  0.
    9000005    1    3    3    0    0 -0.15595925708E+02 -0.47862245667E+01 -0.16088391065E+03  0.16171200806E+03  0.10000000000E+01 0.  0.
<mgrwt>
<rscale>  0 0.12499966E+03</rscale>
<asrwt>0</asrwt>
<pdfrwt beam="1">  1        4 0.36609373E-02 0.12499966E+03</pdfrwt>
<pdfrwt beam="2">  1       -4 0.25254495E-01 0.12499966E+03</pdfrwt>
<totfact> 0.92205878E+03</totfact>
</mgrwt>
</event>
<event>
 5    1  0.3296424E-002  0.1250012E+03  0.7818608E-02  0.1235067E+00
         -4   -1    0    0    0  501 -0.00000000000E+00  0.00000000000E+00  0.96867498451E+03  0.96867581704E+03  0.12700000000E+01 0.  1.
          4   -1    0    0  501    0  0.00000000000E+00 -0.00000000000E+00 -0.39318021682E+01  0.41318238455E+01  0.12700000000E+01 0.  1.
         25    2    1    2    0    0  0.00000000000E+00  0.00000000000E+00  0.96474318234E+03  0.97280764089E+03  0.12500119314E+03 0.  0.
    9000005    1    3    3    0    0  0.11563666147E+02  0.58760311148E+02  0.34341031705E+03  0.34859451860E+03  0.10000000000E+01 0.  0.
    9000005    1    3    3    0    0 -0.11563666147E+02 -0.58760311148E+02  0.62133286529E+03  0.62421312228E+03  0.10000000000E+01 0.  0.
<mgrwt>
<rscale>  0 0.12500119E+03</rscale>
<asrwt>0</asrwt>
<pdfrwt beam="2">  1        4 0.62034177E-03 0.12500119E+03</pdfrwt>
<pdfrwt beam="1">  1       -4 0.14904266E+00 0.12500119E+03</pdfrwt>
<totfact> 0.31518915E+03</totfact>
</mgrwt>
</event>
<event>
 5    1  0.3296424E-002  0.1249950E+03  0.7818608E-02  0.1235077E+00
         -4   -1    0    0    0  501 -0.00000000000E+00  0.00000000000E+00  0.13895966492E+03  0.13896546828E+03  0.12700000000E+01 0. -1.
          4   -1    0    0  501    0  0.00000000000E+00 -0.00000000000E+00 -0.28087691441E+02  0.28116388646E+02  0.12700000000E+01 0. -1.
         25    2    1    2    0    0  0.00000000000E+00  0.00000000000E+00  0.11087197348E+03  0.16708185693E+03  0.12499500955E+03 0.  0.
    9000005    1    3    3    0    0  0.28133564246E+02 -0.54225208882E+02  0.73021062271E+02  0.95210011294E+02  0.10000000000E+01 0.  0.
    9000005    1    3    3    0    0 -0.28133564246E+02  0.54225208882E+02  0.37850911212E+02  0.71871845636E+02  0.10000000000E+01 0.  0.
<mgrwt>
<rscale>  0 0.12499501E+03</rscale>
<asrwt>0</asrwt>
<pdfrwt beam="2">  1        4 0.43238372E-02 0.12499501E+03</pdfrwt>
<pdfrwt beam="1">  1       -4 0.21381064E-01 0.12499501E+03</pdfrwt>
<totfact> 0.96005328E+03</totfact>
</mgrwt>
</event>
<event>
 5    1  0.3296424E-002  0.1249810E+03  0.7818608E-02  0.1235099E+00
          4   -1    0    0  501    0  0.00000000000E+00  0.00000000000E+00  0.38399180217E+03  0.38399390234E+03  0.12700000000E+01 0. -1.
         -4   -1    0    0    0  501 -0.00000000000E+00 -0.00000000000E+00 -0.10127871536E+02  0.10207187754E+02  0.12700000000E+01 0. -1.
         25    2    1    2    0    0  0.00000000000E+00  0.00000000000E+00  0.37386393064E+03  0.39420109010E+03  0.12498104177E+03 0.  0.
    9000005    1    3    3    0    0 -0.52178612752E+02  0.18711448228E+02  0.27787361546E+03  0.28335044043E+03  0.10000000000E+01 0.  0.
    9000005    1    3    3    0    0  0.52178612752E+02 -0.18711448228E+02  0.95990315174E+02  0.11085064966E+03  0.10000000000E+01 0.  0.
<mgrwt>
<rscale>  0 0.12498104E+03</rscale>
<asrwt>0</asrwt>
<pdfrwt beam="1">  1        4 0.59081926E-01 0.12498104E+03</pdfrwt>
<pdfrwt beam="2">  1       -4 0.15643969E-02 0.12498104E+03</pdfrwt>
<totfact> 0.65147986E+03</totfact>
</mgrwt>
</event>
<event>
 5    1  0.3296424E-002  0.1249802E+03  0.7818608E-02  0.1235100E+00
          4   -1    0    0  501    0  0.00000000000E+00  0.00000000000E+00  0.13997146102E+03  0.13997722243E+03  0.12700000000E+01 0. -1.
         -4   -1    0    0    0  501 -0.00000000000E+00 -0.00000000000E+00 -0.27877838289E+02  0.27906751292E+02  0.12700000000E+01 0. -1.
         25    2    1    2    0    0  0.00000000000E+00  0.00000000000E+00  0.11209362273E+03  0.16788397372E+03  0.12498019194E+03 0.  0.
    9000005    1    3    3    0    0 -0.16653355074E+02 -0.54949117579E+02  0.89149235710E+02  0.10604398137E+03  0.10000000000E+01 0.  0.
    9000005    1    3    3    0    0  0.16653355074E+02  0.54949117579E+02  0.22944387016E+02  0.61839992347E+02  0.10000000000E+01 0.  0.
<mgrwt>
<rscale>  0 0.12498019E+03</rscale>
<asrwt>0</asrwt>
<pdfrwt beam="1">  1        4 0.21536738E-01 0.12498019E+03</pdfrwt>
<pdfrwt beam="2">  1       -4 0.42915655E-02 0.12498019E+03</pdfrwt>
<totfact> 0.95886632E+03</totfact>
</mgrwt>
</event>
<event>
 5    1  0.3296424E-002  0.1249955E+03  0.7818608E-02  0.1235076E+00
          4   -1    0    0  501    0  0.00000000000E+00  0.00000000000E+00  0.52637768472E+03  0.52637921679E+03  0.12700000000E+01 0. -1.
         -4   -1    0    0    0  501 -0.00000000000E+00 -0.00000000000E+00 -0.73645793521E+01  0.74732810086E+01  0.12700000000E+01 0. -1.
         25    2    1    2    0    0  0.00000000000E+00  0.00000000000E+00  0.51901310537E+03  0.53385249780E+03  0.12499554338E+03 0.  0.
    9000005    1    3    3    0    0  0.30803129066E+02  0.11310190758E+01  0.49167070792E+03  0.49263698297E+03  0.10000000000E+01 0.  0.
    9000005    1    3    3    0    0 -0.30803129066E+02 -0.11310190758E+01  0.27342397446E+02  0.41215514828E+02  0.10000000000E+01 0.  0.
<mgrwt>
<rscale>  0 0.12499554E+03</rscale>
<asrwt>0</asrwt>
<pdfrwt beam="1">  1        4 0.80989654E-01 0.12499554E+03</pdfrwt>
<pdfrwt beam="2">  1       -4 0.11414918E-02 0.12499554E+03</pdfrwt>
<totfact> 0.53335499E+03</totfact>
</mgrwt>
</event>
<event>
 5    1  0.3296424E-002  0.1249974E+03  0.7818608E-02  0.1235073E+00
          4   -1    0    0  501    0  0.00000000000E+00  0.00000000000E+00  0.12057371539E+03  0.12058040364E+03  0.12700000000E+01 0.  1.
         -4   -1    0    0    0  501 -0.00000000000E+00 -0.00000000000E+00 -0.32375833099E+02  0.32400732536E+02  0.12700000000E+01 0.  1.
         25    2    1    2    0    0  0.00000000000E+00  0.00000000000E+00  0.88197882288E+02  0.15298113618E+03  0.12499744632E+03 0.  0.
    9000005    1    3    3    0    0 -0.16613586569E+02 -0.50170494805E+01 -0.29373354686E+02  0.34131744896E+02  0.10000000000E+01 0.  0.
    9000005    1    3    3    0    0  0.16613586569E+02  0.50170494805E+01  0.11757123697E+03  0.11884939128E+03  0.10000000000E+01 0.  0.
<mgrwt>
<rscale>  0 0.12499745E+03</rscale>
<asrwt>0</asrwt>
<pdfrwt beam="1">  1        4 0.18552232E-01 0.12499745E+03</pdfrwt>
<pdfrwt beam="2">  1       -4 0.49833272E-02 0.12499745E+03</pdfrwt>
<totfact> 0.98718410E+03</totfact>
</mgrwt>
</event>
<event>
 5    1  0.3296424E-002  0.1249992E+03  0.7818608E-02  0.1235071E+00
          4   -1    0    0  501    0  0.00000000000E+00  0.00000000000E+00  0.31031500560E+03  0.31031760440E+03  0.12700000000E+01 0.  1.
         -4   -1    0    0    0  501 -0.00000000000E+00 -0.00000000000E+00 -0.12553155442E+02  0.12617234703E+02  0.12700000000E+01 0.  1.
         25    2    1    2    0    0  0.00000000000E+00  0.00000000000E+00  0.29776185016E+03  0.32293483910E+03  0.12499916359E+03 0.  0.
    9000005    1    3    3    0    0 -0.66285324949E+01  0.27635417959E+02  0.29266690197E+03  0.29404518238E+03  0.10000000000E+01 0.  0.
    9000005    1    3    3    0    0  0.66285324949E+01 -0.27635417959E+02  0.50949481857E+01  0.28889656727E+02  0.10000000000E+01 0.  0.
<mgrwt>
<rscale>  0 0.12499916E+03</rscale>
<asrwt>0</asrwt>
<pdfrwt beam="1">  1        4 0.47745893E-01 0.12499916E+03</pdfrwt>
<pdfrwt beam="2">  1       -4 0.19363840E-02 0.12499916E+03</pdfrwt>
<totfact> 0.72809772E+03</totfact>
</mgrwt>
</event>
<event>
 5    1  0.3296424E-002  0.1250280E+03  0.7818608E-02  0.1235026E+00
         -4   -1    0    0    0  501 -0.00000000000E+00  0.00000000000E+00  0.61131257472E+02  0.61144448155E+02  0.12700000000E+01 0. -1.
          4   -1    0    0  501    0  0.00000000000E+00 -0.00000000000E+00 -0.63901574021E+02  0.63914192965E+02  0.12700000000E+01 0. -1.
         25    2    1    2    0    0  0.00000000000E+00  0.00000000000E+00 -0.27703165483E+01  0.12505864112E+03  0.12502795313E+03 0.  0.
    9000005    1    3    3    0    0  0.23793781845E+02  0.51243695902E+02  0.25359707516E+02  0.61936864544E+02  0.10000000000E+01 0.  0.
    9000005    1    3    3    0    0 -0.23793781845E+02 -0.51243695902E+02 -0.28130024064E+02  0.63121776576E+02  0.10000000000E+01 0.  0.
<mgrwt>
<rscale>  0 0.12502795E+03</rscale>
<asrwt>0</asrwt>
<pdfrwt beam="2">  1        4 0.98329968E-02 0.12502795E+03</pdfrwt>
<pdfrwt beam="1">  1       -4 0.94067942E-02 0.12502795E+03</pdfrwt>
<totfact> 0.10444989E+04</totfact>
</mgrwt>
</event>
<event>
 5    1  0.3296424E-002  0.1250009E+03  0.7818608E-02  0.1235068E+00
          4   -1    0    0  501    0  0.00000000000E+00  0.00000000000E+00  0.55337097436E+03  0.55337243169E+03  0.12700000000E+01 0. -1.
         -4   -1    0    0    0  501 -0.00000000000E+00 -0.00000000000E+00 -0.70005109039E+01  0.71147770812E+01  0.12700000000E+01 0. -1.
         25    2    1    2    0    0  0.00000000000E+00  0.00000000000E+00  0.54637046345E+03  0.56048720878E+03  0.12500091147E+03 0.  0.
    9000005    1    3    3    0    0  0.37327500418E+02 -0.13841223613E+02  0.57195766015E+02  0.69694170550E+02  0.10000000000E+01 0.  0.
    9000005    1    3    3    0    0 -0.37327500418E+02  0.13841223613E+02  0.48917469744E+03  0.49079303823E+03  0.10000000000E+01 0.  0.
<mgrwt>
<rscale>  0 0.12500091E+03</rscale>
<asrwt>0</asrwt>
<pdfrwt beam="1">  1        4 0.85142915E-01 0.12500091E+03</pdfrwt>
<pdfrwt beam="2">  1       -4 0.10859033E-02 0.12500091E+03</pdfrwt>
<totfact> 0.51459660E+03</totfact>
</mgrwt>
</event>
<event>
 5    1  0.3296424E-002  0.1249981E+03  0.7818608E-02  0.1235072E+00
          4   -1    0    0  501    0  0.00000000000E+00  0.00000000000E+00  0.11374307936E+03  0.11375016924E+03  0.12700000000E+01 0. -1.
         -4   -1    0    0    0  501 -0.00000000000E+00 -0.00000000000E+00 -0.34321793514E+02  0.34345282209E+02  0.12700000000E+01 0. -1.
         25    2    1    2    0    0  0.00000000000E+00  0.00000000000E+00  0.79421285850E+02  0.14809545145E+03  0.12499808837E+03 0.  0.
    9000005    1    3    3    0    0  0.28541904643E+02 -0.40653322098E+02 -0.52142682116E+01  0.49955195037E+02  0.10000000000E+01 0.  0.
    9000005    1    3    3    0    0 -0.28541904643E+02  0.40653322098E+02  0.84635554061E+02  0.98140256416E+02  0.10000000000E+01 0.  0.
<mgrwt>
<rscale>  0 0.12499809E+03</rscale>
<asrwt>0</asrwt>
<pdfrwt beam="1">  1        4 0.17501288E-01 0.12499809E+03</pdfrwt>
<pdfrwt beam="2">  1       -4 0.52826280E-02 0.12499809E+03</pdfrwt>
<totfact> 0.99688994E+03</totfact>
</mgrwt>
</event>
<event>
 5    1  0.3296424E-002  0.1249957E+03  0.7818608E-02  0.1235076E+00
          4   -1    0    0  501    0  0.00000000000E+00  0.00000000000E+00  0.10094222712E+03  0.10095021602E+03  0.12700000000E+01 0.  1.
         -4   -1    0    0    0  501 -0.00000000000E+00 -0.00000000000E+00 -0.38675252304E+02  0.38696098522E+02  0.12700000000E+01 0.  1.
         25    2    1    2    0    0  0.00000000000E+00  0.00000000000E+00  0.62266974812E+02  0.13964631455E+03  0.12499566798E+03 0.  0.
    9000005    1    3    3    0    0  0.41983206874E+02 -0.38952090073E+02  0.59066494910E+02  0.82278221915E+02  0.10000000000E+01 0.  0.
    9000005    1    3    3    0    0 -0.41983206874E+02  0.38952090073E+02  0.32004799020E+01  0.57368092631E+02  0.10000000000E+01 0.  0.
<mgrwt>
<rscale>  0 0.12499567E+03</rscale>
<asrwt>0</asrwt>
<pdfrwt beam="1">  1        4 0.15531791E-01 0.12499567E+03</pdfrwt>
<pdfrwt beam="2">  1       -4 0.59522571E-02 0.12499567E+03</pdfrwt>
<totfact> 0.10141911E+04</totfact>
</mgrwt>
</event>
