<event>
 5    1  0.3293542E-002  0.1250014E+03  0.7818608E-02  0.1235067E+00
         -4   -1    0    0    0  501 -0.00000000000E+00  0.00000000000E+00  0.16714303204E+03  0.16714785688E+03  0.12700000000E+01 0.  1.
          4   -1    0    0  501    0  0.00000000000E+00 -0.00000000000E+00 -0.23348818927E+02  0.23383332639E+02  0.12700000000E+01 0.  1.
         25    2    1    2    0    0  0.00000000000E+00  0.00000000000E+00  0.14379421311E+03  0.19053118952E+03  0.12500143381E+03 0.  0.
    9000005    1    3    3    0    0 -0.57763406755E+01 -0.61548107829E+02  0.57943603132E+02  0.84734861968E+02  0.10000000000E+01 0.  0.
    9000005    1    3    3    0    0  0.57763406755E+01  0.61548107829E+02  0.85850609980E+02  0.10579632755E+03  0.10000000000E+01 0.  0.
<mgrwt>
<rscale>  0 0.12500143E+03</rscale>
<asrwt>0</asrwt>
<pdfrwt beam="2">  1        4 0.35951522E-02 0.12500143E+03</pdfrwt>
<pdfrwt beam="1">  1       -4 0.25717337E-01 0.12500143E+03</pdfrwt>
<totfact> 0.91752026E+03</totfact>
</mgrwt>
</event>
<event>
 5    1  0.3293542E-002  0.1249997E+03  0.7818608E-02  0.1235070E+00
         -4   -1    0    0    0  501 -0.00000000000E+00  0.00000000000E+00  0.10760164399E+03  0.10760913850E+03  0.12700000000E+01 0.  1.
          4   -1    0    0  501    0  0.00000000000E+00 -0.00000000000E+00 -0.36282814365E+02  0.36305034338E+02  0.12700000000E+01 0.  1.
         25    2    1    2    0    0  0.00000000000E+00  0.00000000000E+00  0.71318829627E+02  0.14391417284E+03  0.12499965474E+03 0.  0.
    9000005    1    3    3    0    0  0.40832073817E+02  0.12795328606E+02  0.88094897970E+02  0.97942277565E+02  0.10000000000E+01 0.  0.
    9000005    1    3    3    0    0 -0.40832073817E+02 -0.12795328606E+02 -0.16776068344E+02  0.45971895277E+02  0.10000000000E+01 0.  0.
<mgrwt>
<rscale>  0 0.12499965E+03</rscale>
<asrwt>0</asrwt>
<pdfrwt beam="2">  1        4 0.55842573E-02 0.12499965E+03</pdfrwt>
<pdfrwt beam="1">  1       -4 0.16556385E-01 0.12499965E+03</pdfrwt>
<totfact> 0.10053175E+04</totfact>
</mgrwt>
</event>
<event>
 5    1  0.3293542E-002  0.1249988E+03  0.7818608E-02  0.1235071E+00
          4   -1    0    0  501    0  0.00000000000E+00  0.00000000000E+00  0.11849863258E+02  0.11917724583E+02  0.12700000000E+01 0.  1.
         -4   -1    0    0    0  501 -0.00000000000E+00 -0.00000000000E+00 -0.32862873166E+03  0.32863118564E+03  0.12700000000E+01 0.  1.
         25    2    1    2    0    0  0.00000000000E+00  0.00000000000E+00 -0.31677886840E+03  0.34054891022E+03  0.12499883514E+03 0.  0.
    9000005    1    3    3    0    0  0.53973068823E+02  0.20949581575E+02 -0.22246827435E+03  0.22988064342E+03  0.10000000000E+01 0.  0.
    9000005    1    3    3    0    0 -0.53973068823E+02 -0.20949581575E+02 -0.94310594055E+02  0.11066826680E+03  0.10000000000E+01 0.  0.
<mgrwt>
<rscale>  0 0.12499884E+03</rscale>
<asrwt>0</asrwt>
<pdfrwt beam="1">  1        4 0.18284650E-02 0.12499884E+03</pdfrwt>
<pdfrwt beam="2">  1       -4 0.50563668E-01 0.12499884E+03</pdfrwt>
<totfact> 0.70778789E+03</totfact>
</mgrwt>
</event>
<event>
 5    1  0.3293542E-002  0.1250056E+03  0.7818608E-02  0.1235061E+00
         -4   -1    0    0    0  501 -0.00000000000E+00  0.00000000000E+00  0.10257235109E+03  0.10258021305E+03  0.12700000000E+01 0. -1.
          4   -1    0    0  501    0  0.00000000000E+00 -0.00000000000E+00 -0.38066380790E+02  0.38087560259E+02  0.12700000000E+01 0. -1.
         25    2    1    2    0    0  0.00000000000E+00  0.00000000000E+00  0.64505970304E+02  0.14066777331E+03  0.12500560884E+03 0.  0.
    9000005    1    3    3    0    0 -0.27647082267E+02 -0.38071206793E+02  0.78538225825E+02  0.91558892852E+02  0.10000000000E+01 0.  0.
    9000005    1    3    3    0    0  0.27647082267E+02  0.38071206793E+02 -0.14032255521E+02  0.49108880455E+02  0.10000000000E+01 0.  0.
<mgrwt>
<rscale>  0 0.12500561E+03</rscale>
<asrwt>0</asrwt>
<pdfrwt beam="2">  1        4 0.58586003E-02 0.12500561E+03</pdfrwt>
<pdfrwt beam="1">  1       -4 0.15782595E-01 0.12500561E+03</pdfrwt>
<totfact> 0.10118486E+04</totfact>
</mgrwt>
</event>
<event>
 5    1  0.3293542E-002  0.1249996E+03  0.7818608E-02  0.1235070E+00
         -4   -1    0    0    0  501 -0.00000000000E+00  0.00000000000E+00  0.12565013735E+04  0.12565020154E+04  0.12700000000E+01 0.  1.
          4   -1    0    0  501    0  0.00000000000E+00 -0.00000000000E+00 -0.29784378696E+01  0.32378993411E+01  0.12700000000E+01 0.  1.
         25    2    1    2    0    0  0.00000000000E+00  0.00000000000E+00  0.12535229357E+04  0.12597399147E+04  0.12499960977E+03 0.  0.
    9000005    1    3    3    0    0  0.13715312076E+02  0.60702346369E+02  0.56944904620E+03  0.57284037992E+03  0.10000000000E+01 0.  0.
    9000005    1    3    3    0    0 -0.13715312076E+02 -0.60702346369E+02  0.68407388946E+03  0.68689953478E+03  0.10000000000E+01 0.  0.
<mgrwt>
<rscale>  0 0.12499961E+03</rscale>
<asrwt>0</asrwt>
<pdfrwt beam="2">  1        4 0.47822881E-03 0.12499961E+03</pdfrwt>
<pdfrwt beam="1">  1       -4 0.19332805E+00 0.12499961E+03</pdfrwt>
<totfact> 0.23199287E+03</totfact>
</mgrwt>
</event>
<event>
 4    1  0.3293542E-002  0.1250862E+03  0.7818608E-02  0.1234935E+00
          4   -1    0    0  501    0  0.00000000000E+00  0.00000000000E+00  0.13659838770E+02  0.13718749769E+02  0.12700000000E+01 0.  1.
         -4   -1    0    0    0  501 -0.00000000000E+00 -0.00000000000E+00 -0.28568431237E+03  0.28568713523E+03  0.12700000000E+01 0.  1.
    9000005    1    1    2    0    0  0.50639826344E+02 -0.20487016928E+02 -0.63153589315E+02  0.83507399182E+02  0.10000000000E+01 0.  0.
    9000005    1    1    2    0    0 -0.50639826344E+02  0.20487016928E+02 -0.20887088428E+03  0.21589848581E+03  0.10000000000E+01 0.  0.
<mgrwt>
<rscale>  0 0.12508625E+03</rscale>
<asrwt>0</asrwt>
<pdfrwt beam="1">  1        4 0.21062626E-02 0.12508625E+03</pdfrwt>
<pdfrwt beam="2">  1       -4 0.43956177E-01 0.12508625E+03</pdfrwt>
<totfact> 0.75528714E+03</totfact>
</mgrwt>
</event>
<event>
 4    1  0.3293542E-002  0.1248786E+03  0.7818608E-02  0.1235259E+00
         -4   -1    0    0    0  501 -0.00000000000E+00  0.00000000000E+00  0.56526053974E+03  0.56526196642E+03  0.12700000000E+01 0.  1.
          4   -1    0    0  501    0  0.00000000000E+00 -0.00000000000E+00 -0.68372046210E+01  0.69541546596E+01  0.12700000000E+01 0.  1.
    9000005    1    1    2    0    0  0.49658481245E+02  0.26509681087E+02  0.15549801430E+03  0.16537642033E+03  0.10000000000E+01 0.  0.
    9000005    1    1    2    0    0 -0.49658481245E+02 -0.26509681087E+02  0.40292532082E+03  0.40683970075E+03  0.10000000000E+01 0.  0.
<mgrwt>
<rscale>  0 0.12487861E+03</rscale>
<asrwt>0</asrwt>
<pdfrwt beam="2">  1        4 0.10609832E-02 0.12487861E+03</pdfrwt>
<pdfrwt beam="1">  1       -4 0.86972292E-01 0.12487861E+03</pdfrwt>
<totfact> 0.50804913E+03</totfact>
</mgrwt>
</event>
<event>
 5    1  0.3293542E-002  0.1249926E+03  0.7818608E-02  0.1235081E+00
         -4   -1    0    0    0  501 -0.00000000000E+00  0.00000000000E+00  0.15008537737E+04  0.15008543110E+04  0.12700000000E+01 0.  1.
          4   -1    0    0  501    0  0.00000000000E+00 -0.00000000000E+00 -0.24468619550E+01  0.27568158130E+01  0.12700000000E+01 0.  1.
         25    2    1    2    0    0  0.00000000000E+00  0.00000000000E+00  0.14984069117E+04  0.15036111268E+04  0.12499259015E+03 0.  0.
    9000005    1    3    3    0    0  0.13522559266E+02 -0.15357921008E+02  0.38941114716E+02  0.44001542724E+02  0.10000000000E+01 0.  0.
    9000005    1    3    3    0    0 -0.13522559266E+02  0.15357921008E+02  0.14594657970E+04  0.14596095841E+04  0.10000000000E+01 0.  0.
<mgrwt>
<rscale>  0 0.12499259E+03</rscale>
<asrwt>0</asrwt>
<pdfrwt beam="2">  1        4 0.40032401E-03 0.12499259E+03</pdfrwt>
<pdfrwt beam="1">  1       -4 0.23092460E+00 0.12499259E+03</pdfrwt>
<totfact> 0.17862428E+03</totfact>
</mgrwt>
</event>
<event>
 5    1  0.3293542E-002  0.1249844E+03  0.7818608E-02  0.1235094E+00
          4   -1    0    0  501    0  0.00000000000E+00  0.00000000000E+00  0.19182283534E+02  0.19224278961E+02  0.12700000000E+01 0. -1.
         -4   -1    0    0    0  501 -0.00000000000E+00 -0.00000000000E+00 -0.20332103124E+03  0.20332499759E+03  0.12700000000E+01 0. -1.
         25    2    1    2    0    0  0.00000000000E+00  0.00000000000E+00 -0.18413874770E+03  0.22254927655E+03  0.12498440737E+03 0.  0.
    9000005    1    3    3    0    0 -0.60582908616E+02 -0.85242096473E+01 -0.11468562349E+03  0.12998747325E+03  0.10000000000E+01 0.  0.
    9000005    1    3    3    0    0  0.60582908616E+02  0.85242096473E+01 -0.69453124212E+02  0.92561803295E+02  0.10000000000E+01 0.  0.
<mgrwt>
<rscale>  0 0.12498441E+03</rscale>
<asrwt>0</asrwt>
<pdfrwt beam="1">  1        4 0.29546562E-02 0.12498441E+03</pdfrwt>
<pdfrwt beam="2">  1       -4 0.31283693E-01 0.12498441E+03</pdfrwt>
<totfact> 0.86496677E+03</totfact>
</mgrwt>
</event>
<event>
 4    1  0.3293542E-002  0.1247963E+03  0.7818608E-02  0.1235388E+00
          4   -1    0    0  501    0  0.00000000000E+00  0.00000000000E+00  0.27460714609E+02  0.27490066330E+02  0.12700000000E+01 0. -1.
         -4   -1    0    0    0  501 -0.00000000000E+00 -0.00000000000E+00 -0.14167746288E+03  0.14168315492E+03  0.12700000000E+01 0. -1.
    9000005    1    1    2    0    0  0.41311993438E+02 -0.38418715672E+02 -0.93225500023E+02  0.10897097031E+03  0.10000000000E+01 0.  0.
    9000005    1    1    2    0    0 -0.41311993438E+02  0.38418715672E+02 -0.20991248252E+02  0.60202250945E+02  0.10000000000E+01 0.  0.
<mgrwt>
<rscale>  0 0.12479629E+03</rscale>
<asrwt>0</asrwt>
<pdfrwt beam="1">  1        4 0.42274211E-02 0.12479629E+03</pdfrwt>
<pdfrwt beam="2">  1       -4 0.21799228E-01 0.12479629E+03</pdfrwt>
<totfact> 0.96041448E+03</totfact>
</mgrwt>
</event>
<event>
 5    1  0.3293542E-002  0.1250008E+03  0.7818608E-02  0.1235068E+00
          4   -1    0    0  501    0  0.00000000000E+00  0.00000000000E+00  0.52692140040E+01  0.54201029714E+01  0.12700000000E+01 0.  1.
         -4   -1    0    0    0  501 -0.00000000000E+00 -0.00000000000E+00 -0.73072789749E+03  0.73072900111E+03  0.12700000000E+01 0.  1.
         25    2    1    2    0    0  0.00000000000E+00  0.00000000000E+00 -0.72545868349E+03  0.73614910409E+03  0.12500080800E+03 0.  0.
    9000005    1    3    3    0    0 -0.18033913578E+02 -0.57222728359E+02 -0.25977219114E+03  0.26661255404E+03  0.10000000000E+01 0.  0.
    9000005    1    3    3    0    0  0.18033913578E+02  0.57222728359E+02 -0.46568649234E+03  0.46953655005E+03  0.10000000000E+01 0.  0.
<mgrwt>
<rscale>  0 0.12500081E+03</rscale>
<asrwt>0</asrwt>
<pdfrwt beam="1">  1        4 0.82234063E-03 0.12500081E+03</pdfrwt>
<pdfrwt beam="2">  1       -4 0.11243129E+00 0.12500081E+03</pdfrwt>
<totfact> 0.41244846E+03</totfact>
</mgrwt>
</event>
<event>
 5    1  0.3293542E-002  0.1249949E+03  0.7818608E-02  0.1235077E+00
          4   -1    0    0  501    0  0.00000000000E+00  0.00000000000E+00  0.78620367346E+01  0.79639513821E+01  0.12700000000E+01 0.  1.
         -4   -1    0    0    0  501 -0.00000000000E+00 -0.00000000000E+00 -0.49350690785E+03  0.49350854197E+03  0.12700000000E+01 0.  1.
         25    2    1    2    0    0  0.00000000000E+00  0.00000000000E+00 -0.48564487112E+03  0.50147249335E+03  0.12499488288E+03 0.  0.
    9000005    1    3    3    0    0  0.42076964690E+02  0.40857415392E+02 -0.32934760304E+03  0.33453048139E+03  0.10000000000E+01 0.  0.
    9000005    1    3    3    0    0 -0.42076964690E+02 -0.40857415392E+02 -0.15629726808E+03  0.16694201196E+03  0.10000000000E+01 0.  0.
<mgrwt>
<rscale>  0 0.12499488E+03</rscale>
<asrwt>0</asrwt>
<pdfrwt beam="1">  1        4 0.12175098E-02 0.12499488E+03</pdfrwt>
<pdfrwt beam="2">  1       -4 0.75932081E-01 0.12499488E+03</pdfrwt>
<totfact> 0.55756583E+03</totfact>
</mgrwt>
</event>
<event>
 5    1  0.3293542E-002  0.1249991E+03  0.7818608E-02  0.1235071E+00
          4   -1    0    0  501    0  0.00000000000E+00  0.00000000000E+00  0.17160549466E+03  0.17161019404E+03  0.12700000000E+01 0. -1.
         -4   -1    0    0    0  501 -0.00000000000E+00 -0.00000000000E+00 -0.22739897481E+02  0.22775333970E+02  0.12700000000E+01 0. -1.
         25    2    1    2    0    0  0.00000000000E+00  0.00000000000E+00  0.14886559718E+03  0.19438552801E+03  0.12499906990E+03 0.  0.
    9000005    1    3    3    0    0  0.60664817299E+02  0.63594908454E+01  0.53308169463E+02  0.81014962280E+02  0.10000000000E+01 0.  0.
    9000005    1    3    3    0    0 -0.60664817299E+02 -0.63594908454E+01  0.95557427718E+02  0.11337056573E+03  0.10000000000E+01 0.  0.
<mgrwt>
<rscale>  0 0.12499907E+03</rscale>
<asrwt>0</asrwt>
<pdfrwt beam="1">  1        4 0.26403934E-01 0.12499907E+03</pdfrwt>
<pdfrwt beam="2">  1       -4 0.35015330E-02 0.12499907E+03</pdfrwt>
<totfact> 0.91091693E+03</totfact>
</mgrwt>
</event>
<event>
 5    1  0.3293542E-002  0.1249998E+03  0.7818608E-02  0.1235070E+00
          4   -1    0    0  501    0  0.00000000000E+00  0.00000000000E+00  0.28772073857E+02  0.28800089132E+02  0.12700000000E+01 0.  1.
         -4   -1    0    0    0  501 -0.00000000000E+00 -0.00000000000E+00 -0.13566775102E+03  0.13567369519E+03  0.12700000000E+01 0.  1.
         25    2    1    2    0    0  0.00000000000E+00  0.00000000000E+00 -0.10689567716E+03  0.16447378432E+03  0.12499975973E+03 0.  0.
    9000005    1    3    3    0    0 -0.47254201362E+02  0.36153053983E+02 -0.78594016945E+02  0.98580030220E+02  0.10000000000E+01 0.  0.
    9000005    1    3    3    0    0  0.47254201362E+02 -0.36153053983E+02 -0.28301660219E+02  0.65893754104E+02  0.10000000000E+01 0.  0.
<mgrwt>
<rscale>  0 0.12499976E+03</rscale>
<asrwt>0</asrwt>
<pdfrwt beam="1">  1        4 0.44290852E-02 0.12499976E+03</pdfrwt>
<pdfrwt beam="2">  1       -4 0.20874574E-01 0.12499976E+03</pdfrwt>
<totfact> 0.96487663E+03</totfact>
</mgrwt>
</event>
<event>
 5    1  0.3293542E-002  0.1250203E+03  0.7818608E-02  0.1235038E+00
          4   -1    0    0  501    0  0.00000000000E+00  0.00000000000E+00  0.21914716658E+02  0.21951485285E+02  0.12700000000E+01 0. -1.
         -4   -1    0    0    0  501 -0.00000000000E+00 -0.00000000000E+00 -0.17811713736E+03  0.17812166494E+03  0.12700000000E+01 0. -1.
         25    2    1    2    0    0  0.00000000000E+00  0.00000000000E+00 -0.15620242070E+03  0.20007315023E+03  0.12502027519E+03 0.  0.
    9000005    1    3    3    0    0  0.50993367181E+02  0.42306597364E+01 -0.13554142776E+03  0.14488167799E+03  0.10000000000E+01 0.  0.
    9000005    1    3    3    0    0 -0.50993367181E+02 -0.42306597364E+01 -0.20660992944E+02  0.55191472237E+02  0.10000000000E+01 0.  0.
<mgrwt>
<rscale>  0 0.12502028E+03</rscale>
<asrwt>0</asrwt>
<pdfrwt beam="1">  1        4 0.33746716E-02 0.12502028E+03</pdfrwt>
<pdfrwt beam="2">  1       -4 0.27405812E-01 0.12502028E+03</pdfrwt>
<totfact> 0.90082294E+03</totfact>
</mgrwt>
</event>
<event>
 5    1  0.3293542E-002  0.1250047E+03  0.7818608E-02  0.1235062E+00
         -4   -1    0    0    0  501 -0.00000000000E+00  0.00000000000E+00  0.17512604886E+03  0.17513065377E+03  0.12700000000E+01 0. -1.
          4   -1    0    0  501    0  0.00000000000E+00 -0.00000000000E+00 -0.22284058171E+02  0.22320218381E+02  0.12700000000E+01 0. -1.
         25    2    1    2    0    0  0.00000000000E+00  0.00000000000E+00  0.15284199069E+03  0.19745087215E+03  0.12500469109E+03 0.  0.
    9000005    1    3    3    0    0 -0.60057862765E+02 -0.84521422220E+01  0.52614449275E+02  0.80297358988E+02  0.10000000000E+01 0.  0.
    9000005    1    3    3    0    0  0.60057862765E+02  0.84521422220E+01  0.10022754142E+03  0.11715351316E+03  0.10000000000E+01 0.  0.
<mgrwt>
<rscale>  0 0.12500469E+03</rscale>
<asrwt>0</asrwt>
<pdfrwt beam="2">  1        4 0.34314526E-02 0.12500469E+03</pdfrwt>
<pdfrwt beam="1">  1       -4 0.26945604E-01 0.12500469E+03</pdfrwt>
<totfact> 0.90557297E+03</totfact>
</mgrwt>
</event>
<event>
 5    1  0.3293542E-002  0.1250017E+03  0.7818608E-02  0.1235067E+00
          4   -1    0    0  501    0  0.00000000000E+00  0.00000000000E+00  0.42932734681E+02  0.42951514609E+02  0.12700000000E+01 0.  1.
         -4   -1    0    0    0  501 -0.00000000000E+00 -0.00000000000E+00 -0.90944693832E+02  0.90953560877E+02  0.12700000000E+01 0.  1.
         25    2    1    2    0    0  0.00000000000E+00  0.00000000000E+00 -0.48011959151E+02  0.13390507549E+03  0.12500168407E+03 0.  0.
    9000005    1    3    3    0    0 -0.16273235990E+02 -0.51592874006E+02  0.95066664504E+01  0.54936504846E+02  0.10000000000E+01 0.  0.
    9000005    1    3    3    0    0  0.16273235990E+02  0.51592874006E+02 -0.57518625601E+02  0.78968570639E+02  0.10000000000E+01 0.  0.
<mgrwt>
<rscale>  0 0.12500168E+03</rscale>
<asrwt>0</asrwt>
<pdfrwt beam="1">  1        4 0.66071628E-02 0.12500168E+03</pdfrwt>
<pdfrwt beam="2">  1       -4 0.13993618E-01 0.12500168E+03</pdfrwt>
<totfact> 0.10260811E+04</totfact>
</mgrwt>
</event>
<event>
 5    1  0.3293542E-002  0.1250030E+03  0.7818608E-02  0.1235065E+00
         -4   -1    0    0    0  501 -0.00000000000E+00  0.00000000000E+00  0.18918309577E+02  0.18960889674E+02  0.12700000000E+01 0.  1.
          4   -1    0    0  501    0  0.00000000000E+00 -0.00000000000E+00 -0.20621297853E+03  0.20621688925E+03  0.12700000000E+01 0.  1.
         25    2    1    2    0    0  0.00000000000E+00  0.00000000000E+00 -0.18729466895E+03  0.22517777893E+03  0.12500295639E+03 0.  0.
    9000005    1    3    3    0    0  0.18331140469E+02 -0.53281103263E+02 -0.44959135512E+02  0.72091820214E+02  0.10000000000E+01 0.  0.
    9000005    1    3    3    0    0 -0.18331140469E+02  0.53281103263E+02 -0.14233553344E+03  0.15308595871E+03  0.10000000000E+01 0.  0.
<mgrwt>
<rscale>  0 0.12500296E+03</rscale>
<asrwt>0</asrwt>
<pdfrwt beam="2">  1        4 0.31728648E-01 0.12500296E+03</pdfrwt>
<pdfrwt beam="1">  1       -4 0.29140855E-02 0.12500296E+03</pdfrwt>
<totfact> 0.86049918E+03</totfact>
</mgrwt>
</event>
<event>
 5    1  0.3293542E-002  0.1249997E+03  0.7818608E-02  0.1235070E+00
          4   -1    0    0  501    0  0.00000000000E+00  0.00000000000E+00  0.14716752283E+02  0.14771448736E+02  0.12700000000E+01 0. -1.
         -4   -1    0    0    0  501 -0.00000000000E+00 -0.00000000000E+00 -0.26487912960E+03  0.26488217418E+03  0.12700000000E+01 0. -1.
         25    2    1    2    0    0  0.00000000000E+00  0.00000000000E+00 -0.25016237731E+03  0.27965362291E+03  0.12499973514E+03 0.  0.
    9000005    1    3    3    0    0  0.30714066401E+01  0.60825736841E+02 -0.93757547935E+02  0.11180644702E+03  0.10000000000E+01 0.  0.
    9000005    1    3    3    0    0 -0.30714066401E+01 -0.60825736841E+02 -0.15640482938E+03  0.16784717589E+03  0.10000000000E+01 0.  0.
<mgrwt>
<rscale>  0 0.12499974E+03</rscale>
<asrwt>0</asrwt>
<pdfrwt beam="1">  1        4 0.22685575E-02 0.12499974E+03</pdfrwt>
<pdfrwt beam="2">  1       -4 0.40755073E-01 0.12499974E+03</pdfrwt>
<totfact> 0.78224517E+03</totfact>
</mgrwt>
</event>
<event>
 5    1  0.3293542E-002  0.1249992E+03  0.7818608E-02  0.1235070E+00
          4   -1    0    0  501    0  0.00000000000E+00  0.00000000000E+00  0.16652097549E+04  0.16652102392E+04  0.12700000000E+01 0.  1.
         -4   -1    0    0    0  501 -0.00000000000E+00 -0.00000000000E+00 -0.21733570135E+01  0.25172168576E+01  0.12700000000E+01 0.  1.
         25    2    1    2    0    0  0.00000000000E+00  0.00000000000E+00  0.16630363979E+04  0.16677274560E+04  0.12499922788E+03 0.  0.
    9000005    1    3    3    0    0  0.10231795178E+02 -0.61619058739E+02  0.80619067841E+03  0.80860744987E+03  0.10000000000E+01 0.  0.
    9000005    1    3    3    0    0 -0.10231795178E+02  0.61619058739E+02  0.85684571945E+03  0.85912000615E+03  0.10000000000E+01 0.  0.
<mgrwt>
<rscale>  0 0.12499923E+03</rscale>
<asrwt>0</asrwt>
<pdfrwt beam="1">  1        4 0.25621187E+00 0.12499923E+03</pdfrwt>
<pdfrwt beam="2">  1       -4 0.36085167E-03 0.12499923E+03</pdfrwt>
<totfact> 0.14853848E+03</totfact>
</mgrwt>
</event>
<event>
 5    1  0.3293542E-002  0.1249966E+03  0.7818608E-02  0.1235075E+00
         -4   -1    0    0    0  501 -0.00000000000E+00  0.00000000000E+00  0.46890895161E+03  0.46891067145E+03  0.12700000000E+01 0. -1.
          4   -1    0    0  501    0  0.00000000000E+00 -0.00000000000E+00 -0.82799017351E+01  0.83767340141E+01  0.12700000000E+01 0. -1.
         25    2    1    2    0    0  0.00000000000E+00  0.00000000000E+00  0.46062904988E+03  0.47728740547E+03  0.12499658326E+03 0.  0.
    9000005    1    3    3    0    0 -0.11601007846E+02  0.57084748331E+02  0.31669695785E+03  0.32201120320E+03  0.10000000000E+01 0.  0.
    9000005    1    3    3    0    0  0.11601007846E+02 -0.57084748331E+02  0.14393209203E+03  0.15527620227E+03  0.10000000000E+01 0.  0.
<mgrwt>
<rscale>  0 0.12499658E+03</rscale>
<asrwt>0</asrwt>
<pdfrwt beam="2">  1        4 0.12814120E-02 0.12499658E+03</pdfrwt>
<pdfrwt beam="1">  1       -4 0.72147418E-01 0.12499658E+03</pdfrwt>
<totfact> 0.57675012E+03</totfact>
</mgrwt>
</event>
<event>
 5    1  0.3293542E-002  0.1249995E+03  0.7818608E-02  0.1235070E+00
         -4   -1    0    0    0  501 -0.00000000000E+00  0.00000000000E+00  0.20633846162E+02  0.20672893059E+02  0.12700000000E+01 0. -1.
          4   -1    0    0  501    0  0.00000000000E+00 -0.00000000000E+00 -0.18909109895E+03  0.18909536377E+03  0.12700000000E+01 0. -1.
         25    2    1    2    0    0  0.00000000000E+00  0.00000000000E+00 -0.16845725278E+03  0.20976825683E+03  0.12499950224E+03 0.  0.
    9000005    1    3    3    0    0  0.28419438123E+02  0.55499804943E+02 -0.77243381821E+02  0.99274532722E+02  0.10000000000E+01 0.  0.
    9000005    1    3    3    0    0 -0.28419438123E+02 -0.55499804943E+02 -0.91213870964E+02  0.11049372411E+03  0.10000000000E+01 0.  0.
<mgrwt>
<rscale>  0 0.12499950E+03</rscale>
<asrwt>0</asrwt>
<pdfrwt beam="2">  1        4 0.29094269E-01 0.12499950E+03</pdfrwt>
<pdfrwt beam="1">  1       -4 0.31777697E-02 0.12499950E+03</pdfrwt>
<totfact> 0.88514727E+03</totfact>
</mgrwt>
</event>
<event>
 5    1  0.3293542E-002  0.1250024E+03  0.7818608E-02  0.1235066E+00
          4   -1    0    0  501    0  0.00000000000E+00  0.00000000000E+00  0.86760737272E+02  0.86770031878E+02  0.12700000000E+01 0. -1.
         -4   -1    0    0    0  501 -0.00000000000E+00 -0.00000000000E+00 -0.45004321870E+02  0.45022237694E+02  0.12700000000E+01 0. -1.
         25    2    1    2    0    0  0.00000000000E+00  0.00000000000E+00  0.41756415403E+02  0.13179226957E+03  0.12500241634E+03 0.  0.
    9000005    1    3    3    0    0  0.35295668631E+02  0.52389402815E+01  0.74969644976E+02  0.83034200106E+02  0.10000000000E+01 0.  0.
    9000005    1    3    3    0    0 -0.35295668631E+02 -0.52389402815E+01 -0.33213229573E+02  0.48758069466E+02  0.10000000000E+01 0.  0.
<mgrwt>
<rscale>  0 0.12500242E+03</rscale>
<asrwt>0</asrwt>
<pdfrwt beam="1">  1        4 0.13349899E-01 0.12500242E+03</pdfrwt>
<pdfrwt beam="2">  1       -4 0.69258351E-02 0.12500242E+03</pdfrwt>
<totfact> 0.10305572E+04</totfact>
</mgrwt>
</event>
<event>
 5    1  0.3293542E-002  0.1249968E+03  0.7818608E-02  0.1235074E+00
         -4   -1    0    0    0  501 -0.00000000000E+00  0.00000000000E+00  0.35109838727E+02  0.35132800564E+02  0.12700000000E+01 0.  1.
          4   -1    0    0  501    0  0.00000000000E+00 -0.00000000000E+00 -0.11118934952E+03  0.11119660223E+03  0.12700000000E+01 0.  1.
         25    2    1    2    0    0  0.00000000000E+00  0.00000000000E+00 -0.76079510794E+02  0.14632940279E+03  0.12499680859E+03 0.  0.
    9000005    1    3    3    0    0 -0.55097409659E+02  0.29083580694E+02 -0.43711301367E+02  0.76113448774E+02  0.10000000000E+01 0.  0.
    9000005    1    3    3    0    0  0.55097409659E+02 -0.29083580694E+02 -0.32368209427E+02  0.70215954017E+02  0.10000000000E+01 0.  0.
<mgrwt>
<rscale>  0 0.12499681E+03</rscale>
<asrwt>0</asrwt>
<pdfrwt beam="2">  1        4 0.17108378E-01 0.12499681E+03</pdfrwt>
<pdfrwt beam="1">  1       -4 0.54038379E-02 0.12499681E+03</pdfrwt>
<totfact> 0.10004766E+04</totfact>
</mgrwt>
</event>
<event>
 5    1  0.3293542E-002  0.1249984E+03  0.7818608E-02  0.1235072E+00
          4   -1    0    0  501    0  0.00000000000E+00  0.00000000000E+00  0.78397064962E+02  0.78407351024E+02  0.12700000000E+01 0. -1.
         -4   -1    0    0    0  501 -0.00000000000E+00 -0.00000000000E+00 -0.49803576899E+02  0.49819766879E+02  0.12700000000E+01 0. -1.
         25    2    1    2    0    0  0.00000000000E+00  0.00000000000E+00  0.28593488063E+02  0.12822711790E+03  0.12499842481E+03 0.  0.
    9000005    1    3    3    0    0 -0.39276240168E+02 -0.45053354281E+02  0.33008616980E+02  0.68286137456E+02  0.10000000000E+01 0.  0.
    9000005    1    3    3    0    0  0.39276240168E+02  0.45053354281E+02 -0.44151289167E+01  0.59940980448E+02  0.10000000000E+01 0.  0.
<mgrwt>
<rscale>  0 0.12499842E+03</rscale>
<asrwt>0</asrwt>
<pdfrwt beam="1">  1        4 0.12063123E-01 0.12499842E+03</pdfrwt>
<pdfrwt beam="2">  1       -4 0.76641254E-02 0.12499842E+03</pdfrwt>
<totfact> 0.10382955E+04</totfact>
</mgrwt>
</event>
<event>
 5    1  0.3293542E-002  0.1249976E+03  0.7818608E-02  0.1235073E+00
         -4   -1    0    0    0  501 -0.00000000000E+00  0.00000000000E+00  0.40702648197E+02  0.40722456584E+02  0.12700000000E+01 0.  1.
          4   -1    0    0  501    0  0.00000000000E+00 -0.00000000000E+00 -0.95919395139E+02  0.95927802350E+02  0.12700000000E+01 0.  1.
         25    2    1    2    0    0  0.00000000000E+00  0.00000000000E+00 -0.55216746942E+02  0.13665025893E+03  0.12499761647E+03 0.  0.
    9000005    1    3    3    0    0  0.59694115284E+02 -0.18353608738E+02 -0.30018100103E+02  0.69298836116E+02  0.10000000000E+01 0.  0.
    9000005    1    3    3    0    0 -0.59694115284E+02  0.18353608738E+02 -0.25198646839E+02  0.67351422819E+02  0.10000000000E+01 0.  0.
<mgrwt>
<rscale>  0 0.12499762E+03</rscale>
<asrwt>0</asrwt>
<pdfrwt beam="2">  1        4 0.14759000E-01 0.12499762E+03</pdfrwt>
<pdfrwt beam="1">  1       -4 0.62641163E-02 0.12499762E+03</pdfrwt>
<totfact> 0.10203952E+04</totfact>
</mgrwt>
</event>
<event>
 5    1  0.3293542E-002  0.1249985E+03  0.7818608E-02  0.1235072E+00
          4   -1    0    0  501    0  0.00000000000E+00  0.00000000000E+00  0.11705720042E+02  0.11774412159E+02  0.12700000000E+01 0.  1.
         -4   -1    0    0    0  501 -0.00000000000E+00 -0.00000000000E+00 -0.33265034509E+03  0.33265276940E+03  0.12700000000E+01 0.  1.
         25    2    1    2    0    0  0.00000000000E+00  0.00000000000E+00 -0.32094462505E+03  0.34442718155E+03  0.12499852418E+03 0.  0.
    9000005    1    3    3    0    0  0.20465098279E+02  0.11303378520E+01 -0.32313863667E+03  0.32378955577E+03  0.10000000000E+01 0.  0.
    9000005    1    3    3    0    0 -0.20465098279E+02 -0.11303378520E+01  0.21940116281E+01  0.20637625790E+02  0.10000000000E+01 0.  0.
<mgrwt>
<rscale>  0 0.12499852E+03</rscale>
<asrwt>0</asrwt>
<pdfrwt beam="1">  1        4 0.18063508E-02 0.12499852E+03</pdfrwt>
<pdfrwt beam="2">  1       -4 0.51182439E-01 0.12499852E+03</pdfrwt>
<totfact> 0.70344318E+03</totfact>
</mgrwt>
</event>
<event>
 5    1  0.3293542E-002  0.1250007E+03  0.7818608E-02  0.1235068E+00
         -4   -1    0    0    0  501 -0.00000000000E+00  0.00000000000E+00  0.44759831735E+02  0.44777845381E+02  0.12700000000E+01 0.  1.
          4   -1    0    0  501    0  0.00000000000E+00 -0.00000000000E+00 -0.87232056635E+02  0.87241301027E+02  0.12700000000E+01 0.  1.
         25    2    1    2    0    0  0.00000000000E+00  0.00000000000E+00 -0.42472224900E+02  0.13201914641E+03  0.12500066052E+03 0.  0.
    9000005    1    3    3    0    0  0.40030107544E+02 -0.38382323238E+02 -0.51657545667E+02  0.75796532054E+02  0.10000000000E+01 0.  0.
    9000005    1    3    3    0    0 -0.40030107544E+02  0.38382323238E+02  0.91853207671E+01  0.56222614353E+02  0.10000000000E+01 0.  0.
<mgrwt>
<rscale>  0 0.12500066E+03</rscale>
<asrwt>0</asrwt>
<pdfrwt beam="2">  1        4 0.13422413E-01 0.12500066E+03</pdfrwt>
<pdfrwt beam="1">  1       -4 0.68882247E-02 0.12500066E+03</pdfrwt>
<totfact> 0.10301136E+04</totfact>
</mgrwt>
</event>
<event>
 5    1  0.3293542E-002  0.1250012E+03  0.7818608E-02  0.1235067E+00
         -4   -1    0    0    0  501 -0.00000000000E+00  0.00000000000E+00  0.74712328545E+03  0.74712436485E+03  0.12700000000E+01 0.  1.
          4   -1    0    0  501    0  0.00000000000E+00 -0.00000000000E+00 -0.51502689325E+01  0.53045424003E+01  0.12700000000E+01 0.  1.
         25    2    1    2    0    0  0.00000000000E+00  0.00000000000E+00  0.74197301651E+03  0.75242890725E+03  0.12500121293E+03 0.  0.
    9000005    1    3    3    0    0  0.26356237616E+02  0.13727368943E+02  0.70190061442E+03  0.70253011640E+03  0.10000000000E+01 0.  0.
    9000005    1    3    3    0    0 -0.26356237616E+02 -0.13727368943E+02  0.40072402090E+02  0.49898790854E+02  0.10000000000E+01 0.  0.
<mgrwt>
<rscale>  0 0.12500121E+03</rscale>
<asrwt>0</asrwt>
<pdfrwt beam="2">  1        4 0.80430001E-03 0.12500121E+03</pdfrwt>
<pdfrwt beam="1">  1       -4 0.11495389E+00 0.12500121E+03</pdfrwt>
<totfact> 0.40457187E+03</totfact>
</mgrwt>
</event>
<event>
 5    1  0.3293542E-002  0.1250026E+03  0.7818608E-02  0.1235065E+00
          4   -1    0    0  501    0  0.00000000000E+00  0.00000000000E+00  0.16407958947E+04  0.16407963862E+04  0.12700000000E+01 0.  1.
         -4   -1    0    0    0  501 -0.00000000000E+00 -0.00000000000E+00 -0.22109105544E+01  0.25497108620E+01  0.12700000000E+01 0.  1.
         25    2    1    2    0    0  0.00000000000E+00  0.00000000000E+00  0.16385849841E+04  0.16433460971E+04  0.12500257781E+03 0.  0.
    9000005    1    3    3    0    0  0.60472572813E+02 -0.23627770303E+01  0.61440259179E+03  0.61737675658E+03  0.10000000000E+01 0.  0.
    9000005    1    3    3    0    0 -0.60472572813E+02  0.23627770303E+01  0.10241823924E+04  0.10259693405E+04  0.10000000000E+01 0.  0.
<mgrwt>
<rscale>  0 0.12500258E+03</rscale>
<asrwt>0</asrwt>
<pdfrwt beam="1">  1        4 0.25245651E+00 0.12500258E+03</pdfrwt>
<pdfrwt beam="2">  1       -4 0.36623906E-03 0.12500258E+03</pdfrwt>
<totfact> 0.15274481E+03</totfact>
</mgrwt>
</event>
<event>
 5    1  0.3293542E-002  0.1250053E+03  0.7818608E-02  0.1235061E+00
         -4   -1    0    0    0  501 -0.00000000000E+00  0.00000000000E+00  0.13371445825E+02  0.13431621773E+02  0.12700000000E+01 0. -1.
          4   -1    0    0  501    0  0.00000000000E+00 -0.00000000000E+00 -0.29144100155E+03  0.29144376865E+03  0.12700000000E+01 0. -1.
         25    2    1    2    0    0  0.00000000000E+00  0.00000000000E+00 -0.27806955572E+03  0.30487539042E+03  0.12500530334E+03 0.  0.
    9000005    1    3    3    0    0 -0.26579240398E+02 -0.55498758202E+02 -0.16564151692E+03  0.17670506588E+03  0.10000000000E+01 0.  0.
    9000005    1    3    3    0    0  0.26579240398E+02  0.55498758202E+02 -0.11242803880E+03  0.12817032454E+03  0.10000000000E+01 0.  0.
<mgrwt>
<rscale>  0 0.12500530E+03</rscale>
<asrwt>0</asrwt>
<pdfrwt beam="2">  1        4 0.44841914E-01 0.12500530E+03</pdfrwt>
<pdfrwt beam="1">  1       -4 0.20619875E-02 0.12500530E+03</pdfrwt>
<totfact> 0.74982497E+03</totfact>
</mgrwt>
</event>
<event>
 5    1  0.3293542E-002  0.1250463E+03  0.7818608E-02  0.1234997E+00
         -4   -1    0    0    0  501 -0.00000000000E+00  0.00000000000E+00  0.10809061525E+02  0.10883414494E+02  0.12700000000E+01 0.  1.
          4   -1    0    0  501    0  0.00000000000E+00 -0.00000000000E+00 -0.36033935114E+03  0.36034158916E+03  0.12700000000E+01 0.  1.
         25    2    1    2    0    0  0.00000000000E+00  0.00000000000E+00 -0.34953028962E+03  0.37122500366E+03  0.12504631134E+03 0.  0.
    9000005    1    3    3    0    0  0.75109434927E+01  0.47620917909E+02 -0.29291713217E+03  0.29685958367E+03  0.10000000000E+01 0.  0.
    9000005    1    3    3    0    0 -0.75109434927E+01 -0.47620917909E+02 -0.56613157445E+02  0.74365419991E+02  0.10000000000E+01 0.  0.
<mgrwt>
<rscale>  0 0.12504631E+03</rscale>
<asrwt>0</asrwt>
<pdfrwt beam="2">  1        4 0.55442706E-01 0.12504631E+03</pdfrwt>
<pdfrwt beam="1">  1       -4 0.16688244E-02 0.12504631E+03</pdfrwt>
<totfact> 0.67381969E+03</totfact>
</mgrwt>
</event>
<event>
 5    1  0.3293542E-002  0.1249955E+03  0.7818608E-02  0.1235076E+00
         -4   -1    0    0    0  501 -0.00000000000E+00  0.00000000000E+00  0.11084815351E+02  0.11157330836E+02  0.12700000000E+01 0. -1.
          4   -1    0    0  501    0  0.00000000000E+00 -0.00000000000E+00 -0.35114843833E+03  0.35115073492E+03  0.12700000000E+01 0. -1.
         25    2    1    2    0    0  0.00000000000E+00  0.00000000000E+00 -0.34006362297E+03  0.36230806576E+03  0.12499546730E+03 0.  0.
    9000005    1    3    3    0    0  0.52577648837E+02 -0.32966700091E+02 -0.14878028663E+03  0.16120727701E+03  0.10000000000E+01 0.  0.
    9000005    1    3    3    0    0 -0.52577648837E+02  0.32966700091E+02 -0.19128333635E+03  0.20110078875E+03  0.10000000000E+01 0.  0.
<mgrwt>
<rscale>  0 0.12499547E+03</rscale>
<asrwt>0</asrwt>
<pdfrwt beam="2">  1        4 0.54028583E-01 0.12499547E+03</pdfrwt>
<pdfrwt beam="1">  1       -4 0.17111113E-02 0.12499547E+03</pdfrwt>
<totfact> 0.68398269E+03</totfact>
</mgrwt>
</event>
<event>
 5    1  0.3293542E-002  0.1249998E+03  0.7818608E-02  0.1235070E+00
         -4   -1    0    0    0  501 -0.00000000000E+00  0.00000000000E+00  0.18802587019E+03  0.18803015918E+03  0.12700000000E+01 0.  1.
          4   -1    0    0  501    0  0.00000000000E+00 -0.00000000000E+00 -0.20751071704E+02  0.20789898434E+02  0.12700000000E+01 0.  1.
         25    2    1    2    0    0  0.00000000000E+00  0.00000000000E+00  0.16727479849E+03  0.20882005761E+03  0.12499983301E+03 0.  0.
    9000005    1    3    3    0    0  0.30111995553E+02  0.34134420613E+02  0.12107880022E+02  0.47111481672E+02  0.10000000000E+01 0.  0.
    9000005    1    3    3    0    0 -0.30111995553E+02 -0.34134420613E+02  0.15516691846E+03  0.16170857594E+03  0.10000000000E+01 0.  0.
<mgrwt>
<rscale>  0 0.12499983E+03</rscale>
<asrwt>0</asrwt>
<pdfrwt beam="2">  1        4 0.31957892E-02 0.12499983E+03</pdfrwt>
<pdfrwt beam="1">  1       -4 0.28930373E-01 0.12499983E+03</pdfrwt>
<totfact> 0.88669275E+03</totfact>
</mgrwt>
</event>
<event>
 5    1  0.3293542E-002  0.1249957E+03  0.7818608E-02  0.1235076E+00
         -4   -1    0    0    0  501 -0.00000000000E+00  0.00000000000E+00  0.46480985487E+02  0.46498332355E+02  0.12700000000E+01 0. -1.
          4   -1    0    0  501    0  0.00000000000E+00 -0.00000000000E+00 -0.83996184251E+02  0.84005784734E+02  0.12700000000E+01 0. -1.
         25    2    1    2    0    0  0.00000000000E+00  0.00000000000E+00 -0.37515198764E+02  0.13050411709E+03  0.12499573768E+03 0.  0.
    9000005    1    3    3    0    0 -0.29055817373E+02 -0.55056645743E+02 -0.24429193229E+02  0.66882436001E+02  0.10000000000E+01 0.  0.
    9000005    1    3    3    0    0  0.29055817373E+02  0.55056645743E+02 -0.13086005536E+02  0.63621681089E+02  0.10000000000E+01 0.  0.
<mgrwt>
<rscale>  0 0.12499574E+03</rscale>
<asrwt>0</asrwt>
<pdfrwt beam="2">  1        4 0.12924563E-01 0.12499574E+03</pdfrwt>
<pdfrwt beam="1">  1       -4 0.71529937E-02 0.12499574E+03</pdfrwt>
<totfact> 0.10334726E+04</totfact>
</mgrwt>
</event>
<event>
 5    1  0.3293542E-002  0.1250139E+03  0.7818608E-02  0.1235048E+00
         -4   -1    0    0    0  501 -0.00000000000E+00  0.00000000000E+00  0.17347125400E+02  0.17393552243E+02  0.12700000000E+01 0.  1.
          4   -1    0    0  501    0  0.00000000000E+00 -0.00000000000E+00 -0.22488220110E+03  0.22488578717E+03  0.12700000000E+01 0.  1.
         25    2    1    2    0    0  0.00000000000E+00  0.00000000000E+00 -0.20753507570E+03  0.24227933942E+03  0.12501388188E+03 0.  0.
    9000005    1    3    3    0    0 -0.51894599540E+01  0.55090478419E+02 -0.16007780578E+03  0.16937471833E+03  0.10000000000E+01 0.  0.
    9000005    1    3    3    0    0  0.51894599540E+01 -0.55090478419E+02 -0.47457269926E+02  0.72904621087E+02  0.10000000000E+01 0.  0.
<mgrwt>
<rscale>  0 0.12501388E+03</rscale>
<asrwt>0</asrwt>
<pdfrwt beam="2">  1        4 0.34601107E-01 0.12501388E+03</pdfrwt>
<pdfrwt beam="1">  1       -4 0.26726358E-02 0.12501388E+03</pdfrwt>
<totfact> 0.83433249E+03</totfact>
</mgrwt>
</event>
<event>
 5    1  0.3293542E-002  0.1250056E+03  0.7818608E-02  0.1235060E+00
         -4   -1    0    0    0  501 -0.00000000000E+00  0.00000000000E+00  0.44432098768E+02  0.44450245229E+02  0.12700000000E+01 0.  1.
          4   -1    0    0  501    0  0.00000000000E+00 -0.00000000000E+00 -0.87882273253E+02  0.87891449255E+02  0.12700000000E+01 0.  1.
         25    2    1    2    0    0  0.00000000000E+00  0.00000000000E+00 -0.43450174485E+02  0.13234169448E+03  0.12500562562E+03 0.  0.
    9000005    1    3    3    0    0  0.24066503315E+01 -0.17193568646E+02 -0.85283204273E+02  0.87038127850E+02  0.10000000000E+01 0.  0.
    9000005    1    3    3    0    0 -0.24066503315E+01  0.17193568646E+02  0.41833029788E+02  0.45303566634E+02  0.10000000000E+01 0.  0.
<mgrwt>
<rscale>  0 0.12500563E+03</rscale>
<asrwt>0</asrwt>
<pdfrwt beam="2">  1        4 0.13522451E-01 0.12500563E+03</pdfrwt>
<pdfrwt beam="1">  1       -4 0.68378092E-02 0.12500563E+03</pdfrwt>
<totfact> 0.10293104E+04</totfact>
</mgrwt>
</event>
<event>
 5    1  0.3293542E-002  0.1250051E+03  0.7818608E-02  0.1235061E+00
         -4   -1    0    0    0  501 -0.00000000000E+00  0.00000000000E+00  0.25515236754E+03  0.25515552818E+03  0.12700000000E+01 0. -1.
          4   -1    0    0  501    0  0.00000000000E+00 -0.00000000000E+00 -0.15281127091E+02  0.15333810523E+02  0.12700000000E+01 0. -1.
         25    2    1    2    0    0  0.00000000000E+00  0.00000000000E+00  0.23987124045E+03  0.27048933870E+03  0.12500508133E+03 0.  0.
    9000005    1    3    3    0    0 -0.24338432703E+02  0.52181369814E+02  0.67362514661E+02  0.88622587660E+02  0.10000000000E+01 0.  0.
    9000005    1    3    3    0    0  0.24338432703E+02 -0.52181369814E+02  0.17250872579E+03  0.18186675104E+03  0.10000000000E+01 0.  0.
<mgrwt>
<rscale>  0 0.12500508E+03</rscale>
<asrwt>0</asrwt>
<pdfrwt beam="2">  1        4 0.23552384E-02 0.12500508E+03</pdfrwt>
<pdfrwt beam="1">  1       -4 0.39258505E-01 0.12500508E+03</pdfrwt>
<totfact> 0.79447220E+03</totfact>
</mgrwt>
</event>
<event>
 5    1  0.3293542E-002  0.1250028E+03  0.7818608E-02  0.1235065E+00
         -4   -1    0    0    0  501 -0.00000000000E+00  0.00000000000E+00  0.46480389140E+02  0.46497736231E+02  0.12700000000E+01 0.  1.
          4   -1    0    0  501    0  0.00000000000E+00 -0.00000000000E+00 -0.84006822439E+02  0.84016421706E+02  0.12700000000E+01 0.  1.
         25    2    1    2    0    0  0.00000000000E+00  0.00000000000E+00 -0.37526433299E+02  0.13051415794E+03  0.12500284887E+03 0.  0.
    9000005    1    3    3    0    0 -0.58829159418E+02 -0.26606099398E+01  0.30749625862E+01  0.58977997914E+02  0.10000000000E+01 0.  0.
    9000005    1    3    3    0    0  0.58829159418E+02  0.26606099398E+01 -0.40601395885E+02  0.71536160023E+02  0.10000000000E+01 0.  0.
<mgrwt>
<rscale>  0 0.12500285E+03</rscale>
<asrwt>0</asrwt>
<pdfrwt beam="2">  1        4 0.12926199E-01 0.12500285E+03</pdfrwt>
<pdfrwt beam="1">  1       -4 0.71529019E-02 0.12500285E+03</pdfrwt>
<totfact> 0.10332852E+04</totfact>
</mgrwt>
</event>
<event>
 5    1  0.3293542E-002  0.1249997E+03  0.7818608E-02  0.1235070E+00
          4   -1    0    0  501    0  0.00000000000E+00  0.00000000000E+00  0.67068565740E+02  0.67080588924E+02  0.12700000000E+01 0.  1.
         -4   -1    0    0    0  501 -0.00000000000E+00 -0.00000000000E+00 -0.58218145480E+02  0.58231996043E+02  0.12700000000E+01 0.  1.
         25    2    1    2    0    0  0.00000000000E+00  0.00000000000E+00  0.88504202599E+01  0.12531258497E+03  0.12499965605E+03 0.  0.
    9000005    1    3    3    0    0  0.12465536741E+02 -0.54236619842E+02  0.32925731665E+02  0.64669191613E+02  0.10000000000E+01 0.  0.
    9000005    1    3    3    0    0 -0.12465536741E+02  0.54236619842E+02 -0.24075311405E+02  0.60643393354E+02  0.10000000000E+01 0.  0.
<mgrwt>
<rscale>  0 0.12499966E+03</rscale>
<asrwt>0</asrwt>
<pdfrwt beam="1">  1        4 0.10320231E-01 0.12499966E+03</pdfrwt>
<pdfrwt beam="2">  1       -4 0.89586280E-02 0.12499966E+03</pdfrwt>
<totfact> 0.10446158E+04</totfact>
</mgrwt>
</event>
<event>
 4    1  0.3293542E-002  0.1251038E+03  0.7818608E-02  0.1234907E+00
         -4   -1    0    0    0  501 -0.00000000000E+00  0.00000000000E+00  0.57614804531E+02  0.57628800101E+02  0.12700000000E+01 0.  1.
          4   -1    0    0  501    0  0.00000000000E+00 -0.00000000000E+00 -0.67883858200E+02  0.67895737010E+02  0.12700000000E+01 0.  1.
    9000005    1    1    2    0    0 -0.20119527672E+02  0.57249183870E+02  0.10064838319E+02  0.61518821656E+02  0.10000000000E+01 0.  0.
    9000005    1    1    2    0    0  0.20119527672E+02 -0.57249183870E+02 -0.20333891988E+02  0.64005715455E+02  0.10000000000E+01 0.  0.
<mgrwt>
<rscale>  0 0.12510378E+03</rscale>
<asrwt>0</asrwt>
<pdfrwt beam="2">  1        4 0.10445661E-01 0.12510378E+03</pdfrwt>
<pdfrwt beam="1">  1       -4 0.88658064E-02 0.12510378E+03</pdfrwt>
<totfact> 0.10417010E+04</totfact>
</mgrwt>
</event>
<event>
 4    1  0.3293542E-002  0.1243820E+03  0.7818608E-02  0.1236038E+00
         -4   -1    0    0    0  501 -0.00000000000E+00  0.00000000000E+00  0.47346831246E+02  0.47363861003E+02  0.12700000000E+01 0. -1.
          4   -1    0    0  501    0  0.00000000000E+00 -0.00000000000E+00 -0.81652447650E+02  0.81662323670E+02  0.12700000000E+01 0. -1.
    9000005    1    1    2    0    0  0.23148977571E+02 -0.46751761548E+02 -0.52255904932E+02  0.73846340266E+02  0.10000000000E+01 0.  0.
    9000005    1    1    2    0    0 -0.23148977571E+02  0.46751761548E+02  0.17950288529E+02  0.55179844407E+02  0.10000000000E+01 0.  0.
<mgrwt>
<rscale>  0 0.12438200E+03</rscale>
<asrwt>0</asrwt>
<pdfrwt beam="2">  1        4 0.12563985E-01 0.12438200E+03</pdfrwt>
<pdfrwt beam="1">  1       -4 0.72861976E-02 0.12438200E+03</pdfrwt>
<totfact> 0.10511327E+04</totfact>
</mgrwt>
</event>
<event>
 5    1  0.3293542E-002  0.1250016E+03  0.7818608E-02  0.1235067E+00
         -4   -1    0    0    0  501 -0.00000000000E+00  0.00000000000E+00  0.10400385678E+03  0.10401161053E+03  0.12700000000E+01 0.  1.
          4   -1    0    0  501    0  0.00000000000E+00 -0.00000000000E+00 -0.37539766779E+02  0.37561243187E+02  0.12700000000E+01 0.  1.
         25    2    1    2    0    0  0.00000000000E+00  0.00000000000E+00  0.66464090000E+02  0.14157285372E+03  0.12500159059E+03 0.  0.
    9000005    1    3    3    0    0  0.43142868148E+02 -0.35005377501E+02  0.65637475400E+02  0.85999777342E+02  0.10000000000E+01 0.  0.
    9000005    1    3    3    0    0 -0.43142868148E+02  0.35005377501E+02  0.82661460086E+00  0.55573076375E+02  0.10000000000E+01 0.  0.
<mgrwt>
<rscale>  0 0.12500159E+03</rscale>
<asrwt>0</asrwt>
<pdfrwt beam="2">  1        4 0.57775973E-02 0.12500159E+03</pdfrwt>
<pdfrwt beam="1">  1       -4 0.16002842E-01 0.12500159E+03</pdfrwt>
<totfact> 0.10100729E+04</totfact>
</mgrwt>
</event>
<event>
 5    1  0.3293542E-002  0.1250025E+03  0.7818608E-02  0.1235065E+00
          4   -1    0    0  501    0  0.00000000000E+00  0.00000000000E+00  0.21096816130E+02  0.21135007708E+02  0.12700000000E+01 0.  1.
         -4   -1    0    0    0  501 -0.00000000000E+00 -0.00000000000E+00 -0.18495799634E+03  0.18496235646E+03  0.12700000000E+01 0.  1.
         25    2    1    2    0    0  0.00000000000E+00  0.00000000000E+00 -0.16386118021E+03  0.20609736417E+03  0.12500254853E+03 0.  0.
    9000005    1    3    3    0    0 -0.46094936477E+02  0.36652034600E+02 -0.47452709162E+02  0.75636462213E+02  0.10000000000E+01 0.  0.
    9000005    1    3    3    0    0  0.46094936477E+02 -0.36652034600E+02 -0.11640847104E+03  0.13046090196E+03  0.10000000000E+01 0.  0.
<mgrwt>
<rscale>  0 0.12500255E+03</rscale>
<asrwt>0</asrwt>
<pdfrwt beam="1">  1        4 0.32489373E-02 0.12500255E+03</pdfrwt>
<pdfrwt beam="2">  1       -4 0.28458349E-01 0.12500255E+03</pdfrwt>
<totfact> 0.89112146E+03</totfact>
</mgrwt>
</event>
<event>
 5    1  0.3293542E-002  0.1250017E+03  0.7818608E-02  0.1235067E+00
         -4   -1    0    0    0  501 -0.00000000000E+00  0.00000000000E+00  0.52087134439E+02  0.52102614849E+02  0.12700000000E+01 0.  1.
          4   -1    0    0  501    0  0.00000000000E+00 -0.00000000000E+00 -0.74964613347E+02  0.74975370318E+02  0.12700000000E+01 0.  1.
         25    2    1    2    0    0  0.00000000000E+00  0.00000000000E+00 -0.22877478907E+02  0.12707798517E+03  0.12500174108E+03 0.  0.
    9000005    1    3    3    0    0  0.33776599024E+02  0.30869206653E+02 -0.54708499443E+02  0.71328721231E+02  0.10000000000E+01 0.  0.
    9000005    1    3    3    0    0 -0.33776599024E+02 -0.30869206653E+02  0.31831020536E+02  0.55749263936E+02  0.10000000000E+01 0.  0.
<mgrwt>
<rscale>  0 0.12500174E+03</rscale>
<asrwt>0</asrwt>
<pdfrwt beam="2">  1        4 0.11535036E-01 0.12500174E+03</pdfrwt>
<pdfrwt beam="1">  1       -4 0.80154236E-02 0.12500174E+03</pdfrwt>
<totfact> 0.10407043E+04</totfact>
</mgrwt>
</event>
<event>
 5    1  0.3293542E-002  0.1249983E+03  0.7818608E-02  0.1235072E+00
         -4   -1    0    0    0  501 -0.00000000000E+00  0.00000000000E+00  0.55602993321E+01  0.57034926722E+01  0.12700000000E+01 0.  1.
          4   -1    0    0  501    0  0.00000000000E+00 -0.00000000000E+00 -0.69343118494E+03  0.69343234792E+03  0.12700000000E+01 0.  1.
         25    2    1    2    0    0  0.00000000000E+00  0.00000000000E+00 -0.68787088561E+03  0.69913584059E+03  0.12499827334E+03 0.  0.
    9000005    1    3    3    0    0 -0.34241379537E+02  0.16902837290E+02 -0.67259529839E+02  0.77349998935E+02  0.10000000000E+01 0.  0.
    9000005    1    3    3    0    0  0.34241379537E+02 -0.16902837290E+02 -0.62061135577E+03  0.62178584166E+03  0.10000000000E+01 0.  0.
<mgrwt>
<rscale>  0 0.12499827E+03</rscale>
<asrwt>0</asrwt>
<pdfrwt beam="2">  1        4 0.10669276E+00 0.12499827E+03</pdfrwt>
<pdfrwt beam="1">  1       -4 0.86653555E-03 0.12499827E+03</pdfrwt>
<totfact> 0.43133998E+03</totfact>
</mgrwt>
</event>
<event>
 5    1  0.3293542E-002  0.1249970E+03  0.7818608E-02  0.1235074E+00
         -4   -1    0    0    0  501 -0.00000000000E+00  0.00000000000E+00  0.45383398029E+03  0.45383575725E+03  0.12700000000E+01 0.  1.
          4   -1    0    0  501    0  0.00000000000E+00 -0.00000000000E+00 -0.85581601929E+01  0.86518787490E+01  0.12700000000E+01 0.  1.
         25    2    1    2    0    0  0.00000000000E+00  0.00000000000E+00  0.44527582009E+03  0.46248763600E+03  0.12499702995E+03 0.  0.
    9000005    1    3    3    0    0  0.82947011931E+01 -0.32614071599E+02  0.41746208220E+03  0.41881746598E+03  0.10000000000E+01 0.  0.
    9000005    1    3    3    0    0 -0.82947011931E+01  0.32614071599E+02  0.27813737888E+02  0.43670170018E+02  0.10000000000E+01 0.  0.
<mgrwt>
<rscale>  0 0.12499703E+03</rscale>
<asrwt>0</asrwt>
<pdfrwt beam="2">  1        4 0.13239859E-02 0.12499703E+03</pdfrwt>
<pdfrwt beam="1">  1       -4 0.69827956E-01 0.12499703E+03</pdfrwt>
<totfact> 0.58900905E+03</totfact>
</mgrwt>
</event>
<event>
 5    1  0.3293542E-002  0.1250005E+03  0.7818608E-02  0.1235068E+00
         -4   -1    0    0    0  501 -0.00000000000E+00  0.00000000000E+00  0.10294114611E+03  0.10294897990E+03  0.12700000000E+01 0. -1.
          4   -1    0    0  501    0  0.00000000000E+00 -0.00000000000E+00 -0.37926859129E+02  0.37948116467E+02  0.12700000000E+01 0. -1.
         25    2    1    2    0    0  0.00000000000E+00  0.00000000000E+00  0.65014286976E+02  0.14089709636E+03  0.12500053701E+03 0.  0.
    9000005    1    3    3    0    0 -0.25672441508E+02  0.37054383618E+02  0.81291451410E+02  0.92959139791E+02  0.10000000000E+01 0.  0.
    9000005    1    3    3    0    0  0.25672441508E+02 -0.37054383618E+02 -0.16277164434E+02  0.47937956572E+02  0.10000000000E+01 0.  0.
<mgrwt>
<rscale>  0 0.12500054E+03</rscale>
<asrwt>0</asrwt>
<pdfrwt beam="2">  1        4 0.58371392E-02 0.12500054E+03</pdfrwt>
<pdfrwt beam="1">  1       -4 0.15839337E-01 0.12500054E+03</pdfrwt>
<totfact> 0.10114904E+04</totfact>
</mgrwt>
</event>
<event>
 5    1  0.3293542E-002  0.1249915E+03  0.7818608E-02  0.1235083E+00
          4   -1    0    0  501    0  0.00000000000E+00  0.00000000000E+00  0.36850627747E+02  0.36872505548E+02  0.12700000000E+01 0. -1.
         -4   -1    0    0    0  501 -0.00000000000E+00 -0.00000000000E+00 -0.10593072819E+03  0.10593834091E+03  0.12700000000E+01 0. -1.
         25    2    1    2    0    0  0.00000000000E+00  0.00000000000E+00 -0.69080100443E+02  0.14281084646E+03  0.12499151007E+03 0.  0.
    9000005    1    3    3    0    0  0.36025381469E+02 -0.25533671939E+02 -0.85057974034E+02  0.95841825210E+02  0.10000000000E+01 0.  0.
    9000005    1    3    3    0    0 -0.36025381469E+02  0.25533671939E+02  0.15977873591E+02  0.46969021250E+02  0.10000000000E+01 0.  0.
<mgrwt>
<rscale>  0 0.12499151E+03</rscale>
<asrwt>0</asrwt>
<pdfrwt beam="1">  1        4 0.56715959E-02 0.12499151E+03</pdfrwt>
<pdfrwt beam="2">  1       -4 0.16299304E-01 0.12499151E+03</pdfrwt>
<totfact> 0.10077585E+04</totfact>
</mgrwt>
</event>
<event>
 5    1  0.3293542E-002  0.1249994E+03  0.7818608E-02  0.1235070E+00
          4   -1    0    0  501    0  0.00000000000E+00  0.00000000000E+00  0.34914901659E+02  0.34937991611E+02  0.12700000000E+01 0.  1.
         -4   -1    0    0    0  501 -0.00000000000E+00 -0.00000000000E+00 -0.11181445536E+03  0.11182166752E+03  0.12700000000E+01 0.  1.
         25    2    1    2    0    0  0.00000000000E+00  0.00000000000E+00 -0.76899553697E+02  0.14675965913E+03  0.12499942475E+03 0.  0.
    9000005    1    3    3    0    0 -0.30097513954E+02 -0.10371378415E+02  0.24686929368E+02  0.40297274326E+02  0.10000000000E+01 0.  0.
    9000005    1    3    3    0    0  0.30097513954E+02  0.10371378415E+02 -0.10158648307E+03  0.10646238480E+03  0.10000000000E+01 0.  0.
<mgrwt>
<rscale>  0 0.12499942E+03</rscale>
<asrwt>0</asrwt>
<pdfrwt beam="1">  1        4 0.53738543E-02 0.12499942E+03</pdfrwt>
<pdfrwt beam="2">  1       -4 0.17204555E-01 0.12499942E+03</pdfrwt>
<totfact> 0.99954873E+03</totfact>
</mgrwt>
</event>
<event>
 5    1  0.3293542E-002  0.1249647E+03  0.7818608E-02  0.1235124E+00
         -4   -1    0    0    0  501 -0.00000000000E+00  0.00000000000E+00  0.70248310451E+03  0.70248425251E+03  0.12700000000E+01 0.  1.
          4   -1    0    0  501    0  0.00000000000E+00 -0.00000000000E+00 -0.54837687163E+01  0.56289092490E+01  0.12700000000E+01 0.  1.
         25    2    1    2    0    0  0.00000000000E+00  0.00000000000E+00  0.69699933580E+03  0.70811316176E+03  0.12496469804E+03 0.  0.
    9000005    1    3    3    0    0  0.44081077071E+02 -0.32372387398E+02  0.51961792189E+03  0.52248913632E+03  0.10000000000E+01 0.  0.
    9000005    1    3    3    0    0 -0.44081077071E+02  0.32372387398E+02  0.17738141390E+03  0.18562402544E+03  0.10000000000E+01 0.  0.
<mgrwt>
<rscale>  0 0.12496470E+03</rscale>
<asrwt>0</asrwt>
<pdfrwt beam="2">  1        4 0.85490959E-03 0.12496470E+03</pdfrwt>
<pdfrwt beam="1">  1       -4 0.10808559E+00 0.12496470E+03</pdfrwt>
<totfact> 0.42694819E+03</totfact>
</mgrwt>
</event>
<event>
 5    1  0.3293542E-002  0.1249998E+03  0.7818608E-02  0.1235070E+00
         -4   -1    0    0    0  501 -0.00000000000E+00  0.00000000000E+00  0.17976634875E+03  0.17977083479E+03  0.12700000000E+01 0. -1.
          4   -1    0    0  501    0  0.00000000000E+00 -0.00000000000E+00 -0.21706211873E+02  0.21743333090E+02  0.12700000000E+01 0. -1.
         25    2    1    2    0    0  0.00000000000E+00  0.00000000000E+00  0.15806013687E+03  0.20151416788E+03  0.12499981195E+03 0.  0.
    9000005    1    3    3    0    0  0.30391476431E+02  0.48825550402E+02  0.11844166792E+03  0.13167006080E+03  0.10000000000E+01 0.  0.
    9000005    1    3    3    0    0 -0.30391476431E+02 -0.48825550402E+02  0.39618468957E+02  0.69844107083E+02  0.10000000000E+01 0.  0.
<mgrwt>
<rscale>  0 0.12499981E+03</rscale>
<asrwt>0</asrwt>
<pdfrwt beam="2">  1        4 0.33426178E-02 0.12499981E+03</pdfrwt>
<pdfrwt beam="1">  1       -4 0.27659561E-01 0.12499981E+03</pdfrwt>
<totfact> 0.89881135E+03</totfact>
</mgrwt>
</event>
<event>
 5    1  0.3293542E-002  0.1249981E+03  0.7818608E-02  0.1235072E+00
          4   -1    0    0  501    0  0.00000000000E+00  0.00000000000E+00  0.77910588159E+02  0.77920938440E+02  0.12700000000E+01 0. -1.
         -4   -1    0    0    0  501 -0.00000000000E+00 -0.00000000000E+00 -0.50114374910E+02  0.50130464516E+02  0.12700000000E+01 0. -1.
         25    2    1    2    0    0  0.00000000000E+00  0.00000000000E+00  0.27796213249E+02  0.12805140296E+03  0.12499812930E+03 0.  0.
    9000005    1    3    3    0    0 -0.52021506668E+02  0.33568528656E+02  0.22593660434E+02  0.65913251809E+02  0.10000000000E+01 0.  0.
    9000005    1    3    3    0    0  0.52021506668E+02 -0.33568528656E+02  0.52025528152E+01  0.62138151147E+02  0.10000000000E+01 0.  0.
<mgrwt>
<rscale>  0 0.12499813E+03</rscale>
<asrwt>0</asrwt>
<pdfrwt beam="1">  1        4 0.11988278E-01 0.12499813E+03</pdfrwt>
<pdfrwt beam="2">  1       -4 0.77119377E-02 0.12499813E+03</pdfrwt>
<totfact> 0.10386816E+04</totfact>
</mgrwt>
</event>
<event>
 5    1  0.3293542E-002  0.1250198E+03  0.7818608E-02  0.1235038E+00
          4   -1    0    0  501    0  0.00000000000E+00  0.00000000000E+00  0.90227183481E+03  0.90227272860E+03  0.12700000000E+01 0.  1.
         -4   -1    0    0    0  501 -0.00000000000E+00 -0.00000000000E+00 -0.42366972219E+01  0.44229518820E+01  0.12700000000E+01 0.  1.
         25    2    1    2    0    0  0.00000000000E+00  0.00000000000E+00  0.89803513758E+03  0.90669568049E+03  0.12501979314E+03 0.  0.
    9000005    1    3    3    0    0  0.40016810870E+02 -0.24519389423E+01  0.79676548488E+03  0.79777415041E+03  0.10000000000E+01 0.  0.
    9000005    1    3    3    0    0 -0.40016810870E+02  0.24519389423E+01  0.10126965270E+03  0.10892153008E+03  0.10000000000E+01 0.  0.
<mgrwt>
<rscale>  0 0.12501979E+03</rscale>
<asrwt>0</asrwt>
<pdfrwt beam="1">  1        4 0.13882554E+00 0.12501979E+03</pdfrwt>
<pdfrwt beam="2">  1       -4 0.66619518E-03 0.12501979E+03</pdfrwt>
<totfact> 0.33890162E+03</totfact>
</mgrwt>
</event>
<event>
 5    1  0.3293542E-002  0.1250072E+03  0.7818608E-02  0.1235058E+00
          4   -1    0    0  501    0  0.00000000000E+00  0.00000000000E+00  0.38840738584E+01  0.40864323972E+01  0.12700000000E+01 0.  1.
         -4   -1    0    0    0  501 -0.00000000000E+00 -0.00000000000E+00 -0.98008579896E+03  0.98008662180E+03  0.12700000000E+01 0.  1.
         25    2    1    2    0    0  0.00000000000E+00  0.00000000000E+00 -0.97620172511E+03  0.98417305420E+03  0.12500716983E+03 0.  0.
    9000005    1    3    3    0    0  0.31672483173E+02 -0.53051119514E+02 -0.56201032547E+03  0.56539735886E+03  0.10000000000E+01 0.  0.
    9000005    1    3    3    0    0 -0.31672483173E+02  0.53051119514E+02 -0.41419139964E+03  0.41877569534E+03  0.10000000000E+01 0.  0.
<mgrwt>
<rscale>  0 0.12500717E+03</rscale>
<asrwt>0</asrwt>
<pdfrwt beam="1">  1        4 0.61317994E-03 0.12500717E+03</pdfrwt>
<pdfrwt beam="2">  1       -4 0.15079787E+00 0.12500717E+03</pdfrwt>
<totfact> 0.31128072E+03</totfact>
</mgrwt>
</event>
<event>
 5    1  0.3293542E-002  0.1250076E+03  0.7818608E-02  0.1235057E+00
          4   -1    0    0  501    0  0.00000000000E+00  0.00000000000E+00  0.89068697295E+01  0.89969566175E+01  0.12700000000E+01 0. -1.
         -4   -1    0    0    0  501 -0.00000000000E+00 -0.00000000000E+00 -0.43632135963E+03  0.43632320792E+03  0.12700000000E+01 0. -1.
         25    2    1    2    0    0  0.00000000000E+00  0.00000000000E+00 -0.42741448990E+03  0.44532016454E+03  0.12500761083E+03 0.  0.
    9000005    1    3    3    0    0 -0.56753900922E+02  0.22710971513E+02 -0.26000843122E+03  0.26709956534E+03  0.10000000000E+01 0.  0.
    9000005    1    3    3    0    0  0.56753900922E+02 -0.22710971513E+02 -0.16740605868E+03  0.17822059920E+03  0.10000000000E+01 0.  0.
<mgrwt>
<rscale>  0 0.12500761E+03</rscale>
<asrwt>0</asrwt>
<pdfrwt beam="1">  1        4 0.13773599E-02 0.12500761E+03</pdfrwt>
<pdfrwt beam="2">  1       -4 0.67133418E-01 0.12500761E+03</pdfrwt>
<totfact> 0.60361249E+03</totfact>
</mgrwt>
</event>
<event>
 5    1  0.3293542E-002  0.1250000E+03  0.7818608E-02  0.1235069E+00
          4   -1    0    0  501    0  0.00000000000E+00  0.00000000000E+00  0.15278140143E+03  0.15278667979E+03  0.12700000000E+01 0.  1.
         -4   -1    0    0    0  501 -0.00000000000E+00 -0.00000000000E+00 -0.25546096884E+02  0.25577645826E+02  0.12700000000E+01 0.  1.
         25    2    1    2    0    0  0.00000000000E+00  0.00000000000E+00  0.12723530454E+03  0.17836432562E+03  0.12500003973E+03 0.  0.
    9000005    1    3    3    0    0  0.24584333116E+02 -0.48901653205E+02  0.20585097080E+02  0.58485103596E+02  0.10000000000E+01 0.  0.
    9000005    1    3    3    0    0 -0.24584333116E+02  0.48901653205E+02  0.10665020746E+03  0.11987922202E+03  0.10000000000E+01 0.  0.
<mgrwt>
<rscale>  0 0.12500004E+03</rscale>
<asrwt>0</asrwt>
<pdfrwt beam="1">  1        4 0.23507664E-01 0.12500004E+03</pdfrwt>
<pdfrwt beam="2">  1       -4 0.39330017E-02 0.12500004E+03</pdfrwt>
<totfact> 0.93912177E+03</totfact>
</mgrwt>
</event>
<event>
 5    1  0.3293542E-002  0.1249997E+03  0.7818608E-02  0.1235070E+00
          4   -1    0    0  501    0  0.00000000000E+00  0.00000000000E+00  0.53573914828E+02  0.53588965748E+02  0.12700000000E+01 0.  1.
         -4   -1    0    0    0  501 -0.00000000000E+00 -0.00000000000E+00 -0.72882128128E+02  0.72893192415E+02  0.12700000000E+01 0.  1.
         25    2    1    2    0    0  0.00000000000E+00  0.00000000000E+00 -0.19308213300E+02  0.12648215816E+03  0.12499971693E+03 0.  0.
    9000005    1    3    3    0    0 -0.69043185221E+01 -0.35028600742E+02  0.42243141415E+02  0.55318672081E+02  0.10000000000E+01 0.  0.
    9000005    1    3    3    0    0  0.69043185221E+01  0.35028600742E+02 -0.61551354715E+02  0.71163486082E+02  0.10000000000E+01 0.  0.
<mgrwt>
<rscale>  0 0.12499972E+03</rscale>
<asrwt>0</asrwt>
<pdfrwt beam="1">  1        4 0.82441496E-02 0.12499972E+03</pdfrwt>
<pdfrwt beam="2">  1       -4 0.11214644E-01 0.12499972E+03</pdfrwt>
<totfact> 0.10420484E+04</totfact>
</mgrwt>
</event>
<event>
 5    1  0.3293542E-002  0.1250031E+03  0.7818608E-02  0.1235064E+00
         -4   -1    0    0    0  501 -0.00000000000E+00  0.00000000000E+00  0.12841261290E+04  0.12841267570E+04  0.12700000000E+01 0.  1.
          4   -1    0    0  501    0  0.00000000000E+00 -0.00000000000E+00 -0.29088988013E+01  0.31740498163E+01  0.12700000000E+01 0.  1.
         25    2    1    2    0    0  0.00000000000E+00  0.00000000000E+00  0.12812172302E+04  0.12873008068E+04  0.12500310520E+03 0.  0.
    9000005    1    3    3    0    0 -0.22942870826E+02  0.51193823659E+02  0.92418407801E+03  0.92588573428E+03  0.10000000000E+01 0.  0.
    9000005    1    3    3    0    0  0.22942870826E+02 -0.51193823659E+02  0.35703315219E+03  0.36141507255E+03  0.10000000000E+01 0.  0.
<mgrwt>
<rscale>  0 0.12500311E+03</rscale>
<asrwt>0</asrwt>
<pdfrwt beam="2">  1        4 0.46796728E-03 0.12500311E+03</pdfrwt>
<pdfrwt beam="1">  1       -4 0.19757838E+00 0.12500311E+03</pdfrwt>
<totfact> 0.22528699E+03</totfact>
</mgrwt>
</event>
<event>
 5    1  0.3293542E-002  0.1250004E+03  0.7818608E-02  0.1235069E+00
          4   -1    0    0  501    0  0.00000000000E+00  0.00000000000E+00  0.14251748748E+03  0.14252314598E+03  0.12700000000E+01 0.  1.
         -4   -1    0    0    0  501 -0.00000000000E+00 -0.00000000000E+00 -0.27388177774E+02  0.27417607149E+02  0.12700000000E+01 0.  1.
         25    2    1    2    0    0  0.00000000000E+00  0.00000000000E+00  0.11512930971E+03  0.16994075312E+03  0.12500040647E+03 0.  0.
    9000005    1    3    3    0    0  0.60142945206E+02 -0.16818568395E+02  0.60675941250E+02  0.87078171475E+02  0.10000000000E+01 0.  0.
    9000005    1    3    3    0    0 -0.60142945206E+02  0.16818568395E+02  0.54453368460E+02  0.82862581649E+02  0.10000000000E+01 0.  0.
<mgrwt>
<rscale>  0 0.12500041E+03</rscale>
<asrwt>0</asrwt>
<pdfrwt beam="1">  1        4 0.21928466E-01 0.12500041E+03</pdfrwt>
<pdfrwt beam="2">  1       -4 0.42162650E-02 0.12500041E+03</pdfrwt>
<totfact> 0.95458810E+03</totfact>
</mgrwt>
</event>
<event>
 5    1  0.3293542E-002  0.1249985E+03  0.7818608E-02  0.1235072E+00
         -4   -1    0    0    0  501 -0.00000000000E+00  0.00000000000E+00  0.96092862897E+01  0.96928470016E+01  0.12700000000E+01 0.  1.
          4   -1    0    0  501    0  0.00000000000E+00 -0.00000000000E+00 -0.40465377875E+03  0.40465577169E+03  0.12700000000E+01 0.  1.
         25    2    1    2    0    0  0.00000000000E+00  0.00000000000E+00 -0.39504449246E+03  0.41434861869E+03  0.12499850712E+03 0.  0.
    9000005    1    3    3    0    0 -0.26513518588E+02  0.51786545691E+02 -0.12190754769E+03  0.13508243101E+03  0.10000000000E+01 0.  0.
    9000005    1    3    3    0    0  0.26513518588E+02 -0.51786545691E+02 -0.27313694477E+03  0.27926618768E+03  0.10000000000E+01 0.  0.
<mgrwt>
<rscale>  0 0.12499851E+03</rscale>
<asrwt>0</asrwt>
<pdfrwt beam="2">  1        4 0.62260995E-01 0.12499851E+03</pdfrwt>
<pdfrwt beam="1">  1       -4 0.14849331E-02 0.12499851E+03</pdfrwt>
<totfact> 0.63182868E+03</totfact>
</mgrwt>
</event>
<event>
 5    1  0.3293542E-002  0.1250032E+03  0.7818608E-02  0.1235064E+00
          4   -1    0    0  501    0  0.00000000000E+00  0.00000000000E+00  0.38725638631E+02  0.38746457740E+02  0.12700000000E+01 0.  1.
         -4   -1    0    0    0  501 -0.00000000000E+00 -0.00000000000E+00 -0.10082312626E+03  0.10083112461E+03  0.12700000000E+01 0.  1.
         25    2    1    2    0    0  0.00000000000E+00  0.00000000000E+00 -0.62097487633E+02  0.13957758235E+03  0.12500321405E+03 0.  0.
    9000005    1    3    3    0    0  0.52763293896E+02  0.70120944562E+01 -0.67612931664E+02  0.86056046735E+02  0.10000000000E+01 0.  0.
    9000005    1    3    3    0    0 -0.52763293896E+02 -0.70120944562E+01  0.55154440315E+01  0.53521535612E+02  0.10000000000E+01 0.  0.
<mgrwt>
<rscale>  0 0.12500321E+03</rscale>
<asrwt>0</asrwt>
<pdfrwt beam="1">  1        4 0.59600073E-02 0.12500321E+03</pdfrwt>
<pdfrwt beam="2">  1       -4 0.15513467E-01 0.12500321E+03</pdfrwt>
<totfact> 0.10141614E+04</totfact>
</mgrwt>
</event>
<event>
 5    1  0.3293542E-002  0.1249990E+03  0.7818608E-02  0.1235071E+00
         -4   -1    0    0    0  501 -0.00000000000E+00  0.00000000000E+00  0.17605023193E+02  0.17650771700E+02  0.12700000000E+01 0.  1.
          4   -1    0    0  501    0  0.00000000000E+00 -0.00000000000E+00 -0.22154366042E+03  0.22154730053E+03  0.12700000000E+01 0.  1.
         25    2    1    2    0    0  0.00000000000E+00  0.00000000000E+00 -0.20393863723E+03  0.23919807223E+03  0.12499900002E+03 0.  0.
    9000005    1    3    3    0    0 -0.53622910541E+02  0.26477253836E+02 -0.13666442003E+03  0.14917984182E+03  0.10000000000E+01 0.  0.
    9000005    1    3    3    0    0  0.53622910541E+02 -0.26477253836E+02 -0.67274217204E+02  0.90018230410E+02  0.10000000000E+01 0.  0.
<mgrwt>
<rscale>  0 0.12499900E+03</rscale>
<asrwt>0</asrwt>
<pdfrwt beam="2">  1        4 0.34087437E-01 0.12499900E+03</pdfrwt>
<pdfrwt beam="1">  1       -4 0.27122644E-02 0.12499900E+03</pdfrwt>
<totfact> 0.83918817E+03</totfact>
</mgrwt>
</event>
<event>
 5    1  0.3293542E-002  0.1250006E+03  0.7818608E-02  0.1235068E+00
         -4   -1    0    0    0  501 -0.00000000000E+00  0.00000000000E+00  0.19723969151E+03  0.19724378015E+03  0.12700000000E+01 0. -1.
          4   -1    0    0  501    0  0.00000000000E+00 -0.00000000000E+00 -0.19780130031E+02  0.19820858812E+02  0.12700000000E+01 0. -1.
         25    2    1    2    0    0  0.00000000000E+00  0.00000000000E+00  0.17745956148E+03  0.21706463896E+03  0.12500064610E+03 0.  0.
    9000005    1    3    3    0    0 -0.90449367569E+01 -0.31650438741E+02 -0.35134469081E+01  0.33119563141E+02  0.10000000000E+01 0.  0.
    9000005    1    3    3    0    0  0.90449367569E+01  0.31650438741E+02  0.18097300839E+03  0.18394507582E+03  0.10000000000E+01 0.  0.
<mgrwt>
<rscale>  0 0.12500065E+03</rscale>
<asrwt>0</asrwt>
<pdfrwt beam="2">  1        4 0.30465444E-02 0.12500065E+03</pdfrwt>
<pdfrwt beam="1">  1       -4 0.30348016E-01 0.12500065E+03</pdfrwt>
<totfact> 0.87333712E+03</totfact>
</mgrwt>
</event>
<event>
 5    1  0.3293542E-002  0.1249987E+03  0.7818608E-02  0.1235071E+00
         -4   -1    0    0    0  501 -0.00000000000E+00  0.00000000000E+00  0.78184469211E+01  0.79209224373E+01  0.12700000000E+01 0. -1.
          4   -1    0    0  501    0  0.00000000000E+00 -0.00000000000E+00 -0.49625328621E+03  0.49625491128E+03  0.12700000000E+01 0. -1.
         25    2    1    2    0    0  0.00000000000E+00  0.00000000000E+00 -0.48843483929E+03  0.50417583372E+03  0.12499871631E+03 0.  0.
    9000005    1    3    3    0    0  0.95061474863E+01 -0.60512486374E+02 -0.19431958743E+03  0.20374795682E+03  0.10000000000E+01 0.  0.
    9000005    1    3    3    0    0 -0.95061474863E+01  0.60512486374E+02 -0.29411525185E+03  0.30042787690E+03  0.10000000000E+01 0.  0.
<mgrwt>
<rscale>  0 0.12499872E+03</rscale>
<asrwt>0</asrwt>
<pdfrwt beam="2">  1        4 0.76354643E-01 0.12499872E+03</pdfrwt>
<pdfrwt beam="1">  1       -4 0.12108461E-02 0.12499872E+03</pdfrwt>
<totfact> 0.55543401E+03</totfact>
</mgrwt>
</event>
<event>
 5    1  0.3293542E-002  0.1249589E+03  0.7818608E-02  0.1235133E+00
          4   -1    0    0  501    0  0.00000000000E+00  0.00000000000E+00  0.28909580374E+02  0.28937462525E+02  0.12700000000E+01 0.  1.
         -4   -1    0    0    0  501 -0.00000000000E+00 -0.00000000000E+00 -0.13493483055E+03  0.13494080701E+03  0.12700000000E+01 0.  1.
         25    2    1    2    0    0  0.00000000000E+00  0.00000000000E+00 -0.10602525018E+03  0.16387826953E+03  0.12495892745E+03 0.  0.
    9000005    1    3    3    0    0 -0.32474213680E+02 -0.48983610845E+02 -0.25232178046E+02  0.63965861946E+02  0.10000000000E+01 0.  0.
    9000005    1    3    3    0    0  0.32474213680E+02  0.48983610845E+02 -0.80793072130E+02  0.99912407587E+02  0.10000000000E+01 0.  0.
<mgrwt>
<rscale>  0 0.12495893E+03</rscale>
<asrwt>0</asrwt>
<pdfrwt beam="1">  1        4 0.44502323E-02 0.12495893E+03</pdfrwt>
<pdfrwt beam="2">  1       -4 0.20761809E-01 0.12495893E+03</pdfrwt>
<totfact> 0.96689450E+03</totfact>
</mgrwt>
</event>
<event>
 5    1  0.3293542E-002  0.1249986E+03  0.7818608E-02  0.1235072E+00
         -4   -1    0    0    0  501 -0.00000000000E+00  0.00000000000E+00  0.33391344382E+02  0.33415487123E+02  0.12700000000E+01 0.  1.
          4   -1    0    0  501    0  0.00000000000E+00 -0.00000000000E+00 -0.11691133056E+03  0.11691822832E+03  0.12700000000E+01 0.  1.
         25    2    1    2    0    0  0.00000000000E+00  0.00000000000E+00 -0.83519986178E+02  0.15033371544E+03  0.12499855162E+03 0.  0.
    9000005    1    3    3    0    0  0.30733842085E+02  0.54376143671E+02 -0.39407700348E+02  0.73860008777E+02  0.10000000000E+01 0.  0.
    9000005    1    3    3    0    0 -0.30733842085E+02 -0.54376143671E+02 -0.44112285830E+02  0.76473706665E+02  0.10000000000E+01 0.  0.
<mgrwt>
<rscale>  0 0.12499855E+03</rscale>
<asrwt>0</asrwt>
<pdfrwt beam="2">  1        4 0.17988746E-01 0.12499855E+03</pdfrwt>
<pdfrwt beam="1">  1       -4 0.51395177E-02 0.12499855E+03</pdfrwt>
<totfact> 0.99240453E+03</totfact>
</mgrwt>
</event>
<event>
 5    1  0.3293542E-002  0.1250008E+03  0.7818608E-02  0.1235068E+00
         -4   -1    0    0    0  501 -0.00000000000E+00  0.00000000000E+00  0.65152314103E+03  0.65152437882E+03  0.12700000000E+01 0.  1.
          4   -1    0    0  501    0  0.00000000000E+00 -0.00000000000E+00 -0.59271326129E+01  0.60616665209E+01  0.12700000000E+01 0.  1.
         25    2    1    2    0    0  0.00000000000E+00  0.00000000000E+00  0.64559600842E+03  0.65758604534E+03  0.12500080377E+03 0.  0.
    9000005    1    3    3    0    0 -0.21274974066E+02 -0.25383287276E+01  0.13973270115E+02  0.25599217018E+02  0.10000000000E+01 0.  0.
    9000005    1    3    3    0    0  0.21274974066E+02  0.25383287276E+01  0.63162273830E+03  0.63198682832E+03  0.10000000000E+01 0.  0.
<mgrwt>
<rscale>  0 0.12500080E+03</rscale>
<asrwt>0</asrwt>
<pdfrwt beam="2">  1        4 0.92231074E-03 0.12500080E+03</pdfrwt>
<pdfrwt beam="1">  1       -4 0.10024475E+00 0.12500080E+03</pdfrwt>
<totfact> 0.45421202E+03</totfact>
</mgrwt>
</event>
<event>
 5    1  0.3293542E-002  0.1249997E+03  0.7818608E-02  0.1235070E+00
         -4   -1    0    0    0  501 -0.00000000000E+00  0.00000000000E+00  0.93901711849E+02  0.93910299692E+02  0.12700000000E+01 0. -1.
          4   -1    0    0  501    0  0.00000000000E+00 -0.00000000000E+00 -0.41578951715E+02  0.41598342824E+02  0.12700000000E+01 0. -1.
         25    2    1    2    0    0  0.00000000000E+00  0.00000000000E+00  0.52322760134E+02  0.13550864252E+03  0.12499968387E+03 0.  0.
    9000005    1    3    3    0    0 -0.23514431228E+02 -0.57331557713E+02  0.34927913288E+02  0.71139265616E+02  0.10000000000E+01 0.  0.
    9000005    1    3    3    0    0  0.23514431228E+02  0.57331557713E+02  0.17394846847E+02  0.64369376900E+02  0.10000000000E+01 0.  0.
<mgrwt>
<rscale>  0 0.12499968E+03</rscale>
<asrwt>0</asrwt>
<pdfrwt beam="2">  1        4 0.63989141E-02 0.12499968E+03</pdfrwt>
<pdfrwt beam="1">  1       -4 0.14448569E-01 0.12499968E+03</pdfrwt>
<totfact> 0.10227434E+04</totfact>
</mgrwt>
</event>
<event>
 5    1  0.3293542E-002  0.1249987E+03  0.7818608E-02  0.1235071E+00
         -4   -1    0    0    0  501 -0.00000000000E+00  0.00000000000E+00  0.13171585339E+04  0.13171591461E+04  0.12700000000E+01 0. -1.
          4   -1    0    0  501    0  0.00000000000E+00 -0.00000000000E+00 -0.28289956843E+01  0.31009863885E+01  0.12700000000E+01 0. -1.
         25    2    1    2    0    0  0.00000000000E+00  0.00000000000E+00  0.13143295382E+04  0.13202601325E+04  0.12499873033E+03 0.  0.
    9000005    1    3    3    0    0 -0.23879805578E+02  0.34941455824E+02  0.17153145257E+03  0.17667820938E+03  0.10000000000E+01 0.  0.
    9000005    1    3    3    0    0  0.23879805578E+02 -0.34941455824E+02  0.11427980856E+04  0.11435819232E+04  0.10000000000E+01 0.  0.
<mgrwt>
<rscale>  0 0.12499873E+03</rscale>
<asrwt>0</asrwt>
<pdfrwt beam="2">  1        4 0.45619887E-03 0.12499873E+03</pdfrwt>
<pdfrwt beam="1">  1       -4 0.20266105E+00 0.12499873E+03</pdfrwt>
<totfact> 0.21755895E+03</totfact>
</mgrwt>
</event>
<event>
 5    1  0.3293542E-002  0.1249906E+03  0.7818608E-02  0.1235084E+00
          4   -1    0    0  501    0  0.00000000000E+00  0.00000000000E+00  0.12576892032E+02  0.12640850967E+02  0.12700000000E+01 0. -1.
         -4   -1    0    0    0  501 -0.00000000000E+00 -0.00000000000E+00 -0.30969000484E+03  0.30969260888E+03  0.12700000000E+01 0. -1.
         25    2    1    2    0    0  0.00000000000E+00  0.00000000000E+00 -0.29711311281E+03  0.32233345985E+03  0.12499062980E+03 0.  0.
    9000005    1    3    3    0    0 -0.35704038091E+02  0.41307516439E+02 -0.70183993469E+02  0.88926273899E+02  0.10000000000E+01 0.  0.
    9000005    1    3    3    0    0  0.35704038091E+02 -0.41307516439E+02 -0.22692911934E+03  0.23340718595E+03  0.10000000000E+01 0.  0.
<mgrwt>
<rscale>  0 0.12499063E+03</rscale>
<asrwt>0</asrwt>
<pdfrwt beam="1">  1        4 0.19400269E-02 0.12499063E+03</pdfrwt>
<pdfrwt beam="2">  1       -4 0.47649731E-01 0.12499063E+03</pdfrwt>
<totfact> 0.72894588E+03</totfact>
</mgrwt>
</event>
<event>
 5    1  0.3293542E-002  0.1249442E+03  0.7818608E-02  0.1235156E+00
         -4   -1    0    0    0  501 -0.00000000000E+00  0.00000000000E+00  0.43246174651E+03  0.43246361130E+03  0.12700000000E+01 0.  1.
          4   -1    0    0  501    0  0.00000000000E+00 -0.00000000000E+00 -0.89779576306E+01  0.90673382652E+01  0.12700000000E+01 0.  1.
         25    2    1    2    0    0  0.00000000000E+00  0.00000000000E+00  0.42348378888E+03  0.44153094956E+03  0.12494422746E+03 0.  0.
    9000005    1    3    3    0    0 -0.37484408351E+02  0.29881882024E+02  0.35326073822E+03  0.35649986944E+03  0.10000000000E+01 0.  0.
    9000005    1    3    3    0    0  0.37484408351E+02 -0.29881882024E+02  0.70223050661E+02  0.85031080123E+02  0.10000000000E+01 0.  0.
<mgrwt>
<rscale>  0 0.12494423E+03</rscale>
<asrwt>0</asrwt>
<pdfrwt beam="2">  1        4 0.13882435E-02 0.12494423E+03</pdfrwt>
<pdfrwt beam="1">  1       -4 0.66539579E-01 0.12494423E+03</pdfrwt>
<totfact> 0.60779190E+03</totfact>
</mgrwt>
</event>
<event>
 5    1  0.3293542E-002  0.1249975E+03  0.7818608E-02  0.1235073E+00
         -4   -1    0    0    0  501 -0.00000000000E+00  0.00000000000E+00  0.15655552685E+01  0.20159026015E+01  0.12700000000E+01 0. -1.
          4   -1    0    0  501    0  0.00000000000E+00 -0.00000000000E+00 -0.21808377676E+04  0.21808381374E+04  0.12700000000E+01 0. -1.
         25    2    1    2    0    0  0.00000000000E+00  0.00000000000E+00 -0.21792722123E+04  0.21828540400E+04  0.12499753783E+03 0.  0.
    9000005    1    3    3    0    0  0.59839979282E+02  0.10461731087E+02 -0.13455924091E+04  0.13469633263E+04  0.10000000000E+01 0.  0.
    9000005    1    3    3    0    0 -0.59839979282E+02 -0.10461731087E+02 -0.83367980328E+03  0.83589071375E+03  0.10000000000E+01 0.  0.
<mgrwt>
<rscale>  0 0.12499754E+03</rscale>
<asrwt>0</asrwt>
<pdfrwt beam="2">  1        4 0.33554605E+00 0.12499754E+03</pdfrwt>
<pdfrwt beam="1">  1       -4 0.27552695E-03 0.12499754E+03</pdfrwt>
<totfact> 0.76599901E+02</totfact>
</mgrwt>
</event>
<event>
 5    1  0.3293542E-002  0.1250037E+03  0.7818608E-02  0.1235064E+00
          4   -1    0    0  501    0  0.00000000000E+00  0.00000000000E+00  0.28431340541E+01  0.31138900510E+01  0.12700000000E+01 0. -1.
         -4   -1    0    0    0  501 -0.00000000000E+00 -0.00000000000E+00 -0.13112831868E+04  0.13112838018E+04  0.12700000000E+01 0. -1.
         25    2    1    2    0    0  0.00000000000E+00  0.00000000000E+00 -0.13084400528E+04  0.13143976919E+04  0.12500368289E+03 0.  0.
    9000005    1    3    3    0    0 -0.52302341448E+02 -0.32055713014E+02 -0.52875485758E+03  0.53230236058E+03  0.10000000000E+01 0.  0.
    9000005    1    3    3    0    0  0.52302341448E+02  0.32055713014E+02 -0.77968519518E+03  0.78209533130E+03  0.10000000000E+01 0.  0.
<mgrwt>
<rscale>  0 0.12500368E+03</rscale>
<asrwt>0</asrwt>
<pdfrwt beam="1">  1        4 0.45828098E-03 0.12500368E+03</pdfrwt>
<pdfrwt beam="2">  1       -4 0.20175629E+00 0.12500368E+03</pdfrwt>
<totfact> 0.21889547E+03</totfact>
</mgrwt>
</event>
<event>
 5    1  0.3293542E-002  0.1250069E+03  0.7818608E-02  0.1235058E+00
         -4   -1    0    0    0  501 -0.00000000000E+00  0.00000000000E+00  0.48647822476E+03  0.48647988248E+03  0.12700000000E+01 0. -1.
          4   -1    0    0  501    0  0.00000000000E+00 -0.00000000000E+00 -0.79786465584E+01  0.80790903513E+01  0.12700000000E+01 0. -1.
         25    2    1    2    0    0  0.00000000000E+00  0.00000000000E+00  0.47849957820E+03  0.49455897284E+03  0.12500692492E+03 0.  0.
    9000005    1    3    3    0    0 -0.16964182216E+02 -0.24471459483E+02  0.45662947238E+03  0.45760038336E+03  0.10000000000E+01 0.  0.
    9000005    1    3    3    0    0  0.16964182216E+02  0.24471459483E+02  0.21870105822E+02  0.36958589477E+02  0.10000000000E+01 0.  0.
<mgrwt>
<rscale>  0 0.12500692E+03</rscale>
<asrwt>0</asrwt>
<pdfrwt beam="2">  1        4 0.12353377E-02 0.12500692E+03</pdfrwt>
<pdfrwt beam="1">  1       -4 0.74850677E-01 0.12500692E+03</pdfrwt>
<totfact> 0.56280425E+03</totfact>
</mgrwt>
</event>
<event>
 5    1  0.3293542E-002  0.1249966E+03  0.7818608E-02  0.1235075E+00
          4   -1    0    0  501    0  0.00000000000E+00  0.00000000000E+00  0.20854794342E+02  0.20893428322E+02  0.12700000000E+01 0.  1.
         -4   -1    0    0    0  501 -0.00000000000E+00 -0.00000000000E+00 -0.18708279584E+03  0.18708710644E+03  0.12700000000E+01 0.  1.
         25    2    1    2    0    0  0.00000000000E+00  0.00000000000E+00 -0.16622800149E+03  0.20798053477E+03  0.12499661740E+03 0.  0.
    9000005    1    3    3    0    0  0.34777272376E+02  0.43055700583E+02 -0.34838651458E+02  0.65406296807E+02  0.10000000000E+01 0.  0.
    9000005    1    3    3    0    0 -0.34777272376E+02 -0.43055700583E+02 -0.13138935004E+03  0.14257423796E+03  0.10000000000E+01 0.  0.
<mgrwt>
<rscale>  0 0.12499662E+03</rscale>
<asrwt>0</asrwt>
<pdfrwt beam="1">  1        4 0.32117335E-02 0.12499662E+03</pdfrwt>
<pdfrwt beam="2">  1       -4 0.28785271E-01 0.12499662E+03</pdfrwt>
<totfact> 0.88813470E+03</totfact>
</mgrwt>
</event>
<event>
 5    1  0.3293542E-002  0.1250026E+03  0.7818608E-02  0.1235065E+00
          4   -1    0    0  501    0  0.00000000000E+00  0.00000000000E+00  0.19178401447E+02  0.19220405356E+02  0.12700000000E+01 0. -1.
         -4   -1    0    0    0  501 -0.00000000000E+00 -0.00000000000E+00 -0.20342145890E+03  0.20342542329E+03  0.12700000000E+01 0. -1.
         25    2    1    2    0    0  0.00000000000E+00  0.00000000000E+00 -0.18424305745E+03  0.22264582865E+03  0.12500264315E+03 0.  0.
    9000005    1    3    3    0    0 -0.47248960190E+02  0.15233613833E+02 -0.15973145686E+03  0.16727123345E+03  0.10000000000E+01 0.  0.
    9000005    1    3    3    0    0  0.47248960190E+02 -0.15233613833E+02 -0.24511600592E+02  0.55374595195E+02  0.10000000000E+01 0.  0.
<mgrwt>
<rscale>  0 0.12500264E+03</rscale>
<asrwt>0</asrwt>
<pdfrwt beam="1">  1        4 0.29540595E-02 0.12500264E+03</pdfrwt>
<pdfrwt beam="2">  1       -4 0.31299144E-01 0.12500264E+03</pdfrwt>
<totfact> 0.86446304E+03</totfact>
</mgrwt>
</event>
<event>
 5    1  0.3293542E-002  0.1249991E+03  0.7818608E-02  0.1235071E+00
         -4   -1    0    0    0  501 -0.00000000000E+00  0.00000000000E+00  0.18480398941E+04  0.18480403304E+04  0.12700000000E+01 0.  1.
          4   -1    0    0  501    0  0.00000000000E+00 -0.00000000000E+00 -0.19224529478E+01  0.23040671294E+01  0.12700000000E+01 0.  1.
         25    2    1    2    0    0  0.00000000000E+00  0.00000000000E+00  0.18461174411E+04  0.18503443976E+04  0.12499913297E+03 0.  0.
    9000005    1    3    3    0    0 -0.15131328236E+02 -0.59542978664E+02  0.10924026434E+04  0.10941292697E+04  0.10000000000E+01 0.  0.
    9000005    1    3    3    0    0  0.15131328236E+02  0.59542978664E+02  0.75371479768E+03  0.75621512788E+03  0.10000000000E+01 0.  0.
<mgrwt>
<rscale>  0 0.12499913E+03</rscale>
<asrwt>0</asrwt>
<pdfrwt beam="2">  1        4 0.32515021E-03 0.12499913E+03</pdfrwt>
<pdfrwt beam="1">  1       -4 0.28434347E+00 0.12499913E+03</pdfrwt>
<totfact> 0.11943804E+03</totfact>
</mgrwt>
</event>
<event>
 5    1  0.3293542E-002  0.1250006E+03  0.7818608E-02  0.1235068E+00
          4   -1    0    0  501    0  0.00000000000E+00  0.00000000000E+00  0.89671559794E+02  0.89680552719E+02  0.12700000000E+01 0. -1.
         -4   -1    0    0    0  501 -0.00000000000E+00 -0.00000000000E+00 -0.43541706472E+02  0.43560223857E+02  0.12700000000E+01 0. -1.
         25    2    1    2    0    0  0.00000000000E+00  0.00000000000E+00  0.46129853323E+02  0.13324077658E+03  0.12500056470E+03 0.  0.
    9000005    1    3    3    0    0 -0.57396052414E+02 -0.19199556152E+02  0.39658947244E+02  0.72365474403E+02  0.10000000000E+01 0.  0.
    9000005    1    3    3    0    0  0.57396052414E+02  0.19199556152E+02  0.64709060785E+01  0.60875302173E+02  0.10000000000E+01 0.  0.
<mgrwt>
<rscale>  0 0.12500056E+03</rscale>
<asrwt>0</asrwt>
<pdfrwt beam="1">  1        4 0.13797741E-01 0.12500056E+03</pdfrwt>
<pdfrwt beam="2">  1       -4 0.67008402E-02 0.12500056E+03</pdfrwt>
<totfact> 0.10275154E+04</totfact>
</mgrwt>
</event>
<event>
 5    1  0.3293542E-002  0.1250001E+03  0.7818608E-02  0.1235069E+00
         -4   -1    0    0    0  501 -0.00000000000E+00  0.00000000000E+00  0.63434555152E+03  0.63434682283E+03  0.12700000000E+01 0. -1.
          4   -1    0    0  501    0  0.00000000000E+00 -0.00000000000E+00 -0.60911640600E+01  0.62221523290E+01  0.12700000000E+01 0. -1.
         25    2    1    2    0    0  0.00000000000E+00  0.00000000000E+00  0.62825438746E+03  0.64056897516E+03  0.12500014629E+03 0.  0.
    9000005    1    3    3    0    0  0.38416748578E+02 -0.17045291164E+02  0.55112680673E+03  0.55272791282E+03  0.10000000000E+01 0.  0.
    9000005    1    3    3    0    0 -0.38416748578E+02  0.17045291164E+02  0.77127580734E+02  0.87841062335E+02  0.10000000000E+01 0.  0.
<mgrwt>
<rscale>  0 0.12500015E+03</rscale>
<asrwt>0</asrwt>
<pdfrwt beam="2">  1        4 0.94727606E-03 0.12500015E+03</pdfrwt>
<pdfrwt beam="1">  1       -4 0.97601789E-01 0.12500015E+03</pdfrwt>
<totfact> 0.46402777E+03</totfact>
</mgrwt>
</event>
<event>
 5    1  0.3293542E-002  0.1249932E+03  0.7818608E-02  0.1235080E+00
         -4   -1    0    0    0  501 -0.00000000000E+00  0.00000000000E+00  0.57353349601E+01  0.58742631116E+01  0.12700000000E+01 0.  1.
          4   -1    0    0  501    0  0.00000000000E+00 -0.00000000000E+00 -0.67272205820E+03  0.67272325699E+03  0.12700000000E+01 0.  1.
         25    2    1    2    0    0  0.00000000000E+00  0.00000000000E+00 -0.66698672324E+03  0.67859752010E+03  0.12499322103E+03 0.  0.
    9000005    1    3    3    0    0 -0.43116879753E+02 -0.35007004087E+02 -0.17800266826E+03  0.18646851091E+03  0.10000000000E+01 0.  0.
    9000005    1    3    3    0    0  0.43116879753E+02  0.35007004087E+02 -0.48898405498E+03  0.49212900919E+03  0.10000000000E+01 0.  0.
<mgrwt>
<rscale>  0 0.12499322E+03</rscale>
<asrwt>0</asrwt>
<pdfrwt beam="2">  1        4 0.10350642E+00 0.12499322E+03</pdfrwt>
<pdfrwt beam="1">  1       -4 0.89313875E-03 0.12499322E+03</pdfrwt>
<totfact> 0.44247429E+03</totfact>
</mgrwt>
</event>
<event>
 5    1  0.3293542E-002  0.1249951E+03  0.7818608E-02  0.1235077E+00
         -4   -1    0    0    0  501 -0.00000000000E+00  0.00000000000E+00  0.26604633364E+02  0.26634928504E+02  0.12700000000E+01 0.  1.
          4   -1    0    0  501    0  0.00000000000E+00 -0.00000000000E+00 -0.14669775940E+03  0.14670325666E+03  0.12700000000E+01 0.  1.
         25    2    1    2    0    0  0.00000000000E+00  0.00000000000E+00 -0.12009312604E+03  0.17333818516E+03  0.12499506996E+03 0.  0.
    9000005    1    3    3    0    0 -0.15948468978E+01  0.59181148265E+02 -0.32311705101E+02  0.67453673978E+02  0.10000000000E+01 0.  0.
    9000005    1    3    3    0    0  0.15948468978E+01 -0.59181148265E+02 -0.87781420936E+02  0.10588451118E+03  0.10000000000E+01 0.  0.
<mgrwt>
<rscale>  0 0.12499507E+03</rscale>
<asrwt>0</asrwt>
<pdfrwt beam="2">  1        4 0.22571639E-01 0.12499507E+03</pdfrwt>
<pdfrwt beam="1">  1       -4 0.40957739E-02 0.12499507E+03</pdfrwt>
<totfact> 0.94840573E+03</totfact>
</mgrwt>
</event>
<event>
 5    1  0.3293542E-002  0.1249992E+03  0.7818608E-02  0.1235071E+00
         -4   -1    0    0    0  501 -0.00000000000E+00  0.00000000000E+00  0.10671829815E+03  0.10672585469E+03  0.12700000000E+01 0.  1.
          4   -1    0    0  501    0  0.00000000000E+00 -0.00000000000E+00 -0.36583017505E+02  0.36605055249E+02  0.12700000000E+01 0.  1.
         25    2    1    2    0    0  0.00000000000E+00  0.00000000000E+00  0.70135280641E+02  0.14333090994E+03  0.12499916861E+03 0.  0.
    9000005    1    3    3    0    0  0.32978693119E+02  0.44369201003E+02  0.68477981532E+02  0.88013942942E+02  0.10000000000E+01 0.  0.
    9000005    1    3    3    0    0 -0.32978693119E+02 -0.44369201003E+02  0.16572991092E+01  0.55316966997E+02  0.10000000000E+01 0.  0.
<mgrwt>
<rscale>  0 0.12499917E+03</rscale>
<asrwt>0</asrwt>
<pdfrwt beam="2">  1        4 0.56304331E-02 0.12499917E+03</pdfrwt>
<pdfrwt beam="1">  1       -4 0.16420476E-01 0.12499917E+03</pdfrwt>
<totfact> 0.10065200E+04</totfact>
</mgrwt>
</event>
<event>
 5    1  0.3293542E-002  0.1249990E+03  0.7818608E-02  0.1235071E+00
          4   -1    0    0  501    0  0.00000000000E+00  0.00000000000E+00  0.44918626363E+03  0.44918805898E+03  0.12700000000E+01 0. -1.
         -4   -1    0    0    0  501 -0.00000000000E+00 -0.00000000000E+00 -0.86479541716E+01  0.87407100029E+01  0.12700000000E+01 0. -1.
         25    2    1    2    0    0  0.00000000000E+00  0.00000000000E+00  0.44053830945E+03  0.45792876898E+03  0.12499902146E+03 0.  0.
    9000005    1    3    3    0    0 -0.20264269248E+02  0.40242029699E+02  0.37890695944E+03  0.38157770568E+03  0.10000000000E+01 0.  0.
    9000005    1    3    3    0    0  0.20264269248E+02 -0.40242029699E+02  0.61631350016E+02  0.76351063302E+02  0.10000000000E+01 0.  0.
<mgrwt>
<rscale>  0 0.12499902E+03</rscale>
<asrwt>0</asrwt>
<pdfrwt beam="1">  1        4 0.69112852E-01 0.12499902E+03</pdfrwt>
<pdfrwt beam="2">  1       -4 0.13377277E-02 0.12499902E+03</pdfrwt>
<totfact> 0.59284304E+03</totfact>
</mgrwt>
</event>
<event>
 5    1  0.3293542E-002  0.1249982E+03  0.7818608E-02  0.1235072E+00
          4   -1    0    0  501    0  0.00000000000E+00  0.00000000000E+00  0.18278741289E+03  0.18279182480E+03  0.12700000000E+01 0.  1.
         -4   -1    0    0    0  501 -0.00000000000E+00 -0.00000000000E+00 -0.21346309830E+02  0.21384055821E+02  0.12700000000E+01 0.  1.
         25    2    1    2    0    0  0.00000000000E+00  0.00000000000E+00  0.16144110306E+03  0.20417588062E+03  0.12499824186E+03 0.  0.
    9000005    1    3    3    0    0 -0.32519954971E+01 -0.62233682331E+02  0.73140762881E+02  0.96094629850E+02  0.10000000000E+01 0.  0.
    9000005    1    3    3    0    0  0.32519954971E+01  0.62233682331E+02  0.88300340181E+02  0.10808125077E+03  0.10000000000E+01 0.  0.
<mgrwt>
<rscale>  0 0.12499824E+03</rscale>
<asrwt>0</asrwt>
<pdfrwt beam="1">  1        4 0.28124383E-01 0.12499824E+03</pdfrwt>
<pdfrwt beam="2">  1       -4 0.32872906E-02 0.12499824E+03</pdfrwt>
<totfact> 0.89439475E+03</totfact>
</mgrwt>
</event>
<event>
 5    1  0.3293542E-002  0.1250009E+03  0.7818608E-02  0.1235068E+00
          4   -1    0    0  501    0  0.00000000000E+00  0.00000000000E+00  0.10215529084E+03  0.10216318489E+03  0.12700000000E+01 0. -1.
         -4   -1    0    0    0  501 -0.00000000000E+00 -0.00000000000E+00 -0.38218964221E+02  0.38240059181E+02  0.12700000000E+01 0. -1.
         25    2    1    2    0    0  0.00000000000E+00  0.00000000000E+00  0.63936326617E+02  0.14040324407E+03  0.12500086833E+03 0.  0.
    9000005    1    3    3    0    0 -0.52372571295E+02 -0.34080049113E+02  0.30862891981E+02  0.69698307534E+02  0.10000000000E+01 0.  0.
    9000005    1    3    3    0    0  0.52372571295E+02  0.34080049113E+02  0.33073434636E+02  0.70704936534E+02  0.10000000000E+01 0.  0.
<mgrwt>
<rscale>  0 0.12500087E+03</rscale>
<asrwt>0</asrwt>
<pdfrwt beam="1">  1        4 0.15718428E-01 0.12500087E+03</pdfrwt>
<pdfrwt beam="2">  1       -4 0.58820706E-02 0.12500087E+03</pdfrwt>
<totfact> 0.10125037E+04</totfact>
</mgrwt>
</event>
<event>
 5    1  0.3293542E-002  0.1250004E+03  0.7818608E-02  0.1235069E+00
          4   -1    0    0  501    0  0.00000000000E+00  0.00000000000E+00  0.52768013836E+02  0.52783294556E+02  0.12700000000E+01 0.  1.
         -4   -1    0    0    0  501 -0.00000000000E+00 -0.00000000000E+00 -0.73995913365E+02  0.74006811138E+02  0.12700000000E+01 0.  1.
         25    2    1    2    0    0  0.00000000000E+00  0.00000000000E+00 -0.21227899530E+02  0.12679010569E+03  0.12500042873E+03 0.  0.
    9000005    1    3    3    0    0 -0.58642177889E+02 -0.21592878470E+02 -0.10964392636E+02  0.63453725927E+02  0.10000000000E+01 0.  0.
    9000005    1    3    3    0    0  0.58642177889E+02  0.21592878470E+02 -0.10263506894E+02  0.63336379767E+02  0.10000000000E+01 0.  0.
<mgrwt>
<rscale>  0 0.12500043E+03</rscale>
<asrwt>0</asrwt>
<pdfrwt beam="1">  1        4 0.81201697E-02 0.12500043E+03</pdfrwt>
<pdfrwt beam="2">  1       -4 0.11386000E-01 0.12500043E+03</pdfrwt>
<totfact> 0.10413608E+04</totfact>
</mgrwt>
</event>
<event>
 5    1  0.3293542E-002  0.1250012E+03  0.7818608E-02  0.1235067E+00
          4   -1    0    0  501    0  0.00000000000E+00  0.00000000000E+00  0.36747659919E+03  0.36747879375E+03  0.12700000000E+01 0.  1.
         -4   -1    0    0    0  501 -0.00000000000E+00 -0.00000000000E+00 -0.10589959391E+02  0.10665839859E+02  0.12700000000E+01 0.  1.
         25    2    1    2    0    0  0.00000000000E+00  0.00000000000E+00  0.35688663980E+03  0.37814463360E+03  0.12500116102E+03 0.  0.
    9000005    1    3    3    0    0 -0.52629564436E+02  0.24827936463E+02  0.24736217714E+03  0.25411679237E+03  0.10000000000E+01 0.  0.
    9000005    1    3    3    0    0  0.52629564436E+02 -0.24827936463E+02  0.10952446266E+03  0.12402784124E+03  0.10000000000E+01 0.  0.
<mgrwt>
<rscale>  0 0.12500116E+03</rscale>
<asrwt>0</asrwt>
<pdfrwt beam="1">  1        4 0.56540861E-01 0.12500116E+03</pdfrwt>
<pdfrwt beam="2">  1       -4 0.16352305E-02 0.12500116E+03</pdfrwt>
<totfact> 0.66733667E+03</totfact>
</mgrwt>
</event>
<event>
 5    1  0.3293542E-002  0.1250042E+03  0.7818608E-02  0.1235063E+00
         -4   -1    0    0    0  501 -0.00000000000E+00  0.00000000000E+00  0.12906947163E+02  0.12969278510E+02  0.12700000000E+01 0.  1.
          4   -1    0    0  501    0  0.00000000000E+00 -0.00000000000E+00 -0.30187491508E+03  0.30187758654E+03  0.12700000000E+01 0.  1.
         25    2    1    2    0    0  0.00000000000E+00  0.00000000000E+00 -0.28896796792E+03  0.31484686505E+03  0.12500424772E+03 0.  0.
    9000005    1    3    3    0    0 -0.25088150914E+02 -0.54392780864E+02 -0.99602836860E+02  0.11623129973E+03  0.10000000000E+01 0.  0.
    9000005    1    3    3    0    0  0.25088150914E+02  0.54392780864E+02 -0.18936513106E+03  0.19861556532E+03  0.10000000000E+01 0.  0.
<mgrwt>
<rscale>  0 0.12500425E+03</rscale>
<asrwt>0</asrwt>
<pdfrwt beam="2">  1        4 0.46447290E-01 0.12500425E+03</pdfrwt>
<pdfrwt beam="1">  1       -4 0.19906846E-02 0.12500425E+03</pdfrwt>
<totfact> 0.73766297E+03</totfact>
</mgrwt>
</event>
<event>
 5    1  0.3293542E-002  0.1249990E+03  0.7818608E-02  0.1235071E+00
          4   -1    0    0  501    0  0.00000000000E+00  0.00000000000E+00  0.72708675134E+02  0.72719765812E+02  0.12700000000E+01 0. -1.
         -4   -1    0    0    0  501 -0.00000000000E+00 -0.00000000000E+00 -0.53701084028E+02  0.53716099317E+02  0.12700000000E+01 0. -1.
         25    2    1    2    0    0  0.00000000000E+00  0.00000000000E+00  0.19007591106E+02  0.12643586513E+03  0.12499895788E+03 0.  0.
    9000005    1    3    3    0    0  0.96120596792E+01  0.36188749406E+02 -0.41103002051E+02  0.55610017555E+02  0.10000000000E+01 0.  0.
    9000005    1    3    3    0    0 -0.96120596792E+01 -0.36188749406E+02  0.60110593157E+02  0.70825847573E+02  0.10000000000E+01 0.  0.
<mgrwt>
<rscale>  0 0.12499896E+03</rscale>
<asrwt>0</asrwt>
<pdfrwt beam="1">  1        4 0.11187958E-01 0.12499896E+03</pdfrwt>
<pdfrwt beam="2">  1       -4 0.82637134E-02 0.12499896E+03</pdfrwt>
<totfact> 0.10421672E+04</totfact>
</mgrwt>
</event>
<event>
 5    1  0.3293542E-002  0.1249999E+03  0.7818608E-02  0.1235069E+00
         -4   -1    0    0    0  501 -0.00000000000E+00  0.00000000000E+00  0.15942230408E+04  0.15942235467E+04  0.12700000000E+01 0.  1.
          4   -1    0    0  501    0  0.00000000000E+00 -0.00000000000E+00 -0.22851448410E+01  0.26143425453E+01  0.12700000000E+01 0.  1.
         25    2    1    2    0    0  0.00000000000E+00  0.00000000000E+00  0.15919378960E+04  0.15968378892E+04  0.12499991922E+03 0.  0.
    9000005    1    3    3    0    0 -0.61185454289E+02 -0.24239919569E+01  0.95537635912E+03  0.95733720450E+03  0.10000000000E+01 0.  0.
    9000005    1    3    3    0    0  0.61185454289E+02  0.24239919569E+01  0.63656153688E+03  0.63950068474E+03  0.10000000000E+01 0.  0.
<mgrwt>
<rscale>  0 0.12499992E+03</rscale>
<asrwt>0</asrwt>
<pdfrwt beam="2">  1        4 0.37692244E-03 0.12499992E+03</pdfrwt>
<pdfrwt beam="1">  1       -4 0.24529052E+00 0.12499992E+03</pdfrwt>
<totfact> 0.16103326E+03</totfact>
</mgrwt>
</event>
<event>
 5    1  0.3293542E-002  0.1249989E+03  0.7818608E-02  0.1235071E+00
         -4   -1    0    0    0  501 -0.00000000000E+00  0.00000000000E+00  0.94118141601E+02  0.94126709697E+02  0.12700000000E+01 0.  1.
          4   -1    0    0  501    0  0.00000000000E+00 -0.00000000000E+00 -0.41482806436E+02  0.41502242468E+02  0.12700000000E+01 0.  1.
         25    2    1    2    0    0  0.00000000000E+00  0.00000000000E+00  0.52635335164E+02  0.13562895216E+03  0.12499893662E+03 0.  0.
    9000005    1    3    3    0    0 -0.10463028777E+02 -0.47065506471E+02 -0.16819313697E+02  0.51073732816E+02  0.10000000000E+01 0.  0.
    9000005    1    3    3    0    0  0.10463028777E+02  0.47065506471E+02  0.69454648861E+02  0.84555219348E+02  0.10000000000E+01 0.  0.
<mgrwt>
<rscale>  0 0.12499894E+03</rscale>
<asrwt>0</asrwt>
<pdfrwt beam="2">  1        4 0.63841244E-02 0.12499894E+03</pdfrwt>
<pdfrwt beam="1">  1       -4 0.14481868E-01 0.12499894E+03</pdfrwt>
<totfact> 0.10225076E+04</totfact>
</mgrwt>
</event>
<event>
 5    1  0.3293542E-002  0.1250004E+03  0.7818608E-02  0.1235069E+00
          4   -1    0    0  501    0  0.00000000000E+00  0.00000000000E+00  0.38550551255E+01  0.40588606802E+01  0.12700000000E+01 0.  1.
         -4   -1    0    0    0  501 -0.00000000000E+00 -0.00000000000E+00 -0.98698681272E+03  0.98698762980E+03  0.12700000000E+01 0.  1.
         25    2    1    2    0    0  0.00000000000E+00  0.00000000000E+00 -0.98313175759E+03  0.99104649048E+03  0.12500037403E+03 0.  0.
    9000005    1    3    3    0    0  0.54524407879E+02 -0.25455578492E+02 -0.35786659883E+03  0.36289171951E+03  0.10000000000E+01 0.  0.
    9000005    1    3    3    0    0 -0.54524407879E+02  0.25455578492E+02 -0.62526515876E+03  0.62815477097E+03  0.10000000000E+01 0.  0.
<mgrwt>
<rscale>  0 0.12500037E+03</rscale>
<asrwt>0</asrwt>
<pdfrwt beam="1">  1        4 0.60882639E-03 0.12500037E+03</pdfrwt>
<pdfrwt beam="2">  1       -4 0.15185967E+00 0.12500037E+03</pdfrwt>
<totfact> 0.30901753E+03</totfact>
</mgrwt>
</event>
<event>
 5    1  0.3293542E-002  0.1250036E+03  0.7818608E-02  0.1235064E+00
          4   -1    0    0  501    0  0.00000000000E+00  0.00000000000E+00  0.15540186676E+03  0.15540705612E+03  0.12700000000E+01 0. -1.
         -4   -1    0    0    0  501 -0.00000000000E+00 -0.00000000000E+00 -0.25116255407E+02  0.25148343597E+02  0.12700000000E+01 0. -1.
         25    2    1    2    0    0  0.00000000000E+00  0.00000000000E+00  0.13028561135E+03  0.18055539972E+03  0.12500364732E+03 0.  0.
    9000005    1    3    3    0    0  0.59795786200E+02  0.12825956834E+02  0.46564599257E+02  0.76871991779E+02  0.10000000000E+01 0.  0.
    9000005    1    3    3    0    0 -0.59795786200E+02 -0.12825956834E+02  0.83721012097E+02  0.10368340794E+03  0.10000000000E+01 0.  0.
<mgrwt>
<rscale>  0 0.12500365E+03</rscale>
<asrwt>0</asrwt>
<pdfrwt beam="1">  1        4 0.23910847E-01 0.12500365E+03</pdfrwt>
<pdfrwt beam="2">  1       -4 0.38669068E-02 0.12500365E+03</pdfrwt>
<totfact> 0.93509478E+03</totfact>
</mgrwt>
</event>
<event>
 5    1  0.3293542E-002  0.1249769E+03  0.7818608E-02  0.1235105E+00
         -4   -1    0    0    0  501 -0.00000000000E+00  0.00000000000E+00  0.13757203877E+02  0.13815699711E+02  0.12700000000E+01 0.  1.
          4   -1    0    0  501    0  0.00000000000E+00 -0.00000000000E+00 -0.28317533626E+03  0.28317818413E+03  0.12700000000E+01 0.  1.
         25    2    1    2    0    0  0.00000000000E+00  0.00000000000E+00 -0.26941813239E+03  0.29699388384E+03  0.12497694580E+03 0.  0.
    9000005    1    3    3    0    0 -0.61616835765E+02 -0.66257677859E+01 -0.11580608802E+03  0.13134909696E+03  0.10000000000E+01 0.  0.
    9000005    1    3    3    0    0  0.61616835765E+02  0.66257677859E+01 -0.15361204436E+03  0.16564478688E+03  0.10000000000E+01 0.  0.
<mgrwt>
<rscale>  0 0.12497695E+03</rscale>
<asrwt>0</asrwt>
<pdfrwt beam="2">  1        4 0.43570151E-01 0.12497695E+03</pdfrwt>
<pdfrwt beam="1">  1       -4 0.21212119E-02 0.12497695E+03</pdfrwt>
<totfact> 0.76016381E+03</totfact>
</mgrwt>
</event>
<event>
 5    1  0.3293542E-002  0.1250008E+03  0.7818608E-02  0.1235068E+00
         -4   -1    0    0    0  501 -0.00000000000E+00  0.00000000000E+00  0.13947076308E+02  0.14004779096E+02  0.12700000000E+01 0. -1.
          4   -1    0    0  501    0  0.00000000000E+00 -0.00000000000E+00 -0.27944307462E+03  0.27944596052E+03  0.12700000000E+01 0. -1.
         25    2    1    2    0    0  0.00000000000E+00  0.00000000000E+00 -0.26549599831E+03  0.29345073962E+03  0.12500084585E+03 0.  0.
    9000005    1    3    3    0    0  0.79626200245E+01  0.25545415154E+02 -0.16981237005E+00  0.26776862947E+02  0.10000000000E+01 0.  0.
    9000005    1    3    3    0    0 -0.79626200245E+01 -0.25545415154E+02 -0.26532618594E+03  0.26667387667E+03  0.10000000000E+01 0.  0.
<mgrwt>
<rscale>  0 0.12500085E+03</rscale>
<asrwt>0</asrwt>
<pdfrwt beam="2">  1        4 0.42995899E-01 0.12500085E+03</pdfrwt>
<pdfrwt beam="1">  1       -4 0.21503649E-02 0.12500085E+03</pdfrwt>
<totfact> 0.76426345E+03</totfact>
</mgrwt>
</event>
<event>
 5    1  0.3293542E-002  0.1250001E+03  0.7818608E-02  0.1235069E+00
          4   -1    0    0  501    0  0.00000000000E+00  0.00000000000E+00  0.10335715672E+02  0.10413448923E+02  0.12700000000E+01 0. -1.
         -4   -1    0    0    0  501 -0.00000000000E+00 -0.00000000000E+00 -0.37644297724E+03  0.37644511952E+03  0.12700000000E+01 0. -1.
         25    2    1    2    0    0  0.00000000000E+00  0.00000000000E+00 -0.36610726157E+03  0.38685856844E+03  0.12500010003E+03 0.  0.
    9000005    1    3    3    0    0  0.34302743531E+02 -0.37010378121E+02 -0.68970555706E+02  0.85465688184E+02  0.10000000000E+01 0.  0.
    9000005    1    3    3    0    0 -0.34302743531E+02  0.37010378121E+02 -0.29713670586E+03  0.30139288026E+03  0.10000000000E+01 0.  0.
<mgrwt>
<rscale>  0 0.12500010E+03</rscale>
<asrwt>0</asrwt>
<pdfrwt beam="1">  1        4 0.15962547E-02 0.12500010E+03</pdfrwt>
<pdfrwt beam="2">  1       -4 0.57920438E-01 0.12500010E+03</pdfrwt>
<totfact> 0.65851156E+03</totfact>
</mgrwt>
</event>
<event>
 5    1  0.3293542E-002  0.1250067E+03  0.7818608E-02  0.1235059E+00
         -4   -1    0    0    0  501 -0.00000000000E+00  0.00000000000E+00  0.29882358618E+02  0.29909333937E+02  0.12700000000E+01 0. -1.
          4   -1    0    0  501    0  0.00000000000E+00 -0.00000000000E+00 -0.13064584373E+03  0.13065201637E+03  0.12700000000E+01 0. -1.
         25    2    1    2    0    0  0.00000000000E+00  0.00000000000E+00 -0.10076348511E+03  0.16056135031E+03  0.12500666895E+03 0.  0.
    9000005    1    3    3    0    0  0.77811524751E+01 -0.28087226792E+02 -0.12138866940E+03  0.12484249157E+03  0.10000000000E+01 0.  0.
    9000005    1    3    3    0    0 -0.77811524751E+01  0.28087226792E+02  0.20625184293E+02  0.35718858742E+02  0.10000000000E+01 0.  0.
<mgrwt>
<rscale>  0 0.12500667E+03</rscale>
<asrwt>0</asrwt>
<pdfrwt beam="2">  1        4 0.20101910E-01 0.12500667E+03</pdfrwt>
<pdfrwt beam="1">  1       -4 0.45998359E-02 0.12500667E+03</pdfrwt>
<totfact> 0.97220097E+03</totfact>
</mgrwt>
</event>
<event>
 5    1  0.3293542E-002  0.1250011E+03  0.7818608E-02  0.1235067E+00
          4   -1    0    0  501    0  0.00000000000E+00  0.00000000000E+00  0.28848625379E+03  0.28848904923E+03  0.12700000000E+01 0. -1.
         -4   -1    0    0    0  501 -0.00000000000E+00 -0.00000000000E+00 -0.13508108153E+02  0.13567677984E+02  0.12700000000E+01 0. -1.
         25    2    1    2    0    0  0.00000000000E+00  0.00000000000E+00  0.27497814563E+03  0.30205672721E+03  0.12500114350E+03 0.  0.
    9000005    1    3    3    0    0 -0.48211083624E+02  0.21302444892E+02  0.56359605562E+02  0.77171937138E+02  0.10000000000E+01 0.  0.
    9000005    1    3    3    0    0  0.48211083624E+02 -0.21302444892E+02  0.21861854007E+03  0.22488479007E+03  0.10000000000E+01 0.  0.
<mgrwt>
<rscale>  0 0.12500114E+03</rscale>
<asrwt>0</asrwt>
<pdfrwt beam="1">  1        4 0.44387299E-01 0.12500114E+03</pdfrwt>
<pdfrwt beam="2">  1       -4 0.20829678E-02 0.12500114E+03</pdfrwt>
<totfact> 0.75339654E+03</totfact>
</mgrwt>
</event>
<event>
 5    1  0.3293542E-002  0.1249831E+03  0.7818608E-02  0.1235096E+00
          4   -1    0    0  501    0  0.00000000000E+00  0.00000000000E+00  0.18569001929E+03  0.18569436223E+03  0.12700000000E+01 0.  1.
         -4   -1    0    0    0  501 -0.00000000000E+00 -0.00000000000E+00 -0.21006952913E+02  0.21045307569E+02  0.12700000000E+01 0.  1.
         25    2    1    2    0    0  0.00000000000E+00  0.00000000000E+00  0.16468306638E+03  0.20673966980E+03  0.12498311373E+03 0.  0.
    9000005    1    3    3    0    0 -0.62240963079E+02 -0.14309155263E+01  0.91127135098E+02  0.11036820083E+03  0.10000000000E+01 0.  0.
    9000005    1    3    3    0    0  0.62240963079E+02  0.14309155263E+01  0.73555931284E+02  0.96371468969E+02  0.10000000000E+01 0.  0.
<mgrwt>
<rscale>  0 0.12498311E+03</rscale>
<asrwt>0</asrwt>
<pdfrwt beam="1">  1        4 0.28570979E-01 0.12498311E+03</pdfrwt>
<pdfrwt beam="2">  1       -4 0.32351235E-02 0.12498311E+03</pdfrwt>
<totfact> 0.89044741E+03</totfact>
</mgrwt>
</event>
<event>
 5    1  0.3293542E-002  0.1250040E+03  0.7818608E-02  0.1235063E+00
         -4   -1    0    0    0  501 -0.00000000000E+00  0.00000000000E+00  0.15056894315E+03  0.15057429907E+03  0.12700000000E+01 0.  1.
          4   -1    0    0  501    0  0.00000000000E+00 -0.00000000000E+00 -0.25923556427E+02  0.25954646556E+02  0.12700000000E+01 0.  1.
         25    2    1    2    0    0  0.00000000000E+00  0.00000000000E+00  0.12464538672E+03  0.17652894563E+03  0.12500398479E+03 0.  0.
    9000005    1    3    3    0    0  0.50156411978E+01  0.18476871533E+02  0.14633233593E+03  0.14758287156E+03  0.10000000000E+01 0.  0.
    9000005    1    3    3    0    0 -0.50156411978E+01 -0.18476871533E+02 -0.21686949207E+02  0.28946074072E+02  0.10000000000E+01 0.  0.
<mgrwt>
<rscale>  0 0.12500398E+03</rscale>
<asrwt>0</asrwt>
<pdfrwt beam="2">  1        4 0.39910431E-02 0.12500398E+03</pdfrwt>
<pdfrwt beam="1">  1       -4 0.23167256E-01 0.12500398E+03</pdfrwt>
<totfact> 0.94237139E+03</totfact>
</mgrwt>
</event>
<event>
 5    1  0.3293542E-002  0.1250429E+03  0.7818608E-02  0.1235002E+00
          4   -1    0    0  501    0  0.00000000000E+00  0.00000000000E+00  0.13762178996E+03  0.13762764973E+03  0.12700000000E+01 0.  1.
         -4   -1    0    0    0  501 -0.00000000000E+00 -0.00000000000E+00 -0.28382779234E+02  0.28411178381E+02  0.12700000000E+01 0.  1.
         25    2    1    2    0    0  0.00000000000E+00  0.00000000000E+00  0.10923901073E+03  0.16603882812E+03  0.12504291654E+03 0.  0.
    9000005    1    3    3    0    0  0.41028664488E+02 -0.40908438274E+02  0.23447960384E+02  0.62511266808E+02  0.10000000000E+01 0.  0.
    9000005    1    3    3    0    0 -0.41028664488E+02  0.40908438274E+02  0.85791050341E+02  0.10352756131E+03  0.10000000000E+01 0.  0.
<mgrwt>
<rscale>  0 0.12504292E+03</rscale>
<asrwt>0</asrwt>
<pdfrwt beam="1">  1        4 0.21175218E-01 0.12504292E+03</pdfrwt>
<pdfrwt beam="2">  1       -4 0.43692167E-02 0.12504292E+03</pdfrwt>
<totfact> 0.96098346E+03</totfact>
</mgrwt>
</event>
<event>
 5    1  0.3293542E-002  0.1249954E+03  0.7818608E-02  0.1235076E+00
          4   -1    0    0  501    0  0.00000000000E+00  0.00000000000E+00  0.39899952148E+02  0.39920158835E+02  0.12700000000E+01 0. -1.
         -4   -1    0    0    0  501 -0.00000000000E+00 -0.00000000000E+00 -0.97844786257E+02  0.97853028046E+02  0.12700000000E+01 0. -1.
         25    2    1    2    0    0  0.00000000000E+00  0.00000000000E+00 -0.57944834109E+02  0.13777318688E+03  0.12499538881E+03 0.  0.
    9000005    1    3    3    0    0  0.54794445742E+02  0.25395216311E+02 -0.11281309201E+02  0.61446043265E+02  0.10000000000E+01 0.  0.
    9000005    1    3    3    0    0 -0.54794445742E+02 -0.25395216311E+02 -0.46663524908E+02  0.76327143615E+02  0.10000000000E+01 0.  0.
<mgrwt>
<rscale>  0 0.12499539E+03</rscale>
<asrwt>0</asrwt>
<pdfrwt beam="1">  1        4 0.61406426E-02 0.12499539E+03</pdfrwt>
<pdfrwt beam="2">  1       -4 0.15055232E-01 0.12499539E+03</pdfrwt>
<totfact> 0.10181002E+04</totfact>
</mgrwt>
</event>
<event>
 5    1  0.3293542E-002  0.1250004E+03  0.7818608E-02  0.1235069E+00
         -4   -1    0    0    0  501 -0.00000000000E+00  0.00000000000E+00  0.82730430976E+02  0.82740178326E+02  0.12700000000E+01 0. -1.
          4   -1    0    0  501    0  0.00000000000E+00 -0.00000000000E+00 -0.47195825404E+02  0.47212909628E+02  0.12700000000E+01 0. -1.
         25    2    1    2    0    0  0.00000000000E+00  0.00000000000E+00  0.35534605572E+02  0.12995308795E+03  0.12500038750E+03 0.  0.
    9000005    1    3    3    0    0  0.43563075630E+02 -0.51628379831E+01  0.64037791106E+02  0.77628829336E+02  0.10000000000E+01 0.  0.
    9000005    1    3    3    0    0 -0.43563075630E+02  0.51628379831E+01 -0.28503185534E+02  0.52324258619E+02  0.10000000000E+01 0.  0.
<mgrwt>
<rscale>  0 0.12500039E+03</rscale>
<asrwt>0</asrwt>
<pdfrwt beam="2">  1        4 0.72629602E-02 0.12500039E+03</pdfrwt>
<pdfrwt beam="1">  1       -4 0.12729823E-01 0.12500039E+03</pdfrwt>
<totfact> 0.10345421E+04</totfact>
</mgrwt>
</event>
<event>
 5    1  0.3293542E-002  0.1250004E+03  0.7818608E-02  0.1235069E+00
         -4   -1    0    0    0  501 -0.00000000000E+00  0.00000000000E+00  0.11860019285E+02  0.11927822829E+02  0.12700000000E+01 0.  1.
          4   -1    0    0  501    0  0.00000000000E+00 -0.00000000000E+00 -0.32835735278E+03  0.32835980879E+03  0.12700000000E+01 0.  1.
         25    2    1    2    0    0  0.00000000000E+00  0.00000000000E+00 -0.31649733350E+03  0.34028763161E+03  0.12500044048E+03 0.  0.
    9000005    1    3    3    0    0  0.59595830644E+02  0.44817722591E+01 -0.10853212501E+03  0.12390307289E+03  0.10000000000E+01 0.  0.
    9000005    1    3    3    0    0 -0.59595830644E+02 -0.44817722591E+01 -0.20796520849E+03  0.21638455873E+03  0.10000000000E+01 0.  0.
<mgrwt>
<rscale>  0 0.12500044E+03</rscale>
<asrwt>0</asrwt>
<pdfrwt beam="2">  1        4 0.50521914E-01 0.12500044E+03</pdfrwt>
<pdfrwt beam="1">  1       -4 0.18300232E-02 0.12500044E+03</pdfrwt>
<totfact> 0.70805731E+03</totfact>
</mgrwt>
</event>
<event>
 5    1  0.3293542E-002  0.1250030E+03  0.7818608E-02  0.1235065E+00
          4   -1    0    0  501    0  0.00000000000E+00  0.00000000000E+00  0.32211712812E+02  0.32236739014E+02  0.12700000000E+01 0. -1.
         -4   -1    0    0    0  501 -0.00000000000E+00 -0.00000000000E+00 -0.12119834204E+03  0.12120499582E+03  0.12700000000E+01 0. -1.
         25    2    1    2    0    0  0.00000000000E+00  0.00000000000E+00 -0.88986629225E+02  0.15344173484E+03  0.12500298320E+03 0.  0.
    9000005    1    3    3    0    0  0.15590278410E+02 -0.58354606276E+02 -0.64176288326E+02  0.88135763671E+02  0.10000000000E+01 0.  0.
    9000005    1    3    3    0    0 -0.15590278410E+02  0.58354606276E+02 -0.24810340899E+02  0.65305971167E+02  0.10000000000E+01 0.  0.
<mgrwt>
<rscale>  0 0.12500298E+03</rscale>
<asrwt>0</asrwt>
<pdfrwt beam="1">  1        4 0.49580851E-02 0.12500298E+03</pdfrwt>
<pdfrwt beam="2">  1       -4 0.18648335E-01 0.12500298E+03</pdfrwt>
<totfact> 0.98615393E+03</totfact>
</mgrwt>
</event>
<event>
 5    1  0.3293542E-002  0.1250033E+03  0.7818608E-02  0.1235064E+00
         -4   -1    0    0    0  501 -0.00000000000E+00  0.00000000000E+00  0.19517018812E+04  0.19517022944E+04  0.12700000000E+01 0.  1.
          4   -1    0    0  501    0  0.00000000000E+00 -0.00000000000E+00 -0.17996554724E+01  0.22026483649E+01  0.12700000000E+01 0.  1.
         25    2    1    2    0    0  0.00000000000E+00  0.00000000000E+00  0.19499022257E+04  0.19539049428E+04  0.12500334186E+03 0.  0.
    9000005    1    3    3    0    0  0.10635658756E+02 -0.29858658971E+01  0.19363961090E+04  0.19364278771E+04  0.10000000000E+01 0.  0.
    9000005    1    3    3    0    0 -0.10635658756E+02  0.29858658971E+01  0.13506116776E+02  0.17477065620E+02  0.10000000000E+01 0.  0.
<mgrwt>
<rscale>  0 0.12500334E+03</rscale>
<asrwt>0</asrwt>
<pdfrwt beam="2">  1        4 0.30790058E-03 0.12500334E+03</pdfrwt>
<pdfrwt beam="1">  1       -4 0.30029357E+00 0.12500334E+03</pdfrwt>
<totfact> 0.10474124E+03</totfact>
</mgrwt>
</event>
<event>
 5    1  0.3293542E-002  0.1250007E+03  0.7818608E-02  0.1235068E+00
         -4   -1    0    0    0  501 -0.00000000000E+00  0.00000000000E+00  0.40517129985E+02  0.40537029025E+02  0.12700000000E+01 0. -1.
          4   -1    0    0  501    0  0.00000000000E+00 -0.00000000000E+00 -0.96363180233E+02  0.96371548730E+02  0.12700000000E+01 0. -1.
         25    2    1    2    0    0  0.00000000000E+00  0.00000000000E+00 -0.55846050249E+02  0.13690857776E+03  0.12500070934E+03 0.  0.
    9000005    1    3    3    0    0 -0.35082436200E+02  0.48209876081E+02 -0.74230348436E+01  0.60092186911E+02  0.10000000000E+01 0.  0.
    9000005    1    3    3    0    0  0.35082436200E+02 -0.48209876081E+02 -0.48423015405E+02  0.76816390845E+02  0.10000000000E+01 0.  0.
<mgrwt>
<rscale>  0 0.12500071E+03</rscale>
<asrwt>0</asrwt>
<pdfrwt beam="2">  1        4 0.14827279E-01 0.12500071E+03</pdfrwt>
<pdfrwt beam="1">  1       -4 0.62355791E-02 0.12500071E+03</pdfrwt>
<totfact> 0.10197835E+04</totfact>
</mgrwt>
</event>
<event>
 5    1  0.3293542E-002  0.1249916E+03  0.7818608E-02  0.1235082E+00
          4   -1    0    0  501    0  0.00000000000E+00  0.00000000000E+00  0.36700867164E+02  0.36722834185E+02  0.12700000000E+01 0.  1.
         -4   -1    0    0    0  501 -0.00000000000E+00 -0.00000000000E+00 -0.10636297036E+03  0.10637055214E+03  0.12700000000E+01 0.  1.
         25    2    1    2    0    0  0.00000000000E+00  0.00000000000E+00 -0.69662103192E+02  0.14309338633E+03  0.12499163408E+03 0.  0.
    9000005    1    3    3    0    0 -0.54355360297E+02  0.81810177642E+01 -0.68855491598E+02  0.88110799383E+02  0.10000000000E+01 0.  0.
    9000005    1    3    3    0    0  0.54355360297E+02 -0.81810177642E+01 -0.80661159342E+00  0.54982586943E+02  0.10000000000E+01 0.  0.
<mgrwt>
<rscale>  0 0.12499163E+03</rscale>
<asrwt>0</asrwt>
<pdfrwt beam="1">  1        4 0.56485603E-02 0.12499163E+03</pdfrwt>
<pdfrwt beam="2">  1       -4 0.16365807E-01 0.12499163E+03</pdfrwt>
<totfact> 0.10071769E+04</totfact>
</mgrwt>
</event>
<event>
 5    1  0.3293542E-002  0.1249915E+03  0.7818608E-02  0.1235083E+00
         -4   -1    0    0    0  501 -0.00000000000E+00  0.00000000000E+00  0.10369255320E+03  0.10370033023E+03  0.12700000000E+01 0. -1.
          4   -1    0    0  501    0  0.00000000000E+00 -0.00000000000E+00 -0.37646446777E+02  0.37667862362E+02  0.12700000000E+01 0. -1.
         25    2    1    2    0    0  0.00000000000E+00  0.00000000000E+00  0.66046106424E+02  0.14136819259E+03  0.12499151052E+03 0.  0.
    9000005    1    3    3    0    0  0.44276133587E+02  0.16456760365E+02  0.79291662124E+02  0.92300426053E+02  0.10000000000E+01 0.  0.
    9000005    1    3    3    0    0 -0.44276133587E+02 -0.16456760365E+02 -0.13245555700E+02  0.49067766537E+02  0.10000000000E+01 0.  0.
<mgrwt>
<rscale>  0 0.12499151E+03</rscale>
<asrwt>0</asrwt>
<pdfrwt beam="2">  1        4 0.57940066E-02 0.12499151E+03</pdfrwt>
<pdfrwt beam="1">  1       -4 0.15954946E-01 0.12499151E+03</pdfrwt>
<totfact> 0.10107240E+04</totfact>
</mgrwt>
</event>
<event>
 5    1  0.3293542E-002  0.1249998E+03  0.7818608E-02  0.1235070E+00
          4   -1    0    0  501    0  0.00000000000E+00  0.00000000000E+00  0.37965642680E+03  0.37965855095E+03  0.12700000000E+01 0. -1.
         -4   -1    0    0    0  501 -0.00000000000E+00 -0.00000000000E+00 -0.10247522589E+02  0.10325919775E+02  0.12700000000E+01 0. -1.
         25    2    1    2    0    0  0.00000000000E+00  0.00000000000E+00  0.36940890421E+03  0.38998447072E+03  0.12499979559E+03 0.  0.
    9000005    1    3    3    0    0 -0.44958545384E+02 -0.41537125893E+02  0.22399929824E+03  0.23221388684E+03  0.10000000000E+01 0.  0.
    9000005    1    3    3    0    0  0.44958545384E+02  0.41537125893E+02  0.14540960597E+03  0.15777058389E+03  0.10000000000E+01 0.  0.
<mgrwt>
<rscale>  0 0.12499980E+03</rscale>
<asrwt>0</asrwt>
<pdfrwt beam="1">  1        4 0.58414869E-01 0.12499980E+03</pdfrwt>
<pdfrwt beam="2">  1       -4 0.15827361E-02 0.12499980E+03</pdfrwt>
<totfact> 0.65538983E+03</totfact>
</mgrwt>
</event>
<event>
 5    1  0.3293542E-002  0.1249997E+03  0.7818608E-02  0.1235070E+00
          4   -1    0    0  501    0  0.00000000000E+00  0.00000000000E+00  0.18253833861E+03  0.18254275653E+03  0.12700000000E+01 0. -1.
         -4   -1    0    0    0  501 -0.00000000000E+00 -0.00000000000E+00 -0.21375984441E+02  0.21413678125E+02  0.12700000000E+01 0. -1.
         25    2    1    2    0    0  0.00000000000E+00  0.00000000000E+00  0.16116235417E+03  0.20395643466E+03  0.12499969135E+03 0.  0.
    9000005    1    3    3    0    0  0.25303111700E+02 -0.46859283800E+02  0.13393383638E+03  0.14413643699E+03  0.10000000000E+01 0.  0.
    9000005    1    3    3    0    0 -0.25303111700E+02  0.46859283800E+02  0.27228517784E+02  0.59819997665E+02  0.10000000000E+01 0.  0.
<mgrwt>
<rscale>  0 0.12499969E+03</rscale>
<asrwt>0</asrwt>
<pdfrwt beam="1">  1        4 0.28086060E-01 0.12499969E+03</pdfrwt>
<pdfrwt beam="2">  1       -4 0.32918524E-02 0.12499969E+03</pdfrwt>
<totfact> 0.89473103E+03</totfact>
</mgrwt>
</event>
<event>
 5    1  0.3293542E-002  0.1250309E+03  0.7818608E-02  0.1235021E+00
         -4   -1    0    0    0  501 -0.00000000000E+00  0.00000000000E+00  0.45433892479E+01  0.47175508326E+01  0.12700000000E+01 0. -1.
          4   -1    0    0  501    0  0.00000000000E+00 -0.00000000000E+00 -0.84383924065E+03  0.84384019634E+03  0.12700000000E+01 0. -1.
         25    2    1    2    0    0  0.00000000000E+00  0.00000000000E+00 -0.83929585140E+03  0.84855774717E+03  0.12503089261E+03 0.  0.
    9000005    1    3    3    0    0 -0.33118305767E+02 -0.46051155298E+02 -0.24141890356E+03  0.24799519769E+03  0.10000000000E+01 0.  0.
    9000005    1    3    3    0    0  0.33118305767E+02  0.46051155298E+02 -0.59787694784E+03  0.60056254948E+03  0.10000000000E+01 0.  0.
<mgrwt>
<rscale>  0 0.12503089E+03</rscale>
<asrwt>0</asrwt>
<pdfrwt beam="2">  1        4 0.12983477E+00 0.12503089E+03</pdfrwt>
<pdfrwt beam="1">  1       -4 0.71245419E-03 0.12503089E+03</pdfrwt>
<totfact> 0.36162045E+03</totfact>
</mgrwt>
</event>
<event>
 5    1  0.3293542E-002  0.1250261E+03  0.7818608E-02  0.1235029E+00
         -4   -1    0    0    0  501 -0.00000000000E+00  0.00000000000E+00  0.16219382924E+02  0.16269028319E+02  0.12700000000E+01 0.  1.
          4   -1    0    0  501    0  0.00000000000E+00 -0.00000000000E+00 -0.24051933123E+03  0.24052268416E+03  0.12700000000E+01 0.  1.
         25    2    1    2    0    0  0.00000000000E+00  0.00000000000E+00 -0.22429994830E+03  0.25679171248E+03  0.12502606443E+03 0.  0.
    9000005    1    3    3    0    0  0.35613048668E+02 -0.24980242411E+02 -0.19962391491E+02  0.47872735668E+02  0.10000000000E+01 0.  0.
    9000005    1    3    3    0    0 -0.35613048668E+02  0.24980242411E+02 -0.20433755681E+03  0.20891897681E+03  0.10000000000E+01 0.  0.
<mgrwt>
<rscale>  0 0.12502606E+03</rscale>
<asrwt>0</asrwt>
<pdfrwt beam="2">  1        4 0.37007048E-01 0.12502606E+03</pdfrwt>
<pdfrwt beam="1">  1       -4 0.24993667E-02 0.12502606E+03</pdfrwt>
<totfact> 0.81311222E+03</totfact>
</mgrwt>
</event>
<event>
 5    1  0.3293542E-002  0.1249955E+03  0.7818608E-02  0.1235076E+00
          4   -1    0    0  501    0  0.00000000000E+00  0.00000000000E+00  0.32388751926E+03  0.32389000915E+03  0.12700000000E+01 0.  1.
         -4   -1    0    0    0  501 -0.00000000000E+00 -0.00000000000E+00 -0.12023660503E+02  0.12090546385E+02  0.12700000000E+01 0.  1.
         25    2    1    2    0    0  0.00000000000E+00  0.00000000000E+00  0.31186385875E+03  0.33598055554E+03  0.12499546913E+03 0.  0.
    9000005    1    3    3    0    0  0.54199284748E+01  0.30978276294E+02  0.30107923751E+03  0.30271890672E+03  0.10000000000E+01 0.  0.
    9000005    1    3    3    0    0 -0.54199284748E+01 -0.30978276294E+02  0.10784621246E+02  0.33261648820E+02  0.10000000000E+01 0.  0.
<mgrwt>
<rscale>  0 0.12499547E+03</rscale>
<asrwt>0</asrwt>
<pdfrwt beam="1">  1        4 0.49834186E-01 0.12499547E+03</pdfrwt>
<pdfrwt beam="2">  1       -4 0.18551305E-02 0.12499547E+03</pdfrwt>
<totfact> 0.71302064E+03</totfact>
</mgrwt>
</event>
<event>
 5    1  0.3293542E-002  0.1249992E+03  0.7818608E-02  0.1235071E+00
          4   -1    0    0  501    0  0.00000000000E+00  0.00000000000E+00  0.23747999361E+03  0.23748338945E+03  0.12700000000E+01 0. -1.
         -4   -1    0    0    0  501 -0.00000000000E+00 -0.00000000000E+00 -0.16420514770E+02  0.16469553889E+02  0.12700000000E+01 0. -1.
         25    2    1    2    0    0  0.00000000000E+00  0.00000000000E+00  0.22105947884E+03  0.25395294334E+03  0.12499921698E+03 0.  0.
    9000005    1    3    3    0    0  0.47166634558E+01 -0.47032006448E+02  0.19357731775E+03  0.19926724390E+03  0.10000000000E+01 0.  0.
    9000005    1    3    3    0    0 -0.47166634558E+01  0.47032006448E+02  0.27482161085E+02  0.54685699435E+02  0.10000000000E+01 0.  0.
<mgrwt>
<rscale>  0 0.12499922E+03</rscale>
<asrwt>0</asrwt>
<pdfrwt beam="1">  1        4 0.36539414E-01 0.12499922E+03</pdfrwt>
<pdfrwt beam="2">  1       -4 0.25302667E-02 0.12499922E+03</pdfrwt>
<totfact> 0.81763668E+03</totfact>
</mgrwt>
</event>
<event>
 5    1  0.3293542E-002  0.1249924E+03  0.7818608E-02  0.1235081E+00
          4   -1    0    0  501    0  0.00000000000E+00  0.00000000000E+00  0.10451300486E+03  0.10452072084E+03  0.12700000000E+01 0.  1.
         -4   -1    0    0    0  501 -0.00000000000E+00 -0.00000000000E+00 -0.37351279433E+02  0.37372864157E+02  0.12700000000E+01 0.  1.
         25    2    1    2    0    0  0.00000000000E+00  0.00000000000E+00  0.67161725424E+02  0.14189358499E+03  0.12499236817E+03 0.  0.
    9000005    1    3    3    0    0 -0.17590756243E+01  0.51351462923E+02 -0.67905589386E+01  0.51838005190E+02  0.10000000000E+01 0.  0.
    9000005    1    3    3    0    0  0.17590756243E+01 -0.51351462923E+02  0.73952284362E+02  0.90055579804E+02  0.10000000000E+01 0.  0.
<mgrwt>
<rscale>  0 0.12499237E+03</rscale>
<asrwt>0</asrwt>
<pdfrwt beam="1">  1        4 0.16081178E-01 0.12499237E+03</pdfrwt>
<pdfrwt beam="2">  1       -4 0.57486046E-02 0.12499237E+03</pdfrwt>
<totfact> 0.10096226E+04</totfact>
</mgrwt>
</event>
<event>
 5    1  0.3293542E-002  0.1249967E+03  0.7818608E-02  0.1235074E+00
          4   -1    0    0  501    0  0.00000000000E+00  0.00000000000E+00  0.24391077118E+02  0.24424118059E+02  0.12700000000E+01 0. -1.
         -4   -1    0    0    0  501 -0.00000000000E+00 -0.00000000000E+00 -0.15999830620E+03  0.16000334649E+03  0.12700000000E+01 0. -1.
         25    2    1    2    0    0  0.00000000000E+00  0.00000000000E+00 -0.13560722909E+03  0.18442746455E+03  0.12499667635E+03 0.  0.
    9000005    1    3    3    0    0 -0.13013150331E+02 -0.49212718493E+02 -0.14323396487E+02  0.52890390715E+02  0.10000000000E+01 0.  0.
    9000005    1    3    3    0    0  0.13013150331E+02  0.49212718493E+02 -0.12128383260E+03  0.13153707384E+03  0.10000000000E+01 0.  0.
<mgrwt>
<rscale>  0 0.12499668E+03</rscale>
<asrwt>0</asrwt>
<pdfrwt beam="1">  1        4 0.37554028E-02 0.12499668E+03</pdfrwt>
<pdfrwt beam="2">  1       -4 0.24618053E-01 0.12499668E+03</pdfrwt>
<totfact> 0.92832977E+03</totfact>
</mgrwt>
</event>
<event>
 5    1  0.3293542E-002  0.1249946E+03  0.7818608E-02  0.1235078E+00
          4   -1    0    0  501    0  0.00000000000E+00  0.00000000000E+00  0.19155508230E+02  0.19197562229E+02  0.12700000000E+01 0. -1.
         -4   -1    0    0    0  501 -0.00000000000E+00 -0.00000000000E+00 -0.20363795940E+03  0.20364191957E+03  0.12700000000E+01 0. -1.
         25    2    1    2    0    0  0.00000000000E+00  0.00000000000E+00 -0.18448245117E+03  0.22283948180E+03  0.12499463933E+03 0.  0.
    9000005    1    3    3    0    0 -0.58803476632E+02  0.20723595960E+02 -0.99720176764E+02  0.11761135127E+03  0.10000000000E+01 0.  0.
    9000005    1    3    3    0    0  0.58803476632E+02 -0.20723595960E+02 -0.84762274405E+02  0.10522813054E+03  0.10000000000E+01 0.  0.
<mgrwt>
<rscale>  0 0.12499464E+03</rscale>
<asrwt>0</asrwt>
<pdfrwt beam="1">  1        4 0.29505410E-02 0.12499464E+03</pdfrwt>
<pdfrwt beam="2">  1       -4 0.31332455E-01 0.12499464E+03</pdfrwt>
<totfact> 0.86431370E+03</totfact>
</mgrwt>
</event>
<event>
 5    1  0.3293542E-002  0.1249981E+03  0.7818608E-02  0.1235072E+00
         -4   -1    0    0    0  501 -0.00000000000E+00  0.00000000000E+00  0.96480193671E+03  0.96480277258E+03  0.12700000000E+01 0. -1.
          4   -1    0    0  501    0  0.00000000000E+00 -0.00000000000E+00 -0.39481839363E+01  0.41474156284E+01  0.12700000000E+01 0. -1.
         25    2    1    2    0    0  0.00000000000E+00  0.00000000000E+00  0.96085375277E+03  0.96895018821E+03  0.12499813203E+03 0.  0.
    9000005    1    3    3    0    0  0.31338382401E+02 -0.34203418659E+02  0.15585614936E+03  0.16261644244E+03  0.10000000000E+01 0.  0.
    9000005    1    3    3    0    0 -0.31338382401E+02  0.34203418659E+02  0.80499760341E+03  0.80633374576E+03  0.10000000000E+01 0.  0.
<mgrwt>
<rscale>  0 0.12499813E+03</rscale>
<asrwt>0</asrwt>
<pdfrwt beam="2">  1        4 0.62280255E-03 0.12499813E+03</pdfrwt>
<pdfrwt beam="1">  1       -4 0.14844650E+00 0.12499813E+03</pdfrwt>
<totfact> 0.31653856E+03</totfact>
</mgrwt>
</event>
<event>
 5    1  0.3293542E-002  0.1250006E+03  0.7818608E-02  0.1235068E+00
         -4   -1    0    0    0  501 -0.00000000000E+00  0.00000000000E+00  0.56649709068E+02  0.56663943010E+02  0.12700000000E+01 0.  1.
          4   -1    0    0  501    0  0.00000000000E+00 -0.00000000000E+00 -0.68926334099E+02  0.68938033279E+02  0.12700000000E+01 0.  1.
         25    2    1    2    0    0  0.00000000000E+00  0.00000000000E+00 -0.12276625031E+02  0.12560197629E+03  0.12500056370E+03 0.  0.
    9000005    1    3    3    0    0 -0.56612864803E+02 -0.17759335591E+01  0.20391651585E+02  0.60207888649E+02  0.10000000000E+01 0.  0.
    9000005    1    3    3    0    0  0.56612864803E+02  0.17759335591E+01 -0.32668276617E+02  0.65394087640E+02  0.10000000000E+01 0.  0.
<mgrwt>
<rscale>  0 0.12500056E+03</rscale>
<asrwt>0</asrwt>
<pdfrwt beam="2">  1        4 0.10606046E-01 0.12500056E+03</pdfrwt>
<pdfrwt beam="1">  1       -4 0.87173347E-02 0.12500056E+03</pdfrwt>
<totfact> 0.10439571E+04</totfact>
</mgrwt>
</event>
<event>
 5    1  0.3293542E-002  0.1249845E+03  0.7818608E-02  0.1235094E+00
         -4   -1    0    0    0  501 -0.00000000000E+00  0.00000000000E+00  0.18098083511E+02  0.18142588756E+02  0.12700000000E+01 0. -1.
          4   -1    0    0  501    0  0.00000000000E+00 -0.00000000000E+00 -0.21547270488E+03  0.21547644755E+03  0.12700000000E+01 0. -1.
         25    2    1    2    0    0  0.00000000000E+00  0.00000000000E+00 -0.19737462137E+03  0.23361903630E+03  0.12498445089E+03 0.  0.
    9000005    1    3    3    0    0 -0.48412407966E+02 -0.30968852374E+02 -0.52846637421E+02  0.78080715603E+02  0.10000000000E+01 0.  0.
    9000005    1    3    3    0    0  0.48412407966E+02  0.30968852374E+02 -0.14452798395E+03  0.15553832070E+03  0.10000000000E+01 0.  0.
<mgrwt>
<rscale>  0 0.12498445E+03</rscale>
<asrwt>0</asrwt>
<pdfrwt beam="2">  1        4 0.33153356E-01 0.12498445E+03</pdfrwt>
<pdfrwt beam="1">  1       -4 0.27880321E-02 0.12498445E+03</pdfrwt>
<totfact> 0.84786374E+03</totfact>
</mgrwt>
</event>
<event>
 5    1  0.3293542E-002  0.1249989E+03  0.7818608E-02  0.1235071E+00
          4   -1    0    0  501    0  0.00000000000E+00  0.00000000000E+00  0.41614490299E+02  0.41633864856E+02  0.12700000000E+01 0. -1.
         -4   -1    0    0    0  501 -0.00000000000E+00 -0.00000000000E+00 -0.93820301293E+02  0.93828896587E+02  0.12700000000E+01 0. -1.
         25    2    1    2    0    0  0.00000000000E+00  0.00000000000E+00 -0.52205810995E+02  0.13546276144E+03  0.12499885214E+03 0.  0.
    9000005    1    3    3    0    0  0.42004121724E+02  0.42863556017E+02 -0.72218056429E+01  0.60454819105E+02  0.10000000000E+01 0.  0.
    9000005    1    3    3    0    0 -0.42004121724E+02 -0.42863556017E+02 -0.44984005352E+02  0.75007942338E+02  0.10000000000E+01 0.  0.
<mgrwt>
<rscale>  0 0.12499885E+03</rscale>
<asrwt>0</asrwt>
<pdfrwt beam="1">  1        4 0.64043808E-02 0.12499885E+03</pdfrwt>
<pdfrwt beam="2">  1       -4 0.14436044E-01 0.12499885E+03</pdfrwt>
<totfact> 0.10228591E+04</totfact>
</mgrwt>
</event>
<event>
 5    1  0.3293542E-002  0.1250034E+03  0.7818608E-02  0.1235064E+00
          4   -1    0    0  501    0  0.00000000000E+00  0.00000000000E+00  0.11459819307E+03  0.11460523005E+03  0.12700000000E+01 0.  1.
         -4   -1    0    0    0  501 -0.00000000000E+00 -0.00000000000E+00 -0.34068421959E+02  0.34092085222E+02  0.12700000000E+01 0.  1.
         25    2    1    2    0    0  0.00000000000E+00  0.00000000000E+00  0.80529771115E+02  0.14869731528E+03  0.12500339009E+03 0.  0.
    9000005    1    3    3    0    0 -0.28144751055E+02 -0.46882527702E+02  0.76254577070E+02  0.93839538254E+02  0.10000000000E+01 0.  0.
    9000005    1    3    3    0    0  0.28144751055E+02  0.46882527702E+02  0.42751940445E+01  0.54857777022E+02  0.10000000000E+01 0.  0.
<mgrwt>
<rscale>  0 0.12500339E+03</rscale>
<asrwt>0</asrwt>
<pdfrwt beam="1">  1        4 0.17632853E-01 0.12500339E+03</pdfrwt>
<pdfrwt beam="2">  1       -4 0.52436572E-02 0.12500339E+03</pdfrwt>
<totfact> 0.99556407E+03</totfact>
</mgrwt>
</event>
<event>
 5    1  0.3293542E-002  0.1249988E+03  0.7818608E-02  0.1235071E+00
          4   -1    0    0  501    0  0.00000000000E+00  0.00000000000E+00  0.18495997239E+03  0.18496433247E+03  0.12700000000E+01 0.  1.
         -4   -1    0    0    0  501 -0.00000000000E+00 -0.00000000000E+00 -0.21095338374E+02  0.21133532622E+02  0.12700000000E+01 0.  1.
         25    2    1    2    0    0  0.00000000000E+00  0.00000000000E+00  0.16386463402E+03  0.20609786509E+03  0.12499884685E+03 0.  0.
    9000005    1    3    3    0    0  0.42094232262E+02 -0.44767362951E+02  0.10066898747E+03  0.11794611572E+03  0.10000000000E+01 0.  0.
    9000005    1    3    3    0    0 -0.42094232262E+02  0.44767362951E+02  0.63195646550E+02  0.88151749376E+02  0.10000000000E+01 0.  0.
<mgrwt>
<rscale>  0 0.12499885E+03</rscale>
<asrwt>0</asrwt>
<pdfrwt beam="1">  1        4 0.28458652E-01 0.12499885E+03</pdfrwt>
<pdfrwt beam="2">  1       -4 0.32487103E-02 0.12499885E+03</pdfrwt>
<totfact> 0.89119442E+03</totfact>
</mgrwt>
</event>
<event>
 5    1  0.3293542E-002  0.1250071E+03  0.7818608E-02  0.1235058E+00
         -4   -1    0    0    0  501 -0.00000000000E+00  0.00000000000E+00  0.97926286527E+01  0.98746380151E+01  0.12700000000E+01 0. -1.
          4   -1    0    0  501    0  0.00000000000E+00 -0.00000000000E+00 -0.39719595959E+03  0.39719798994E+03  0.12700000000E+01 0. -1.
         25    2    1    2    0    0  0.00000000000E+00  0.00000000000E+00 -0.38740333093E+03  0.40707262796E+03  0.12500713424E+03 0.  0.
    9000005    1    3    3    0    0  0.48256776609E+02  0.18679396227E+02 -0.30781773862E+03  0.31213842529E+03  0.10000000000E+01 0.  0.
    9000005    1    3    3    0    0 -0.48256776609E+02 -0.18679396227E+02 -0.79585592317E+02  0.94934202670E+02  0.10000000000E+01 0.  0.
<mgrwt>
<rscale>  0 0.12500713E+03</rscale>
<asrwt>0</asrwt>
<pdfrwt beam="2">  1        4 0.61113523E-01 0.12500713E+03</pdfrwt>
<pdfrwt beam="1">  1       -4 0.15130232E-02 0.12500713E+03</pdfrwt>
<totfact> 0.63860628E+03</totfact>
</mgrwt>
</event>
<event>
 5    1  0.3293542E-002  0.1250002E+03  0.7818608E-02  0.1235069E+00
         -4   -1    0    0    0  501 -0.00000000000E+00  0.00000000000E+00  0.52477827363E+01  0.53992706589E+01  0.12700000000E+01 0. -1.
          4   -1    0    0  501    0  0.00000000000E+00 -0.00000000000E+00 -0.73362160209E+03  0.73362270136E+03  0.12700000000E+01 0. -1.
         25    2    1    2    0    0  0.00000000000E+00  0.00000000000E+00 -0.72837381936E+03  0.73902197202E+03  0.12500021764E+03 0.  0.
    9000005    1    3    3    0    0 -0.16312038573E+02  0.44121721705E+02 -0.60741016946E+03  0.60922977840E+03  0.10000000000E+01 0.  0.
    9000005    1    3    3    0    0  0.16312038573E+02 -0.44121721705E+02 -0.12096364989E+03  0.12979219362E+03  0.10000000000E+01 0.  0.
<mgrwt>
<rscale>  0 0.12500022E+03</rscale>
<asrwt>0</asrwt>
<pdfrwt beam="2">  1        4 0.11287652E+00 0.12500022E+03</pdfrwt>
<pdfrwt beam="1">  1       -4 0.81908925E-03 0.12500022E+03</pdfrwt>
<totfact> 0.41104630E+03</totfact>
</mgrwt>
</event>
<event>
 5    1  0.3293542E-002  0.1250046E+03  0.7818608E-02  0.1235062E+00
         -4   -1    0    0    0  501 -0.00000000000E+00  0.00000000000E+00  0.52480307267E+01  0.53995116916E+01  0.12700000000E+01 0.  1.
          4   -1    0    0  501    0  0.00000000000E+00 -0.00000000000E+00 -0.73363979113E+03  0.73364089038E+03  0.12700000000E+01 0.  1.
         25    2    1    2    0    0  0.00000000000E+00  0.00000000000E+00 -0.72839176040E+03  0.73904040207E+03  0.12500463696E+03 0.  0.
    9000005    1    3    3    0    0 -0.40937612327E+02  0.39143542648E+02 -0.52032857626E+03  0.52340322153E+03  0.10000000000E+01 0.  0.
    9000005    1    3    3    0    0  0.40937612327E+02 -0.39143542648E+02 -0.20806318414E+03  0.21563718054E+03  0.10000000000E+01 0.  0.
<mgrwt>
<rscale>  0 0.12500464E+03</rscale>
<asrwt>0</asrwt>
<pdfrwt beam="2">  1        4 0.11287932E+00 0.12500464E+03</pdfrwt>
<pdfrwt beam="1">  1       -4 0.81912686E-03 0.12500464E+03</pdfrwt>
<totfact> 0.41099758E+03</totfact>
</mgrwt>
</event>
<event>
 5    1  0.3293542E-002  0.1249881E+03  0.7818608E-02  0.1235088E+00
         -4   -1    0    0    0  501 -0.00000000000E+00  0.00000000000E+00  0.49762584523E+03  0.49762746582E+03  0.12700000000E+01 0. -1.
          4   -1    0    0  501    0  0.00000000000E+00 -0.00000000000E+00 -0.77952568506E+01  0.78980332594E+01  0.12700000000E+01 0. -1.
         25    2    1    2    0    0  0.00000000000E+00  0.00000000000E+00  0.48983058838E+03  0.50552549908E+03  0.12498809907E+03 0.  0.
    9000005    1    3    3    0    0  0.43762235142E+02 -0.42643489796E+02  0.19204000203E+03  0.20152906199E+03  0.10000000000E+01 0.  0.
    9000005    1    3    3    0    0 -0.43762235142E+02  0.42643489796E+02  0.29779058635E+03  0.30399643709E+03  0.10000000000E+01 0.  0.
<mgrwt>
<rscale>  0 0.12498810E+03</rscale>
<asrwt>0</asrwt>
<pdfrwt beam="2">  1        4 0.12073014E-02 0.12498810E+03</pdfrwt>
<pdfrwt beam="1">  1       -4 0.76565816E-01 0.12498810E+03</pdfrwt>
<totfact> 0.55452714E+03</totfact>
</mgrwt>
</event>
<event>
 5    1  0.3293542E-002  0.1250130E+03  0.7818608E-02  0.1235049E+00
          4   -1    0    0  501    0  0.00000000000E+00  0.00000000000E+00  0.29857739036E+02  0.29884736578E+02  0.12700000000E+01 0.  1.
         -4   -1    0    0    0  501 -0.00000000000E+00 -0.00000000000E+00 -0.13076675304E+03  0.13077291998E+03  0.12700000000E+01 0.  1.
         25    2    1    2    0    0  0.00000000000E+00  0.00000000000E+00 -0.10090901401E+03  0.16065765656E+03  0.12501301334E+03 0.  0.
    9000005    1    3    3    0    0 -0.36558132479E+02 -0.36371165955E+02 -0.95830692796E+02  0.10882959361E+03  0.10000000000E+01 0.  0.
    9000005    1    3    3    0    0  0.36558132479E+02  0.36371165955E+02 -0.50783212112E+01  0.51828062954E+02  0.10000000000E+01 0.  0.
<mgrwt>
<rscale>  0 0.12501301E+03</rscale>
<asrwt>0</asrwt>
<pdfrwt beam="1">  1        4 0.45960495E-02 0.12501301E+03</pdfrwt>
<pdfrwt beam="2">  1       -4 0.20120513E-01 0.12501301E+03</pdfrwt>
<totfact> 0.97187715E+03</totfact>
</mgrwt>
</event>
<event>
 5    1  0.3293542E-002  0.1250036E+03  0.7818608E-02  0.1235064E+00
          4   -1    0    0  501    0  0.00000000000E+00  0.00000000000E+00  0.10342628008E+02  0.10420309694E+02  0.12700000000E+01 0. -1.
         -4   -1    0    0    0  501 -0.00000000000E+00 -0.00000000000E+00 -0.37621454526E+03  0.37621668884E+03  0.12700000000E+01 0. -1.
         25    2    1    2    0    0  0.00000000000E+00  0.00000000000E+00 -0.36587191725E+03  0.38663699854E+03  0.12500363517E+03 0.  0.
    9000005    1    3    3    0    0  0.47307132437E+02  0.36713864387E+02 -0.23823113753E+03  0.24564394458E+03  0.10000000000E+01 0.  0.
    9000005    1    3    3    0    0 -0.47307132437E+02 -0.36713864387E+02 -0.12764077972E+03  0.14099305396E+03  0.10000000000E+01 0.  0.
<mgrwt>
<rscale>  0 0.12500364E+03</rscale>
<asrwt>0</asrwt>
<pdfrwt beam="1">  1        4 0.15973142E-02 0.12500364E+03</pdfrwt>
<pdfrwt beam="2">  1       -4 0.57885291E-01 0.12500364E+03</pdfrwt>
<totfact> 0.65868260E+03</totfact>
</mgrwt>
</event>
<event>
 5    1  0.3293542E-002  0.1249973E+03  0.7818608E-02  0.1235074E+00
          4   -1    0    0  501    0  0.00000000000E+00  0.00000000000E+00  0.26424784976E+02  0.26455286070E+02  0.12700000000E+01 0. -1.
         -4   -1    0    0    0  501 -0.00000000000E+00 -0.00000000000E+00 -0.14770028464E+03  0.14770574458E+03  0.12700000000E+01 0. -1.
         25    2    1    2    0    0  0.00000000000E+00  0.00000000000E+00 -0.12127549966E+03  0.17416103065E+03  0.12499727109E+03 0.  0.
    9000005    1    3    3    0    0  0.13796600539E+02  0.26120638720E+02 -0.13736452691E+03  0.14050853072E+03  0.10000000000E+01 0.  0.
    9000005    1    3    3    0    0 -0.13796600539E+02 -0.26120638720E+02  0.16089027246E+02  0.33652499927E+02  0.10000000000E+01 0.  0.
<mgrwt>
<rscale>  0 0.12499727E+03</rscale>
<asrwt>0</asrwt>
<pdfrwt beam="1">  1        4 0.40681178E-02 0.12499727E+03</pdfrwt>
<pdfrwt beam="2">  1       -4 0.22725887E-01 0.12499727E+03</pdfrwt>
<totfact> 0.94684518E+03</totfact>
</mgrwt>
</event>
<event>
 5    1  0.3293542E-002  0.1250027E+03  0.7818608E-02  0.1235065E+00
         -4   -1    0    0    0  501 -0.00000000000E+00  0.00000000000E+00  0.13090995382E+02  0.13152454527E+02  0.12700000000E+01 0. -1.
          4   -1    0    0  501    0  0.00000000000E+00 -0.00000000000E+00 -0.29764318097E+03  0.29764589041E+03  0.12700000000E+01 0. -1.
         25    2    1    2    0    0  0.00000000000E+00  0.00000000000E+00 -0.28455218559E+03  0.31079834494E+03  0.12500265954E+03 0.  0.
    9000005    1    3    3    0    0  0.53426475912E+01  0.16444967378E+02  0.70372169243E+01  0.18695006215E+02  0.10000000000E+01 0.  0.
    9000005    1    3    3    0    0 -0.53426475912E+01 -0.16444967378E+02 -0.29158940251E+03  0.29210333872E+03  0.10000000000E+01 0.  0.
<mgrwt>
<rscale>  0 0.12500266E+03</rscale>
<asrwt>0</asrwt>
<pdfrwt beam="2">  1        4 0.45796189E-01 0.12500266E+03</pdfrwt>
<pdfrwt beam="1">  1       -4 0.20189356E-02 0.12500266E+03</pdfrwt>
<totfact> 0.74259596E+03</totfact>
</mgrwt>
</event>
<event>
 5    1  0.3293542E-002  0.1250002E+03  0.7818608E-02  0.1235069E+00
          4   -1    0    0  501    0  0.00000000000E+00  0.00000000000E+00  0.23767500626E+03  0.23767839932E+03  0.12700000000E+01 0.  1.
         -4   -1    0    0    0  501 -0.00000000000E+00 -0.00000000000E+00 -0.16407264724E+02  0.16456343328E+02  0.12700000000E+01 0.  1.
         25    2    1    2    0    0  0.00000000000E+00  0.00000000000E+00  0.22126774154E+03  0.25413474265E+03  0.12500021590E+03 0.  0.
    9000005    1    3    3    0    0 -0.46907298721E+02 -0.40989551024E+02  0.10050403238E+03  0.11824761516E+03  0.10000000000E+01 0.  0.
    9000005    1    3    3    0    0  0.46907298721E+02  0.40989551024E+02  0.12076370916E+03  0.13588712748E+03  0.10000000000E+01 0.  0.
<mgrwt>
<rscale>  0 0.12500022E+03</rscale>
<asrwt>0</asrwt>
<pdfrwt beam="1">  1        4 0.36569419E-01 0.12500022E+03</pdfrwt>
<pdfrwt beam="2">  1       -4 0.25282311E-02 0.12500022E+03</pdfrwt>
<totfact> 0.81735886E+03</totfact>
</mgrwt>
</event>
<event>
 5    1  0.3293542E-002  0.1250005E+03  0.7818608E-02  0.1235068E+00
         -4   -1    0    0    0  501 -0.00000000000E+00  0.00000000000E+00  0.17129436533E+03  0.17129907324E+03  0.12700000000E+01 0. -1.
          4   -1    0    0  501    0  0.00000000000E+00 -0.00000000000E+00 -0.22781789463E+02  0.22817160891E+02  0.12700000000E+01 0. -1.
         25    2    1    2    0    0  0.00000000000E+00  0.00000000000E+00  0.14851257587E+03  0.19411623414E+03  0.12500050865E+03 0.  0.
    9000005    1    3    3    0    0  0.29187944217E+02 -0.51871942936E+01 -0.11174816206E+02  0.31697312024E+02  0.10000000000E+01 0.  0.
    9000005    1    3    3    0    0 -0.29187944217E+02  0.51871942936E+01  0.15968739208E+03  0.16241892211E+03  0.10000000000E+01 0.  0.
<mgrwt>
<rscale>  0 0.12500051E+03</rscale>
<asrwt>0</asrwt>
<pdfrwt beam="2">  1        4 0.35079736E-02 0.12500051E+03</pdfrwt>
<pdfrwt beam="1">  1       -4 0.26356063E-01 0.12500051E+03</pdfrwt>
<totfact> 0.91134956E+03</totfact>
</mgrwt>
</event>
<event>
 5    1  0.3293542E-002  0.1249989E+03  0.7818608E-02  0.1235071E+00
         -4   -1    0    0    0  501 -0.00000000000E+00  0.00000000000E+00  0.16180040777E+02  0.16229806516E+02  0.12700000000E+01 0.  1.
          4   -1    0    0  501    0  0.00000000000E+00 -0.00000000000E+00 -0.24099760267E+03  0.24100094895E+03  0.12700000000E+01 0.  1.
         25    2    1    2    0    0  0.00000000000E+00  0.00000000000E+00 -0.22481756189E+03  0.25723075546E+03  0.12499890167E+03 0.  0.
    9000005    1    3    3    0    0 -0.17822056526E+02 -0.11478455076E+02  0.85649408064E+01  0.22885341177E+02  0.10000000000E+01 0.  0.
    9000005    1    3    3    0    0  0.17822056526E+02  0.11478455076E+02 -0.23338250270E+03  0.23434541429E+03  0.10000000000E+01 0.  0.
<mgrwt>
<rscale>  0 0.12499890E+03</rscale>
<asrwt>0</asrwt>
<pdfrwt beam="2">  1        4 0.37080637E-01 0.12499890E+03</pdfrwt>
<pdfrwt beam="1">  1       -4 0.24933228E-02 0.12499890E+03</pdfrwt>
<totfact> 0.81298251E+03</totfact>
</mgrwt>
</event>
<event>
 5    1  0.3293542E-002  0.1249985E+03  0.7818608E-02  0.1235072E+00
          4   -1    0    0  501    0  0.00000000000E+00  0.00000000000E+00  0.41198580577E+02  0.41218150633E+02  0.12700000000E+01 0.  1.
         -4   -1    0    0    0  501 -0.00000000000E+00 -0.00000000000E+00 -0.94766578699E+02  0.94775088173E+02  0.12700000000E+01 0.  1.
         25    2    1    2    0    0  0.00000000000E+00  0.00000000000E+00 -0.53567998121E+02  0.13599323881E+03  0.12499852230E+03 0.  0.
    9000005    1    3    3    0    0 -0.47749094768E+02 -0.10645343057E+02  0.15518690210E+02  0.51333508801E+02  0.10000000000E+01 0.  0.
    9000005    1    3    3    0    0  0.47749094768E+02  0.10645343057E+02 -0.69086688332E+02  0.84659730005E+02  0.10000000000E+01 0.  0.
<mgrwt>
<rscale>  0 0.12499852E+03</rscale>
<asrwt>0</asrwt>
<pdfrwt beam="1">  1        4 0.63404031E-02 0.12499852E+03</pdfrwt>
<pdfrwt beam="2">  1       -4 0.14581634E-01 0.12499852E+03</pdfrwt>
<totfact> 0.10217519E+04</totfact>
</mgrwt>
</event>
<event>
 5    1  0.3293542E-002  0.1250019E+03  0.7818608E-02  0.1235066E+00
         -4   -1    0    0    0  501 -0.00000000000E+00  0.00000000000E+00  0.27395896271E+04  0.27395899214E+04  0.12700000000E+01 0. -1.
          4   -1    0    0  501    0  0.00000000000E+00 -0.00000000000E+00 -0.11427546149E+01  0.17084461098E+01  0.12700000000E+01 0. -1.
         25    2    1    2    0    0  0.00000000000E+00  0.00000000000E+00  0.27384468725E+04  0.27412983676E+04  0.12500186665E+03 0.  0.
    9000005    1    3    3    0    0  0.36103445323E+01 -0.19732741973E+02  0.71276795959E+02  0.74052665959E+02  0.10000000000E+01 0.  0.
    9000005    1    3    3    0    0 -0.36103445323E+01  0.19732741973E+02  0.26671700765E+04  0.26672457016E+04  0.10000000000E+01 0.  0.
<mgrwt>
<rscale>  0 0.12500187E+03</rscale>
<asrwt>0</asrwt>
<pdfrwt beam="2">  1        4 0.21934703E-03 0.12500187E+03</pdfrwt>
<pdfrwt beam="1">  1       -4 0.42151646E+00 0.12500187E+03</pdfrwt>
<totfact> 0.30389128E+02</totfact>
</mgrwt>
</event>
<event>
 5    1  0.3293542E-002  0.1249814E+03  0.7818608E-02  0.1235098E+00
         -4   -1    0    0    0  501 -0.00000000000E+00  0.00000000000E+00  0.31744850914E+02  0.31770244878E+02  0.12700000000E+01 0. -1.
          4   -1    0    0  501    0  0.00000000000E+00 -0.00000000000E+00 -0.12293704020E+03  0.12294359989E+03  0.12700000000E+01 0. -1.
         25    2    1    2    0    0  0.00000000000E+00  0.00000000000E+00 -0.91192189284E+02  0.15471384476E+03  0.12498143212E+03 0.  0.
    9000005    1    3    3    0    0 -0.36069228767E+02  0.10248971185E+02  0.16274604097E+02  0.40888793241E+02  0.10000000000E+01 0.  0.
    9000005    1    3    3    0    0  0.36069228767E+02 -0.10248971185E+02 -0.10746679338E+03  0.11382505152E+03  0.10000000000E+01 0.  0.
<mgrwt>
<rscale>  0 0.12498143E+03</rscale>
<asrwt>0</asrwt>
<pdfrwt beam="2">  1        4 0.18915848E-01 0.12498143E+03</pdfrwt>
<pdfrwt beam="1">  1       -4 0.48862813E-02 0.12498143E+03</pdfrwt>
<totfact> 0.98412796E+03</totfact>
</mgrwt>
</event>
<event>
 5    1  0.3293542E-002  0.1249995E+03  0.7818608E-02  0.1235070E+00
          4   -1    0    0  501    0  0.00000000000E+00  0.00000000000E+00  0.29412671100E+03  0.29412945284E+03  0.12700000000E+01 0.  1.
         -4   -1    0    0    0  501 -0.00000000000E+00 -0.00000000000E+00 -0.13247562783E+02  0.13308298903E+02  0.12700000000E+01 0.  1.
         25    2    1    2    0    0  0.00000000000E+00  0.00000000000E+00  0.28087914822E+03  0.30743775174E+03  0.12499950115E+03 0.  0.
    9000005    1    3    3    0    0 -0.58886788093E+02 -0.18367564572E+02  0.16505897817E+03  0.17621148520E+03  0.10000000000E+01 0.  0.
    9000005    1    3    3    0    0  0.58886788093E+02  0.18367564572E+02  0.11582017005E+03  0.13122626654E+03  0.10000000000E+01 0.  0.
<mgrwt>
<rscale>  0 0.12499950E+03</rscale>
<asrwt>0</asrwt>
<pdfrwt beam="1">  1        4 0.45255144E-01 0.12499950E+03</pdfrwt>
<pdfrwt beam="2">  1       -4 0.20429696E-02 0.12499950E+03</pdfrwt>
<totfact> 0.74676059E+03</totfact>
</mgrwt>
</event>
<event>
 5    1  0.3293542E-002  0.1249985E+03  0.7818608E-02  0.1235072E+00
          4   -1    0    0  501    0  0.00000000000E+00  0.00000000000E+00  0.12360057036E+03  0.12360709483E+03  0.12700000000E+01 0. -1.
         -4   -1    0    0    0  501 -0.00000000000E+00 -0.00000000000E+00 -0.31582945610E+02  0.31608469647E+02  0.12700000000E+01 0. -1.
         25    2    1    2    0    0  0.00000000000E+00  0.00000000000E+00  0.92017624748E+02  0.15521556448E+03  0.12499851276E+03 0.  0.
    9000005    1    3    3    0    0  0.27023284714E+02 -0.26668746036E+02 -0.15625466302E+02  0.41068663590E+02  0.10000000000E+01 0.  0.
    9000005    1    3    3    0    0 -0.27023284714E+02  0.26668746036E+02  0.10764309105E+03  0.11414690089E+03  0.10000000000E+01 0.  0.
<mgrwt>
<rscale>  0 0.12499851E+03</rscale>
<asrwt>0</asrwt>
<pdfrwt beam="1">  1        4 0.19017938E-01 0.12499851E+03</pdfrwt>
<pdfrwt beam="2">  1       -4 0.48613800E-02 0.12499851E+03</pdfrwt>
<totfact> 0.98276484E+03</totfact>
</mgrwt>
</event>
<event>
 5    1  0.3293542E-002  0.1249994E+03  0.7818608E-02  0.1235070E+00
         -4   -1    0    0    0  501 -0.00000000000E+00  0.00000000000E+00  0.10026224977E+03  0.10027029285E+03  0.12700000000E+01 0.  1.
          4   -1    0    0  501    0  0.00000000000E+00 -0.00000000000E+00 -0.38940020433E+02  0.38960724985E+02  0.12700000000E+01 0.  1.
         25    2    1    2    0    0  0.00000000000E+00  0.00000000000E+00  0.61322229337E+02  0.13923101784E+03  0.12499944207E+03 0.  0.
    9000005    1    3    3    0    0 -0.92668620424E+01 -0.19381693260E+01  0.99464281335E+02  0.99918839535E+02  0.10000000000E+01 0.  0.
    9000005    1    3    3    0    0  0.92668620424E+01  0.19381693260E+01 -0.38142051998E+02  0.39312178304E+02  0.10000000000E+01 0.  0.
<mgrwt>
<rscale>  0 0.12499944E+03</rscale>
<asrwt>0</asrwt>
<pdfrwt beam="2">  1        4 0.59929838E-02 0.12499944E+03</pdfrwt>
<pdfrwt beam="1">  1       -4 0.15427173E-01 0.12499944E+03</pdfrwt>
<totfact> 0.10149676E+04</totfact>
</mgrwt>
</event>
<event>
 5    1  0.3293542E-002  0.1250012E+03  0.7818608E-02  0.1235067E+00
          4   -1    0    0  501    0  0.00000000000E+00  0.00000000000E+00  0.29615859595E+02  0.29643077431E+02  0.12700000000E+01 0.  1.
         -4   -1    0    0    0  501 -0.00000000000E+00 -0.00000000000E+00 -0.13180882448E+03  0.13181494267E+03  0.12700000000E+01 0.  1.
         25    2    1    2    0    0  0.00000000000E+00  0.00000000000E+00 -0.10219296489E+03  0.16145802010E+03  0.12500116072E+03 0.  0.
    9000005    1    3    3    0    0 -0.10435343854E+02  0.59201845331E+02 -0.29041066738E+02  0.66769292711E+02  0.10000000000E+01 0.  0.
    9000005    1    3    3    0    0  0.10435343854E+02 -0.59201845331E+02 -0.73151898148E+02  0.94688727389E+02  0.10000000000E+01 0.  0.
<mgrwt>
<rscale>  0 0.12500116E+03</rscale>
<asrwt>0</asrwt>
<pdfrwt beam="1">  1        4 0.45588505E-02 0.12500116E+03</pdfrwt>
<pdfrwt beam="2">  1       -4 0.20280845E-01 0.12500116E+03</pdfrwt>
<totfact> 0.97059893E+03</totfact>
</mgrwt>
</event>
<event>
 5    1  0.3293542E-002  0.1249988E+03  0.7818608E-02  0.1235071E+00
         -4   -1    0    0    0  501 -0.00000000000E+00  0.00000000000E+00  0.56400858582E+02  0.56415155311E+02  0.12700000000E+01 0.  1.
          4   -1    0    0  501    0  0.00000000000E+00 -0.00000000000E+00 -0.69228483515E+02  0.69240131642E+02  0.12700000000E+01 0.  1.
         25    2    1    2    0    0  0.00000000000E+00  0.00000000000E+00 -0.12827624933E+02  0.12565528695E+03  0.12499881271E+03 0.  0.
    9000005    1    3    3    0    0  0.35129543700E+02 -0.24862357061E+02 -0.51961308215E+02  0.67477397627E+02  0.10000000000E+01 0.  0.
    9000005    1    3    3    0    0 -0.35129543700E+02  0.24862357061E+02  0.39133683282E+02  0.58177889326E+02  0.10000000000E+01 0.  0.
<mgrwt>
<rscale>  0 0.12499881E+03</rscale>
<asrwt>0</asrwt>
<pdfrwt beam="2">  1        4 0.10652532E-01 0.12499881E+03</pdfrwt>
<pdfrwt beam="1">  1       -4 0.86790509E-02 0.12499881E+03</pdfrwt>
<totfact> 0.10438808E+04</totfact>
</mgrwt>
</event>
<event>
 5    1  0.3293542E-002  0.1249950E+03  0.7818608E-02  0.1235077E+00
          4   -1    0    0  501    0  0.00000000000E+00  0.00000000000E+00  0.82002983385E+02  0.82012817194E+02  0.12700000000E+01 0.  1.
         -4   -1    0    0    0  501 -0.00000000000E+00 -0.00000000000E+00 -0.47610517770E+02  0.47627453242E+02  0.12700000000E+01 0.  1.
         25    2    1    2    0    0  0.00000000000E+00  0.00000000000E+00  0.34392465615E+02  0.12964027044E+03  0.12499503201E+03 0.  0.
    9000005    1    3    3    0    0  0.14685593218E+02  0.47125628842E+02 -0.22548214051E+02  0.54276270126E+02  0.10000000000E+01 0.  0.
    9000005    1    3    3    0    0 -0.14685593218E+02 -0.47125628842E+02  0.56940679666E+02  0.75364000310E+02  0.10000000000E+01 0.  0.
<mgrwt>
<rscale>  0 0.12499503E+03</rscale>
<asrwt>0</asrwt>
<pdfrwt beam="1">  1        4 0.12617903E-01 0.12499503E+03</pdfrwt>
<pdfrwt beam="2">  1       -4 0.73267542E-02 0.12499503E+03</pdfrwt>
<totfact> 0.10353370E+04</totfact>
</mgrwt>
</event>
<event>
 5    1  0.3293542E-002  0.1249702E+03  0.7818608E-02  0.1235116E+00
          4   -1    0    0  501    0  0.00000000000E+00  0.00000000000E+00  0.20080241074E+03  0.20080642684E+03  0.12700000000E+01 0.  1.
         -4   -1    0    0    0  501 -0.00000000000E+00 -0.00000000000E+00 -0.19418979977E+02  0.19460464623E+02  0.12700000000E+01 0.  1.
         25    2    1    2    0    0  0.00000000000E+00  0.00000000000E+00  0.18138343076E+03  0.22026689146E+03  0.12497021452E+03 0.  0.
    9000005    1    3    3    0    0  0.17514753477E+01 -0.38999262879E+02  0.17666716787E+03  0.18093175060E+03  0.10000000000E+01 0.  0.
    9000005    1    3    3    0    0 -0.17514753477E+01  0.38999262879E+02  0.47162628929E+01  0.39335140863E+02  0.10000000000E+01 0.  0.
<mgrwt>
<rscale>  0 0.12497021E+03</rscale>
<asrwt>0</asrwt>
<pdfrwt beam="1">  1        4 0.30896178E-01 0.12497021E+03</pdfrwt>
<pdfrwt beam="2">  1       -4 0.29910355E-02 0.12497021E+03</pdfrwt>
<totfact> 0.86883925E+03</totfact>
</mgrwt>
</event>
<event>
 5    1  0.3293542E-002  0.1250086E+03  0.7818608E-02  0.1235056E+00
          4   -1    0    0  501    0  0.00000000000E+00  0.00000000000E+00  0.52081594034E+03  0.52081748878E+03  0.12700000000E+01 0. -1.
         -4   -1    0    0    0  501 -0.00000000000E+00 -0.00000000000E+00 -0.74459614859E+01  0.75534920699E+01  0.12700000000E+01 0. -1.
         25    2    1    2    0    0  0.00000000000E+00  0.00000000000E+00  0.51336997886E+03  0.52837098085E+03  0.12500863254E+03 0.  0.
    9000005    1    3    3    0    0 -0.60903663683E+01 -0.14035023354E+02  0.57091741077E+00  0.15342763432E+02  0.10000000000E+01 0.  0.
    9000005    1    3    3    0    0  0.60903663683E+01  0.14035023354E+02  0.51279906145E+03  0.51302821742E+03  0.10000000000E+01 0.  0.
<mgrwt>
<rscale>  0 0.12500863E+03</rscale>
<asrwt>0</asrwt>
<pdfrwt beam="1">  1        4 0.80133967E-01 0.12500863E+03</pdfrwt>
<pdfrwt beam="2">  1       -4 0.11539226E-02 0.12500863E+03</pdfrwt>
<totfact> 0.53718203E+03</totfact>
</mgrwt>
</event>
<event>
 5    1  0.3293542E-002  0.1249970E+03  0.7818608E-02  0.1235074E+00
         -4   -1    0    0    0  501 -0.00000000000E+00  0.00000000000E+00  0.39143313952E+03  0.39143519977E+03  0.12700000000E+01 0.  1.
          4   -1    0    0  501    0  0.00000000000E+00 -0.00000000000E+00 -0.99363685250E+01  0.10017201179E+02  0.12700000000E+01 0.  1.
         25    2    1    2    0    0  0.00000000000E+00  0.00000000000E+00  0.38149677100E+03  0.40145240095E+03  0.12499697574E+03 0.  0.
    9000005    1    3    3    0    0  0.24387286346E+02  0.55004773427E+02  0.13654809530E+03  0.14922012989E+03  0.10000000000E+01 0.  0.
    9000005    1    3    3    0    0 -0.24387286346E+02 -0.55004773427E+02  0.24494867569E+03  0.25223227105E+03  0.10000000000E+01 0.  0.
<mgrwt>
<rscale>  0 0.12499698E+03</rscale>
<asrwt>0</asrwt>
<pdfrwt beam="2">  1        4 0.15350482E-02 0.12499698E+03</pdfrwt>
<pdfrwt beam="1">  1       -4 0.60226870E-01 0.12499698E+03</pdfrwt>
<totfact> 0.64416067E+03</totfact>
</mgrwt>
</event>
<event>
 5    1  0.3293542E-002  0.1250021E+03  0.7818608E-02  0.1235066E+00
         -4   -1    0    0    0  501 -0.00000000000E+00  0.00000000000E+00  0.29385381151E+03  0.29385655589E+03  0.12700000000E+01 0. -1.
          4   -1    0    0  501    0  0.00000000000E+00 -0.00000000000E+00 -0.13260482885E+02  0.13321160097E+02  0.12700000000E+01 0. -1.
         25    2    1    2    0    0  0.00000000000E+00  0.00000000000E+00  0.28059332862E+03  0.30717771598E+03  0.12500213250E+03 0.  0.
    9000005    1    3    3    0    0 -0.61708058570E+01 -0.57135713874E+02  0.79962378044E+02  0.98476142020E+02  0.10000000000E+01 0.  0.
    9000005    1    3    3    0    0  0.61708058570E+01  0.57135713874E+02  0.20063095058E+03  0.20870157396E+03  0.10000000000E+01 0.  0.
<mgrwt>
<rscale>  0 0.12500213E+03</rscale>
<asrwt>0</asrwt>
<pdfrwt beam="2">  1        4 0.20449531E-02 0.12500213E+03</pdfrwt>
<pdfrwt beam="1">  1       -4 0.45213152E-01 0.12500213E+03</pdfrwt>
<totfact> 0.74703679E+03</totfact>
</mgrwt>
</event>
<event>
 5    1  0.3293542E-002  0.1249997E+03  0.7818608E-02  0.1235070E+00
         -4   -1    0    0    0  501 -0.00000000000E+00  0.00000000000E+00  0.15664728236E+03  0.15665243047E+03  0.12700000000E+01 0.  1.
          4   -1    0    0  501    0  0.00000000000E+00 -0.00000000000E+00 -0.24914735681E+02  0.24947083077E+02  0.12700000000E+01 0.  1.
         25    2    1    2    0    0  0.00000000000E+00  0.00000000000E+00  0.13173254668E+03  0.18159951354E+03  0.12499967786E+03 0.  0.
    9000005    1    3    3    0    0 -0.58662766770E+02 -0.10625804618E+02  0.38648001720E+02  0.71055583636E+02  0.10000000000E+01 0.  0.
    9000005    1    3    3    0    0  0.58662766770E+02  0.10625804618E+02  0.93084544960E+02  0.11054392991E+03  0.10000000000E+01 0.  0.
<mgrwt>
<rscale>  0 0.12499968E+03</rscale>
<asrwt>0</asrwt>
<pdfrwt beam="2">  1        4 0.38359205E-02 0.12499968E+03</pdfrwt>
<pdfrwt beam="1">  1       -4 0.24102467E-01 0.12499968E+03</pdfrwt>
<totfact> 0.93330549E+03</totfact>
</mgrwt>
</event>
<event>
 5    1  0.3293542E-002  0.1250026E+03  0.7818608E-02  0.1235065E+00
         -4   -1    0    0    0  501 -0.00000000000E+00  0.00000000000E+00  0.13417144627E+02  0.13477116529E+02  0.12700000000E+01 0.  1.
          4   -1    0    0  501    0  0.00000000000E+00 -0.00000000000E+00 -0.29044008089E+03  0.29044285752E+03  0.12700000000E+01 0.  1.
         25    2    1    2    0    0  0.00000000000E+00  0.00000000000E+00 -0.27702293626E+03  0.30391997405E+03  0.12500257363E+03 0.  0.
    9000005    1    3    3    0    0  0.38596666304E+02 -0.21129686386E+02 -0.30619251502E+02  0.53616274201E+02  0.10000000000E+01 0.  0.
    9000005    1    3    3    0    0 -0.38596666304E+02  0.21129686386E+02 -0.24640368476E+03  0.25030369985E+03  0.10000000000E+01 0.  0.
<mgrwt>
<rscale>  0 0.12500257E+03</rscale>
<asrwt>0</asrwt>
<pdfrwt beam="2">  1        4 0.44687911E-01 0.12500257E+03</pdfrwt>
<pdfrwt beam="1">  1       -4 0.20690031E-02 0.12500257E+03</pdfrwt>
<totfact> 0.75105453E+03</totfact>
</mgrwt>
</event>
<event>
 5    1  0.3293542E-002  0.1249993E+03  0.7818608E-02  0.1235070E+00
         -4   -1    0    0    0  501 -0.00000000000E+00  0.00000000000E+00  0.66766676167E+01  0.67963806886E+01  0.12700000000E+01 0. -1.
          4   -1    0    0  501    0  0.00000000000E+00 -0.00000000000E+00 -0.57973485566E+03  0.57973624672E+03  0.12700000000E+01 0. -1.
         25    2    1    2    0    0  0.00000000000E+00  0.00000000000E+00 -0.57305818804E+03  0.58653262741E+03  0.12499934455E+03 0.  0.
    9000005    1    3    3    0    0  0.52247298191E+01 -0.51786603935E+02 -0.44880749551E+03  0.45181668647E+03  0.10000000000E+01 0.  0.
    9000005    1    3    3    0    0 -0.52247298191E+01  0.51786603935E+02 -0.12425069253E+03  0.13471594094E+03  0.10000000000E+01 0.  0.
<mgrwt>
<rscale>  0 0.12499934E+03</rscale>
<asrwt>0</asrwt>
<pdfrwt beam="2">  1        4 0.89199255E-01 0.12499934E+03</pdfrwt>
<pdfrwt beam="1">  1       -4 0.10364958E-02 0.12499934E+03</pdfrwt>
<totfact> 0.49729627E+03</totfact>
</mgrwt>
</event>
<event>
 5    1  0.3293542E-002  0.1249901E+03  0.7818608E-02  0.1235085E+00
          4   -1    0    0  501    0  0.00000000000E+00  0.00000000000E+00  0.49619847203E+02  0.49636097112E+02  0.12700000000E+01 0. -1.
         -4   -1    0    0    0  501 -0.00000000000E+00 -0.00000000000E+00 -0.78676850257E+02  0.78687099745E+02  0.12700000000E+01 0. -1.
         25    2    1    2    0    0  0.00000000000E+00  0.00000000000E+00 -0.29057003054E+02  0.12832319686E+03  0.12499013331E+03 0.  0.
    9000005    1    3    3    0    0 -0.61708486532E+02  0.31548962413E+01 -0.24090437847E+02  0.66326765909E+02  0.10000000000E+01 0.  0.
    9000005    1    3    3    0    0  0.61708486532E+02 -0.31548962413E+01 -0.49665652065E+01  0.61996430948E+02  0.10000000000E+01 0.  0.
<mgrwt>
<rscale>  0 0.12499013E+03</rscale>
<asrwt>0</asrwt>
<pdfrwt beam="1">  1        4 0.76358611E-02 0.12499013E+03</pdfrwt>
<pdfrwt beam="2">  1       -4 0.12106169E-01 0.12499013E+03</pdfrwt>
<totfact> 0.10382826E+04</totfact>
</mgrwt>
</event>
<event>
 5    1  0.3293542E-002  0.1250046E+03  0.7818608E-02  0.1235062E+00
          4   -1    0    0  501    0  0.00000000000E+00  0.00000000000E+00  0.43580166085E+02  0.43598667136E+02  0.12700000000E+01 0. -1.
         -4   -1    0    0    0  501 -0.00000000000E+00 -0.00000000000E+00 -0.89598259533E+02  0.89607259814E+02  0.12700000000E+01 0. -1.
         25    2    1    2    0    0  0.00000000000E+00  0.00000000000E+00 -0.46018093448E+02  0.13320592695E+03  0.12500461611E+03 0.  0.
    9000005    1    3    3    0    0  0.43854258829E+02  0.44110654833E+02 -0.16562987635E+02  0.64376070451E+02  0.10000000000E+01 0.  0.
    9000005    1    3    3    0    0 -0.43854258829E+02 -0.44110654833E+02 -0.29455105813E+02  0.68829856499E+02  0.10000000000E+01 0.  0.
<mgrwt>
<rscale>  0 0.12500462E+03</rscale>
<asrwt>0</asrwt>
<pdfrwt beam="1">  1        4 0.67067564E-02 0.12500462E+03</pdfrwt>
<pdfrwt beam="2">  1       -4 0.13786463E-01 0.12500462E+03</pdfrwt>
<totfact> 0.10274955E+04</totfact>
</mgrwt>
</event>
<event>
 5    1  0.3293542E-002  0.1249983E+03  0.7818608E-02  0.1235072E+00
          4   -1    0    0  501    0  0.00000000000E+00  0.00000000000E+00  0.55199957946E+03  0.55200104042E+03  0.12700000000E+01 0. -1.
         -4   -1    0    0    0  501 -0.00000000000E+00 -0.00000000000E+00 -0.70178933475E+01  0.71318810307E+01  0.12700000000E+01 0. -1.
         25    2    1    2    0    0  0.00000000000E+00  0.00000000000E+00  0.54498168612E+03  0.55913292145E+03  0.12499834259E+03 0.  0.
    9000005    1    3    3    0    0 -0.35534161889E+02  0.37398152008E+02  0.11473172789E+03  0.12580011057E+03  0.10000000000E+01 0.  0.
    9000005    1    3    3    0    0  0.35534161889E+02 -0.37398152008E+02  0.43024995823E+03  0.43333281089E+03  0.10000000000E+01 0.  0.
<mgrwt>
<rscale>  0 0.12499834E+03</rscale>
<asrwt>0</asrwt>
<pdfrwt beam="1">  1        4 0.84931897E-01 0.12499834E+03</pdfrwt>
<pdfrwt beam="2">  1       -4 0.10885565E-02 0.12499834E+03</pdfrwt>
<totfact> 0.51555106E+03</totfact>
</mgrwt>
</event>
<event>
 5    1  0.3293542E-002  0.1249859E+03  0.7818608E-02  0.1235091E+00
         -4   -1    0    0    0  501 -0.00000000000E+00  0.00000000000E+00  0.28285698290E+02  0.28314194810E+02  0.12700000000E+01 0.  1.
          4   -1    0    0  501    0  0.00000000000E+00 -0.00000000000E+00 -0.13796780202E+03  0.13797364710E+03  0.12700000000E+01 0.  1.
         25    2    1    2    0    0  0.00000000000E+00  0.00000000000E+00 -0.10968210373E+03  0.16628784191E+03  0.12498592916E+03 0.  0.
    9000005    1    3    3    0    0 -0.12585373769E+02  0.48092151233E+02 -0.44746118539E+01  0.49922628079E+02  0.10000000000E+01 0.  0.
    9000005    1    3    3    0    0  0.12585373769E+02 -0.48092151233E+02 -0.10520749187E+03  0.11636521383E+03  0.10000000000E+01 0.  0.
<mgrwt>
<rscale>  0 0.12498593E+03</rscale>
<asrwt>0</asrwt>
<pdfrwt beam="2">  1        4 0.21228457E-01 0.12498593E+03</pdfrwt>
<pdfrwt beam="1">  1       -4 0.43542876E-02 0.12498593E+03</pdfrwt>
<totfact> 0.96174443E+03</totfact>
</mgrwt>
</event>
<event>
 5    1  0.3293542E-002  0.1250083E+03  0.7818608E-02  0.1235056E+00
          4   -1    0    0  501    0  0.00000000000E+00  0.00000000000E+00  0.36527848427E+02  0.36549919435E+02  0.12700000000E+01 0. -1.
         -4   -1    0    0    0  501 -0.00000000000E+00 -0.00000000000E+00 -0.10689503083E+03  0.10690257488E+03  0.12700000000E+01 0. -1.
         25    2    1    2    0    0  0.00000000000E+00  0.00000000000E+00 -0.70367182403E+02  0.14345249432E+03  0.12500831079E+03 0.  0.
    9000005    1    3    3    0    0 -0.60860464998E+02  0.12545668050E+02 -0.27538895563E+02  0.67976324962E+02  0.10000000000E+01 0.  0.
    9000005    1    3    3    0    0  0.60860464998E+02 -0.12545668050E+02 -0.42828286841E+02  0.75476169353E+02  0.10000000000E+01 0.  0.
<mgrwt>
<rscale>  0 0.12500831E+03</rscale>
<asrwt>0</asrwt>
<pdfrwt beam="1">  1        4 0.56219471E-02 0.12500831E+03</pdfrwt>
<pdfrwt beam="2">  1       -4 0.16447667E-01 0.12500831E+03</pdfrwt>
<totfact> 0.10060642E+04</totfact>
</mgrwt>
</event>
<event>
 5    1  0.3293542E-002  0.1249998E+03  0.7818608E-02  0.1235070E+00
         -4   -1    0    0    0  501 -0.00000000000E+00  0.00000000000E+00  0.43307576764E+01  0.45131321775E+01  0.12700000000E+01 0. -1.
          4   -1    0    0  501    0  0.00000000000E+00 -0.00000000000E+00 -0.88319249790E+03  0.88319341101E+03  0.12700000000E+01 0. -1.
         25    2    1    2    0    0  0.00000000000E+00  0.00000000000E+00 -0.87886174022E+03  0.88770654318E+03  0.12499979354E+03 0.  0.
    9000005    1    3    3    0    0  0.29611241085E+02 -0.57953537806E+01 -0.50792320001E+02  0.59086982451E+02  0.10000000000E+01 0.  0.
    9000005    1    3    3    0    0 -0.29611241085E+02  0.57953537806E+01 -0.82806942022E+03  0.82861956073E+03  0.10000000000E+01 0.  0.
<mgrwt>
<rscale>  0 0.12499979E+03</rscale>
<asrwt>0</asrwt>
<pdfrwt beam="2">  1        4 0.13588973E+00 0.12499979E+03</pdfrwt>
<pdfrwt beam="1">  1       -4 0.68037016E-03 0.12499979E+03</pdfrwt>
<totfact> 0.34632176E+03</totfact>
</mgrwt>
</event>
<event>
 5    1  0.3293542E-002  0.1249996E+03  0.7818608E-02  0.1235070E+00
          4   -1    0    0  501    0  0.00000000000E+00  0.00000000000E+00  0.86580312370E+02  0.86589626343E+02  0.12700000000E+01 0. -1.
         -4   -1    0    0    0  501 -0.00000000000E+00 -0.00000000000E+00 -0.45096127968E+02  0.45114007334E+02  0.12700000000E+01 0. -1.
         25    2    1    2    0    0  0.00000000000E+00  0.00000000000E+00  0.41484184403E+02  0.13170363368E+03  0.12499963827E+03 0.  0.
    9000005    1    3    3    0    0 -0.47706603978E+02 -0.19977120606E+02 -0.16213549029E+02  0.54211480177E+02  0.10000000000E+01 0.  0.
    9000005    1    3    3    0    0  0.47706603978E+02  0.19977120606E+02  0.57697733432E+02  0.77492153500E+02  0.10000000000E+01 0.  0.
<mgrwt>
<rscale>  0 0.12499964E+03</rscale>
<asrwt>0</asrwt>
<pdfrwt beam="1">  1        4 0.13322140E-01 0.12499964E+03</pdfrwt>
<pdfrwt beam="2">  1       -4 0.69399577E-02 0.12499964E+03</pdfrwt>
<totfact> 0.10308112E+04</totfact>
</mgrwt>
</event>
<event>
 5    1  0.3293542E-002  0.1249979E+03  0.7818608E-02  0.1235073E+00
         -4   -1    0    0    0  501 -0.00000000000E+00  0.00000000000E+00  0.24467864906E+02  0.24500802294E+02  0.12700000000E+01 0. -1.
          4   -1    0    0  501    0  0.00000000000E+00 -0.00000000000E+00 -0.15949996997E+03  0.15950502601E+03  0.12700000000E+01 0. -1.
         25    2    1    2    0    0  0.00000000000E+00  0.00000000000E+00 -0.13503210507E+03  0.18400582830E+03  0.12499790178E+03 0.  0.
    9000005    1    3    3    0    0 -0.32596539479E+02 -0.32893003364E+02 -0.57480584393E+01  0.46674663707E+02  0.10000000000E+01 0.  0.
    9000005    1    3    3    0    0  0.32596539479E+02  0.32893003364E+02 -0.12928404663E+03  0.13733116459E+03  0.10000000000E+01 0.  0.
<mgrwt>
<rscale>  0 0.12499790E+03</rscale>
<asrwt>0</asrwt>
<pdfrwt beam="2">  1        4 0.24541379E-01 0.12499790E+03</pdfrwt>
<pdfrwt beam="1">  1       -4 0.37672096E-02 0.12499790E+03</pdfrwt>
<totfact> 0.92905240E+03</totfact>
</mgrwt>
</event>
<event>
 5    1  0.3293542E-002  0.1250011E+03  0.7818608E-02  0.1235068E+00
          4   -1    0    0  501    0  0.00000000000E+00  0.00000000000E+00  0.60379850730E+02  0.60393205530E+02  0.12700000000E+01 0.  1.
         -4   -1    0    0    0  501 -0.00000000000E+00 -0.00000000000E+00 -0.64668984796E+02  0.64681454023E+02  0.12700000000E+01 0.  1.
         25    2    1    2    0    0  0.00000000000E+00  0.00000000000E+00 -0.42891340665E+01  0.12507465955E+03  0.12500109516E+03 0.  0.
    9000005    1    3    3    0    0 -0.42057877322E+02 -0.43078416122E+02  0.14619500440E+02  0.61962446478E+02  0.10000000000E+01 0.  0.
    9000005    1    3    3    0    0  0.42057877322E+02  0.43078416122E+02 -0.18908634506E+02  0.63112213075E+02  0.10000000000E+01 0.  0.
<mgrwt>
<rscale>  0 0.12500110E+03</rscale>
<asrwt>0</asrwt>
<pdfrwt beam="1">  1        4 0.92911942E-02 0.12500110E+03</pdfrwt>
<pdfrwt beam="2">  1       -4 0.99510611E-02 0.12500110E+03</pdfrwt>
<totfact> 0.10450983E+04</totfact>
</mgrwt>
</event>
<event>
 5    1  0.3293542E-002  0.1250030E+03  0.7818608E-02  0.1235065E+00
         -4   -1    0    0    0  501 -0.00000000000E+00  0.00000000000E+00  0.20190749976E+02  0.20230652105E+02  0.12700000000E+01 0. -1.
          4   -1    0    0  501    0  0.00000000000E+00 -0.00000000000E+00 -0.19324361827E+03  0.19324779146E+03  0.12700000000E+01 0. -1.
         25    2    1    2    0    0  0.00000000000E+00  0.00000000000E+00 -0.17305286830E+03  0.21347844356E+03  0.12500300253E+03 0.  0.
    9000005    1    3    3    0    0 -0.66982970483E+01  0.49690495496E+02 -0.22822903193E+02  0.55098978539E+02  0.10000000000E+01 0.  0.
    9000005    1    3    3    0    0  0.66982970483E+01 -0.49690495496E+02 -0.15022996510E+03  0.15837946502E+03  0.10000000000E+01 0.  0.
<mgrwt>
<rscale>  0 0.12500300E+03</rscale>
<asrwt>0</asrwt>
<pdfrwt beam="2">  1        4 0.29733177E-01 0.12500300E+03</pdfrwt>
<pdfrwt beam="1">  1       -4 0.31096598E-02 0.12500300E+03</pdfrwt>
<totfact> 0.87905039E+03</totfact>
</mgrwt>
</event>
<event>
 5    1  0.3293542E-002  0.1250006E+03  0.7818608E-02  0.1235068E+00
          4   -1    0    0  501    0  0.00000000000E+00  0.00000000000E+00  0.24299319952E+02  0.24332485490E+02  0.12700000000E+01 0. -1.
         -4   -1    0    0    0  501 -0.00000000000E+00 -0.00000000000E+00 -0.16061164609E+03  0.16061666713E+03  0.12700000000E+01 0. -1.
         25    2    1    2    0    0  0.00000000000E+00  0.00000000000E+00 -0.13631232614E+03  0.18494915262E+03  0.12500055519E+03 0.  0.
    9000005    1    3    3    0    0 -0.40188365259E+02  0.30109983776E+02 -0.12319139431E+03  0.13303697026E+03  0.10000000000E+01 0.  0.
    9000005    1    3    3    0    0  0.40188365259E+02 -0.30109983776E+02 -0.13120931834E+02  0.51912182360E+02  0.10000000000E+01 0.  0.
<mgrwt>
<rscale>  0 0.12500056E+03</rscale>
<asrwt>0</asrwt>
<pdfrwt beam="1">  1        4 0.37412944E-02 0.12500056E+03</pdfrwt>
<pdfrwt beam="2">  1       -4 0.24712421E-01 0.12500056E+03</pdfrwt>
<totfact> 0.92732496E+03</totfact>
</mgrwt>
</event>
<event>
 5    1  0.3293542E-002  0.1250024E+03  0.7818608E-02  0.1235066E+00
         -4   -1    0    0    0  501 -0.00000000000E+00  0.00000000000E+00  0.11567624620E+03  0.11568321760E+03  0.12700000000E+01 0. -1.
          4   -1    0    0  501    0  0.00000000000E+00 -0.00000000000E+00 -0.33750181601E+02  0.33774067835E+02  0.12700000000E+01 0. -1.
         25    2    1    2    0    0  0.00000000000E+00  0.00000000000E+00  0.81926064600E+02  0.14945728544E+03  0.12500240042E+03 0.  0.
    9000005    1    3    3    0    0  0.52668061045E+02 -0.32616886488E+02  0.50794476932E+02  0.80117818400E+02  0.10000000000E+01 0.  0.
    9000005    1    3    3    0    0 -0.52668061045E+02  0.32616886488E+02  0.31131587667E+02  0.69339467038E+02  0.10000000000E+01 0.  0.
<mgrwt>
<rscale>  0 0.12500240E+03</rscale>
<asrwt>0</asrwt>
<pdfrwt beam="2">  1        4 0.51947093E-02 0.12500240E+03</pdfrwt>
<pdfrwt beam="1">  1       -4 0.17798719E-01 0.12500240E+03</pdfrwt>
<totfact> 0.99406619E+03</totfact>
</mgrwt>
</event>
<event>
 5    1  0.3293542E-002  0.1250007E+03  0.7818608E-02  0.1235068E+00
         -4   -1    0    0    0  501 -0.00000000000E+00  0.00000000000E+00  0.31631208104E+03  0.31631463057E+03  0.12700000000E+01 0. -1.
          4   -1    0    0  501    0  0.00000000000E+00 -0.00000000000E+00 -0.12314244006E+02  0.12379559985E+02  0.12700000000E+01 0. -1.
         25    2    1    2    0    0  0.00000000000E+00  0.00000000000E+00  0.30399783703E+03  0.32869419055E+03  0.12500074393E+03 0.  0.
    9000005    1    3    3    0    0 -0.59475606971E+01 -0.98458755879E+01 -0.95193993325E+01  0.14964414723E+02  0.10000000000E+01 0.  0.
    9000005    1    3    3    0    0  0.59475606971E+01  0.98458755879E+01  0.31351723637E+03  0.31372977583E+03  0.10000000000E+01 0.  0.
<mgrwt>
<rscale>  0 0.12500074E+03</rscale>
<asrwt>0</asrwt>
<pdfrwt beam="2">  1        4 0.18997198E-02 0.12500074E+03</pdfrwt>
<pdfrwt beam="1">  1       -4 0.48668610E-01 0.12500074E+03</pdfrwt>
<totfact> 0.72132675E+03</totfact>
</mgrwt>
</event>
<event>
 5    1  0.3293542E-002  0.1250003E+03  0.7818608E-02  0.1235069E+00
         -4   -1    0    0    0  501 -0.00000000000E+00  0.00000000000E+00  0.39534216592E+01  0.41524020537E+01  0.12700000000E+01 0. -1.
          4   -1    0    0  501    0  0.00000000000E+00 -0.00000000000E+00 -0.96361772156E+03  0.96361855845E+03  0.12700000000E+01 0. -1.
         25    2    1    2    0    0  0.00000000000E+00  0.00000000000E+00 -0.95966429990E+03  0.96777096051E+03  0.12500025402E+03 0.  0.
    9000005    1    3    3    0    0 -0.26498436167E+02 -0.55558662757E+02 -0.56333754865E+03  0.56669138501E+03  0.10000000000E+01 0.  0.
    9000005    1    3    3    0    0  0.26498436167E+02  0.55558662757E+02 -0.39632675124E+03  0.40107957549E+03  0.10000000000E+01 0.  0.
<mgrwt>
<rscale>  0 0.12500025E+03</rscale>
<asrwt>0</asrwt>
<pdfrwt beam="2">  1        4 0.14826407E+00 0.12500025E+03</pdfrwt>
<pdfrwt beam="1">  1       -4 0.62359004E-03 0.12500025E+03</pdfrwt>
<totfact> 0.31693181E+03</totfact>
</mgrwt>
</event>
<event>
 5    1  0.3293542E-002  0.1250011E+03  0.7818608E-02  0.1235067E+00
         -4   -1    0    0    0  501 -0.00000000000E+00  0.00000000000E+00  0.73027806919E+02  0.73038849138E+02  0.12700000000E+01 0.  1.
          4   -1    0    0  501    0  0.00000000000E+00 -0.00000000000E+00 -0.53468255887E+02  0.53483336541E+02  0.12700000000E+01 0.  1.
         25    2    1    2    0    0  0.00000000000E+00  0.00000000000E+00  0.19559551032E+02  0.12652218568E+03  0.12500114972E+03 0.  0.
    9000005    1    3    3    0    0  0.88494081112E+01 -0.12291512102E+02  0.71146961604E+02  0.72748082031E+02  0.10000000000E+01 0.  0.
    9000005    1    3    3    0    0 -0.88494081112E+01  0.12291512102E+02 -0.51587410572E+02  0.53774103648E+02  0.10000000000E+01 0.  0.
<mgrwt>
<rscale>  0 0.12500115E+03</rscale>
<asrwt>0</asrwt>
<pdfrwt beam="2">  1        4 0.82278950E-02 0.12500115E+03</pdfrwt>
<pdfrwt beam="1">  1       -4 0.11237057E-01 0.12500115E+03</pdfrwt>
<totfact> 0.10419274E+04</totfact>
</mgrwt>
</event>
<event>
 5    1  0.3293542E-002  0.1250002E+03  0.7818608E-02  0.1235069E+00
         -4   -1    0    0    0  501 -0.00000000000E+00  0.00000000000E+00  0.15991252471E+03  0.15991756770E+03  0.12700000000E+01 0.  1.
          4   -1    0    0  501    0  0.00000000000E+00 -0.00000000000E+00 -0.24405569755E+02  0.24438591102E+02  0.12700000000E+01 0.  1.
         25    2    1    2    0    0  0.00000000000E+00  0.00000000000E+00  0.13550695495E+03  0.18435615880E+03  0.12500023379E+03 0.  0.
    9000005    1    3    3    0    0  0.28673039995E+02 -0.53958771183E+02  0.48435104770E+02  0.77978532842E+02  0.10000000000E+01 0.  0.
    9000005    1    3    3    0    0 -0.28673039995E+02  0.53958771183E+02  0.87071850182E+02  0.10637762596E+03  0.10000000000E+01 0.  0.
<mgrwt>
<rscale>  0 0.12500023E+03</rscale>
<asrwt>0</asrwt>
<pdfrwt beam="2">  1        4 0.37576311E-02 0.12500023E+03</pdfrwt>
<pdfrwt beam="1">  1       -4 0.24604854E-01 0.12500023E+03</pdfrwt>
<totfact> 0.92838219E+03</totfact>
</mgrwt>
</event>
<event>
 5    1  0.3293542E-002  0.1250256E+03  0.7818608E-02  0.1235029E+00
         -4   -1    0    0    0  501 -0.00000000000E+00  0.00000000000E+00  0.71905401487E+02  0.71916616043E+02  0.12700000000E+01 0. -1.
          4   -1    0    0  501    0  0.00000000000E+00 -0.00000000000E+00 -0.54324210130E+02  0.54339053233E+02  0.12700000000E+01 0. -1.
         25    2    1    2    0    0  0.00000000000E+00  0.00000000000E+00  0.17581191357E+02  0.12625566928E+03  0.12502558032E+03 0.  0.
    9000005    1    3    3    0    0 -0.57645349053E+02 -0.10593832261E+02  0.30721385802E+02  0.66181712693E+02  0.10000000000E+01 0.  0.
    9000005    1    3    3    0    0  0.57645349053E+02  0.10593832261E+02 -0.13140194445E+02  0.60073956583E+02  0.10000000000E+01 0.  0.
<mgrwt>
<rscale>  0 0.12502558E+03</rscale>
<asrwt>0</asrwt>
<pdfrwt beam="2">  1        4 0.83595753E-02 0.12502558E+03</pdfrwt>
<pdfrwt beam="1">  1       -4 0.11064374E-01 0.12502558E+03</pdfrwt>
<totfact> 0.10419345E+04</totfact>
</mgrwt>
</event>
<event>
 5    1  0.3293542E-002  0.1250018E+03  0.7818608E-02  0.1235066E+00
          4   -1    0    0  501    0  0.00000000000E+00  0.00000000000E+00  0.12261046101E+04  0.12261052678E+04  0.12700000000E+01 0. -1.
         -4   -1    0    0    0  501 -0.00000000000E+00 -0.00000000000E+00 -0.30587475284E+01  0.33119233751E+01  0.12700000000E+01 0. -1.
         25    2    1    2    0    0  0.00000000000E+00  0.00000000000E+00  0.12230458626E+04  0.12294171912E+04  0.12500179233E+03 0.  0.
    9000005    1    3    3    0    0 -0.51647557802E+02  0.24792200445E+02  0.85705612351E+03  0.85896933722E+03  0.10000000000E+01 0.  0.
    9000005    1    3    3    0    0  0.51647557802E+02 -0.24792200445E+02  0.36598973905E+03  0.37044785399E+03  0.10000000000E+01 0.  0.
<mgrwt>
<rscale>  0 0.12500179E+03</rscale>
<asrwt>0</asrwt>
<pdfrwt beam="1">  1        4 0.18865109E+00 0.12500179E+03</pdfrwt>
<pdfrwt beam="2">  1       -4 0.49010197E-03 0.12500179E+03</pdfrwt>
<totfact> 0.23954536E+03</totfact>
</mgrwt>
</event>
<event>
 5    1  0.3293542E-002  0.1250015E+03  0.7818608E-02  0.1235067E+00
          4   -1    0    0  501    0  0.00000000000E+00  0.00000000000E+00  0.28529167940E+03  0.28529450615E+03  0.12700000000E+01 0.  1.
         -4   -1    0    0    0  501 -0.00000000000E+00 -0.00000000000E+00 -0.13660112324E+02  0.13719022148E+02  0.12700000000E+01 0.  1.
         25    2    1    2    0    0  0.00000000000E+00  0.00000000000E+00  0.27163156708E+03  0.29901352829E+03  0.12500152747E+03 0.  0.
    9000005    1    3    3    0    0 -0.58571054300E+02  0.16958699105E+02  0.10308889151E+03  0.11977681508E+03  0.10000000000E+01 0.  0.
    9000005    1    3    3    0    0  0.58571054300E+02 -0.16958699105E+02  0.16854267557E+03  0.17923671322E+03  0.10000000000E+01 0.  0.
<mgrwt>
<rscale>  0 0.12500153E+03</rscale>
<asrwt>0</asrwt>
<pdfrwt beam="1">  1        4 0.43895771E-01 0.12500153E+03</pdfrwt>
<pdfrwt beam="2">  1       -4 0.21063050E-02 0.12500153E+03</pdfrwt>
<totfact> 0.75720182E+03</totfact>
</mgrwt>
</event>
<event>
 5    1  0.3293542E-002  0.1249733E+03  0.7818608E-02  0.1235111E+00
         -4   -1    0    0    0  501 -0.00000000000E+00  0.00000000000E+00  0.34212042709E+02  0.34235606703E+02  0.12700000000E+01 0.  1.
          4   -1    0    0  501    0  0.00000000000E+00 -0.00000000000E+00 -0.11406255289E+03  0.11406962291E+03  0.12700000000E+01 0.  1.
         25    2    1    2    0    0  0.00000000000E+00  0.00000000000E+00 -0.79850510179E+02  0.14830522962E+03  0.12497334578E+03 0.  0.
    9000005    1    3    3    0    0  0.17412248490E+02  0.58428786234E+02 -0.56130260467E+02  0.82877714726E+02  0.10000000000E+01 0.  0.
    9000005    1    3    3    0    0 -0.17412248490E+02 -0.58428786234E+02 -0.23720249713E+02  0.65427514890E+02  0.10000000000E+01 0.  0.
<mgrwt>
<rscale>  0 0.12497335E+03</rscale>
<asrwt>0</asrwt>
<pdfrwt beam="2">  1        4 0.17550441E-01 0.12497335E+03</pdfrwt>
<pdfrwt beam="1">  1       -4 0.52657477E-02 0.12497335E+03</pdfrwt>
<totfact> 0.99702411E+03</totfact>
</mgrwt>
</event>
<event>
 5    1  0.3293542E-002  0.1249984E+03  0.7818608E-02  0.1235072E+00
          4   -1    0    0  501    0  0.00000000000E+00  0.00000000000E+00  0.12195961760E+04  0.12195968373E+04  0.12700000000E+01 0. -1.
         -4   -1    0    0    0  501 -0.00000000000E+00 -0.00000000000E+00 -0.30762376015E+01  0.33280831992E+01  0.12700000000E+01 0. -1.
         25    2    1    2    0    0  0.00000000000E+00  0.00000000000E+00  0.12165199384E+04  0.12229249205E+04  0.12499840206E+03 0.  0.
    9000005    1    3    3    0    0  0.57018426821E+02 -0.22993910027E+02  0.71778705363E+03  0.72041590436E+03  0.10000000000E+01 0.  0.
    9000005    1    3    3    0    0 -0.57018426821E+02  0.22993910027E+02  0.49873288481E+03  0.50250901613E+03  0.10000000000E+01 0.  0.
<mgrwt>
<rscale>  0 0.12499840E+03</rscale>
<asrwt>0</asrwt>
<pdfrwt beam="1">  1        4 0.18764954E+00 0.12499840E+03</pdfrwt>
<pdfrwt beam="2">  1       -4 0.49269109E-03 0.12499840E+03</pdfrwt>
<totfact> 0.24121312E+03</totfact>
</mgrwt>
</event>
<event>
 5    1  0.3293542E-002  0.1250018E+03  0.7818608E-02  0.1235066E+00
          4   -1    0    0  501    0  0.00000000000E+00  0.00000000000E+00  0.18528823291E+03  0.18529258526E+03  0.12700000000E+01 0.  1.
         -4   -1    0    0    0  501 -0.00000000000E+00 -0.00000000000E+00 -0.21058904584E+02  0.21097164793E+02  0.12700000000E+01 0.  1.
         25    2    1    2    0    0  0.00000000000E+00  0.00000000000E+00  0.16422932832E+03  0.20638975006E+03  0.12500182657E+03 0.  0.
    9000005    1    3    3    0    0  0.19606503369E+02  0.22286528255E+02 -0.86843885373E+01  0.30943867248E+02  0.10000000000E+01 0.  0.
    9000005    1    3    3    0    0 -0.19606503369E+02 -0.22286528255E+02  0.17291371686E+03  0.17544588281E+03  0.10000000000E+01 0.  0.
<mgrwt>
<rscale>  0 0.12500183E+03</rscale>
<asrwt>0</asrwt>
<pdfrwt beam="1">  1        4 0.28509160E-01 0.12500183E+03</pdfrwt>
<pdfrwt beam="2">  1       -4 0.32431093E-02 0.12500183E+03</pdfrwt>
<totfact> 0.89065258E+03</totfact>
</mgrwt>
</event>
<event>
 5    1  0.3293542E-002  0.1250001E+03  0.7818608E-02  0.1235069E+00
         -4   -1    0    0    0  501 -0.00000000000E+00  0.00000000000E+00  0.16681077304E+03  0.16681560749E+03  0.12700000000E+01 0.  1.
          4   -1    0    0  501    0  0.00000000000E+00 -0.00000000000E+00 -0.23394910555E+02  0.23429356369E+02  0.12700000000E+01 0.  1.
         25    2    1    2    0    0  0.00000000000E+00  0.00000000000E+00  0.14341586249E+03  0.19024496386E+03  0.12500014665E+03 0.  0.
    9000005    1    3    3    0    0 -0.26162293615E+02 -0.85313055845E+01  0.15710062712E+03  0.15949562948E+03  0.10000000000E+01 0.  0.
    9000005    1    3    3    0    0  0.26162293615E+02  0.85313055845E+01 -0.13684764628E+02  0.30749334385E+02  0.10000000000E+01 0.  0.
<mgrwt>
<rscale>  0 0.12500015E+03</rscale>
<asrwt>0</asrwt>
<pdfrwt beam="2">  1        4 0.36022385E-02 0.12500015E+03</pdfrwt>
<pdfrwt beam="1">  1       -4 0.25666218E-01 0.12500015E+03</pdfrwt>
<totfact> 0.91804407E+03</totfact>
</mgrwt>
</event>
<event>
 4    1  0.3293542E-002  0.1251354E+03  0.7818608E-02  0.1234858E+00
         -4   -1    0    0    0  501 -0.00000000000E+00  0.00000000000E+00  0.54605340995E+02  0.54620107700E+02  0.12700000000E+01 0. -1.
          4   -1    0    0  501    0  0.00000000000E+00 -0.00000000000E+00 -0.71660988225E+02  0.71672241024E+02  0.12700000000E+01 0. -1.
    9000005    1    1    2    0    0  0.11664135428E+02  0.57828768518E+02  0.12485270480E+02  0.60308378377E+02  0.10000000000E+01 0.  0.
    9000005    1    1    2    0    0 -0.11664135428E+02 -0.57828768518E+02 -0.29540917710E+02  0.65983970346E+02  0.10000000000E+01 0.  0.
<mgrwt>
<rscale>  0 0.12513538E+03</rscale>
<asrwt>0</asrwt>
<pdfrwt beam="2">  1        4 0.11026769E-01 0.12513538E+03</pdfrwt>
<pdfrwt beam="1">  1       -4 0.84028231E-02 0.12513538E+03</pdfrwt>
<totfact> 0.10392774E+04</totfact>
</mgrwt>
</event>
<event>
 5    1  0.3293542E-002  0.1250014E+03  0.7818608E-02  0.1235067E+00
         -4   -1    0    0    0  501 -0.00000000000E+00  0.00000000000E+00  0.48957509593E+02  0.48973979270E+02  0.12700000000E+01 0. -1.
          4   -1    0    0  501    0  0.00000000000E+00 -0.00000000000E+00 -0.79755439379E+02  0.79765550274E+02  0.12700000000E+01 0. -1.
         25    2    1    2    0    0  0.00000000000E+00  0.00000000000E+00 -0.30797929785E+02  0.12873952954E+03  0.12500141594E+03 0.  0.
    9000005    1    3    3    0    0  0.38393571978E+02 -0.35515027697E+02  0.19828513094E+02  0.55942412292E+02  0.10000000000E+01 0.  0.
    9000005    1    3    3    0    0 -0.38393571978E+02  0.35515027697E+02 -0.50626442880E+02  0.72797117252E+02  0.10000000000E+01 0.  0.
<mgrwt>
<rscale>  0 0.12500142E+03</rscale>
<asrwt>0</asrwt>
<pdfrwt beam="2">  1        4 0.12272112E-01 0.12500142E+03</pdfrwt>
<pdfrwt beam="1">  1       -4 0.75339693E-02 0.12500142E+03</pdfrwt>
<totfact> 0.10371216E+04</totfact>
</mgrwt>
</event>
<event>
 5    1  0.3293542E-002  0.1249978E+03  0.7818608E-02  0.1235073E+00
          4   -1    0    0  501    0  0.00000000000E+00  0.00000000000E+00  0.12498268130E+03  0.12498913363E+03  0.12700000000E+01 0.  1.
         -4   -1    0    0    0  501 -0.00000000000E+00 -0.00000000000E+00 -0.31233069537E+02  0.31258879262E+02  0.12700000000E+01 0.  1.
         25    2    1    2    0    0  0.00000000000E+00  0.00000000000E+00  0.93749611761E+02  0.15624801289E+03  0.12499780728E+03 0.  0.
    9000005    1    3    3    0    0  0.46105723813E+02  0.28644628263E+02  0.85581832687E+02  0.10134842171E+03  0.10000000000E+01 0.  0.
    9000005    1    3    3    0    0 -0.46105723813E+02 -0.28644628263E+02  0.81677790746E+01  0.54899591179E+02  0.10000000000E+01 0.  0.
<mgrwt>
<rscale>  0 0.12499781E+03</rscale>
<asrwt>0</asrwt>
<pdfrwt beam="1">  1        4 0.19230587E-01 0.12499781E+03</pdfrwt>
<pdfrwt beam="2">  1       -4 0.48075693E-02 0.12499781E+03</pdfrwt>
<totfact> 0.98075889E+03</totfact>
</mgrwt>
</event>
<event>
 5    1  0.3293542E-002  0.1250001E+03  0.7818608E-02  0.1235069E+00
         -4   -1    0    0    0  501 -0.00000000000E+00  0.00000000000E+00  0.40064097690E+02  0.40084221631E+02  0.12700000000E+01 0.  1.
          4   -1    0    0  501    0  0.00000000000E+00 -0.00000000000E+00 -0.97451425450E+02  0.97459700503E+02  0.12700000000E+01 0.  1.
         25    2    1    2    0    0  0.00000000000E+00  0.00000000000E+00 -0.57387327760E+02  0.13754392213E+03  0.12500010051E+03 0.  0.
    9000005    1    3    3    0    0 -0.58303722410E+02 -0.17182779613E+02 -0.44665216972E+02  0.75435757896E+02  0.10000000000E+01 0.  0.
    9000005    1    3    3    0    0  0.58303722410E+02  0.17182779613E+02 -0.12722110788E+02  0.62108164238E+02  0.10000000000E+01 0.  0.
<mgrwt>
<rscale>  0 0.12500010E+03</rscale>
<asrwt>0</asrwt>
<pdfrwt beam="2">  1        4 0.14994711E-01 0.12500010E+03</pdfrwt>
<pdfrwt beam="1">  1       -4 0.61658919E-02 0.12500010E+03</pdfrwt>
<totfact> 0.10184702E+04</totfact>
</mgrwt>
</event>
<event>
 5    1  0.3293542E-002  0.1250029E+03  0.7818608E-02  0.1235065E+00
          4   -1    0    0  501    0  0.00000000000E+00  0.00000000000E+00  0.20159254240E+03  0.20159654276E+03  0.12700000000E+01 0. -1.
         -4   -1    0    0    0  501 -0.00000000000E+00 -0.00000000000E+00 -0.19352855898E+02  0.19394481983E+02  0.12700000000E+01 0. -1.
         25    2    1    2    0    0  0.00000000000E+00  0.00000000000E+00  0.18223968650E+03  0.22099102474E+03  0.12500291868E+03 0.  0.
    9000005    1    3    3    0    0  0.25904213940E+02 -0.12076002094E+02 -0.71303715483E+01  0.29473722616E+02  0.10000000000E+01 0.  0.
    9000005    1    3    3    0    0 -0.25904213940E+02  0.12076002094E+02  0.18937005805E+03  0.19151730212E+03  0.10000000000E+01 0.  0.
<mgrwt>
<rscale>  0 0.12500292E+03</rscale>
<asrwt>0</asrwt>
<pdfrwt beam="1">  1        4 0.31017748E-01 0.12500292E+03</pdfrwt>
<pdfrwt beam="2">  1       -4 0.29808721E-02 0.12500292E+03</pdfrwt>
<totfact> 0.86706122E+03</totfact>
</mgrwt>
</event>
<event>
 5    1  0.3293542E-002  0.1250018E+03  0.7818608E-02  0.1235067E+00
          4   -1    0    0  501    0  0.00000000000E+00  0.00000000000E+00  0.14377838212E+03  0.14378399099E+03  0.12700000000E+01 0.  1.
         -4   -1    0    0    0  501 -0.00000000000E+00 -0.00000000000E+00 -0.27148331790E+02  0.27178020881E+02  0.12700000000E+01 0.  1.
         25    2    1    2    0    0  0.00000000000E+00  0.00000000000E+00  0.11663005033E+03  0.17096201187E+03  0.12500176344E+03 0.  0.
    9000005    1    3    3    0    0 -0.17569043052E+02 -0.47050937035E+02  0.74547627963E+01  0.50784204611E+02  0.10000000000E+01 0.  0.
    9000005    1    3    3    0    0  0.17569043052E+02  0.47050937035E+02  0.10917528754E+03  0.12017780726E+03  0.10000000000E+01 0.  0.
<mgrwt>
<rscale>  0 0.12500176E+03</rscale>
<asrwt>0</asrwt>
<pdfrwt beam="1">  1        4 0.22122467E-01 0.12500176E+03</pdfrwt>
<pdfrwt beam="2">  1       -4 0.41793816E-02 0.12500176E+03</pdfrwt>
<totfact> 0.95265863E+03</totfact>
</mgrwt>
</event>
<event>
 5    1  0.3293542E-002  0.1250022E+03  0.7818608E-02  0.1235066E+00
         -4   -1    0    0    0  501 -0.00000000000E+00  0.00000000000E+00  0.64493670470E+03  0.64493795513E+03  0.12700000000E+01 0.  1.
          4   -1    0    0  501    0  0.00000000000E+00 -0.00000000000E+00 -0.59891676723E+01  0.61223385570E+01  0.12700000000E+01 0.  1.
         25    2    1    2    0    0  0.00000000000E+00  0.00000000000E+00  0.63894753702E+03  0.65106029369E+03  0.12500220376E+03 0.  0.
    9000005    1    3    3    0    0 -0.24846356928E+02  0.43270058586E+02  0.51544691548E+03  0.51785727966E+03  0.10000000000E+01 0.  0.
    9000005    1    3    3    0    0  0.24846356928E+02 -0.43270058586E+02  0.12350062155E+03  0.13320301402E+03  0.10000000000E+01 0.  0.
<mgrwt>
<rscale>  0 0.12500220E+03</rscale>
<asrwt>0</asrwt>
<pdfrwt beam="2">  1        4 0.93175068E-03 0.12500220E+03</pdfrwt>
<pdfrwt beam="1">  1       -4 0.99231353E-01 0.12500220E+03</pdfrwt>
<totfact> 0.45793008E+03</totfact>
</mgrwt>
</event>
<event>
 5    1  0.3293542E-002  0.1250000E+03  0.7818608E-02  0.1235069E+00
         -4   -1    0    0    0  501 -0.00000000000E+00  0.00000000000E+00  0.12477863818E+03  0.12478510106E+03  0.12700000000E+01 0. -1.
          4   -1    0    0  501    0  0.00000000000E+00 -0.00000000000E+00 -0.31285278438E+02  0.31311045127E+02  0.12700000000E+01 0. -1.
         25    2    1    2    0    0  0.00000000000E+00  0.00000000000E+00  0.93493359741E+02  0.15609614618E+03  0.12499999415E+03 0.  0.
    9000005    1    3    3    0    0 -0.31758903089E+02  0.47273592061E+02  0.14620791098E+02  0.58806359895E+02  0.10000000000E+01 0.  0.
    9000005    1    3    3    0    0  0.31758903089E+02 -0.47273592061E+02  0.78872568643E+02  0.97289786289E+02  0.10000000000E+01 0.  0.
<mgrwt>
<rscale>  0 0.12499999E+03</rscale>
<asrwt>0</asrwt>
<pdfrwt beam="2">  1        4 0.48155989E-02 0.12499999E+03</pdfrwt>
<pdfrwt beam="1">  1       -4 0.19199193E-01 0.12499999E+03</pdfrwt>
<totfact> 0.98100753E+03</totfact>
</mgrwt>
</event>
<event>
 5    1  0.3293542E-002  0.1249976E+03  0.7818608E-02  0.1235073E+00
         -4   -1    0    0    0  501 -0.00000000000E+00  0.00000000000E+00  0.17697791792E+03  0.17698247465E+03  0.12700000000E+01 0.  1.
          4   -1    0    0  501    0  0.00000000000E+00 -0.00000000000E+00 -0.22048016309E+02  0.22084563006E+02  0.12700000000E+01 0.  1.
         25    2    1    2    0    0  0.00000000000E+00  0.00000000000E+00  0.15492990161E+03  0.19906703765E+03  0.12499764424E+03 0.  0.
    9000005    1    3    3    0    0 -0.24900175060E+02 -0.12944842932E+02  0.16638543270E+03  0.16873855485E+03  0.10000000000E+01 0.  0.
    9000005    1    3    3    0    0  0.24900175060E+02  0.12944842932E+02 -0.11455531091E+02  0.30328482803E+02  0.10000000000E+01 0.  0.
<mgrwt>
<rscale>  0 0.12499764E+03</rscale>
<asrwt>0</asrwt>
<pdfrwt beam="2">  1        4 0.33951643E-02 0.12499764E+03</pdfrwt>
<pdfrwt beam="1">  1       -4 0.27230534E-01 0.12499764E+03</pdfrwt>
<totfact> 0.90297856E+03</totfact>
</mgrwt>
</event>
<event>
 5    1  0.3293542E-002  0.1249919E+03  0.7818608E-02  0.1235082E+00
          4   -1    0    0  501    0  0.00000000000E+00  0.00000000000E+00  0.18918131187E+01  0.22785646526E+01  0.12700000000E+01 0. -1.
         -4   -1    0    0    0  501 -0.00000000000E+00 -0.00000000000E+00 -0.18727016634E+04  0.18727020941E+04  0.12700000000E+01 0. -1.
         25    2    1    2    0    0  0.00000000000E+00  0.00000000000E+00 -0.18708098503E+04  0.18749806587E+04  0.12499189790E+03 0.  0.
    9000005    1    3    3    0    0 -0.53073664770E+02  0.17190285262E+02 -0.51313155450E+03  0.51615628643E+03  0.10000000000E+01 0.  0.
    9000005    1    3    3    0    0  0.53073664770E+02 -0.17190285262E+02 -0.13576782958E+04  0.13588243723E+04  0.10000000000E+01 0.  0.
<mgrwt>
<rscale>  0 0.12499190E+03</rscale>
<asrwt>0</asrwt>
<pdfrwt beam="1">  1        4 0.32083291E-03 0.12499190E+03</pdfrwt>
<pdfrwt beam="2">  1       -4 0.28813639E+00 0.12499190E+03</pdfrwt>
<totfact> 0.11584791E+03</totfact>
</mgrwt>
</event>
<event>
 5    1  0.3293542E-002  0.1249995E+03  0.7818608E-02  0.1235070E+00
         -4   -1    0    0    0  501 -0.00000000000E+00  0.00000000000E+00  0.14949137348E+03  0.14949676801E+03  0.12700000000E+01 0.  1.
          4   -1    0    0  501    0  0.00000000000E+00 -0.00000000000E+00 -0.26108756358E+02  0.26139626214E+02  0.12700000000E+01 0.  1.
         25    2    1    2    0    0  0.00000000000E+00  0.00000000000E+00  0.12338261713E+03  0.17563639423E+03  0.12499949107E+03 0.  0.
    9000005    1    3    3    0    0 -0.52152378608E+02  0.31875392125E+02  0.43408467153E+02  0.74974703989E+02  0.10000000000E+01 0.  0.
    9000005    1    3    3    0    0  0.52152378608E+02 -0.31875392125E+02  0.79974149973E+02  0.10066169024E+03  0.10000000000E+01 0.  0.
<mgrwt>
<rscale>  0 0.12499949E+03</rscale>
<asrwt>0</asrwt>
<pdfrwt beam="2">  1        4 0.40195214E-02 0.12499949E+03</pdfrwt>
<pdfrwt beam="1">  1       -4 0.23001462E-01 0.12499949E+03</pdfrwt>
<totfact> 0.94409493E+03</totfact>
</mgrwt>
</event>
<event>
 5    1  0.3293542E-002  0.1249993E+03  0.7818608E-02  0.1235070E+00
          4   -1    0    0  501    0  0.00000000000E+00  0.00000000000E+00  0.20197241239E+03  0.20197640523E+03  0.12700000000E+01 0.  1.
         -4   -1    0    0    0  501 -0.00000000000E+00 -0.00000000000E+00 -0.19315266240E+02  0.19356973160E+02  0.12700000000E+01 0.  1.
         25    2    1    2    0    0  0.00000000000E+00  0.00000000000E+00  0.18265714615E+03  0.22133337839E+03  0.12499932538E+03 0.  0.
    9000005    1    3    3    0    0 -0.39873820409E+02  0.43514832567E+02  0.12769197776E+03  0.14067588063E+03  0.10000000000E+01 0.  0.
    9000005    1    3    3    0    0  0.39873820409E+02 -0.43514832567E+02  0.54965168391E+02  0.80657497751E+02  0.10000000000E+01 0.  0.
<mgrwt>
<rscale>  0 0.12499933E+03</rscale>
<asrwt>0</asrwt>
<pdfrwt beam="1">  1        4 0.31076197E-01 0.12499933E+03</pdfrwt>
<pdfrwt beam="2">  1       -4 0.29750945E-02 0.12499933E+03</pdfrwt>
<totfact> 0.86659101E+03</totfact>
</mgrwt>
</event>
<event>
 5    1  0.3293542E-002  0.1250095E+03  0.7818608E-02  0.1235054E+00
         -4   -1    0    0    0  501 -0.00000000000E+00  0.00000000000E+00  0.16298647517E+02  0.16348052205E+02  0.12700000000E+01 0.  1.
          4   -1    0    0  501    0  0.00000000000E+00 -0.00000000000E+00 -0.23928989624E+03  0.23929326640E+03  0.12700000000E+01 0.  1.
         25    2    1    2    0    0  0.00000000000E+00  0.00000000000E+00 -0.22299124873E+03  0.25564131860E+03  0.12500954671E+03 0.  0.
    9000005    1    3    3    0    0 -0.24723455626E+02 -0.48388225962E+02 -0.48359975112E+02  0.72748586671E+02  0.10000000000E+01 0.  0.
    9000005    1    3    3    0    0  0.24723455626E+02  0.48388225962E+02 -0.17463127361E+03  0.18289273193E+03  0.10000000000E+01 0.  0.
<mgrwt>
<rscale>  0 0.12500955E+03</rscale>
<asrwt>0</asrwt>
<pdfrwt beam="2">  1        4 0.36817887E-01 0.12500955E+03</pdfrwt>
<pdfrwt beam="1">  1       -4 0.25115440E-02 0.12500955E+03</pdfrwt>
<totfact> 0.81504332E+03</totfact>
</mgrwt>
</event>
<event>
 5    1  0.3293542E-002  0.1249949E+03  0.7818608E-02  0.1235077E+00
          4   -1    0    0  501    0  0.00000000000E+00  0.00000000000E+00  0.11170044117E+03  0.11170766069E+03  0.12700000000E+01 0. -1.
         -4   -1    0    0    0  501 -0.00000000000E+00 -0.00000000000E+00 -0.34948028597E+02  0.34971096678E+02  0.12700000000E+01 0. -1.
         25    2    1    2    0    0  0.00000000000E+00  0.00000000000E+00  0.76752412573E+02  0.14667875737E+03  0.12499490001E+03 0.  0.
    9000005    1    3    3    0    0 -0.26557220806E+02  0.69779378620E+01  0.10424746115E+03  0.10780774902E+03  0.10000000000E+01 0.  0.
    9000005    1    3    3    0    0  0.26557220806E+02 -0.69779378620E+01 -0.27495048575E+02  0.38871008347E+02  0.10000000000E+01 0.  0.
<mgrwt>
<rscale>  0 0.12499490E+03</rscale>
<asrwt>0</asrwt>
<pdfrwt beam="1">  1        4 0.17187013E-01 0.12499490E+03</pdfrwt>
<pdfrwt beam="2">  1       -4 0.53789497E-02 0.12499490E+03</pdfrwt>
<totfact> 0.99981386E+03</totfact>
</mgrwt>
</event>
<event>
 5    1  0.3293542E-002  0.1250012E+03  0.7818608E-02  0.1235067E+00
          4   -1    0    0  501    0  0.00000000000E+00  0.00000000000E+00  0.44578614084E+03  0.44578794988E+03  0.12700000000E+01 0.  1.
         -4   -1    0    0    0  501 -0.00000000000E+00 -0.00000000000E+00 -0.87149286424E+01  0.88069791213E+01  0.12700000000E+01 0.  1.
         25    2    1    2    0    0  0.00000000000E+00  0.00000000000E+00  0.43707121219E+03  0.45459492900E+03  0.12500121979E+03 0.  0.
    9000005    1    3    3    0    0  0.23887377910E+02  0.18466745895E+02  0.41751787609E+03  0.41860936968E+03  0.10000000000E+01 0.  0.
    9000005    1    3    3    0    0 -0.23887377910E+02 -0.18466745895E+02  0.19553336105E+02  0.35985559328E+02  0.10000000000E+01 0.  0.
<mgrwt>
<rscale>  0 0.12500122E+03</rscale>
<asrwt>0</asrwt>
<pdfrwt beam="1">  1        4 0.68589698E-01 0.12500122E+03</pdfrwt>
<pdfrwt beam="2">  1       -4 0.13479783E-02 0.12500122E+03</pdfrwt>
<totfact> 0.59566194E+03</totfact>
</mgrwt>
</event>
<event>
 5    1  0.3293542E-002  0.1250004E+03  0.7818608E-02  0.1235069E+00
          4   -1    0    0  501    0  0.00000000000E+00  0.00000000000E+00  0.16403669672E+03  0.16404161292E+03  0.12700000000E+01 0.  1.
         -4   -1    0    0    0  501 -0.00000000000E+00 -0.00000000000E+00 -0.23791228036E+02  0.23825100870E+02  0.12700000000E+01 0.  1.
         25    2    1    2    0    0  0.00000000000E+00  0.00000000000E+00  0.14024546868E+03  0.18786671379E+03  0.12500044266E+03 0.  0.
    9000005    1    3    3    0    0 -0.14272871113E+02 -0.58495998695E+02  0.44983771250E+02  0.75166723948E+02  0.10000000000E+01 0.  0.
    9000005    1    3    3    0    0  0.14272871113E+02  0.58495998695E+02  0.95261697431E+02  0.11269998984E+03  0.10000000000E+01 0.  0.
<mgrwt>
<rscale>  0 0.12500044E+03</rscale>
<asrwt>0</asrwt>
<pdfrwt beam="1">  1        4 0.25239399E-01 0.12500044E+03</pdfrwt>
<pdfrwt beam="2">  1       -4 0.36631727E-02 0.12500044E+03</pdfrwt>
<totfact> 0.92218915E+03</totfact>
</mgrwt>
</event>
<event>
 5    1  0.3293542E-002  0.1250013E+03  0.7818608E-02  0.1235067E+00
          4   -1    0    0  501    0  0.00000000000E+00  0.00000000000E+00  0.24451352096E+03  0.24451681912E+03  0.12700000000E+01 0.  1.
         -4   -1    0    0    0  501 -0.00000000000E+00 -0.00000000000E+00 -0.15947274548E+02  0.15997764391E+02  0.12700000000E+01 0.  1.
         25    2    1    2    0    0  0.00000000000E+00  0.00000000000E+00  0.22856624641E+03  0.26051458351E+03  0.12500127689E+03 0.  0.
    9000005    1    3    3    0    0  0.40487836695E+02 -0.52256987035E+01  0.21289314732E+03  0.21677422592E+03  0.10000000000E+01 0.  0.
    9000005    1    3    3    0    0 -0.40487836695E+02  0.52256987035E+01  0.15673099093E+02  0.43740357592E+02  0.10000000000E+01 0.  0.
<mgrwt>
<rscale>  0 0.12500128E+03</rscale>
<asrwt>0</asrwt>
<pdfrwt beam="1">  1        4 0.37621604E-01 0.12500128E+03</pdfrwt>
<pdfrwt beam="2">  1       -4 0.24575643E-02 0.12500128E+03</pdfrwt>
<totfact> 0.80831600E+03</totfact>
</mgrwt>
</event>
<event>
 5    1  0.3293542E-002  0.1250011E+03  0.7818608E-02  0.1235068E+00
         -4   -1    0    0    0  501 -0.00000000000E+00  0.00000000000E+00  0.98631485772E+01  0.99445764040E+01  0.12700000000E+01 0.  1.
          4   -1    0    0  501    0  0.00000000000E+00 -0.00000000000E+00 -0.39434122247E+03  0.39434326752E+03  0.12700000000E+01 0.  1.
         25    2    1    2    0    0  0.00000000000E+00  0.00000000000E+00 -0.38447807389E+03  0.40428784393E+03  0.12500108576E+03 0.  0.
    9000005    1    3    3    0    0 -0.34723778035E+01 -0.29321538458E+02 -0.14103954789E+02  0.32737311524E+02  0.10000000000E+01 0.  0.
    9000005    1    3    3    0    0  0.34723778035E+01  0.29321538458E+02 -0.37037411911E+03  0.37155053240E+03  0.10000000000E+01 0.  0.
<mgrwt>
<rscale>  0 0.12500109E+03</rscale>
<asrwt>0</asrwt>
<pdfrwt beam="2">  1        4 0.60674289E-01 0.12500109E+03</pdfrwt>
<pdfrwt beam="1">  1       -4 0.15238288E-02 0.12500109E+03</pdfrwt>
<totfact> 0.64136353E+03</totfact>
</mgrwt>
</event>
<event>
 5    1  0.3293542E-002  0.1250037E+03  0.7818608E-02  0.1235064E+00
          4   -1    0    0  501    0  0.00000000000E+00  0.00000000000E+00  0.25455022474E+02  0.25486684154E+02  0.12700000000E+01 0. -1.
         -4   -1    0    0    0  501 -0.00000000000E+00 -0.00000000000E+00 -0.15333626326E+03  0.15334152253E+03  0.12700000000E+01 0. -1.
         25    2    1    2    0    0  0.00000000000E+00  0.00000000000E+00 -0.12788124079E+03  0.17882820668E+03  0.12500366298E+03 0.  0.
    9000005    1    3    3    0    0 -0.43682927926E+02 -0.18964117713E+02 -0.12183319939E+03  0.13081347188E+03  0.10000000000E+01 0.  0.
    9000005    1    3    3    0    0  0.43682927926E+02  0.18964117713E+02 -0.60480413979E+01  0.48014734797E+02  0.10000000000E+01 0.  0.
<mgrwt>
<rscale>  0 0.12500366E+03</rscale>
<asrwt>0</asrwt>
<pdfrwt beam="1">  1        4 0.39189975E-02 0.12500366E+03</pdfrwt>
<pdfrwt beam="2">  1       -4 0.23593034E-01 0.12500366E+03</pdfrwt>
<totfact> 0.93820649E+03</totfact>
</mgrwt>
</event>
<event>
 5    1  0.3293542E-002  0.1250011E+03  0.7818608E-02  0.1235068E+00
          4   -1    0    0  501    0  0.00000000000E+00  0.00000000000E+00  0.49351097030E+03  0.49351260441E+03  0.12700000000E+01 0.  1.
         -4   -1    0    0    0  501 -0.00000000000E+00 -0.00000000000E+00 -0.78627612621E+01  0.79646666386E+01  0.12700000000E+01 0.  1.
         25    2    1    2    0    0  0.00000000000E+00  0.00000000000E+00  0.48564820904E+03  0.50147727105E+03  0.12500108172E+03 0.  0.
    9000005    1    3    3    0    0  0.49762771614E+02 -0.33717042088E+02  0.17425367161E+03  0.18433261902E+03  0.10000000000E+01 0.  0.
    9000005    1    3    3    0    0 -0.49762771614E+02  0.33717042088E+02  0.31139453743E+03  0.31714465202E+03  0.10000000000E+01 0.  0.
<mgrwt>
<rscale>  0 0.12500108E+03</rscale>
<asrwt>0</asrwt>
<pdfrwt beam="1">  1        4 0.75932719E-01 0.12500108E+03</pdfrwt>
<pdfrwt beam="2">  1       -4 0.12176203E-02 0.12500108E+03</pdfrwt>
<totfact> 0.55748608E+03</totfact>
</mgrwt>
</event>
<event>
 5    1  0.3293542E-002  0.1249990E+03  0.7818608E-02  0.1235071E+00
         -4   -1    0    0    0  501 -0.00000000000E+00  0.00000000000E+00  0.36104359294E+02  0.36126689027E+02  0.12700000000E+01 0.  1.
          4   -1    0    0  501    0  0.00000000000E+00 -0.00000000000E+00 -0.10813203068E+03  0.10813948843E+03  0.12700000000E+01 0.  1.
         25    2    1    2    0    0  0.00000000000E+00  0.00000000000E+00 -0.72027671381E+02  0.14426617746E+03  0.12499897805E+03 0.  0.
    9000005    1    3    3    0    0 -0.38716146048E+02  0.48449966809E+02 -0.44867433357E+02  0.76553418112E+02  0.10000000000E+01 0.  0.
    9000005    1    3    3    0    0  0.38716146048E+02 -0.48449966809E+02 -0.27160238024E+02  0.67712759345E+02  0.10000000000E+01 0.  0.
<mgrwt>
<rscale>  0 0.12499898E+03</rscale>
<asrwt>0</asrwt>
<pdfrwt beam="2">  1        4 0.16637988E-01 0.12499898E+03</pdfrwt>
<pdfrwt beam="1">  1       -4 0.55568082E-02 0.12499898E+03</pdfrwt>
<totfact> 0.10046151E+04</totfact>
</mgrwt>
</event>
<event>
 5    1  0.3293542E-002  0.1250016E+03  0.7818608E-02  0.1235067E+00
          4   -1    0    0  501    0  0.00000000000E+00  0.00000000000E+00  0.15220436807E+03  0.15220966645E+03  0.12700000000E+01 0. -1.
         -4   -1    0    0    0  501 -0.00000000000E+00 -0.00000000000E+00 -0.25643723266E+02  0.25675152248E+02  0.12700000000E+01 0. -1.
         25    2    1    2    0    0  0.00000000000E+00  0.00000000000E+00  0.12656064481E+03  0.17788481870E+03  0.12500164763E+03 0.  0.
    9000005    1    3    3    0    0 -0.37396876148E+02  0.12192742494E+02  0.13238542555E+03  0.13810897948E+03  0.10000000000E+01 0.  0.
    9000005    1    3    3    0    0  0.37396876148E+02 -0.12192742494E+02 -0.58247807377E+01  0.39775839222E+02  0.10000000000E+01 0.  0.
<mgrwt>
<rscale>  0 0.12500165E+03</rscale>
<asrwt>0</asrwt>
<pdfrwt beam="1">  1        4 0.23418881E-01 0.12500165E+03</pdfrwt>
<pdfrwt beam="2">  1       -4 0.39480135E-02 0.12500165E+03</pdfrwt>
<totfact> 0.93995661E+03</totfact>
</mgrwt>
</event>
<event>
 5    1  0.3293542E-002  0.1249987E+03  0.7818608E-02  0.1235071E+00
         -4   -1    0    0    0  501 -0.00000000000E+00  0.00000000000E+00  0.11017786366E+04  0.11017793685E+04  0.12700000000E+01 0.  1.
          4   -1    0    0  501    0  0.00000000000E+00 -0.00000000000E+00 -0.34308414940E+01  0.36583566471E+01  0.12700000000E+01 0.  1.
         25    2    1    2    0    0  0.00000000000E+00  0.00000000000E+00  0.10983477951E+04  0.11054377252E+04  0.12499874111E+03 0.  0.
    9000005    1    3    3    0    0 -0.49060943167E+02 -0.37618130790E+02  0.62977749716E+03  0.63280549606E+03  0.10000000000E+01 0.  0.
    9000005    1    3    3    0    0  0.49060943167E+02  0.37618130790E+02  0.46857029790E+03  0.47263222910E+03  0.10000000000E+01 0.  0.
<mgrwt>
<rscale>  0 0.12499874E+03</rscale>
<asrwt>0</asrwt>
<pdfrwt beam="2">  1        4 0.54537858E-03 0.12499874E+03</pdfrwt>
<pdfrwt beam="1">  1       -4 0.16952217E+00 0.12499874E+03</pdfrwt>
<totfact> 0.27325499E+03</totfact>
</mgrwt>
</event>
<event>
 5    1  0.3293542E-002  0.1250023E+03  0.7818608E-02  0.1235066E+00
         -4   -1    0    0    0  501 -0.00000000000E+00  0.00000000000E+00  0.15878536086E+03  0.15879043964E+03  0.12700000000E+01 0.  1.
          4   -1    0    0  501    0  0.00000000000E+00 -0.00000000000E+00 -0.24579873432E+02  0.24612660928E+02  0.12700000000E+01 0.  1.
         25    2    1    2    0    0  0.00000000000E+00  0.00000000000E+00  0.13420548742E+03  0.18340310057E+03  0.12500233776E+03 0.  0.
    9000005    1    3    3    0    0  0.59524342194E+02  0.15005534150E+02  0.84281033718E+02  0.10427178915E+03  0.10000000000E+01 0.  0.
    9000005    1    3    3    0    0 -0.59524342194E+02 -0.15005534150E+02  0.49924453705E+02  0.79131311417E+02  0.10000000000E+01 0.  0.
<mgrwt>
<rscale>  0 0.12500234E+03</rscale>
<asrwt>0</asrwt>
<pdfrwt beam="2">  1        4 0.37844317E-02 0.12500234E+03</pdfrwt>
<pdfrwt beam="1">  1       -4 0.24431430E-01 0.12500234E+03</pdfrwt>
<totfact> 0.93003122E+03</totfact>
</mgrwt>
</event>
<event>
 5    1  0.3293542E-002  0.1250050E+03  0.7818608E-02  0.1235061E+00
          4   -1    0    0  501    0  0.00000000000E+00  0.00000000000E+00  0.30708612907E+02  0.30734863049E+02  0.12700000000E+01 0. -1.
         -4   -1    0    0    0  501 -0.00000000000E+00 -0.00000000000E+00 -0.12713019458E+03  0.12713653792E+03  0.12700000000E+01 0. -1.
         25    2    1    2    0    0  0.00000000000E+00  0.00000000000E+00 -0.96421581678E+02  0.15787140097E+03  0.12500503123E+03 0.  0.
    9000005    1    3    3    0    0  0.17355435827E+01 -0.32796499384E+02 -0.11535899732E+03  0.11994715814E+03  0.10000000000E+01 0.  0.
    9000005    1    3    3    0    0 -0.17355435827E+01  0.32796499384E+02  0.18937415640E+02  0.37924242834E+02  0.10000000000E+01 0.  0.
<mgrwt>
<rscale>  0 0.12500503E+03</rscale>
<asrwt>0</asrwt>
<pdfrwt beam="1">  1        4 0.47269093E-02 0.12500503E+03</pdfrwt>
<pdfrwt beam="2">  1       -4 0.19560998E-01 0.12500503E+03</pdfrwt>
<totfact> 0.97743682E+03</totfact>
</mgrwt>
</event>
<event>
 5    1  0.3293542E-002  0.1250002E+03  0.7818608E-02  0.1235069E+00
         -4   -1    0    0    0  501 -0.00000000000E+00  0.00000000000E+00  0.55471737905E+03  0.55471883285E+03  0.12700000000E+01 0. -1.
          4   -1    0    0  501    0  0.00000000000E+00 -0.00000000000E+00 -0.69831613830E+01  0.70977068762E+01  0.12700000000E+01 0. -1.
         25    2    1    2    0    0  0.00000000000E+00  0.00000000000E+00  0.54773421767E+03  0.56181653973E+03  0.12500020443E+03 0.  0.
    9000005    1    3    3    0    0 -0.49714986148E+02  0.35595727262E+02  0.21584992365E+03  0.22434532575E+03  0.10000000000E+01 0.  0.
    9000005    1    3    3    0    0  0.49714986148E+02 -0.35595727262E+02  0.33188429402E+03  0.33747121398E+03  0.10000000000E+01 0.  0.
<mgrwt>
<rscale>  0 0.12500020E+03</rscale>
<asrwt>0</asrwt>
<pdfrwt beam="2">  1        4 0.10832556E-02 0.12500020E+03</pdfrwt>
<pdfrwt beam="1">  1       -4 0.85350056E-01 0.12500020E+03</pdfrwt>
<totfact> 0.51369883E+03</totfact>
</mgrwt>
</event>
<event>
 5    1  0.3293542E-002  0.1249961E+03  0.7818608E-02  0.1235075E+00
          4   -1    0    0  501    0  0.00000000000E+00  0.00000000000E+00  0.79154881187E+02  0.79165068785E+02  0.12700000000E+01 0. -1.
         -4   -1    0    0    0  501 -0.00000000000E+00 -0.00000000000E+00 -0.49324799204E+02  0.49341146283E+02  0.12700000000E+01 0. -1.
         25    2    1    2    0    0  0.00000000000E+00  0.00000000000E+00  0.29830081983E+02  0.12850621507E+03  0.12499605402E+03 0.  0.
    9000005    1    3    3    0    0  0.44238971109E+02 -0.28459753988E+02  0.49596006406E+02  0.72303582299E+02  0.10000000000E+01 0.  0.
    9000005    1    3    3    0    0 -0.44238971109E+02  0.28459753988E+02 -0.19765924423E+02  0.56202632769E+02  0.10000000000E+01 0.  0.
<mgrwt>
<rscale>  0 0.12499605E+03</rscale>
<asrwt>0</asrwt>
<pdfrwt beam="1">  1        4 0.12179715E-01 0.12499605E+03</pdfrwt>
<pdfrwt beam="2">  1       -4 0.75904718E-02 0.12499605E+03</pdfrwt>
<totfact> 0.10377494E+04</totfact>
</mgrwt>
</event>
<event>
 5    1  0.3293542E-002  0.1250022E+03  0.7818608E-02  0.1235066E+00
          4   -1    0    0  501    0  0.00000000000E+00  0.00000000000E+00  0.11802308443E+03  0.11802991721E+03  0.12700000000E+01 0.  1.
         -4   -1    0    0    0  501 -0.00000000000E+00 -0.00000000000E+00 -0.33078506114E+02  0.33102877016E+02  0.12700000000E+01 0.  1.
         25    2    1    2    0    0  0.00000000000E+00  0.00000000000E+00  0.84944578312E+02  0.15113279423E+03  0.12500216041E+03 0.  0.
    9000005    1    3    3    0    0 -0.45503983200E+02  0.85711482880E+01  0.93213268059E+02  0.10408549569E+03  0.10000000000E+01 0.  0.
    9000005    1    3    3    0    0  0.45503983200E+02 -0.85711482880E+01 -0.82686897474E+01  0.47047298543E+02  0.10000000000E+01 0.  0.
<mgrwt>
<rscale>  0 0.12500216E+03</rscale>
<asrwt>0</asrwt>
<pdfrwt beam="1">  1        4 0.18159798E-01 0.12500216E+03</pdfrwt>
<pdfrwt beam="2">  1       -4 0.50914012E-02 0.12500216E+03</pdfrwt>
<totfact> 0.99073554E+03</totfact>
</mgrwt>
</event>
<event>
 5    1  0.3293542E-002  0.1249989E+03  0.7818608E-02  0.1235071E+00
          4   -1    0    0  501    0  0.00000000000E+00  0.00000000000E+00  0.40607510525E+03  0.40607709121E+03  0.12700000000E+01 0. -1.
         -4   -1    0    0    0  501 -0.00000000000E+00 -0.00000000000E+00 -0.95754251026E+01  0.96592787461E+01  0.12700000000E+01 0. -1.
         25    2    1    2    0    0  0.00000000000E+00  0.00000000000E+00  0.39649968015E+03  0.41573636996E+03  0.12499893178E+03 0.  0.
    9000005    1    3    3    0    0  0.20379610986E+01  0.60024382510E+02  0.25567407570E+03  0.26263532277E+03  0.10000000000E+01 0.  0.
    9000005    1    3    3    0    0 -0.20379610986E+01 -0.60024382510E+02  0.14082560445E+03  0.15310104719E+03  0.10000000000E+01 0.  0.
<mgrwt>
<rscale>  0 0.12499893E+03</rscale>
<asrwt>0</asrwt>
<pdfrwt beam="1">  1        4 0.62479699E-01 0.12499893E+03</pdfrwt>
<pdfrwt beam="2">  1       -4 0.14797453E-02 0.12499893E+03</pdfrwt>
<totfact> 0.63052015E+03</totfact>
</mgrwt>
</event>
<event>
 5    1  0.3293542E-002  0.1250024E+03  0.7818608E-02  0.1235066E+00
         -4   -1    0    0    0  501 -0.00000000000E+00  0.00000000000E+00  0.86117057194E+01  0.87048478102E+01  0.12700000000E+01 0. -1.
          4   -1    0    0  501    0  0.00000000000E+00 -0.00000000000E+00 -0.45108090139E+03  0.45108268921E+03  0.12700000000E+01 0. -1.
         25    2    1    2    0    0  0.00000000000E+00  0.00000000000E+00 -0.44246919567E+03  0.45978753702E+03  0.12500236028E+03 0.  0.
    9000005    1    3    3    0    0  0.44535319060E+01 -0.53438770675E+02 -0.33927437038E+03  0.34348745909E+03  0.10000000000E+01 0.  0.
    9000005    1    3    3    0    0 -0.44535319060E+01  0.53438770675E+02 -0.10319482530E+03  0.11630007793E+03  0.10000000000E+01 0.  0.
<mgrwt>
<rscale>  0 0.12500236E+03</rscale>
<asrwt>0</asrwt>
<pdfrwt beam="2">  1        4 0.69404346E-01 0.12500236E+03</pdfrwt>
<pdfrwt beam="1">  1       -4 0.13321805E-02 0.12500236E+03</pdfrwt>
<totfact> 0.59122117E+03</totfact>
</mgrwt>
</event>
<event>
 5    1  0.3293542E-002  0.1250000E+03  0.7818608E-02  0.1235069E+00
         -4   -1    0    0    0  501 -0.00000000000E+00  0.00000000000E+00  0.17069510018E+03  0.17069982462E+03  0.12700000000E+01 0. -1.
          4   -1    0    0  501    0  0.00000000000E+00 -0.00000000000E+00 -0.22861700002E+02  0.22896947984E+02  0.12700000000E+01 0. -1.
         25    2    1    2    0    0  0.00000000000E+00  0.00000000000E+00  0.14783340018E+03  0.19359677260E+03  0.12499998462E+03 0.  0.
    9000005    1    3    3    0    0  0.19720677219E+02  0.44595246983E+02  0.13383435290E+02  0.50574277095E+02  0.10000000000E+01 0.  0.
    9000005    1    3    3    0    0 -0.19720677219E+02 -0.44595246983E+02  0.13444996488E+03  0.14302249551E+03  0.10000000000E+01 0.  0.
<mgrwt>
<rscale>  0 0.12499998E+03</rscale>
<asrwt>0</asrwt>
<pdfrwt beam="2">  1        4 0.35202592E-02 0.12499998E+03</pdfrwt>
<pdfrwt beam="1">  1       -4 0.26263861E-01 0.12499998E+03</pdfrwt>
<totfact> 0.91225257E+03</totfact>
</mgrwt>
</event>
<event>
 5    1  0.3293542E-002  0.1249687E+03  0.7818608E-02  0.1235118E+00
          4   -1    0    0  501    0  0.00000000000E+00  0.00000000000E+00  0.13566788750E+04  0.13566794694E+04  0.12700000000E+01 0. -1.
         -4   -1    0    0    0  501 -0.00000000000E+00 -0.00000000000E+00 -0.27370946802E+01  0.30173808657E+01  0.12700000000E+01 0. -1.
         25    2    1    2    0    0  0.00000000000E+00  0.00000000000E+00  0.13539417803E+04  0.13596968503E+04  0.12496871691E+03 0.  0.
    9000005    1    3    3    0    0 -0.21036811290E+02  0.25911077158E+02  0.12516075822E+04  0.12520529027E+04  0.10000000000E+01 0.  0.
    9000005    1    3    3    0    0  0.21036811290E+02 -0.25911077158E+02  0.10233419817E+03  0.10764394764E+03  0.10000000000E+01 0.  0.
<mgrwt>
<rscale>  0 0.12496872E+03</rscale>
<asrwt>0</asrwt>
<pdfrwt beam="1">  1        4 0.20874138E+00 0.12496872E+03</pdfrwt>
<pdfrwt beam="2">  1       -4 0.44269779E-03 0.12496872E+03</pdfrwt>
<totfact> 0.20876058E+03</totfact>
</mgrwt>
</event>
<event>
 5    1  0.3293542E-002  0.1249991E+03  0.7818608E-02  0.1235071E+00
         -4   -1    0    0    0  501 -0.00000000000E+00  0.00000000000E+00  0.98937128024E+02  0.98945278824E+02  0.12700000000E+01 0. -1.
          4   -1    0    0  501    0  0.00000000000E+00 -0.00000000000E+00 -0.39461573335E+02  0.39482004383E+02  0.12700000000E+01 0. -1.
         25    2    1    2    0    0  0.00000000000E+00  0.00000000000E+00  0.59475554689E+02  0.13842728321E+03  0.12499908452E+03 0.  0.
    9000005    1    3    3    0    0  0.60534812704E+02 -0.10667859169E+02  0.17261351649E+02  0.63853120747E+02  0.10000000000E+01 0.  0.
    9000005    1    3    3    0    0 -0.60534812704E+02  0.10667859169E+02  0.42214203040E+02  0.74574162460E+02  0.10000000000E+01 0.  0.
<mgrwt>
<rscale>  0 0.12499908E+03</rscale>
<asrwt>0</asrwt>
<pdfrwt beam="2">  1        4 0.60732099E-02 0.12499908E+03</pdfrwt>
<pdfrwt beam="1">  1       -4 0.15223295E-01 0.12499908E+03</pdfrwt>
<totfact> 0.10166495E+04</totfact>
</mgrwt>
</event>
<event>
 5    1  0.3293542E-002  0.1250055E+03  0.7818608E-02  0.1235061E+00
          4   -1    0    0  501    0  0.00000000000E+00  0.00000000000E+00  0.16730316073E+03  0.16730798095E+03  0.12700000000E+01 0. -1.
         -4   -1    0    0    0  501 -0.00000000000E+00 -0.00000000000E+00 -0.23327974390E+02  0.23362518895E+02  0.12700000000E+01 0. -1.
         25    2    1    2    0    0  0.00000000000E+00  0.00000000000E+00  0.14397518634E+03  0.19067049984E+03  0.12500554080E+03 0.  0.
    9000005    1    3    3    0    0  0.51869084837E+02  0.34235002039E+02  0.61967082989E+02  0.87768768366E+02  0.10000000000E+01 0.  0.
    9000005    1    3    3    0    0 -0.51869084837E+02 -0.34235002039E+02  0.82008103348E+02  0.10290173148E+03  0.10000000000E+01 0.  0.
<mgrwt>
<rscale>  0 0.12500554E+03</rscale>
<asrwt>0</asrwt>
<pdfrwt beam="1">  1        4 0.25741975E-01 0.12500554E+03</pdfrwt>
<pdfrwt beam="2">  1       -4 0.35919473E-02 0.12500554E+03</pdfrwt>
<totfact> 0.91719398E+03</totfact>
</mgrwt>
</event>
<event>
 5    1  0.3293542E-002  0.1250012E+03  0.7818608E-02  0.1235067E+00
         -4   -1    0    0    0  501 -0.00000000000E+00  0.00000000000E+00  0.16873128926E+02  0.16920856354E+02  0.12700000000E+01 0. -1.
          4   -1    0    0  501    0  0.00000000000E+00 -0.00000000000E+00 -0.23113502845E+03  0.23113851751E+03  0.12700000000E+01 0. -1.
         25    2    1    2    0    0  0.00000000000E+00  0.00000000000E+00 -0.21426189953E+03  0.24805937387E+03  0.12500116549E+03 0.  0.
    9000005    1    3    3    0    0 -0.31562332177E+02 -0.18654670117E+02 -0.67020532317E+01  0.37283978424E+02  0.10000000000E+01 0.  0.
    9000005    1    3    3    0    0  0.31562332177E+02  0.18654670117E+02 -0.20755984630E+03  0.21077539544E+03  0.10000000000E+01 0.  0.
<mgrwt>
<rscale>  0 0.12500117E+03</rscale>
<asrwt>0</asrwt>
<pdfrwt beam="2">  1        4 0.35563173E-01 0.12500117E+03</pdfrwt>
<pdfrwt beam="1">  1       -4 0.25998059E-02 0.12500117E+03</pdfrwt>
<totfact> 0.82609376E+03</totfact>
</mgrwt>
</event>
<event>
 5    1  0.3293542E-002  0.1250032E+03  0.7818608E-02  0.1235064E+00
          4   -1    0    0  501    0  0.00000000000E+00  0.00000000000E+00  0.27179362343E+01  0.30000128956E+01  0.12700000000E+01 0. -1.
         -4   -1    0    0    0  501 -0.00000000000E+00 -0.00000000000E+00 -0.13660987267E+04  0.13660993170E+04  0.12700000000E+01 0. -1.
         25    2    1    2    0    0  0.00000000000E+00  0.00000000000E+00 -0.13633807905E+04  0.13690993299E+04  0.12500318153E+03 0.  0.
    9000005    1    3    3    0    0 -0.41949445242E+02  0.14605015211E+02 -0.11631511363E+04  0.11639994108E+04  0.10000000000E+01 0.  0.
    9000005    1    3    3    0    0  0.41949445242E+02 -0.14605015211E+02 -0.20022965415E+03  0.20509991913E+03  0.10000000000E+01 0.  0.
<mgrwt>
<rscale>  0 0.12500318E+03</rscale>
<asrwt>0</asrwt>
<pdfrwt beam="1">  1        4 0.43988874E-03 0.12500318E+03</pdfrwt>
<pdfrwt beam="2">  1       -4 0.21019026E+00 0.12500318E+03</pdfrwt>
<totfact> 0.20652504E+03</totfact>
</mgrwt>
</event>
<event>
 5    1  0.3293542E-002  0.1249984E+03  0.7818608E-02  0.1235072E+00
          4   -1    0    0  501    0  0.00000000000E+00  0.00000000000E+00  0.61567000005E+02  0.61580097350E+02  0.12700000000E+01 0.  1.
         -4   -1    0    0    0  501 -0.00000000000E+00 -0.00000000000E+00 -0.63419355590E+02  0.63432070464E+02  0.12700000000E+01 0.  1.
         25    2    1    2    0    0  0.00000000000E+00  0.00000000000E+00 -0.18523555842E+01  0.12501216781E+03  0.12499844351E+03 0.  0.
    9000005    1    3    3    0    0  0.38357735114E+02 -0.23192442507E+01  0.48358619877E+02  0.61775811233E+02  0.10000000000E+01 0.  0.
    9000005    1    3    3    0    0 -0.38357735114E+02  0.23192442507E+01 -0.50210975462E+02  0.63236356582E+02  0.10000000000E+01 0.  0.
<mgrwt>
<rscale>  0 0.12499844E+03</rscale>
<asrwt>0</asrwt>
<pdfrwt beam="1">  1        4 0.94738317E-02 0.12499844E+03</pdfrwt>
<pdfrwt beam="2">  1       -4 0.97588095E-02 0.12499844E+03</pdfrwt>
<totfact> 0.10452966E+04</totfact>
</mgrwt>
</event>
<event>
 5    1  0.3293542E-002  0.1249995E+03  0.7818608E-02  0.1235070E+00
         -4   -1    0    0    0  501 -0.00000000000E+00  0.00000000000E+00  0.86448764682E+01  0.87376649713E+01  0.12700000000E+01 0. -1.
          4   -1    0    0  501    0  0.00000000000E+00 -0.00000000000E+00 -0.44934818770E+03  0.44934998241E+03  0.12700000000E+01 0. -1.
         25    2    1    2    0    0  0.00000000000E+00  0.00000000000E+00 -0.44070331124E+03  0.45808764738E+03  0.12499953660E+03 0.  0.
    9000005    1    3    3    0    0  0.49829192956E+02  0.33243072959E+02 -0.15508570234E+03  0.16625470051E+03  0.10000000000E+01 0.  0.
    9000005    1    3    3    0    0 -0.49829192956E+02 -0.33243072959E+02 -0.28561760890E+03  0.29183294687E+03  0.10000000000E+01 0.  0.
<mgrwt>
<rscale>  0 0.12499954E+03</rscale>
<asrwt>0</asrwt>
<pdfrwt beam="2">  1        4 0.69137748E-01 0.12499954E+03</pdfrwt>
<pdfrwt beam="1">  1       -4 0.13372570E-02 0.12499954E+03</pdfrwt>
<totfact> 0.59270123E+03</totfact>
</mgrwt>
</event>
<event>
 5    1  0.3293542E-002  0.1250025E+03  0.7818608E-02  0.1235065E+00
         -4   -1    0    0    0  501 -0.00000000000E+00  0.00000000000E+00  0.67998121154E+02  0.68009980006E+02  0.12700000000E+01 0. -1.
          4   -1    0    0  501    0  0.00000000000E+00 -0.00000000000E+00 -0.57424877985E+02  0.57438919833E+02  0.12700000000E+01 0. -1.
         25    2    1    2    0    0  0.00000000000E+00  0.00000000000E+00  0.10573243169E+02  0.12544889984E+03  0.12500253197E+03 0.  0.
    9000005    1    3    3    0    0 -0.92547759370E+01 -0.27590365900E+02 -0.50214831591E+02  0.58046606101E+02  0.10000000000E+01 0.  0.
    9000005    1    3    3    0    0  0.92547759370E+01  0.27590365900E+02  0.60788074760E+02  0.67402293738E+02  0.10000000000E+01 0.  0.
<mgrwt>
<rscale>  0 0.12500253E+03</rscale>
<asrwt>0</asrwt>
<pdfrwt beam="2">  1        4 0.88365889E-02 0.12500253E+03</pdfrwt>
<pdfrwt beam="1">  1       -4 0.10463242E-01 0.12500253E+03</pdfrwt>
<totfact> 0.10442488E+04</totfact>
</mgrwt>
</event>
<event>
 5    1  0.3293542E-002  0.1250002E+03  0.7818608E-02  0.1235069E+00
         -4   -1    0    0    0  501 -0.00000000000E+00  0.00000000000E+00  0.59192691680E+02  0.59206314261E+02  0.12700000000E+01 0.  1.
          4   -1    0    0  501    0  0.00000000000E+00 -0.00000000000E+00 -0.65964946499E+02  0.65977170799E+02  0.12700000000E+01 0.  1.
         25    2    1    2    0    0  0.00000000000E+00  0.00000000000E+00 -0.67722548187E+01  0.12518348506E+03  0.12500016599E+03 0.  0.
    9000005    1    3    3    0    0  0.89463070655E+01  0.15611365944E+01  0.58533236762E+02  0.59241989867E+02  0.10000000000E+01 0.  0.
    9000005    1    3    3    0    0 -0.89463070655E+01 -0.15611365944E+01 -0.65305491581E+02  0.65941495192E+02  0.10000000000E+01 0.  0.
<mgrwt>
<rscale>  0 0.12500017E+03</rscale>
<asrwt>0</asrwt>
<pdfrwt beam="2">  1        4 0.10150442E-01 0.12500017E+03</pdfrwt>
<pdfrwt beam="1">  1       -4 0.91085561E-02 0.12500017E+03</pdfrwt>
<totfact> 0.10448839E+04</totfact>
</mgrwt>
</event>
<event>
 5    1  0.3293542E-002  0.1250049E+03  0.7818608E-02  0.1235062E+00
         -4   -1    0    0    0  501 -0.00000000000E+00  0.00000000000E+00  0.67163789782E+02  0.67175795923E+02  0.12700000000E+01 0. -1.
          4   -1    0    0  501    0  0.00000000000E+00 -0.00000000000E+00 -0.58140505452E+02  0.58154374506E+02  0.12700000000E+01 0. -1.
         25    2    1    2    0    0  0.00000000000E+00  0.00000000000E+00  0.90232843299E+01  0.12533017043E+03  0.12500492774E+03 0.  0.
    9000005    1    3    3    0    0 -0.50890682074E+02 -0.12482653371E+02  0.38657261587E+02  0.65123436876E+02  0.10000000000E+01 0.  0.
    9000005    1    3    3    0    0  0.50890682074E+02  0.12482653371E+02 -0.29633977257E+02  0.60206733553E+02  0.10000000000E+01 0.  0.
<mgrwt>
<rscale>  0 0.12500493E+03</rscale>
<asrwt>0</asrwt>
<pdfrwt beam="2">  1        4 0.89466835E-02 0.12500493E+03</pdfrwt>
<pdfrwt beam="1">  1       -4 0.10334881E-01 0.12500493E+03</pdfrwt>
<totfact> 0.10444532E+04</totfact>
</mgrwt>
</event>
<event>
 5    1  0.3293542E-002  0.1249984E+03  0.7818608E-02  0.1235072E+00
         -4   -1    0    0    0  501 -0.00000000000E+00  0.00000000000E+00  0.44721100604E+02  0.44739129844E+02  0.12700000000E+01 0. -1.
          4   -1    0    0  501    0  0.00000000000E+00 -0.00000000000E+00 -0.87304375277E+02  0.87313612012E+02  0.12700000000E+01 0. -1.
         25    2    1    2    0    0  0.00000000000E+00  0.00000000000E+00 -0.42583274673E+02  0.13205274186E+03  0.12499836539E+03 0.  0.
    9000005    1    3    3    0    0  0.47162608378E+02  0.40711189432E+02 -0.16177433786E+02  0.64377184917E+02  0.10000000000E+01 0.  0.
    9000005    1    3    3    0    0 -0.47162608378E+02 -0.40711189432E+02 -0.26405840887E+02  0.67675556939E+02  0.10000000000E+01 0.  0.
<mgrwt>
<rscale>  0 0.12499837E+03</rscale>
<asrwt>0</asrwt>
<pdfrwt beam="2">  1        4 0.13433540E-01 0.12499837E+03</pdfrwt>
<pdfrwt beam="1">  1       -4 0.68822667E-02 0.12499837E+03</pdfrwt>
<totfact> 0.10300953E+04</totfact>
</mgrwt>
</event>
<event>
 5    1  0.3293542E-002  0.1250036E+03  0.7818608E-02  0.1235064E+00
         -4   -1    0    0    0  501 -0.00000000000E+00  0.00000000000E+00  0.92921052478E+02  0.92929730946E+02  0.12700000000E+01 0.  1.
          4   -1    0    0  501    0  0.00000000000E+00 -0.00000000000E+00 -0.42020537529E+02  0.42039724955E+02  0.12700000000E+01 0.  1.
         25    2    1    2    0    0  0.00000000000E+00  0.00000000000E+00  0.50900514949E+02  0.13496945590E+03  0.12500356637E+03 0.  0.
    9000005    1    3    3    0    0  0.25742880025E+02  0.30277104123E+02 -0.26624212281E+02  0.47846082239E+02  0.10000000000E+01 0.  0.
    9000005    1    3    3    0    0 -0.25742880025E+02 -0.30277104123E+02  0.77524727230E+02  0.87123373661E+02  0.10000000000E+01 0.  0.
<mgrwt>
<rscale>  0 0.12500357E+03</rscale>
<asrwt>0</asrwt>
<pdfrwt beam="2">  1        4 0.64668417E-02 0.12500357E+03</pdfrwt>
<pdfrwt beam="1">  1       -4 0.14297690E-01 0.12500357E+03</pdfrwt>
<totfact> 0.10237891E+04</totfact>
</mgrwt>
</event>
<event>
 5    1  0.3293542E-002  0.1249996E+03  0.7818608E-02  0.1235070E+00
          4   -1    0    0  501    0  0.00000000000E+00  0.00000000000E+00  0.24317732040E+03  0.24318063668E+03  0.12700000000E+01 0.  1.
         -4   -1    0    0    0  501 -0.00000000000E+00 -0.00000000000E+00 -0.16034734459E+02  0.16084949773E+02  0.12700000000E+01 0.  1.
         25    2    1    2    0    0  0.00000000000E+00  0.00000000000E+00  0.22714258594E+03  0.25926558645E+03  0.12499955989E+03 0.  0.
    9000005    1    3    3    0    0 -0.26768076707E+02 -0.23223420440E+02  0.22033098520E+03  0.22316496191E+03  0.10000000000E+01 0.  0.
    9000005    1    3    3    0    0  0.26768076707E+02  0.23223420440E+02  0.68116007422E+01  0.36100624540E+02  0.10000000000E+01 0.  0.
<mgrwt>
<rscale>  0 0.12499956E+03</rscale>
<asrwt>0</asrwt>
<pdfrwt beam="1">  1        4 0.37416010E-01 0.12499956E+03</pdfrwt>
<pdfrwt beam="2">  1       -4 0.24710002E-02 0.12499956E+03</pdfrwt>
<totfact> 0.81010031E+03</totfact>
</mgrwt>
</event>
<event>
 5    1  0.3293542E-002  0.1250015E+03  0.7818608E-02  0.1235067E+00
         -4   -1    0    0    0  501 -0.00000000000E+00  0.00000000000E+00  0.10081804568E+04  0.10081812567E+04  0.12700000000E+01 0.  1.
          4   -1    0    0  501    0  0.00000000000E+00 -0.00000000000E+00 -0.37697537423E+01  0.39779320353E+01  0.12700000000E+01 0.  1.
         25    2    1    2    0    0  0.00000000000E+00  0.00000000000E+00  0.10044107031E+04  0.10121591888E+04  0.12500145174E+03 0.  0.
    9000005    1    3    3    0    0  0.26812701699E+02 -0.48218465604E+02  0.26455632931E+03  0.27024987100E+03  0.10000000000E+01 0.  0.
    9000005    1    3    3    0    0 -0.26812701699E+02  0.48218465604E+02  0.73985437376E+03  0.74190931775E+03  0.10000000000E+01 0.  0.
<mgrwt>
<rscale>  0 0.12500145E+03</rscale>
<asrwt>0</asrwt>
<pdfrwt beam="2">  1        4 0.59603683E-03 0.12500145E+03</pdfrwt>
<pdfrwt beam="1">  1       -4 0.15512090E+00 0.12500145E+03</pdfrwt>
<totfact> 0.30205308E+03</totfact>
</mgrwt>
</event>
<event>
 5    1  0.3293542E-002  0.1249995E+03  0.7818608E-02  0.1235070E+00
         -4   -1    0    0    0  501 -0.00000000000E+00  0.00000000000E+00  0.12318964944E+02  0.12384256025E+02  0.12700000000E+01 0.  1.
          4   -1    0    0  501    0  0.00000000000E+00 -0.00000000000E+00 -0.31618540903E+03  0.31618795958E+03  0.12700000000E+01 0.  1.
         25    2    1    2    0    0  0.00000000000E+00  0.00000000000E+00 -0.30386644409E+03  0.32857221561E+03  0.12499954010E+03 0.  0.
    9000005    1    3    3    0    0 -0.45859344974E+02 -0.14163751371E+02 -0.25712697373E+03  0.26157020471E+03  0.10000000000E+01 0.  0.
    9000005    1    3    3    0    0  0.45859344974E+02  0.14163751371E+02 -0.46739470358E+02  0.67002010893E+02  0.10000000000E+01 0.  0.
<mgrwt>
<rscale>  0 0.12499954E+03</rscale>
<asrwt>0</asrwt>
<pdfrwt beam="2">  1        4 0.48649122E-01 0.12499954E+03</pdfrwt>
<pdfrwt beam="1">  1       -4 0.19004442E-02 0.12499954E+03</pdfrwt>
<totfact> 0.72148779E+03</totfact>
</mgrwt>
</event>
<event>
 5    1  0.3293542E-002  0.1250030E+03  0.7818608E-02  0.1235065E+00
         -4   -1    0    0    0  501 -0.00000000000E+00  0.00000000000E+00  0.35276019638E+02  0.35298873374E+02  0.12700000000E+01 0.  1.
          4   -1    0    0  501    0  0.00000000000E+00 -0.00000000000E+00 -0.11067680101E+03  0.11068408731E+03  0.12700000000E+01 0.  1.
         25    2    1    2    0    0  0.00000000000E+00  0.00000000000E+00 -0.75400781376E+02  0.14598296068E+03  0.12500298787E+03 0.  0.
    9000005    1    3    3    0    0 -0.49764864330E+02 -0.33706103817E+02 -0.57683476542E+02  0.83312823876E+02  0.10000000000E+01 0.  0.
    9000005    1    3    3    0    0  0.49764864330E+02  0.33706103817E+02 -0.17717304834E+02  0.62670136803E+02  0.10000000000E+01 0.  0.
<mgrwt>
<rscale>  0 0.12500299E+03</rscale>
<asrwt>0</asrwt>
<pdfrwt beam="2">  1        4 0.17029518E-01 0.12500299E+03</pdfrwt>
<pdfrwt beam="1">  1       -4 0.54293985E-02 0.12500299E+03</pdfrwt>
<totfact> 0.10010382E+04</totfact>
</mgrwt>
</event>
<event>
 5    1  0.3293542E-002  0.1250033E+03  0.7818608E-02  0.1235064E+00
         -4   -1    0    0    0  501 -0.00000000000E+00  0.00000000000E+00  0.19070717752E+03  0.19071140621E+03  0.12700000000E+01 0. -1.
          4   -1    0    0  501    0  0.00000000000E+00 -0.00000000000E+00 -0.20459921330E+02  0.20499299520E+02  0.12700000000E+01 0. -1.
         25    2    1    2    0    0  0.00000000000E+00  0.00000000000E+00  0.17024725619E+03  0.21121070573E+03  0.12500333585E+03 0.  0.
    9000005    1    3    3    0    0 -0.36730528321E+02 -0.16388648406E+02  0.43075889541E+01  0.40463252834E+02  0.10000000000E+01 0.  0.
    9000005    1    3    3    0    0  0.36730528321E+02  0.16388648406E+02  0.16593966724E+03  0.17074745289E+03  0.10000000000E+01 0.  0.
<mgrwt>
<rscale>  0 0.12500334E+03</rscale>
<asrwt>0</asrwt>
<pdfrwt beam="2">  1        4 0.31510348E-02 0.12500334E+03</pdfrwt>
<pdfrwt beam="1">  1       -4 0.29342918E-01 0.12500334E+03</pdfrwt>
<totfact> 0.88271957E+03</totfact>
</mgrwt>
</event>
<event>
 5    1  0.3293542E-002  0.1250099E+03  0.7818608E-02  0.1235054E+00
          4   -1    0    0  501    0  0.00000000000E+00  0.00000000000E+00  0.68482678097E+01  0.69650320885E+01  0.12700000000E+01 0. -1.
         -4   -1    0    0    0  501 -0.00000000000E+00 -0.00000000000E+00 -0.56555029354E+03  0.56555171949E+03  0.12700000000E+01 0. -1.
         25    2    1    2    0    0  0.00000000000E+00  0.00000000000E+00 -0.55870202573E+03  0.57251675158E+03  0.12500990876E+03 0.  0.
    9000005    1    3    3    0    0  0.33852558510E+02 -0.40228497817E+02 -0.12461563299E+03  0.13525673270E+03  0.10000000000E+01 0.  0.
    9000005    1    3    3    0    0 -0.33852558510E+02  0.40228497817E+02 -0.43408639274E+03  0.43726001888E+03  0.10000000000E+01 0.  0.
<mgrwt>
<rscale>  0 0.12500991E+03</rscale>
<asrwt>0</asrwt>
<pdfrwt beam="1">  1        4 0.10626717E-02 0.12500991E+03</pdfrwt>
<pdfrwt beam="2">  1       -4 0.87016793E-01 0.12500991E+03</pdfrwt>
<totfact> 0.50638699E+03</totfact>
</mgrwt>
</event>
<event>
 5    1  0.3293542E-002  0.1250001E+03  0.7818608E-02  0.1235069E+00
          4   -1    0    0  501    0  0.00000000000E+00  0.00000000000E+00  0.14730592701E+02  0.14785237953E+02  0.12700000000E+01 0.  1.
         -4   -1    0    0    0  501 -0.00000000000E+00 -0.00000000000E+00 -0.26463279161E+03  0.26463583902E+03  0.12700000000E+01 0.  1.
         25    2    1    2    0    0  0.00000000000E+00  0.00000000000E+00 -0.24990219891E+03  0.27942107697E+03  0.12500011695E+03 0.  0.
    9000005    1    3    3    0    0 -0.34630455301E+02 -0.51521764678E+02 -0.14099234877E+03  0.15405714226E+03  0.10000000000E+01 0.  0.
    9000005    1    3    3    0    0  0.34630455301E+02  0.51521764678E+02 -0.10890985014E+03  0.12536393472E+03  0.10000000000E+01 0.  0.
<mgrwt>
<rscale>  0 0.12500012E+03</rscale>
<asrwt>0</asrwt>
<pdfrwt beam="1">  1        4 0.22706831E-02 0.12500012E+03</pdfrwt>
<pdfrwt beam="2">  1       -4 0.40717172E-01 0.12500012E+03</pdfrwt>
<totfact> 0.78254727E+03</totfact>
</mgrwt>
</event>
<event>
 5    1  0.3293542E-002  0.1249970E+03  0.7818608E-02  0.1235074E+00
         -4   -1    0    0    0  501 -0.00000000000E+00  0.00000000000E+00  0.13006764601E+03  0.13007384610E+03  0.12700000000E+01 0.  1.
          4   -1    0    0  501    0  0.00000000000E+00 -0.00000000000E+00 -0.30010673230E+02  0.30037533316E+02  0.12700000000E+01 0.  1.
         25    2    1    2    0    0  0.00000000000E+00  0.00000000000E+00  0.10005697278E+03  0.16011137942E+03  0.12499702403E+03 0.  0.
    9000005    1    3    3    0    0  0.30032180133E+02 -0.32144205541E+01  0.12010320280E+03  0.12384685569E+03  0.10000000000E+01 0.  0.
    9000005    1    3    3    0    0 -0.30032180133E+02  0.32144205541E+01 -0.20046230014E+02  0.36264523722E+02  0.10000000000E+01 0.  0.
<mgrwt>
<rscale>  0 0.12499702E+03</rscale>
<asrwt>0</asrwt>
<pdfrwt beam="2">  1        4 0.46195698E-02 0.12499702E+03</pdfrwt>
<pdfrwt beam="1">  1       -4 0.20012950E-01 0.12499702E+03</pdfrwt>
<totfact> 0.97327826E+03</totfact>
</mgrwt>
</event>
<event>
 5    1  0.3293542E-002  0.1249980E+03  0.7818608E-02  0.1235072E+00
         -4   -1    0    0    0  501 -0.00000000000E+00  0.00000000000E+00  0.79324187618E+01  0.80334405713E+01  0.12700000000E+01 0.  1.
          4   -1    0    0  501    0  0.00000000000E+00 -0.00000000000E+00 -0.48920748046E+03  0.48920912894E+03  0.12700000000E+01 0.  1.
         25    2    1    2    0    0  0.00000000000E+00  0.00000000000E+00 -0.48127506170E+03  0.49724256951E+03  0.12499795167E+03 0.  0.
    9000005    1    3    3    0    0 -0.24943157472E+02 -0.56575726489E+02 -0.20458265291E+03  0.21372420500E+03  0.10000000000E+01 0.  0.
    9000005    1    3    3    0    0  0.24943157472E+02  0.56575726489E+02 -0.27669240879E+03  0.28351836451E+03  0.10000000000E+01 0.  0.
<mgrwt>
<rscale>  0 0.12499795E+03</rscale>
<asrwt>0</asrwt>
<pdfrwt beam="2">  1        4 0.75270564E-01 0.12499795E+03</pdfrwt>
<pdfrwt beam="1">  1       -4 0.12282702E-02 0.12499795E+03</pdfrwt>
<totfact> 0.56081482E+03</totfact>
</mgrwt>
</event>
<event>
 5    1  0.3293542E-002  0.1249947E+03  0.7818608E-02  0.1235078E+00
         -4   -1    0    0    0  501 -0.00000000000E+00  0.00000000000E+00  0.24668337508E+02  0.24701007579E+02  0.12700000000E+01 0. -1.
          4   -1    0    0  501    0  0.00000000000E+00 -0.00000000000E+00 -0.15819738844E+03  0.15820248610E+03  0.12700000000E+01 0. -1.
         25    2    1    2    0    0  0.00000000000E+00  0.00000000000E+00 -0.13352905093E+03  0.18290349368E+03  0.12499472212E+03 0.  0.
    9000005    1    3    3    0    0 -0.23923156528E+00  0.60307951752E+02 -0.42817760435E+02  0.73969364502E+02  0.10000000000E+01 0.  0.
    9000005    1    3    3    0    0  0.23923156528E+00 -0.60307951752E+02 -0.90711290493E+02  0.10893412917E+03  0.10000000000E+01 0.  0.
<mgrwt>
<rscale>  0 0.12499472E+03</rscale>
<asrwt>0</asrwt>
<pdfrwt beam="2">  1        4 0.24340964E-01 0.12499472E+03</pdfrwt>
<pdfrwt beam="1">  1       -4 0.37980341E-02 0.12499472E+03</pdfrwt>
<totfact> 0.93107975E+03</totfact>
</mgrwt>
</event>
<event>
 5    1  0.3293542E-002  0.1249953E+03  0.7818608E-02  0.1235077E+00
          4   -1    0    0  501    0  0.00000000000E+00  0.00000000000E+00  0.11466921106E+03  0.11467624368E+03  0.12700000000E+01 0. -1.
         -4   -1    0    0    0  501 -0.00000000000E+00 -0.00000000000E+00 -0.34042920102E+02  0.34066601079E+02  0.12700000000E+01 0. -1.
         25    2    1    2    0    0  0.00000000000E+00  0.00000000000E+00  0.80626290956E+02  0.14874284476E+03  0.12499534021E+03 0.  0.
    9000005    1    3    3    0    0  0.50422582168E+02  0.31332045605E+02  0.63535429123E+02  0.86959097443E+02  0.10000000000E+01 0.  0.
    9000005    1    3    3    0    0 -0.50422582168E+02 -0.31332045605E+02  0.17090861834E+02  0.61783747317E+02  0.10000000000E+01 0.  0.
<mgrwt>
<rscale>  0 0.12499534E+03</rscale>
<asrwt>0</asrwt>
<pdfrwt beam="1">  1        4 0.17643780E-01 0.12499534E+03</pdfrwt>
<pdfrwt beam="2">  1       -4 0.52397348E-02 0.12499534E+03</pdfrwt>
<totfact> 0.99565327E+03</totfact>
</mgrwt>
</event>
<event>
 5    1  0.3293542E-002  0.1250143E+03  0.7818608E-02  0.1235047E+00
         -4   -1    0    0    0  501 -0.00000000000E+00  0.00000000000E+00  0.50642319565E+01  0.52210482960E+01  0.12700000000E+01 0. -1.
          4   -1    0    0  501    0  0.00000000000E+00 -0.00000000000E+00 -0.75959668565E+03  0.75959774733E+03  0.12700000000E+01 0. -1.
         25    2    1    2    0    0  0.00000000000E+00  0.00000000000E+00 -0.75453245370E+03  0.76481879563E+03  0.12501426506E+03 0.  0.
    9000005    1    3    3    0    0 -0.49451405807E+02 -0.13814872798E+02 -0.15925689485E+03  0.16733215711E+03  0.10000000000E+01 0.  0.
    9000005    1    3    3    0    0  0.49451405807E+02  0.13814872798E+02 -0.59527555885E+03  0.59748663852E+03  0.10000000000E+01 0.  0.
<mgrwt>
<rscale>  0 0.12501427E+03</rscale>
<asrwt>0</asrwt>
<pdfrwt beam="2">  1        4 0.11687308E+00 0.12501427E+03</pdfrwt>
<pdfrwt beam="1">  1       -4 0.79125768E-03 0.12501427E+03</pdfrwt>
<totfact> 0.39862781E+03</totfact>
</mgrwt>
</event>
<event>
 5    1  0.3293542E-002  0.1249994E+03  0.7818608E-02  0.1235070E+00
          4   -1    0    0  501    0  0.00000000000E+00  0.00000000000E+00  0.45699821581E+01  0.47431673937E+01  0.12700000000E+01 0. -1.
         -4   -1    0    0    0  501 -0.00000000000E+00 -0.00000000000E+00 -0.83868587324E+03  0.83868683480E+03  0.12700000000E+01 0. -1.
         25    2    1    2    0    0  0.00000000000E+00  0.00000000000E+00 -0.83411589108E+03  0.84343000219E+03  0.12499939540E+03 0.  0.
    9000005    1    3    3    0    0 -0.77321969135E+01  0.60786368709E+02 -0.33429675577E+03  0.33986775429E+03  0.10000000000E+01 0.  0.
    9000005    1    3    3    0    0  0.77321969135E+01 -0.60786368709E+02 -0.49981913531E+03  0.50356224790E+03  0.10000000000E+01 0.  0.
<mgrwt>
<rscale>  0 0.12499940E+03</rscale>
<asrwt>0</asrwt>
<pdfrwt beam="1">  1        4 0.71647075E-03 0.12499940E+03</pdfrwt>
<pdfrwt beam="2">  1       -4 0.12904187E+00 0.12499940E+03</pdfrwt>
<totfact> 0.36398204E+03</totfact>
</mgrwt>
</event>
<event>
 5    1  0.3293542E-002  0.1250003E+03  0.7818608E-02  0.1235069E+00
          4   -1    0    0  501    0  0.00000000000E+00  0.00000000000E+00  0.29819226149E+03  0.29819496594E+03  0.12700000000E+01 0.  1.
         -4   -1    0    0    0  501 -0.00000000000E+00 -0.00000000000E+00 -0.13066270977E+02  0.13127845872E+02  0.12700000000E+01 0.  1.
         25    2    1    2    0    0  0.00000000000E+00  0.00000000000E+00  0.28512599051E+03  0.31132281181E+03  0.12500025076E+03 0.  0.
    9000005    1    3    3    0    0  0.53433877013E+02 -0.24824490959E+02  0.90687721067E+02  0.10815127053E+03  0.10000000000E+01 0.  0.
    9000005    1    3    3    0    0 -0.53433877013E+02  0.24824490959E+02  0.19443826945E+03  0.20317154129E+03  0.10000000000E+01 0.  0.
<mgrwt>
<rscale>  0 0.12500025E+03</rscale>
<asrwt>0</asrwt>
<pdfrwt beam="1">  1        4 0.45880680E-01 0.12500025E+03</pdfrwt>
<pdfrwt beam="2">  1       -4 0.20151400E-02 0.12500025E+03</pdfrwt>
<totfact> 0.74199711E+03</totfact>
</mgrwt>
</event>
<event>
 5    1  0.3293542E-002  0.1250158E+03  0.7818608E-02  0.1235045E+00
         -4   -1    0    0    0  501 -0.00000000000E+00  0.00000000000E+00  0.29080616873E+02  0.29108335193E+02  0.12700000000E+01 0.  1.
          4   -1    0    0  501    0  0.00000000000E+00 -0.00000000000E+00 -0.13426416246E+03  0.13427016877E+03  0.12700000000E+01 0.  1.
         25    2    1    2    0    0  0.00000000000E+00  0.00000000000E+00 -0.10518354559E+03  0.16337850396E+03  0.12501582818E+03 0.  0.
    9000005    1    3    3    0    0 -0.45008115800E+02  0.35074687504E+02 -0.19266133776E+02  0.60234110785E+02  0.10000000000E+01 0.  0.
    9000005    1    3    3    0    0  0.45008115800E+02 -0.35074687504E+02 -0.85917411811E+02  0.10314439318E+03  0.10000000000E+01 0.  0.
<mgrwt>
<rscale>  0 0.12501583E+03</rscale>
<asrwt>0</asrwt>
<pdfrwt beam="2">  1        4 0.20658619E-01 0.12501583E+03</pdfrwt>
<pdfrwt beam="1">  1       -4 0.44765353E-02 0.12501583E+03</pdfrwt>
<totfact> 0.96660981E+03</totfact>
</mgrwt>
</event>
<event>
 5    1  0.3293542E-002  0.1250059E+03  0.7818608E-02  0.1235060E+00
          4   -1    0    0  501    0  0.00000000000E+00  0.00000000000E+00  0.15751637036E+02  0.15802751954E+02  0.12700000000E+01 0. -1.
         -4   -1    0    0    0  501 -0.00000000000E+00 -0.00000000000E+00 -0.24755889115E+03  0.24756214874E+03  0.12700000000E+01 0. -1.
         25    2    1    2    0    0  0.00000000000E+00  0.00000000000E+00 -0.23180725411E+03  0.26336490069E+03  0.12500587129E+03 0.  0.
    9000005    1    3    3    0    0  0.38261593779E+02  0.43955214472E+02 -0.68343284491E+02  0.89821016321E+02  0.10000000000E+01 0.  0.
    9000005    1    3    3    0    0 -0.38261593779E+02 -0.43955214472E+02 -0.16346396962E+03  0.17354388437E+03  0.10000000000E+01 0.  0.
<mgrwt>
<rscale>  0 0.12500587E+03</rscale>
<asrwt>0</asrwt>
<pdfrwt beam="1">  1        4 0.24275115E-02 0.12500587E+03</pdfrwt>
<pdfrwt beam="2">  1       -4 0.38090163E-01 0.12500587E+03</pdfrwt>
<totfact> 0.80425644E+03</totfact>
</mgrwt>
</event>
<event>
 5    1  0.3293542E-002  0.1250019E+03  0.7818608E-02  0.1235066E+00
          4   -1    0    0  501    0  0.00000000000E+00  0.00000000000E+00  0.93870621228E+02  0.93879211915E+02  0.12700000000E+01 0.  1.
         -4   -1    0    0    0  501 -0.00000000000E+00 -0.00000000000E+00 -0.41594230814E+02  0.41613614803E+02  0.12700000000E+01 0.  1.
         25    2    1    2    0    0  0.00000000000E+00  0.00000000000E+00  0.52276390415E+02  0.13549282672E+03  0.12500194037E+03 0.  0.
    9000005    1    3    3    0    0 -0.13659038690E+02 -0.59653137854E+02  0.12414432755E+02  0.62451455823E+02  0.10000000000E+01 0.  0.
    9000005    1    3    3    0    0  0.13659038690E+02  0.59653137854E+02  0.39861957659E+02  0.73041370895E+02  0.10000000000E+01 0.  0.
<mgrwt>
<rscale>  0 0.12500194E+03</rscale>
<asrwt>0</asrwt>
<pdfrwt beam="1">  1        4 0.14443786E-01 0.12500194E+03</pdfrwt>
<pdfrwt beam="2">  1       -4 0.64012643E-02 0.12500194E+03</pdfrwt>
<totfact> 0.10227246E+04</totfact>
</mgrwt>
</event>
<event>
 5    1  0.3293542E-002  0.1249916E+03  0.7818608E-02  0.1235082E+00
          4   -1    0    0  501    0  0.00000000000E+00  0.00000000000E+00  0.64911570630E+01  0.66142286033E+01  0.12700000000E+01 0. -1.
         -4   -1    0    0    0  501 -0.00000000000E+00 -0.00000000000E+00 -0.59592530755E+03  0.59592666082E+03  0.12700000000E+01 0. -1.
         25    2    1    2    0    0  0.00000000000E+00  0.00000000000E+00 -0.58943415049E+03  0.60254088943E+03  0.12499162240E+03 0.  0.
    9000005    1    3    3    0    0  0.32890680332E+02  0.29882076813E+02 -0.50649625722E+03  0.50844291120E+03  0.10000000000E+01 0.  0.
    9000005    1    3    3    0    0 -0.32890680332E+02 -0.29882076813E+02 -0.82937893267E+02  0.94097978229E+02  0.10000000000E+01 0.  0.
<mgrwt>
<rscale>  0 0.12499162E+03</rscale>
<asrwt>0</asrwt>
<pdfrwt beam="1">  1        4 0.10082112E-02 0.12499162E+03</pdfrwt>
<pdfrwt beam="2">  1       -4 0.91690345E-01 0.12499162E+03</pdfrwt>
<totfact> 0.48716579E+03</totfact>
</mgrwt>
</event>
<event>
 5    1  0.3293542E-002  0.1249968E+03  0.7818608E-02  0.1235074E+00
         -4   -1    0    0    0  501 -0.00000000000E+00  0.00000000000E+00  0.10366824681E+03  0.10367602566E+03  0.12700000000E+01 0. -1.
          4   -1    0    0  501    0  0.00000000000E+00 -0.00000000000E+00 -0.37658444140E+02  0.37679852907E+02  0.12700000000E+01 0. -1.
         25    2    1    2    0    0  0.00000000000E+00  0.00000000000E+00  0.66009802670E+02  0.14135587857E+03  0.12499676139E+03 0.  0.
    9000005    1    3    3    0    0 -0.47204977954E+02 -0.37164628227E+02  0.52445716479E+02  0.79756333365E+02  0.10000000000E+01 0.  0.
    9000005    1    3    3    0    0  0.47204977954E+02  0.37164628227E+02  0.13564086191E+02  0.61599545202E+02  0.10000000000E+01 0.  0.
<mgrwt>
<rscale>  0 0.12499676E+03</rscale>
<asrwt>0</asrwt>
<pdfrwt beam="2">  1        4 0.57958520E-02 0.12499676E+03</pdfrwt>
<pdfrwt beam="1">  1       -4 0.15951206E-01 0.12499676E+03</pdfrwt>
<totfact> 0.10106299E+04</totfact>
</mgrwt>
</event>
<event>
 5    1  0.3293542E-002  0.1249993E+03  0.7818608E-02  0.1235070E+00
         -4   -1    0    0    0  501 -0.00000000000E+00  0.00000000000E+00  0.21398894223E+03  0.21399271085E+03  0.12700000000E+01 0.  1.
          4   -1    0    0  501    0  0.00000000000E+00 -0.00000000000E+00 -0.18228220032E+02  0.18272408312E+02  0.12700000000E+01 0.  1.
         25    2    1    2    0    0  0.00000000000E+00  0.00000000000E+00  0.19576072220E+03  0.23226511916E+03  0.12499930089E+03 0.  0.
    9000005    1    3    3    0    0 -0.19315605769E+02 -0.85782246297E+01 -0.11394947465E+02  0.24031716371E+02  0.10000000000E+01 0.  0.
    9000005    1    3    3    0    0  0.19315605769E+02  0.85782246297E+01  0.20715566966E+03  0.20823340279E+03  0.10000000000E+01 0.  0.
<mgrwt>
<rscale>  0 0.12499930E+03</rscale>
<asrwt>0</asrwt>
<pdfrwt beam="2">  1        4 0.28080306E-02 0.12499930E+03</pdfrwt>
<pdfrwt beam="1">  1       -4 0.32925064E-01 0.12499930E+03</pdfrwt>
<totfact> 0.84964320E+03</totfact>
</mgrwt>
</event>
<event>
 5    1  0.3293542E-002  0.1249960E+03  0.7818608E-02  0.1235076E+00
         -4   -1    0    0    0  501 -0.00000000000E+00  0.00000000000E+00  0.76465130703E+01  0.77512619704E+01  0.12700000000E+01 0.  1.
          4   -1    0    0  501    0  0.00000000000E+00 -0.00000000000E+00 -0.50724011229E+03  0.50724170216E+03  0.12700000000E+01 0.  1.
         25    2    1    2    0    0  0.00000000000E+00  0.00000000000E+00 -0.49959359922E+03  0.51499296413E+03  0.12499595485E+03 0.  0.
    9000005    1    3    3    0    0 -0.11578926939E+02 -0.20716709875E+01 -0.50265790816E+03  0.50279651551E+03  0.10000000000E+01 0.  0.
    9000005    1    3    3    0    0  0.11578926939E+02  0.20716709875E+01  0.30643089450E+01  0.12196448625E+02  0.10000000000E+01 0.  0.
<mgrwt>
<rscale>  0 0.12499595E+03</rscale>
<asrwt>0</asrwt>
<pdfrwt beam="2">  1        4 0.78045094E-01 0.12499595E+03</pdfrwt>
<pdfrwt beam="1">  1       -4 0.11845669E-02 0.12499595E+03</pdfrwt>
<totfact> 0.54724453E+03</totfact>
</mgrwt>
</event>
<event>
 5    1  0.3293542E-002  0.1250021E+03  0.7818608E-02  0.1235066E+00
          4   -1    0    0  501    0  0.00000000000E+00  0.00000000000E+00  0.15476222301E+03  0.15476743382E+03  0.12700000000E+01 0.  1.
         -4   -1    0    0    0  501 -0.00000000000E+00 -0.00000000000E+00 -0.25219581175E+02  0.25251538064E+02  0.12700000000E+01 0.  1.
         25    2    1    2    0    0  0.00000000000E+00  0.00000000000E+00  0.12954264184E+03  0.18001897189E+03  0.12500213672E+03 0.  0.
    9000005    1    3    3    0    0  0.32431900491E+02 -0.50396264886E+02  0.39261474851E+02  0.71652460470E+02  0.10000000000E+01 0.  0.
    9000005    1    3    3    0    0 -0.32431900491E+02  0.50396264886E+02  0.90281166989E+02  0.10836651142E+03  0.10000000000E+01 0.  0.
<mgrwt>
<rscale>  0 0.12500214E+03</rscale>
<asrwt>0</asrwt>
<pdfrwt beam="1">  1        4 0.23812432E-01 0.12500214E+03</pdfrwt>
<pdfrwt beam="2">  1       -4 0.38827946E-02 0.12500214E+03</pdfrwt>
<totfact> 0.93609103E+03</totfact>
</mgrwt>
</event>
<event>
 5    1  0.3293542E-002  0.1250182E+03  0.7818608E-02  0.1235041E+00
         -4   -1    0    0    0  501 -0.00000000000E+00  0.00000000000E+00  0.38848695570E+03  0.38848903157E+03  0.12700000000E+01 0.  1.
          4   -1    0    0  501    0  0.00000000000E+00 -0.00000000000E+00 -0.10015763437E+02  0.10095960441E+02  0.12700000000E+01 0.  1.
         25    2    1    2    0    0  0.00000000000E+00  0.00000000000E+00  0.37847119226E+03  0.39858499201E+03  0.12501820860E+03 0.  0.
    9000005    1    3    3    0    0 -0.13755712438E+02  0.53897798316E+02  0.98374483854E+02  0.11301650924E+03  0.10000000000E+01 0.  0.
    9000005    1    3    3    0    0  0.13755712438E+02 -0.53897798316E+02  0.28009670841E+03  0.28556848276E+03  0.10000000000E+01 0.  0.
<mgrwt>
<rscale>  0 0.12501821E+03</rscale>
<asrwt>0</asrwt>
<pdfrwt beam="2">  1        4 0.15472154E-02 0.12501821E+03</pdfrwt>
<pdfrwt beam="1">  1       -4 0.59773553E-01 0.12501821E+03</pdfrwt>
<totfact> 0.64664643E+03</totfact>
</mgrwt>
</event>
<event>
 5    1  0.3293542E-002  0.1249991E+03  0.7818608E-02  0.1235071E+00
          4   -1    0    0  501    0  0.00000000000E+00  0.00000000000E+00  0.70526839545E+02  0.70538273272E+02  0.12700000000E+01 0.  1.
         -4   -1    0    0    0  501 -0.00000000000E+00 -0.00000000000E+00 -0.55362675781E+02  0.55377240539E+02  0.12700000000E+01 0.  1.
         25    2    1    2    0    0  0.00000000000E+00  0.00000000000E+00  0.15164163764E+02  0.12591551381E+03  0.12499905902E+03 0.  0.
    9000005    1    3    3    0    0 -0.56622857809E+02 -0.16930823886E+02 -0.12874202534E+02  0.60494180834E+02  0.10000000000E+01 0.  0.
    9000005    1    3    3    0    0  0.56622857809E+02  0.16930823886E+02  0.28038366298E+02  0.65421332977E+02  0.10000000000E+01 0.  0.
<mgrwt>
<rscale>  0 0.12499906E+03</rscale>
<asrwt>0</asrwt>
<pdfrwt beam="1">  1        4 0.10852283E-01 0.12499906E+03</pdfrwt>
<pdfrwt beam="2">  1       -4 0.85193346E-02 0.12499906E+03</pdfrwt>
<totfact> 0.10433031E+04</totfact>
</mgrwt>
</event>
<event>
 5    1  0.3293542E-002  0.1250008E+03  0.7818608E-02  0.1235068E+00
         -4   -1    0    0    0  501 -0.00000000000E+00  0.00000000000E+00  0.53834441429E+02  0.53849419532E+02  0.12700000000E+01 0.  1.
          4   -1    0    0  501    0  0.00000000000E+00 -0.00000000000E+00 -0.72530755263E+02  0.72541873142E+02  0.12700000000E+01 0.  1.
         25    2    1    2    0    0  0.00000000000E+00  0.00000000000E+00 -0.18696313834E+02  0.12639129267E+03  0.12500082685E+03 0.  0.
    9000005    1    3    3    0    0  0.60614685689E+02  0.18702157711E+00 -0.24720115878E+02  0.65469528999E+02  0.10000000000E+01 0.  0.
    9000005    1    3    3    0    0 -0.60614685689E+02 -0.18702157711E+00  0.60238020444E+01  0.60921763676E+02  0.10000000000E+01 0.  0.
<mgrwt>
<rscale>  0 0.12500083E+03</rscale>
<asrwt>0</asrwt>
<pdfrwt beam="2">  1        4 0.11160585E-01 0.12500083E+03</pdfrwt>
<pdfrwt beam="1">  1       -4 0.82842292E-02 0.12500083E+03</pdfrwt>
<totfact> 0.10422205E+04</totfact>
</mgrwt>
</event>
<event>
 5    1  0.3293542E-002  0.1249972E+03  0.7818608E-02  0.1235074E+00
         -4   -1    0    0    0  501 -0.00000000000E+00  0.00000000000E+00  0.38636594311E+03  0.38636803037E+03  0.12700000000E+01 0.  1.
          4   -1    0    0  501    0  0.00000000000E+00 -0.00000000000E+00 -0.10067765690E+02  0.10147551724E+02  0.12700000000E+01 0.  1.
         25    2    1    2    0    0  0.00000000000E+00  0.00000000000E+00  0.37629817742E+03  0.39651558210E+03  0.12499715404E+03 0.  0.
    9000005    1    3    3    0    0  0.42808995123E+02  0.58601703626E+01  0.33135965401E+03  0.33416638366E+03  0.10000000000E+01 0.  0.
    9000005    1    3    3    0    0 -0.42808995123E+02 -0.58601703626E+01  0.44938523409E+02  0.62349198442E+02  0.10000000000E+01 0.  0.
<mgrwt>
<rscale>  0 0.12499715E+03</rscale>
<asrwt>0</asrwt>
<pdfrwt beam="2">  1        4 0.15551850E-02 0.12499715E+03</pdfrwt>
<pdfrwt beam="1">  1       -4 0.59447210E-01 0.12499715E+03</pdfrwt>
<totfact> 0.64897174E+03</totfact>
</mgrwt>
</event>
<event>
 5    1  0.3293542E-002  0.1250004E+03  0.7818608E-02  0.1235069E+00
         -4   -1    0    0    0  501 -0.00000000000E+00  0.00000000000E+00  0.70915051298E+01  0.72043282133E+01  0.12700000000E+01 0. -1.
          4   -1    0    0  501    0  0.00000000000E+00 -0.00000000000E+00 -0.54637788724E+03  0.54637936323E+03  0.12700000000E+01 0. -1.
         25    2    1    2    0    0  0.00000000000E+00  0.00000000000E+00 -0.53928638211E+03  0.55358369144E+03  0.12500040601E+03 0.  0.
    9000005    1    3    3    0    0 -0.23417751644E+02 -0.35033292990E+02 -0.47401267874E+03  0.47588311834E+03  0.10000000000E+01 0.  0.
    9000005    1    3    3    0    0  0.23417751644E+02  0.35033292990E+02 -0.65273703364E+02  0.77700573103E+02  0.10000000000E+01 0.  0.
<mgrwt>
<rscale>  0 0.12500041E+03</rscale>
<asrwt>0</asrwt>
<pdfrwt beam="2">  1        4 0.84066896E-01 0.12500041E+03</pdfrwt>
<pdfrwt beam="1">  1       -4 0.10997935E-02 0.12500041E+03</pdfrwt>
<totfact> 0.51934605E+03</totfact>
</mgrwt>
</event>
<event>
 5    1  0.3293542E-002  0.1250054E+03  0.7818608E-02  0.1235061E+00
          4   -1    0    0  501    0  0.00000000000E+00  0.00000000000E+00  0.14754589891E+02  0.14809146595E+02  0.12700000000E+01 0. -1.
         -4   -1    0    0    0  501 -0.00000000000E+00 -0.00000000000E+00 -0.26422613216E+03  0.26422918427E+03  0.12700000000E+01 0. -1.
         25    2    1    2    0    0  0.00000000000E+00  0.00000000000E+00 -0.24947154227E+03  0.27903833086E+03  0.12500535863E+03 0.  0.
    9000005    1    3    3    0    0  0.52027829534E+02  0.22621061204E+02 -0.66228952881E+02  0.87211705955E+02  0.10000000000E+01 0.  0.
    9000005    1    3    3    0    0 -0.52027829534E+02 -0.22621061204E+02 -0.18324258939E+03  0.19182662491E+03  0.10000000000E+01 0.  0.
<mgrwt>
<rscale>  0 0.12500536E+03</rscale>
<asrwt>0</asrwt>
<pdfrwt beam="1">  1        4 0.22743685E-02 0.12500536E+03</pdfrwt>
<pdfrwt beam="2">  1       -4 0.40654602E-01 0.12500536E+03</pdfrwt>
<totfact> 0.78296463E+03</totfact>
</mgrwt>
</event>
<event>
 5    1  0.3293542E-002  0.1250016E+03  0.7818608E-02  0.1235067E+00
         -4   -1    0    0    0  501 -0.00000000000E+00  0.00000000000E+00  0.28249102098E+03  0.28249387575E+03  0.12700000000E+01 0.  1.
          4   -1    0    0  501    0  0.00000000000E+00 -0.00000000000E+00 -0.13796126326E+02  0.13854457824E+02  0.12700000000E+01 0.  1.
         25    2    1    2    0    0  0.00000000000E+00  0.00000000000E+00  0.26869489466E+03  0.29634833357E+03  0.12500155358E+03 0.  0.
    9000005    1    3    3    0    0 -0.38116830602E+02  0.49179933751E+02  0.12056675131E+03  0.13567940220E+03  0.10000000000E+01 0.  0.
    9000005    1    3    3    0    0  0.38116830602E+02 -0.49179933751E+02  0.14812814334E+03  0.16066893138E+03  0.10000000000E+01 0.  0.
<mgrwt>
<rscale>  0 0.12500155E+03</rscale>
<asrwt>0</asrwt>
<pdfrwt beam="2">  1        4 0.21271878E-02 0.12500155E+03</pdfrwt>
<pdfrwt beam="1">  1       -4 0.43464859E-01 0.12500155E+03</pdfrwt>
<totfact> 0.76056570E+03</totfact>
</mgrwt>
</event>
<event>
 5    1  0.3293542E-002  0.1250006E+03  0.7818608E-02  0.1235068E+00
         -4   -1    0    0    0  501 -0.00000000000E+00  0.00000000000E+00  0.68774505214E+02  0.68786230217E+02  0.12700000000E+01 0. -1.
          4   -1    0    0  501    0  0.00000000000E+00 -0.00000000000E+00 -0.56774793448E+02  0.56788996038E+02  0.12700000000E+01 0. -1.
         25    2    1    2    0    0  0.00000000000E+00  0.00000000000E+00  0.11999711767E+02  0.12557522626E+03  0.12500057746E+03 0.  0.
    9000005    1    3    3    0    0  0.24451124732E+02 -0.56227632193E+02  0.18133542056E+02  0.63947083360E+02  0.10000000000E+01 0.  0.
    9000005    1    3    3    0    0 -0.24451124732E+02  0.56227632193E+02 -0.61338302894E+01  0.61628142895E+02  0.10000000000E+01 0.  0.
<mgrwt>
<rscale>  0 0.12500058E+03</rscale>
<asrwt>0</asrwt>
<pdfrwt beam="2">  1        4 0.87365780E-02 0.12500058E+03</pdfrwt>
<pdfrwt beam="1">  1       -4 0.10582688E-01 0.12500058E+03</pdfrwt>
<totfact> 0.10440157E+04</totfact>
</mgrwt>
</event>
<event>
 5    1  0.3293542E-002  0.1249997E+03  0.7818608E-02  0.1235070E+00
          4   -1    0    0  501    0  0.00000000000E+00  0.00000000000E+00  0.42259861272E+03  0.42260052102E+03  0.12700000000E+01 0.  1.
         -4   -1    0    0    0  501 -0.00000000000E+00 -0.00000000000E+00 -0.91978009757E+01  0.92850655781E+01  0.12700000000E+01 0.  1.
         25    2    1    2    0    0  0.00000000000E+00  0.00000000000E+00  0.41340081174E+03  0.43188558660E+03  0.12499971507E+03 0.  0.
    9000005    1    3    3    0    0 -0.44415006700E+02  0.73358985260E+01  0.35645880019E+03  0.35929150347E+03  0.10000000000E+01 0.  0.
    9000005    1    3    3    0    0  0.44415006700E+02 -0.73358985260E+01  0.56942011548E+02  0.72594083137E+02  0.10000000000E+01 0.  0.
<mgrwt>
<rscale>  0 0.12499972E+03</rscale>
<asrwt>0</asrwt>
<pdfrwt beam="1">  1        4 0.65022051E-01 0.12499972E+03</pdfrwt>
<pdfrwt beam="2">  1       -4 0.14219053E-02 0.12499972E+03</pdfrwt>
<totfact> 0.61565819E+03</totfact>
</mgrwt>
</event>
<event>
 5    1  0.3293542E-002  0.1250040E+03  0.7818608E-02  0.1235063E+00
          4   -1    0    0  501    0  0.00000000000E+00  0.00000000000E+00  0.47195857188E+02  0.47212941401E+02  0.12700000000E+01 0.  1.
         -4   -1    0    0    0  501 -0.00000000000E+00 -0.00000000000E+00 -0.82735112761E+02  0.82744859560E+02  0.12700000000E+01 0.  1.
         25    2    1    2    0    0  0.00000000000E+00  0.00000000000E+00 -0.35539255573E+02  0.12995780096E+03  0.12500396531E+03 0.  0.
    9000005    1    3    3    0    0  0.55370437432E+01 -0.16864984682E+02 -0.80064265400E+02  0.82014469185E+02  0.10000000000E+01 0.  0.
    9000005    1    3    3    0    0 -0.55370437432E+01  0.16864984682E+02  0.44525009826E+02  0.47943331776E+02  0.10000000000E+01 0.  0.
<mgrwt>
<rscale>  0 0.12500397E+03</rscale>
<asrwt>0</asrwt>
<pdfrwt beam="1">  1        4 0.72629650E-02 0.12500397E+03</pdfrwt>
<pdfrwt beam="2">  1       -4 0.12730543E-01 0.12500397E+03</pdfrwt>
<totfact> 0.10344484E+04</totfact>
</mgrwt>
</event>
<event>
 5    1  0.3293542E-002  0.1250087E+03  0.7818608E-02  0.1235056E+00
         -4   -1    0    0    0  501 -0.00000000000E+00  0.00000000000E+00  0.34107820328E+02  0.34131456276E+02  0.12700000000E+01 0.  1.
          4   -1    0    0  501    0  0.00000000000E+00 -0.00000000000E+00 -0.11447569202E+03  0.11448273653E+03  0.12700000000E+01 0.  1.
         25    2    1    2    0    0  0.00000000000E+00  0.00000000000E+00 -0.80367871697E+02  0.14861419281E+03  0.12500873371E+03 0.  0.
    9000005    1    3    3    0    0 -0.22176824879E+02  0.11110011733E+02 -0.10837921431E+03  0.11118587148E+03  0.10000000000E+01 0.  0.
    9000005    1    3    3    0    0  0.22176824879E+02 -0.11110011733E+02  0.28011342615E+02  0.37428321329E+02  0.10000000000E+01 0.  0.
<mgrwt>
<rscale>  0 0.12500873E+03</rscale>
<asrwt>0</asrwt>
<pdfrwt beam="2">  1        4 0.17614005E-01 0.12500873E+03</pdfrwt>
<pdfrwt beam="1">  1       -4 0.52497171E-02 0.12500873E+03</pdfrwt>
<totfact> 0.99561084E+03</totfact>
</mgrwt>
</event>
<event>
 5    1  0.3293542E-002  0.1249987E+03  0.7818608E-02  0.1235071E+00
         -4   -1    0    0    0  501 -0.00000000000E+00  0.00000000000E+00  0.68427356742E+01  0.69595927688E+01  0.12700000000E+01 0.  1.
          4   -1    0    0  501    0  0.00000000000E+00 -0.00000000000E+00 -0.56589829413E+03  0.56589971921E+03  0.12700000000E+01 0.  1.
         25    2    1    2    0    0  0.00000000000E+00  0.00000000000E+00 -0.55905555846E+03  0.57285931198E+03  0.12499869550E+03 0.  0.
    9000005    1    3    3    0    0  0.60550487400E+02  0.13789786633E+02 -0.31149303979E+03  0.31762467407E+03  0.10000000000E+01 0.  0.
    9000005    1    3    3    0    0 -0.60550487400E+02 -0.13789786633E+02 -0.24756251866E+03  0.25523463791E+03  0.10000000000E+01 0.  0.
<mgrwt>
<rscale>  0 0.12499870E+03</rscale>
<asrwt>0</asrwt>
<pdfrwt beam="2">  1        4 0.87070338E-01 0.12499870E+03</pdfrwt>
<pdfrwt beam="1">  1       -4 0.10618276E-02 0.12499870E+03</pdfrwt>
<totfact> 0.50628348E+03</totfact>
</mgrwt>
</event>
<event>
 5    1  0.3293542E-002  0.1249976E+03  0.7818608E-02  0.1235073E+00
          4   -1    0    0  501    0  0.00000000000E+00  0.00000000000E+00  0.38475477200E+02  0.38496431598E+02  0.12700000000E+01 0. -1.
         -4   -1    0    0    0  501 -0.00000000000E+00 -0.00000000000E+00 -0.10146930103E+03  0.10147724844E+03  0.12700000000E+01 0. -1.
         25    2    1    2    0    0  0.00000000000E+00  0.00000000000E+00 -0.62993823828E+02  0.13997368004E+03  0.12499763703E+03 0.  0.
    9000005    1    3    3    0    0 -0.41732420331E+02  0.14292004015E+02 -0.81063504577E+02  0.92293813767E+02  0.10000000000E+01 0.  0.
    9000005    1    3    3    0    0  0.41732420331E+02 -0.14292004015E+02  0.18069680749E+02  0.47679866273E+02  0.10000000000E+01 0.  0.
<mgrwt>
<rscale>  0 0.12499764E+03</rscale>
<asrwt>0</asrwt>
<pdfrwt beam="1">  1        4 0.59215275E-02 0.12499764E+03</pdfrwt>
<pdfrwt beam="2">  1       -4 0.15612885E-01 0.12499764E+03</pdfrwt>
<totfact> 0.10134671E+04</totfact>
</mgrwt>
</event>
<event>
 5    1  0.3293542E-002  0.1249979E+03  0.7818608E-02  0.1235072E+00
         -4   -1    0    0    0  501 -0.00000000000E+00  0.00000000000E+00  0.10858635450E+03  0.10859378105E+03  0.12700000000E+01 0. -1.
          4   -1    0    0  501    0  0.00000000000E+00 -0.00000000000E+00 -0.35952621250E+02  0.35975045167E+02  0.12700000000E+01 0. -1.
         25    2    1    2    0    0  0.00000000000E+00  0.00000000000E+00  0.72633733248E+02  0.14456882622E+03  0.12499794522E+03 0.  0.
    9000005    1    3    3    0    0 -0.51187447197E+02  0.30496216520E+02  0.14527033419E+02  0.61336845962E+02  0.10000000000E+01 0.  0.
    9000005    1    3    3    0    0  0.51187447197E+02 -0.30496216520E+02  0.58106699828E+02  0.83231980257E+02  0.10000000000E+01 0.  0.
<mgrwt>
<rscale>  0 0.12499795E+03</rscale>
<asrwt>0</asrwt>
<pdfrwt beam="2">  1        4 0.55334687E-02 0.12499795E+03</pdfrwt>
<pdfrwt beam="1">  1       -4 0.16707889E-01 0.12499795E+03</pdfrwt>
<totfact> 0.10040221E+04</totfact>
</mgrwt>
</event>
<event>
 5    1  0.3293542E-002  0.1250004E+03  0.7818608E-02  0.1235069E+00
          4   -1    0    0  501    0  0.00000000000E+00  0.00000000000E+00  0.48829011104E+01  0.50453566033E+01  0.12700000000E+01 0. -1.
         -4   -1    0    0    0  501 -0.00000000000E+00 -0.00000000000E+00 -0.78673680452E+03  0.78673782957E+03  0.12700000000E+01 0. -1.
         25    2    1    2    0    0  0.00000000000E+00  0.00000000000E+00 -0.78185390341E+03  0.79178318618E+03  0.12500035056E+03 0.  0.
    9000005    1    3    3    0    0  0.15016249304E+02  0.60512989105E+02 -0.41777274335E+03  0.42240072760E+03  0.10000000000E+01 0.  0.
    9000005    1    3    3    0    0 -0.15016249304E+02 -0.60512989105E+02 -0.36408116006E+03  0.36938245857E+03  0.10000000000E+01 0.  0.
<mgrwt>
<rscale>  0 0.12500035E+03</rscale>
<asrwt>0</asrwt>
<pdfrwt beam="1">  1        4 0.76379161E-03 0.12500035E+03</pdfrwt>
<pdfrwt beam="2">  1       -4 0.12104891E+00 0.12500035E+03</pdfrwt>
<totfact> 0.38633922E+03</totfact>
</mgrwt>
</event>
<event>
 5    1  0.3293542E-002  0.1249952E+03  0.7818608E-02  0.1235077E+00
         -4   -1    0    0    0  501 -0.00000000000E+00  0.00000000000E+00  0.59936686970E+02  0.59950140492E+02  0.12700000000E+01 0.  1.
          4   -1    0    0  501    0  0.00000000000E+00 -0.00000000000E+00 -0.65140980010E+02  0.65153358905E+02  0.12700000000E+01 0.  1.
         25    2    1    2    0    0  0.00000000000E+00  0.00000000000E+00 -0.52042930393E+01  0.12510349940E+03  0.12499520349E+03 0.  0.
    9000005    1    3    3    0    0  0.53716934613E+02 -0.67239368407E+01  0.28637551155E+02  0.61252181406E+02  0.10000000000E+01 0.  0.
    9000005    1    3    3    0    0 -0.53716934613E+02  0.67239368407E+01 -0.33841844194E+02  0.63851317992E+02  0.10000000000E+01 0.  0.
<mgrwt>
<rscale>  0 0.12499520E+03</rscale>
<asrwt>0</asrwt>
<pdfrwt beam="2">  1        4 0.10023676E-01 0.12499520E+03</pdfrwt>
<pdfrwt beam="1">  1       -4 0.92230159E-02 0.12499520E+03</pdfrwt>
<totfact> 0.10451748E+04</totfact>
</mgrwt>
</event>
<event>
 5    1  0.3293542E-002  0.1249978E+03  0.7818608E-02  0.1235073E+00
         -4   -1    0    0    0  501 -0.00000000000E+00  0.00000000000E+00  0.31311397992E+01  0.33788957430E+01  0.12700000000E+01 0.  1.
          4   -1    0    0  501    0  0.00000000000E+00 -0.00000000000E+00 -0.11997797393E+04  0.11997804114E+04  0.12700000000E+01 0.  1.
         25    2    1    2    0    0  0.00000000000E+00  0.00000000000E+00 -0.11966485995E+04  0.12031593072E+04  0.12499779131E+03 0.  0.
    9000005    1    3    3    0    0 -0.29547516819E+02  0.86405765626E+01 -0.11217747572E+04  0.11221975411E+04  0.10000000000E+01 0.  0.
    9000005    1    3    3    0    0  0.29547516819E+02 -0.86405765626E+01 -0.74873842279E+02  0.80961766107E+02  0.10000000000E+01 0.  0.
<mgrwt>
<rscale>  0 0.12499779E+03</rscale>
<asrwt>0</asrwt>
<pdfrwt beam="2">  1        4 0.18460026E+00 0.12499779E+03</pdfrwt>
<pdfrwt beam="1">  1       -4 0.50082463E-03 0.12499779E+03</pdfrwt>
<totfact> 0.24631449E+03</totfact>
</mgrwt>
</event>
<event>
 5    1  0.3293542E-002  0.1250007E+03  0.7818608E-02  0.1235068E+00
          4   -1    0    0  501    0  0.00000000000E+00  0.00000000000E+00  0.18609368009E+02  0.18652653369E+02  0.12700000000E+01 0. -1.
         -4   -1    0    0    0  501 -0.00000000000E+00 -0.00000000000E+00 -0.20962116869E+03  0.20962501583E+03  0.12700000000E+01 0. -1.
         25    2    1    2    0    0  0.00000000000E+00  0.00000000000E+00 -0.19101180068E+03  0.22827766920E+03  0.12500074502E+03 0.  0.
    9000005    1    3    3    0    0 -0.32460557692E+01  0.16355535931E+02 -0.20549254158E+03  0.20617037876E+03  0.10000000000E+01 0.  0.
    9000005    1    3    3    0    0  0.32460557692E+01 -0.16355535931E+02  0.14480740899E+02  0.22107290440E+02  0.10000000000E+01 0.  0.
<mgrwt>
<rscale>  0 0.12500075E+03</rscale>
<asrwt>0</asrwt>
<pdfrwt beam="1">  1        4 0.28666054E-02 0.12500075E+03</pdfrwt>
<pdfrwt beam="2">  1       -4 0.32253034E-01 0.12500075E+03</pdfrwt>
<totfact> 0.85573344E+03</totfact>
</mgrwt>
</event>
<event>
 5    1  0.3293542E-002  0.1249959E+03  0.7818608E-02  0.1235076E+00
         -4   -1    0    0    0  501 -0.00000000000E+00  0.00000000000E+00  0.15200978412E+04  0.15200983717E+04  0.12700000000E+01 0.  1.
          4   -1    0    0  501    0  0.00000000000E+00 -0.00000000000E+00 -0.24120794233E+01  0.27259910389E+01  0.12700000000E+01 0.  1.
         25    2    1    2    0    0  0.00000000000E+00  0.00000000000E+00  0.15176857618E+04  0.15228243627E+04  0.12499587324E+03 0.  0.
    9000005    1    3    3    0    0  0.10809116771E+02 -0.60274702554E+02  0.60710938231E+03  0.61019069057E+03  0.10000000000E+01 0.  0.
    9000005    1    3    3    0    0 -0.10809116771E+02  0.60274702554E+02  0.91057637945E+03  0.91263367217E+03  0.10000000000E+01 0.  0.
<mgrwt>
<rscale>  0 0.12499587E+03</rscale>
<asrwt>0</asrwt>
<pdfrwt beam="2">  1        4 0.39527624E-03 0.12499587E+03</pdfrwt>
<pdfrwt beam="1">  1       -4 0.23388584E+00 0.12499587E+03</pdfrwt>
<totfact> 0.17487590E+03</totfact>
</mgrwt>
</event>
<event>
 5    1  0.3293542E-002  0.1250075E+03  0.7818608E-02  0.1235058E+00
         -4   -1    0    0    0  501 -0.00000000000E+00  0.00000000000E+00  0.14080458810E+03  0.14081031543E+03  0.12700000000E+01 0.  1.
          4   -1    0    0  501    0  0.00000000000E+00 -0.00000000000E+00 -0.27724851813E+02  0.27753924192E+02  0.12700000000E+01 0.  1.
         25    2    1    2    0    0  0.00000000000E+00  0.00000000000E+00  0.11307973629E+03  0.16856423962E+03  0.12500750425E+03 0.  0.
    9000005    1    3    3    0    0  0.40088249658E+02  0.19683432669E+01 -0.80552348937E+01  0.40949101884E+02  0.10000000000E+01 0.  0.
    9000005    1    3    3    0    0 -0.40088249658E+02 -0.19683432669E+01  0.12113497118E+03  0.12761513774E+03  0.10000000000E+01 0.  0.
<mgrwt>
<rscale>  0 0.12500750E+03</rscale>
<asrwt>0</asrwt>
<pdfrwt beam="2">  1        4 0.42680387E-02 0.12500750E+03</pdfrwt>
<pdfrwt beam="1">  1       -4 0.21664921E-01 0.12500750E+03</pdfrwt>
<totfact> 0.95700479E+03</totfact>
</mgrwt>
</event>
<event>
 5    1  0.3293542E-002  0.1250086E+03  0.7818608E-02  0.1235056E+00
         -4   -1    0    0    0  501 -0.00000000000E+00  0.00000000000E+00  0.18074215236E+03  0.18074661419E+03  0.12700000000E+01 0.  1.
          4   -1    0    0  501    0  0.00000000000E+00 -0.00000000000E+00 -0.21591858585E+02  0.21629176063E+02  0.12700000000E+01 0.  1.
         25    2    1    2    0    0  0.00000000000E+00  0.00000000000E+00  0.15915029377E+03  0.20237579025E+03  0.12500857759E+03 0.  0.
    9000005    1    3    3    0    0 -0.45547984425E+02 -0.42246274416E+02  0.68545309367E+02  0.92513923403E+02  0.10000000000E+01 0.  0.
    9000005    1    3    3    0    0  0.45547984425E+02  0.42246274416E+02  0.90604984407E+02  0.10986186685E+03  0.10000000000E+01 0.  0.
<mgrwt>
<rscale>  0 0.12500858E+03</rscale>
<asrwt>0</asrwt>
<pdfrwt beam="2">  1        4 0.33250382E-02 0.12500858E+03</pdfrwt>
<pdfrwt beam="1">  1       -4 0.27809698E-01 0.12500858E+03</pdfrwt>
<totfact> 0.89719133E+03</totfact>
</mgrwt>
</event>
<event>
 5    1  0.3293542E-002  0.1249978E+03  0.7818608E-02  0.1235073E+00
          4   -1    0    0  501    0  0.00000000000E+00  0.00000000000E+00  0.18571802593E+02  0.18615175302E+02  0.12700000000E+01 0. -1.
         -4   -1    0    0    0  501 -0.00000000000E+00 -0.00000000000E+00 -0.21003427384E+03  0.21003811342E+03  0.12700000000E+01 0. -1.
         25    2    1    2    0    0  0.00000000000E+00  0.00000000000E+00 -0.19146247125E+03  0.22865328872E+03  0.12499779416E+03 0.  0.
    9000005    1    3    3    0    0 -0.32078618320E+02  0.53411004861E+02 -0.10456845617E+03  0.12172647707E+03  0.10000000000E+01 0.  0.
    9000005    1    3    3    0    0  0.32078618320E+02 -0.53411004861E+02 -0.86894015080E+02  0.10692681165E+03  0.10000000000E+01 0.  0.
<mgrwt>
<rscale>  0 0.12499779E+03</rscale>
<asrwt>0</asrwt>
<pdfrwt beam="1">  1        4 0.28608323E-02 0.12499779E+03</pdfrwt>
<pdfrwt beam="2">  1       -4 0.32316595E-01 0.12499779E+03</pdfrwt>
<totfact> 0.85521025E+03</totfact>
</mgrwt>
</event>
<event>
 4    1  0.3293542E-002  0.1247598E+03  0.7818608E-02  0.1235445E+00
          4   -1    0    0  501    0  0.00000000000E+00  0.00000000000E+00  0.14105380514E+03  0.14105952235E+03  0.12700000000E+01 0.  1.
         -4   -1    0    0    0  501 -0.00000000000E+00 -0.00000000000E+00 -0.27566106859E+02  0.27595346480E+02  0.12700000000E+01 0.  1.
    9000005    1    1    2    0    0 -0.37967281090E+01  0.61571489458E+02  0.69191638751E+02  0.92703540016E+02  0.10000000000E+01 0.  0.
    9000005    1    1    2    0    0  0.37967281090E+01 -0.61571489458E+02  0.44296059533E+02  0.75951328814E+02  0.10000000000E+01 0.  0.
<mgrwt>
<rscale>  0 0.12475980E+03</rscale>
<asrwt>0</asrwt>
<pdfrwt beam="1">  1        4 0.21703275E-01 0.12475980E+03</pdfrwt>
<pdfrwt beam="2">  1       -4 0.42436285E-02 0.12475980E+03</pdfrwt>
<totfact> 0.96217688E+03</totfact>
</mgrwt>
</event>
<event>
 5    1  0.3293542E-002  0.1249960E+03  0.7818608E-02  0.1235076E+00
          4   -1    0    0  501    0  0.00000000000E+00  0.00000000000E+00  0.66085252872E+01  0.67294506812E+01  0.12700000000E+01 0. -1.
         -4   -1    0    0    0  501 -0.00000000000E+00 -0.00000000000E+00 -0.58557400153E+03  0.58557537872E+03  0.12700000000E+01 0. -1.
         25    2    1    2    0    0  0.00000000000E+00  0.00000000000E+00 -0.57896547624E+03  0.59230482940E+03  0.12499595296E+03 0.  0.
    9000005    1    3    3    0    0 -0.59318763802E+02 -0.93577727953E+01 -0.20758409926E+03  0.21609822285E+03  0.10000000000E+01 0.  0.
    9000005    1    3    3    0    0  0.59318763802E+02  0.93577727953E+01 -0.37138137698E+03  0.37620660656E+03  0.10000000000E+01 0.  0.
<mgrwt>
<rscale>  0 0.12499595E+03</rscale>
<asrwt>0</asrwt>
<pdfrwt beam="1">  1        4 0.10261045E-02 0.12499595E+03</pdfrwt>
<pdfrwt beam="2">  1       -4 0.90097675E-01 0.12499595E+03</pdfrwt>
<totfact> 0.49361380E+03</totfact>
</mgrwt>
</event>
<event>
 5    1  0.3293542E-002  0.1250003E+03  0.7818608E-02  0.1235069E+00
          4   -1    0    0  501    0  0.00000000000E+00  0.00000000000E+00  0.75016370893E+02  0.75027120443E+02  0.12700000000E+01 0. -1.
         -4   -1    0    0    0  501 -0.00000000000E+00 -0.00000000000E+00 -0.52049957186E+02  0.52065448649E+02  0.12700000000E+01 0. -1.
         25    2    1    2    0    0  0.00000000000E+00  0.00000000000E+00  0.22966413707E+02  0.12709256909E+03  0.12500025984E+03 0.  0.
    9000005    1    3    3    0    0 -0.59820119177E+02  0.66040826481E+01 -0.56271953395E+01  0.60454328987E+02  0.10000000000E+01 0.  0.
    9000005    1    3    3    0    0  0.59820119177E+02 -0.66040826481E+01  0.28593609047E+02  0.66638240105E+02  0.10000000000E+01 0.  0.
<mgrwt>
<rscale>  0 0.12500026E+03</rscale>
<asrwt>0</asrwt>
<pdfrwt beam="1">  1        4 0.11542999E-01 0.12500026E+03</pdfrwt>
<pdfrwt beam="2">  1       -4 0.80097043E-02 0.12500026E+03</pdfrwt>
<totfact> 0.10407074E+04</totfact>
</mgrwt>
</event>
<event>
 5    1  0.3293542E-002  0.1249973E+03  0.7818608E-02  0.1235074E+00
          4   -1    0    0  501    0  0.00000000000E+00  0.00000000000E+00  0.11809460088E+04  0.11809466917E+04  0.12700000000E+01 0.  1.
         -4   -1    0    0    0  501 -0.00000000000E+00 -0.00000000000E+00 -0.31849672398E+01  0.34288360005E+01  0.12700000000E+01 0.  1.
         25    2    1    2    0    0  0.00000000000E+00  0.00000000000E+00  0.11777610416E+04  0.11843755277E+04  0.12499727822E+03 0.  0.
    9000005    1    3    3    0    0  0.22206941201E+02  0.42237632260E+02  0.97118079333E+03  0.97235297045E+03  0.10000000000E+01 0.  0.
    9000005    1    3    3    0    0 -0.22206941201E+02 -0.42237632260E+02  0.20658024825E+03  0.21202255725E+03  0.10000000000E+01 0.  0.
<mgrwt>
<rscale>  0 0.12499728E+03</rscale>
<asrwt>0</asrwt>
<pdfrwt beam="1">  1        4 0.18170280E+00 0.12499728E+03</pdfrwt>
<pdfrwt beam="2">  1       -4 0.50880667E-03 0.12499728E+03</pdfrwt>
<totfact> 0.25126914E+03</totfact>
</mgrwt>
</event>
<event>
 5    1  0.3293542E-002  0.1249989E+03  0.7818608E-02  0.1235071E+00
         -4   -1    0    0    0  501 -0.00000000000E+00  0.00000000000E+00  0.71370432701E+03  0.71370545696E+03  0.12700000000E+01 0.  1.
          4   -1    0    0  501    0  0.00000000000E+00 -0.00000000000E+00 -0.53982876071E+01  0.55456657931E+01  0.12700000000E+01 0.  1.
         25    2    1    2    0    0  0.00000000000E+00  0.00000000000E+00  0.70830603940E+03  0.71925112275E+03  0.12499892850E+03 0.  0.
    9000005    1    3    3    0    0  0.51181181101E+02 -0.46357492750E+01  0.14956573399E+03  0.15815154838E+03  0.10000000000E+01 0.  0.
    9000005    1    3    3    0    0 -0.51181181101E+02  0.46357492750E+01  0.55874030542E+03  0.56109957438E+03  0.10000000000E+01 0.  0.
<mgrwt>
<rscale>  0 0.12499893E+03</rscale>
<asrwt>0</asrwt>
<pdfrwt beam="2">  1        4 0.84192964E-03 0.12499893E+03</pdfrwt>
<pdfrwt beam="1">  1       -4 0.10981207E+00 0.12499893E+03</pdfrwt>
<totfact> 0.42090728E+03</totfact>
</mgrwt>
</event>
<event>
 5    1  0.3293542E-002  0.1250020E+03  0.7818608E-02  0.1235066E+00
         -4   -1    0    0    0  501 -0.00000000000E+00  0.00000000000E+00  0.38133913516E+01  0.40193100901E+01  0.12700000000E+01 0.  1.
          4   -1    0    0  501    0  0.00000000000E+00 -0.00000000000E+00 -0.99724697113E+03  0.99724777981E+03  0.12700000000E+01 0.  1.
         25    2    1    2    0    0  0.00000000000E+00  0.00000000000E+00 -0.99343357978E+03  0.10012670899E+04  0.12500203149E+03 0.  0.
    9000005    1    3    3    0    0 -0.25054652845E+02 -0.40682526749E+02 -0.17406428502E+03  0.18050534322E+03  0.10000000000E+01 0.  0.
    9000005    1    3    3    0    0  0.25054652845E+02  0.40682526749E+02 -0.81936929477E+03  0.82076174668E+03  0.10000000000E+01 0.  0.
<mgrwt>
<rscale>  0 0.12500203E+03</rscale>
<asrwt>0</asrwt>
<pdfrwt beam="2">  1        4 0.15343831E+00 0.12500203E+03</pdfrwt>
<pdfrwt beam="1">  1       -4 0.60257850E-03 0.12500203E+03</pdfrwt>
<totfact> 0.30561370E+03</totfact>
</mgrwt>
</event>
<event>
 5    1  0.3293542E-002  0.1249979E+03  0.7818608E-02  0.1235073E+00
          4   -1    0    0  501    0  0.00000000000E+00  0.00000000000E+00  0.29902719254E+02  0.29929676222E+02  0.12700000000E+01 0.  1.
         -4   -1    0    0    0  501 -0.00000000000E+00 -0.00000000000E+00 -0.13053854394E+03  0.13054472167E+03  0.12700000000E+01 0.  1.
         25    2    1    2    0    0  0.00000000000E+00  0.00000000000E+00 -0.10063582469E+03  0.16047439789E+03  0.12499785265E+03 0.  0.
    9000005    1    3    3    0    0 -0.46346570314E+02 -0.38774557963E+02 -0.29871541138E+02  0.67414982720E+02  0.10000000000E+01 0.  0.
    9000005    1    3    3    0    0  0.46346570314E+02  0.38774557963E+02 -0.70764283552E+02  0.93059415170E+02  0.10000000000E+01 0.  0.
<mgrwt>
<rscale>  0 0.12499785E+03</rscale>
<asrwt>0</asrwt>
<pdfrwt beam="1">  1        4 0.46029672E-02 0.12499785E+03</pdfrwt>
<pdfrwt beam="2">  1       -4 0.20085401E-01 0.12499785E+03</pdfrwt>
<totfact> 0.97256097E+03</totfact>
</mgrwt>
</event>
<event>
 5    1  0.3293542E-002  0.1249980E+03  0.7818608E-02  0.1235072E+00
          4   -1    0    0  501    0  0.00000000000E+00  0.00000000000E+00  0.46652417227E+02  0.46669700375E+02  0.12700000000E+01 0.  1.
         -4   -1    0    0    0  501 -0.00000000000E+00 -0.00000000000E+00 -0.83690631458E+02  0.83700266988E+02  0.12700000000E+01 0.  1.
         25    2    1    2    0    0  0.00000000000E+00  0.00000000000E+00 -0.37038214231E+02  0.13036996736E+03  0.12499799629E+03 0.  0.
    9000005    1    3    3    0    0 -0.11225876714E+02  0.53558212053E+02 -0.49992507452E+02  0.74126602429E+02  0.10000000000E+01 0.  0.
    9000005    1    3    3    0    0  0.11225876714E+02 -0.53558212053E+02  0.12954293221E+02  0.56243364935E+02  0.10000000000E+01 0.  0.
<mgrwt>
<rscale>  0 0.12499800E+03</rscale>
<asrwt>0</asrwt>
<pdfrwt beam="1">  1        4 0.71793656E-02 0.12499800E+03</pdfrwt>
<pdfrwt beam="2">  1       -4 0.12877552E-01 0.12499800E+03</pdfrwt>
<totfact> 0.10337067E+04</totfact>
</mgrwt>
</event>
<event>
 5    1  0.3293542E-002  0.1249994E+03  0.7818608E-02  0.1235070E+00
          4   -1    0    0  501    0  0.00000000000E+00  0.00000000000E+00  0.20532817891E+03  0.20533210649E+03  0.12700000000E+01 0. -1.
         -4   -1    0    0    0  501 -0.00000000000E+00 -0.00000000000E+00 -0.18998928281E+02  0.19041328100E+02  0.12700000000E+01 0. -1.
         25    2    1    2    0    0  0.00000000000E+00  0.00000000000E+00  0.18632925063E+03  0.22437343459E+03  0.12499939403E+03 0.  0.
    9000005    1    3    3    0    0  0.29811844564E+02 -0.50291978780E+02  0.13278417690E+03  0.14508847935E+03  0.10000000000E+01 0.  0.
    9000005    1    3    3    0    0 -0.29811844564E+02  0.50291978780E+02  0.53545073731E+02  0.79284955236E+02  0.10000000000E+01 0.  0.
<mgrwt>
<rscale>  0 0.12499939E+03</rscale>
<asrwt>0</asrwt>
<pdfrwt beam="1">  1        4 0.31592513E-01 0.12499939E+03</pdfrwt>
<pdfrwt beam="2">  1       -4 0.29264758E-02 0.12499939E+03</pdfrwt>
<totfact> 0.86182173E+03</totfact>
</mgrwt>
</event>
<event>
 5    1  0.3293542E-002  0.1249996E+03  0.7818608E-02  0.1235070E+00
          4   -1    0    0  501    0  0.00000000000E+00  0.00000000000E+00  0.21679080609E+02  0.21716248204E+02  0.12700000000E+01 0. -1.
         -4   -1    0    0    0  501 -0.00000000000E+00 -0.00000000000E+00 -0.17999020539E+03  0.17999468586E+03  0.12700000000E+01 0. -1.
         25    2    1    2    0    0  0.00000000000E+00  0.00000000000E+00 -0.15831112478E+03  0.20171093406E+03  0.12499955476E+03 0.  0.
    9000005    1    3    3    0    0 -0.10938733177E+02  0.26215978793E+02  0.10666271764E+02  0.30359558313E+02  0.10000000000E+01 0.  0.
    9000005    1    3    3    0    0  0.10938733177E+02 -0.26215978793E+02 -0.16897739655E+03  0.17135137575E+03  0.10000000000E+01 0.  0.
<mgrwt>
<rscale>  0 0.12499955E+03</rscale>
<asrwt>0</asrwt>
<pdfrwt beam="1">  1        4 0.33384470E-02 0.12499955E+03</pdfrwt>
<pdfrwt beam="2">  1       -4 0.27694004E-01 0.12499955E+03</pdfrwt>
<totfact> 0.89848639E+03</totfact>
</mgrwt>
</event>
<event>
 5    1  0.3293542E-002  0.1250016E+03  0.7818608E-02  0.1235067E+00
          4   -1    0    0  501    0  0.00000000000E+00  0.00000000000E+00  0.99968190313E+02  0.99976257054E+02  0.12700000000E+01 0.  1.
         -4   -1    0    0    0  501 -0.00000000000E+00 -0.00000000000E+00 -0.39055934188E+02  0.39076577323E+02  0.12700000000E+01 0.  1.
         25    2    1    2    0    0  0.00000000000E+00  0.00000000000E+00  0.60912256126E+02  0.13905283438E+03  0.12500155120E+03 0.  0.
    9000005    1    3    3    0    0  0.60259047430E+02 -0.13296522493E+02  0.41434462006E+02  0.74335489164E+02  0.10000000000E+01 0.  0.
    9000005    1    3    3    0    0 -0.60259047430E+02  0.13296522493E+02  0.19477794120E+02  0.64717345213E+02  0.10000000000E+01 0.  0.
<mgrwt>
<rscale>  0 0.12500155E+03</rscale>
<asrwt>0</asrwt>
<pdfrwt beam="1">  1        4 0.15381930E-01 0.12500155E+03</pdfrwt>
<pdfrwt beam="2">  1       -4 0.60108137E-02 0.12500155E+03</pdfrwt>
<totfact> 0.10152899E+04</totfact>
</mgrwt>
</event>
<event>
 5    1  0.3293542E-002  0.1249975E+03  0.7818608E-02  0.1235073E+00
          4   -1    0    0  501    0  0.00000000000E+00  0.00000000000E+00  0.90535202039E+03  0.90535291115E+03  0.12700000000E+01 0.  1.
         -4   -1    0    0    0  501 -0.00000000000E+00 -0.00000000000E+00 -0.42200768772E+01  0.44070340196E+01  0.12700000000E+01 0.  1.
         25    2    1    2    0    0  0.00000000000E+00  0.00000000000E+00  0.90113194352E+03  0.90975994517E+03  0.12499751282E+03 0.  0.
    9000005    1    3    3    0    0  0.21990636542E+02 -0.55041233191E+02  0.59466178409E+03  0.59760920584E+03  0.10000000000E+01 0.  0.
    9000005    1    3    3    0    0 -0.21990636542E+02  0.55041233191E+02  0.30647015943E+03  0.31215073933E+03  0.10000000000E+01 0.  0.
<mgrwt>
<rscale>  0 0.12499751E+03</rscale>
<asrwt>0</asrwt>
<pdfrwt beam="1">  1        4 0.13929928E+00 0.12499751E+03</pdfrwt>
<pdfrwt beam="2">  1       -4 0.66369291E-03 0.12499751E+03</pdfrwt>
<totfact> 0.33790805E+03</totfact>
</mgrwt>
</event>
<event>
 5    1  0.3293542E-002  0.1250034E+03  0.7818608E-02  0.1235064E+00
         -4   -1    0    0    0  501 -0.00000000000E+00  0.00000000000E+00  0.46070763462E+02  0.46088264731E+02  0.12700000000E+01 0. -1.
          4   -1    0    0  501    0  0.00000000000E+00 -0.00000000000E+00 -0.84754324760E+02  0.84763839375E+02  0.12700000000E+01 0. -1.
         25    2    1    2    0    0  0.00000000000E+00  0.00000000000E+00 -0.38683561299E+02  0.13085210411E+03  0.12500342089E+03 0.  0.
    9000005    1    3    3    0    0  0.56350872762E+02 -0.20690547826E+01  0.88586611964E+01  0.57089208498E+02  0.10000000000E+01 0.  0.
    9000005    1    3    3    0    0 -0.56350872762E+02  0.20690547826E+01 -0.47542222495E+02  0.73762895608E+02  0.10000000000E+01 0.  0.
<mgrwt>
<rscale>  0 0.12500342E+03</rscale>
<asrwt>0</asrwt>
<pdfrwt beam="2">  1        4 0.13041205E-01 0.12500342E+03</pdfrwt>
<pdfrwt beam="1">  1       -4 0.70898879E-02 0.12500342E+03</pdfrwt>
<totfact> 0.10325464E+04</totfact>
</mgrwt>
</event>
<event>
 5    1  0.3293542E-002  0.1249955E+03  0.7818608E-02  0.1235076E+00
         -4   -1    0    0    0  501 -0.00000000000E+00  0.00000000000E+00  0.20463446319E+02  0.20502817740E+02  0.12700000000E+01 0. -1.
          4   -1    0    0  501    0  0.00000000000E+00 -0.00000000000E+00 -0.19065059385E+03  0.19065482380E+03  0.12700000000E+01 0. -1.
         25    2    1    2    0    0  0.00000000000E+00  0.00000000000E+00 -0.17018714753E+03  0.21115764154E+03  0.12499553749E+03 0.  0.
    9000005    1    3    3    0    0  0.57962083146E+01 -0.30172816268E+02 -0.17701775164E+03  0.17966713464E+03  0.10000000000E+01 0.  0.
    9000005    1    3    3    0    0 -0.57962083146E+01  0.30172816268E+02  0.68306041062E+01  0.31490506900E+02  0.10000000000E+01 0.  0.
<mgrwt>
<rscale>  0 0.12499554E+03</rscale>
<asrwt>0</asrwt>
<pdfrwt beam="2">  1        4 0.29334213E-01 0.12499554E+03</pdfrwt>
<pdfrwt beam="1">  1       -4 0.31515766E-02 0.12499554E+03</pdfrwt>
<totfact> 0.88295979E+03</totfact>
</mgrwt>
</event>
<event>
 5    1  0.3293542E-002  0.1250082E+03  0.7818608E-02  0.1235056E+00
          4   -1    0    0  501    0  0.00000000000E+00  0.00000000000E+00  0.87435145330E+02  0.87444368251E+02  0.12700000000E+01 0.  1.
         -4   -1    0    0    0  501 -0.00000000000E+00 -0.00000000000E+00 -0.44661230347E+02  0.44679283747E+02  0.12700000000E+01 0.  1.
         25    2    1    2    0    0  0.00000000000E+00  0.00000000000E+00  0.42773914983E+02  0.13212365200E+03  0.12500820619E+03 0.  0.
    9000005    1    3    3    0    0  0.34017453578E+02  0.24647767856E+02 -0.27518440698E+02  0.50229116922E+02  0.10000000000E+01 0.  0.
    9000005    1    3    3    0    0 -0.34017453578E+02 -0.24647767856E+02  0.70292355681E+02  0.81894535077E+02  0.10000000000E+01 0.  0.
<mgrwt>
<rscale>  0 0.12500821E+03</rscale>
<asrwt>0</asrwt>
<pdfrwt beam="1">  1        4 0.13453659E-01 0.12500821E+03</pdfrwt>
<pdfrwt beam="2">  1       -4 0.68730567E-02 0.12500821E+03</pdfrwt>
<totfact> 0.10297153E+04</totfact>
</mgrwt>
</event>
<event>
 5    1  0.3293542E-002  0.1250013E+03  0.7818608E-02  0.1235067E+00
         -4   -1    0    0    0  501 -0.00000000000E+00  0.00000000000E+00  0.82626161653E+03  0.82626259255E+03  0.12700000000E+01 0.  1.
          4   -1    0    0  501    0  0.00000000000E+00 -0.00000000000E+00 -0.46414288475E+01  0.48120434065E+01  0.12700000000E+01 0.  1.
         25    2    1    2    0    0  0.00000000000E+00  0.00000000000E+00  0.82162018768E+03  0.83107463596E+03  0.12500127090E+03 0.  0.
    9000005    1    3    3    0    0 -0.41349452438E+02  0.34946800203E+02  0.61833298800E+03  0.62069939593E+03  0.10000000000E+01 0.  0.
    9000005    1    3    3    0    0  0.41349452438E+02 -0.34946800203E+02  0.20328719968E+03  0.21037524002E+03  0.10000000000E+01 0.  0.
<mgrwt>
<rscale>  0 0.12500127E+03</rscale>
<asrwt>0</asrwt>
<pdfrwt beam="2">  1        4 0.72726442E-03 0.12500127E+03</pdfrwt>
<pdfrwt beam="1">  1       -4 0.12713052E+00 0.12500127E+03</pdfrwt>
<totfact> 0.36913458E+03</totfact>
</mgrwt>
</event>
<event>
 5    1  0.3293542E-002  0.1249813E+03  0.7818608E-02  0.1235098E+00
         -4   -1    0    0    0  501 -0.00000000000E+00  0.00000000000E+00  0.11064690558E+04  0.11064697847E+04  0.12700000000E+01 0. -1.
          4   -1    0    0  501    0  0.00000000000E+00 -0.00000000000E+00 -0.34143151988E+01  0.36428626486E+01  0.12700000000E+01 0. -1.
         25    2    1    2    0    0  0.00000000000E+00  0.00000000000E+00  0.11030547406E+04  0.11101126473E+04  0.12498131432E+03 0.  0.
    9000005    1    3    3    0    0 -0.16739786692E+02  0.36786474425E+02  0.97477439380E+03  0.97561241483E+03  0.10000000000E+01 0.  0.
    9000005    1    3    3    0    0  0.16739786692E+02 -0.36786474425E+02  0.12828034681E+03  0.13450023248E+03  0.10000000000E+01 0.  0.
<mgrwt>
<rscale>  0 0.12498131E+03</rscale>
<asrwt>0</asrwt>
<pdfrwt beam="2">  1        4 0.54291557E-03 0.12498131E+03</pdfrwt>
<pdfrwt beam="1">  1       -4 0.17024375E+00 0.12498131E+03</pdfrwt>
<totfact> 0.27200361E+03</totfact>
</mgrwt>
</event>
<event>
 5    1  0.3293542E-002  0.1249953E+03  0.7818608E-02  0.1235077E+00
          4   -1    0    0  501    0  0.00000000000E+00  0.00000000000E+00  0.32412742692E+03  0.32412991498E+03  0.12700000000E+01 0.  1.
         -4   -1    0    0    0  501 -0.00000000000E+00 -0.00000000000E+00 -0.12014688228E+02  0.12081623782E+02  0.12700000000E+01 0.  1.
         25    2    1    2    0    0  0.00000000000E+00  0.00000000000E+00  0.31211273869E+03  0.33621153876E+03  0.12499534847E+03 0.  0.
    9000005    1    3    3    0    0  0.40680513413E+02 -0.21599640125E+02  0.26965068968E+03  0.27355793366E+03  0.10000000000E+01 0.  0.
    9000005    1    3    3    0    0 -0.40680513413E+02  0.21599640125E+02  0.42462049016E+02  0.62653605097E+02  0.10000000000E+01 0.  0.
<mgrwt>
<rscale>  0 0.12499535E+03</rscale>
<asrwt>0</asrwt>
<pdfrwt beam="1">  1        4 0.49871095E-01 0.12499535E+03</pdfrwt>
<pdfrwt beam="2">  1       -4 0.18537540E-02 0.12499535E+03</pdfrwt>
<totfact> 0.71275919E+03</totfact>
</mgrwt>
</event>
<event>
 5    1  0.3293542E-002  0.1249965E+03  0.7818608E-02  0.1235075E+00
          4   -1    0    0  501    0  0.00000000000E+00  0.00000000000E+00  0.30169122971E+02  0.30195842112E+02  0.12700000000E+01 0.  1.
         -4   -1    0    0    0  501 -0.00000000000E+00 -0.00000000000E+00 -0.12938394161E+03  0.12939017446E+03  0.12700000000E+01 0.  1.
         25    2    1    2    0    0  0.00000000000E+00  0.00000000000E+00 -0.99214818639E+02  0.15958601657E+03  0.12499646574E+03 0.  0.
    9000005    1    3    3    0    0  0.26939063785E+02  0.50070128598E+02 -0.16503592702E+02  0.59212325639E+02  0.10000000000E+01 0.  0.
    9000005    1    3    3    0    0 -0.26939063785E+02 -0.50070128598E+02 -0.82711225937E+02  0.10037369093E+03  0.10000000000E+01 0.  0.
<mgrwt>
<rscale>  0 0.12499647E+03</rscale>
<asrwt>0</asrwt>
<pdfrwt beam="1">  1        4 0.46439384E-02 0.12499647E+03</pdfrwt>
<pdfrwt beam="2">  1       -4 0.19907756E-01 0.12499647E+03</pdfrwt>
<totfact> 0.97430397E+03</totfact>
</mgrwt>
</event>
<event>
 5    1  0.3293542E-002  0.1249963E+03  0.7818608E-02  0.1235075E+00
         -4   -1    0    0    0  501 -0.00000000000E+00  0.00000000000E+00  0.67089915199E+02  0.67101934558E+02  0.12700000000E+01 0. -1.
          4   -1    0    0  501    0  0.00000000000E+00 -0.00000000000E+00 -0.58196533910E+02  0.58210389615E+02  0.12700000000E+01 0. -1.
         25    2    1    2    0    0  0.00000000000E+00  0.00000000000E+00  0.88933812890E+01  0.12531232417E+03  0.12499634538E+03 0.  0.
    9000005    1    3    3    0    0 -0.14242287929E+02  0.19935026550E+02  0.62079172470E+02  0.66746323521E+02  0.10000000000E+01 0.  0.
    9000005    1    3    3    0    0  0.14242287929E+02 -0.19935026550E+02 -0.53185791181E+02  0.58566000653E+02  0.10000000000E+01 0.  0.
<mgrwt>
<rscale>  0 0.12499635E+03</rscale>
<asrwt>0</asrwt>
<pdfrwt beam="2">  1        4 0.89553034E-02 0.12499635E+03</pdfrwt>
<pdfrwt beam="1">  1       -4 0.10323516E-01 0.12499635E+03</pdfrwt>
<totfact> 0.10446945E+04</totfact>
</mgrwt>
</event>
<event>
 5    1  0.3293542E-002  0.1250013E+03  0.7818608E-02  0.1235067E+00
          4   -1    0    0  501    0  0.00000000000E+00  0.00000000000E+00  0.23199508158E+02  0.23234243667E+02  0.12700000000E+01 0.  1.
         -4   -1    0    0    0  501 -0.00000000000E+00 -0.00000000000E+00 -0.16821690320E+03  0.16822169724E+03  0.12700000000E+01 0.  1.
         25    2    1    2    0    0  0.00000000000E+00  0.00000000000E+00 -0.14501739505E+03  0.19145594091E+03  0.12500132977E+03 0.  0.
    9000005    1    3    3    0    0 -0.49793297940E+02 -0.24163359618E+02 -0.28062547210E+02  0.62062444552E+02  0.10000000000E+01 0.  0.
    9000005    1    3    3    0    0  0.49793297940E+02  0.24163359618E+02 -0.11695484784E+03  0.12939349636E+03  0.10000000000E+01 0.  0.
<mgrwt>
<rscale>  0 0.12500133E+03</rscale>
<asrwt>0</asrwt>
<pdfrwt beam="1">  1        4 0.35721959E-02 0.12500133E+03</pdfrwt>
<pdfrwt beam="2">  1       -4 0.25882564E-01 0.12500133E+03</pdfrwt>
<totfact> 0.91591874E+03</totfact>
</mgrwt>
</event>
<event>
 5    1  0.3293542E-002  0.1250004E+03  0.7818608E-02  0.1235069E+00
         -4   -1    0    0    0  501 -0.00000000000E+00  0.00000000000E+00  0.42371872590E+03  0.42372062917E+03  0.12700000000E+01 0.  1.
          4   -1    0    0  501    0  0.00000000000E+00 -0.00000000000E+00 -0.91733585746E+01  0.92608534994E+01  0.12700000000E+01 0.  1.
         25    2    1    2    0    0  0.00000000000E+00  0.00000000000E+00  0.41454536733E+03  0.43298148267E+03  0.12500041103E+03 0.  0.
    9000005    1    3    3    0    0  0.62025438958E+02 -0.32027732036E+01  0.23123656629E+03  0.23943425491E+03  0.10000000000E+01 0.  0.
    9000005    1    3    3    0    0 -0.62025438958E+02  0.32027732036E+01  0.18330880104E+03  0.19354722776E+03  0.10000000000E+01 0.  0.
<mgrwt>
<rscale>  0 0.12500041E+03</rscale>
<asrwt>0</asrwt>
<pdfrwt beam="2">  1        4 0.14181627E-02 0.12500041E+03</pdfrwt>
<pdfrwt beam="1">  1       -4 0.65194375E-01 0.12500041E+03</pdfrwt>
<totfact> 0.61466105E+03</totfact>
</mgrwt>
</event>
<event>
 5    1  0.3293542E-002  0.1250049E+03  0.7818608E-02  0.1235062E+00
          4   -1    0    0  501    0  0.00000000000E+00  0.00000000000E+00  0.53701607305E+02  0.53716622447E+02  0.12700000000E+01 0. -1.
         -4   -1    0    0    0  501 -0.00000000000E+00 -0.00000000000E+00 -0.72714863068E+02  0.72725952802E+02  0.12700000000E+01 0. -1.
         25    2    1    2    0    0  0.00000000000E+00  0.00000000000E+00 -0.19013255764E+02  0.12644257525E+03  0.12500488367E+03 0.  0.
    9000005    1    3    3    0    0  0.45711242273E+02 -0.39853666491E+02  0.57574172197E+01  0.60926022814E+02  0.10000000000E+01 0.  0.
    9000005    1    3    3    0    0 -0.45711242273E+02  0.39853666491E+02 -0.24770672983E+02  0.65516552435E+02  0.10000000000E+01 0.  0.
<mgrwt>
<rscale>  0 0.12500488E+03</rscale>
<asrwt>0</asrwt>
<pdfrwt beam="1">  1        4 0.82637938E-02 0.12500488E+03</pdfrwt>
<pdfrwt beam="2">  1       -4 0.11188910E-01 0.12500488E+03</pdfrwt>
<totfact> 0.10420132E+04</totfact>
</mgrwt>
</event>
<event>
 5    1  0.3293542E-002  0.1249977E+03  0.7818608E-02  0.1235073E+00
          4   -1    0    0  501    0  0.00000000000E+00  0.00000000000E+00  0.44238789519E+03  0.44238971813E+03  0.12700000000E+01 0.  1.
         -4   -1    0    0    0  501 -0.00000000000E+00 -0.00000000000E+00 -0.87820813281E+01  0.88734352115E+01  0.12700000000E+01 0.  1.
         25    2    1    2    0    0  0.00000000000E+00  0.00000000000E+00  0.43360581386E+03  0.45126315334E+03  0.12499772699E+03 0.  0.
    9000005    1    3    3    0    0 -0.22454310811E+02 -0.35005034010E+02  0.48414093486E+02  0.63831598195E+02  0.10000000000E+01 0.  0.
    9000005    1    3    3    0    0  0.22454310811E+02  0.35005034010E+02  0.38519172037E+03  0.38743155515E+03  0.10000000000E+01 0.  0.
<mgrwt>
<rscale>  0 0.12499773E+03</rscale>
<asrwt>0</asrwt>
<pdfrwt beam="1">  1        4 0.68066849E-01 0.12499773E+03</pdfrwt>
<pdfrwt beam="2">  1       -4 0.13582568E-02 0.12499773E+03</pdfrwt>
<totfact> 0.59857516E+03</totfact>
</mgrwt>
</event>
<event>
 5    1  0.3293542E-002  0.1250013E+03  0.7818608E-02  0.1235067E+00
          4   -1    0    0  501    0  0.00000000000E+00  0.00000000000E+00  0.11587028986E+03  0.11587724958E+03  0.12700000000E+01 0. -1.
         -4   -1    0    0    0  501 -0.00000000000E+00 -0.00000000000E+00 -0.33693035578E+02  0.33716962296E+02  0.12700000000E+01 0. -1.
         25    2    1    2    0    0  0.00000000000E+00  0.00000000000E+00  0.82177254277E+02  0.14959421188E+03  0.12500130842E+03 0.  0.
    9000005    1    3    3    0    0  0.21204242124E+02 -0.44219575202E+02  0.87443482341E+02  0.10026142488E+03  0.10000000000E+01 0.  0.
    9000005    1    3    3    0    0 -0.21204242124E+02  0.44219575202E+02 -0.52662280641E+01  0.49332786999E+02  0.10000000000E+01 0.  0.
<mgrwt>
<rscale>  0 0.12500131E+03</rscale>
<asrwt>0</asrwt>
<pdfrwt beam="1">  1        4 0.17828574E-01 0.12500131E+03</pdfrwt>
<pdfrwt beam="2">  1       -4 0.51859198E-02 0.12500131E+03</pdfrwt>
<totfact> 0.99381720E+03</totfact>
</mgrwt>
</event>
<event>
 5    1  0.3293542E-002  0.1249982E+03  0.7818608E-02  0.1235072E+00
         -4   -1    0    0    0  501 -0.00000000000E+00  0.00000000000E+00  0.45825600563E+02  0.45843195427E+02  0.12700000000E+01 0.  1.
          4   -1    0    0  501    0  0.00000000000E+00 -0.00000000000E+00 -0.85200539399E+02  0.85210004189E+02  0.12700000000E+01 0.  1.
         25    2    1    2    0    0  0.00000000000E+00  0.00000000000E+00 -0.39374938835E+02  0.13105319962E+03  0.12499822127E+03 0.  0.
    9000005    1    3    3    0    0 -0.25673924315E+01  0.26075998372E+02  0.39793303012E+02  0.47655599457E+02  0.10000000000E+01 0.  0.
    9000005    1    3    3    0    0  0.25673924315E+01 -0.26075998372E+02 -0.79168241848E+02  0.83397600159E+02  0.10000000000E+01 0.  0.
<mgrwt>
<rscale>  0 0.12499822E+03</rscale>
<asrwt>0</asrwt>
<pdfrwt beam="2">  1        4 0.13109857E-01 0.12499822E+03</pdfrwt>
<pdfrwt beam="1">  1       -4 0.70521739E-02 0.12499822E+03</pdfrwt>
<totfact> 0.10322363E+04</totfact>
</mgrwt>
</event>
<event>
 5    1  0.3293542E-002  0.1249967E+03  0.7818608E-02  0.1235074E+00
         -4   -1    0    0    0  501 -0.00000000000E+00  0.00000000000E+00  0.16235779776E+02  0.16285375185E+02  0.12700000000E+01 0. -1.
          4   -1    0    0  501    0  0.00000000000E+00 -0.00000000000E+00 -0.24016443301E+03  0.24016779090E+03  0.12700000000E+01 0. -1.
         25    2    1    2    0    0  0.00000000000E+00  0.00000000000E+00 -0.22392865324E+03  0.25645316608E+03  0.12499673857E+03 0.  0.
    9000005    1    3    3    0    0 -0.21174812883E+02 -0.47245927767E+02 -0.18375830643E+03  0.19091533614E+03  0.10000000000E+01 0.  0.
    9000005    1    3    3    0    0  0.21174812883E+02  0.47245927767E+02 -0.40170346813E+02  0.65537829948E+02  0.10000000000E+01 0.  0.
<mgrwt>
<rscale>  0 0.12499674E+03</rscale>
<asrwt>0</asrwt>
<pdfrwt beam="2">  1        4 0.36952445E-01 0.12499674E+03</pdfrwt>
<pdfrwt beam="1">  1       -4 0.25018858E-02 0.12499674E+03</pdfrwt>
<totfact> 0.81412312E+03</totfact>
</mgrwt>
</event>
<event>
 5    1  0.3293542E-002  0.1249970E+03  0.7818608E-02  0.1235074E+00
          4   -1    0    0  501    0  0.00000000000E+00  0.00000000000E+00  0.32723719224E+02  0.32748354154E+02  0.12700000000E+01 0. -1.
         -4   -1    0    0    0  501 -0.00000000000E+00 -0.00000000000E+00 -0.11929193879E+03  0.11929869891E+03  0.12700000000E+01 0. -1.
         25    2    1    2    0    0  0.00000000000E+00  0.00000000000E+00 -0.86568219569E+02  0.15204705306E+03  0.12499699879E+03 0.  0.
    9000005    1    3    3    0    0  0.40091936344E+02 -0.37003642483E+02 -0.62200583856E+01  0.54921052823E+02  0.10000000000E+01 0.  0.
    9000005    1    3    3    0    0 -0.40091936344E+02  0.37003642483E+02 -0.80348161183E+02  0.97126000239E+02  0.10000000000E+01 0.  0.
<mgrwt>
<rscale>  0 0.12499700E+03</rscale>
<asrwt>0</asrwt>
<pdfrwt beam="1">  1        4 0.50368334E-02 0.12499700E+03</pdfrwt>
<pdfrwt beam="2">  1       -4 0.18355021E-01 0.12499700E+03</pdfrwt>
<totfact> 0.98903882E+03</totfact>
</mgrwt>
</event>
<event>
 5    1  0.3293542E-002  0.1250009E+03  0.7818608E-02  0.1235068E+00
          4   -1    0    0  501    0  0.00000000000E+00  0.00000000000E+00  0.17515455285E+04  0.17515459889E+04  0.12700000000E+01 0.  1.
         -4   -1    0    0    0  501 -0.00000000000E+00 -0.00000000000E+00 -0.20489057783E+01  0.24105839310E+01  0.12700000000E+01 0.  1.
         25    2    1    2    0    0  0.00000000000E+00  0.00000000000E+00  0.17494966227E+04  0.17539565729E+04  0.12500090615E+03 0.  0.
    9000005    1    3    3    0    0  0.42451740020E+02  0.39644000040E+02  0.55125801487E+03  0.55431055910E+03  0.10000000000E+01 0.  0.
    9000005    1    3    3    0    0 -0.42451740020E+02 -0.39644000040E+02  0.11982386079E+04  0.11996460138E+04  0.10000000000E+01 0.  0.
<mgrwt>
<rscale>  0 0.12500091E+03</rscale>
<asrwt>0</asrwt>
<pdfrwt beam="1">  1        4 0.26949709E+00 0.12500091E+03</pdfrwt>
<pdfrwt beam="2">  1       -4 0.34307221E-03 0.12500091E+03</pdfrwt>
<totfact> 0.13426039E+03</totfact>
</mgrwt>
</event>
<event>
 5    1  0.3293542E-002  0.1249831E+03  0.7818608E-02  0.1235096E+00
         -4   -1    0    0    0  501 -0.00000000000E+00  0.00000000000E+00  0.14322411549E+03  0.14322974606E+03  0.12700000000E+01 0.  1.
          4   -1    0    0  501    0  0.00000000000E+00 -0.00000000000E+00 -0.27245368323E+02  0.27274951788E+02  0.12700000000E+01 0.  1.
         25    2    1    2    0    0  0.00000000000E+00  0.00000000000E+00  0.11597874716E+03  0.17050469785E+03  0.12498312764E+03 0.  0.
    9000005    1    3    3    0    0 -0.20949650520E+01 -0.43565009059E+02  0.11902814562E+03  0.12677144135E+03  0.10000000000E+01 0.  0.
    9000005    1    3    3    0    0  0.20949650520E+01  0.43565009059E+02 -0.30493984564E+01  0.43733256497E+02  0.10000000000E+01 0.  0.
<mgrwt>
<rscale>  0 0.12498313E+03</rscale>
<asrwt>0</asrwt>
<pdfrwt beam="2">  1        4 0.41943039E-02 0.12498313E+03</pdfrwt>
<pdfrwt beam="1">  1       -4 0.22037188E-01 0.12498313E+03</pdfrwt>
<totfact> 0.95390769E+03</totfact>
</mgrwt>
</event>
<event>
 5    1  0.3293542E-002  0.1250010E+03  0.7818608E-02  0.1235068E+00
          4   -1    0    0  501    0  0.00000000000E+00  0.00000000000E+00  0.30028409020E+03  0.30028677581E+03  0.12700000000E+01 0.  1.
         -4   -1    0    0    0  501 -0.00000000000E+00 -0.00000000000E+00 -0.12974976898E+02  0.13036982991E+02  0.12700000000E+01 0.  1.
         25    2    1    2    0    0  0.00000000000E+00  0.00000000000E+00  0.28730911330E+03  0.31332375880E+03  0.12500100497E+03 0.  0.
    9000005    1    3    3    0    0 -0.50009048386E+02  0.16675976125E+02  0.22777676508E+03  0.23379958898E+03  0.10000000000E+01 0.  0.
    9000005    1    3    3    0    0  0.50009048386E+02 -0.16675976125E+02  0.59532348225E+02  0.79524169819E+02  0.10000000000E+01 0.  0.
<mgrwt>
<rscale>  0 0.12500100E+03</rscale>
<asrwt>0</asrwt>
<pdfrwt beam="1">  1        4 0.46202528E-01 0.12500100E+03</pdfrwt>
<pdfrwt beam="2">  1       -4 0.20011266E-02 0.12500100E+03</pdfrwt>
<totfact> 0.73955626E+03</totfact>
</mgrwt>
</event>
<event>
 5    1  0.3293542E-002  0.1249999E+03  0.7818608E-02  0.1235070E+00
          4   -1    0    0  501    0  0.00000000000E+00  0.00000000000E+00  0.51659010355E+03  0.51659166465E+03  0.12700000000E+01 0. -1.
         -4   -1    0    0    0  501 -0.00000000000E+00 -0.00000000000E+00 -0.75066775916E+01  0.76133506727E+01  0.12700000000E+01 0. -1.
         25    2    1    2    0    0  0.00000000000E+00  0.00000000000E+00  0.50908342596E+03  0.52420501533E+03  0.12499985402E+03 0.  0.
    9000005    1    3    3    0    0 -0.33017614426E+02  0.45715812320E+02  0.36747015873E+03  0.37177333944E+03  0.10000000000E+01 0.  0.
    9000005    1    3    3    0    0  0.33017614426E+02 -0.45715812320E+02  0.14161326723E+03  0.15243167589E+03  0.10000000000E+01 0.  0.
<mgrwt>
<rscale>  0 0.12499985E+03</rscale>
<asrwt>0</asrwt>
<pdfrwt beam="1">  1        4 0.79483744E-01 0.12499985E+03</pdfrwt>
<pdfrwt beam="2">  1       -4 0.11631989E-02 0.12499985E+03</pdfrwt>
<totfact> 0.54034239E+03</totfact>
</mgrwt>
</event>
<event>
 5    1  0.3293542E-002  0.1249958E+03  0.7818608E-02  0.1235076E+00
          4   -1    0    0  501    0  0.00000000000E+00  0.00000000000E+00  0.53574230936E+01  0.55058952227E+01  0.12700000000E+01 0. -1.
         -4   -1    0    0    0  501 -0.00000000000E+00 -0.00000000000E+00 -0.71896651613E+03  0.71896763781E+03  0.12700000000E+01 0. -1.
         25    2    1    2    0    0  0.00000000000E+00  0.00000000000E+00 -0.71360909304E+03  0.72447353303E+03  0.12499584953E+03 0.  0.
    9000005    1    3    3    0    0 -0.35260963837E+02 -0.40925966619E+02 -0.17474059689E+03  0.18290310690E+03  0.10000000000E+01 0.  0.
    9000005    1    3    3    0    0  0.35260963837E+02  0.40925966619E+02 -0.53886849615E+03  0.54157042613E+03  0.10000000000E+01 0.  0.
<mgrwt>
<rscale>  0 0.12499585E+03</rscale>
<asrwt>0</asrwt>
<pdfrwt beam="1">  1        4 0.83572672E-03 0.12499585E+03</pdfrwt>
<pdfrwt beam="2">  1       -4 0.11062167E+00 0.12499585E+03</pdfrwt>
<totfact> 0.41829636E+03</totfact>
</mgrwt>
</event>
<event>
 5    1  0.3293542E-002  0.1250002E+03  0.7818608E-02  0.1235069E+00
         -4   -1    0    0    0  501 -0.00000000000E+00  0.00000000000E+00  0.73183705410E+02  0.73194724110E+02  0.12700000000E+01 0.  1.
          4   -1    0    0  501    0  0.00000000000E+00 -0.00000000000E+00 -0.53353548171E+02  0.53368661239E+02  0.12700000000E+01 0.  1.
         25    2    1    2    0    0  0.00000000000E+00  0.00000000000E+00  0.19830157239E+02  0.12656338535E+03  0.12500022150E+03 0.  0.
    9000005    1    3    3    0    0  0.14051638241E+02  0.21624050854E+02  0.67549808681E+02  0.72311995999E+02  0.10000000000E+01 0.  0.
    9000005    1    3    3    0    0 -0.14051638241E+02 -0.21624050854E+02 -0.47719651442E+02  0.54251389349E+02  0.10000000000E+01 0.  0.
<mgrwt>
<rscale>  0 0.12500022E+03</rscale>
<asrwt>0</asrwt>
<pdfrwt beam="2">  1        4 0.82102484E-02 0.12500022E+03</pdfrwt>
<pdfrwt beam="1">  1       -4 0.11261042E-01 0.12500022E+03</pdfrwt>
<totfact> 0.10418594E+04</totfact>
</mgrwt>
</event>
<event>
 5    1  0.3293542E-002  0.1250001E+03  0.7818608E-02  0.1235069E+00
         -4   -1    0    0    0  501 -0.00000000000E+00  0.00000000000E+00  0.15008415379E+03  0.15008952701E+03  0.12700000000E+01 0. -1.
          4   -1    0    0  501    0  0.00000000000E+00 -0.00000000000E+00 -0.26005766511E+02  0.26036758474E+02  0.12700000000E+01 0. -1.
         25    2    1    2    0    0  0.00000000000E+00  0.00000000000E+00  0.12407838728E+03  0.17612628549E+03  0.12500008900E+03 0.  0.
    9000005    1    3    3    0    0 -0.40518771993E+02 -0.22294408896E+02  0.28198224023E+01  0.46343963471E+02  0.10000000000E+01 0.  0.
    9000005    1    3    3    0    0  0.40518771993E+02  0.22294408896E+02  0.12125856488E+03  0.12978232202E+03  0.10000000000E+01 0.  0.
<mgrwt>
<rscale>  0 0.12500009E+03</rscale>
<asrwt>0</asrwt>
<pdfrwt beam="2">  1        4 0.40036845E-02 0.12500009E+03</pdfrwt>
<pdfrwt beam="1">  1       -4 0.23092667E-01 0.12500009E+03</pdfrwt>
<totfact> 0.94318779E+03</totfact>
</mgrwt>
</event>
<event>
 5    1  0.3293542E-002  0.1250086E+03  0.7818608E-02  0.1235056E+00
         -4   -1    0    0    0  501 -0.00000000000E+00  0.00000000000E+00  0.19381463729E+03  0.19381879818E+03  0.12700000000E+01 0.  1.
          4   -1    0    0  501    0  0.00000000000E+00 -0.00000000000E+00 -0.20132951442E+02  0.20172967897E+02  0.12700000000E+01 0.  1.
         25    2    1    2    0    0  0.00000000000E+00  0.00000000000E+00  0.17368168585E+03  0.21399176608E+03  0.12500859150E+03 0.  0.
    9000005    1    3    3    0    0 -0.36232696424E+02 -0.35377233587E+02  0.24144643513E+02  0.56109898920E+02  0.10000000000E+01 0.  0.
    9000005    1    3    3    0    0  0.36232696424E+02  0.35377233587E+02  0.14953704233E+03  0.15788186716E+03  0.10000000000E+01 0.  0.
<mgrwt>
<rscale>  0 0.12500859E+03</rscale>
<asrwt>0</asrwt>
<pdfrwt beam="2">  1        4 0.31007755E-02 0.12500859E+03</pdfrwt>
<pdfrwt beam="1">  1       -4 0.29821033E-01 0.12500859E+03</pdfrwt>
<totfact> 0.87811234E+03</totfact>
</mgrwt>
</event>
<event>
 5    1  0.3293542E-002  0.1249983E+03  0.7818608E-02  0.1235072E+00
         -4   -1    0    0    0  501 -0.00000000000E+00  0.00000000000E+00  0.16972259434E+01  0.21197820414E+01  0.12700000000E+01 0.  1.
          4   -1    0    0  501    0  0.00000000000E+00 -0.00000000000E+00 -0.20462807947E+04  0.20462811888E+04  0.12700000000E+01 0.  1.
         25    2    1    2    0    0  0.00000000000E+00  0.00000000000E+00 -0.20445835688E+04  0.20484009709E+04  0.12499827093E+03 0.  0.
    9000005    1    3    3    0    0 -0.37418809559E+02 -0.99606628225E+01 -0.21851195935E+03  0.22191858527E+03  0.10000000000E+01 0.  0.
    9000005    1    3    3    0    0  0.37418809559E+02  0.99606628225E+01 -0.18260716094E+04  0.18264823856E+04  0.10000000000E+01 0.  0.
<mgrwt>
<rscale>  0 0.12499827E+03</rscale>
<asrwt>0</asrwt>
<pdfrwt beam="2">  1        4 0.31484321E+00 0.12499827E+03</pdfrwt>
<pdfrwt beam="1">  1       -4 0.29364795E-03 0.12499827E+03</pdfrwt>
<totfact> 0.92431320E+02</totfact>
</mgrwt>
</event>
<event>
 5    1  0.3293542E-002  0.1250003E+03  0.7818608E-02  0.1235069E+00
         -4   -1    0    0    0  501 -0.00000000000E+00  0.00000000000E+00  0.26490934737E+02  0.26521359754E+02  0.12700000000E+01 0.  1.
          4   -1    0    0  501    0  0.00000000000E+00 -0.00000000000E+00 -0.14733908777E+03  0.14734456109E+03  0.12700000000E+01 0.  1.
         25    2    1    2    0    0  0.00000000000E+00  0.00000000000E+00 -0.12084815303E+03  0.17386592085E+03  0.12500032937E+03 0.  0.
    9000005    1    3    3    0    0  0.41598924510E+02  0.31374293515E+02 -0.10841505174E+03  0.12028981776E+03  0.10000000000E+01 0.  0.
    9000005    1    3    3    0    0 -0.41598924510E+02 -0.31374293515E+02 -0.12433101290E+02  0.53576103084E+02  0.10000000000E+01 0.  0.
<mgrwt>
<rscale>  0 0.12500033E+03</rscale>
<asrwt>0</asrwt>
<pdfrwt beam="2">  1        4 0.22670313E-01 0.12500033E+03</pdfrwt>
<pdfrwt beam="1">  1       -4 0.40782899E-02 0.12500033E+03</pdfrwt>
<totfact> 0.94732256E+03</totfact>
</mgrwt>
</event>
<event>
 5    1  0.3293542E-002  0.1249985E+03  0.7818608E-02  0.1235072E+00
         -4   -1    0    0    0  501 -0.00000000000E+00  0.00000000000E+00  0.89624025525E+01  0.90519367825E+01  0.12700000000E+01 0.  1.
          4   -1    0    0  501    0  0.00000000000E+00 -0.00000000000E+00 -0.43358161325E+03  0.43358347322E+03  0.12700000000E+01 0.  1.
         25    2    1    2    0    0  0.00000000000E+00  0.00000000000E+00 -0.42461921069E+03  0.44263541000E+03  0.12499852837E+03 0.  0.
    9000005    1    3    3    0    0 -0.56715696607E+02  0.26218119741E+02 -0.21602015518E+03  0.22487722759E+03  0.10000000000E+01 0.  0.
    9000005    1    3    3    0    0  0.56715696607E+02 -0.26218119741E+02 -0.20859905552E+03  0.21775818241E+03  0.10000000000E+01 0.  0.
<mgrwt>
<rscale>  0 0.12499853E+03</rscale>
<asrwt>0</asrwt>
<pdfrwt beam="2">  1        4 0.66711878E-01 0.12499853E+03</pdfrwt>
<pdfrwt beam="1">  1       -4 0.13858618E-02 0.12499853E+03</pdfrwt>
<totfact> 0.60609104E+03</totfact>
</mgrwt>
</event>
<event>
 5    1  0.3293542E-002  0.1249920E+03  0.7818608E-02  0.1235082E+00
         -4   -1    0    0    0  501 -0.00000000000E+00  0.00000000000E+00  0.17679235881E+03  0.17679692031E+03  0.12700000000E+01 0.  1.
          4   -1    0    0  501    0  0.00000000000E+00 -0.00000000000E+00 -0.22069194860E+02  0.22105706543E+02  0.12700000000E+01 0.  1.
         25    2    1    2    0    0  0.00000000000E+00  0.00000000000E+00  0.15472316395E+03  0.19890262686E+03  0.12499198978E+03 0.  0.
    9000005    1    3    3    0    0 -0.13452215537E+01 -0.35322338020E+02 -0.46382307890E+01  0.35664973981E+02  0.10000000000E+01 0.  0.
    9000005    1    3    3    0    0  0.13452215537E+01  0.35322338020E+02  0.15936139473E+03  0.16323765287E+03  0.10000000000E+01 0.  0.
<mgrwt>
<rscale>  0 0.12499199E+03</rscale>
<asrwt>0</asrwt>
<pdfrwt beam="2">  1        4 0.33984202E-02 0.12499199E+03</pdfrwt>
<pdfrwt beam="1">  1       -4 0.27201984E-01 0.12499199E+03</pdfrwt>
<totfact> 0.90337110E+03</totfact>
</mgrwt>
</event>
<event>
 5    1  0.3293542E-002  0.1249974E+03  0.7818608E-02  0.1235073E+00
          4   -1    0    0  501    0  0.00000000000E+00  0.00000000000E+00  0.31984795619E+03  0.31985047754E+03  0.12700000000E+01 0.  1.
         -4   -1    0    0    0  501 -0.00000000000E+00 -0.00000000000E+00 -0.12176738262E+02  0.12242787864E+02  0.12700000000E+01 0.  1.
         25    2    1    2    0    0  0.00000000000E+00  0.00000000000E+00  0.30767121793E+03  0.33209326540E+03  0.12499743430E+03 0.  0.
    9000005    1    3    3    0    0  0.31113027635E+02  0.38552290725E+02  0.52640096987E+02  0.72293010862E+02  0.10000000000E+01 0.  0.
    9000005    1    3    3    0    0 -0.31113027635E+02 -0.38552290725E+02  0.25503112094E+03  0.25980025454E+03  0.10000000000E+01 0.  0.
<mgrwt>
<rscale>  0 0.12499743E+03</rscale>
<asrwt>0</asrwt>
<pdfrwt beam="1">  1        4 0.49212661E-01 0.12499743E+03</pdfrwt>
<pdfrwt beam="2">  1       -4 0.18786187E-02 0.12499743E+03</pdfrwt>
<totfact> 0.71744577E+03</totfact>
</mgrwt>
</event>
<event>
 5    1  0.3293542E-002  0.1249946E+03  0.7818608E-02  0.1235078E+00
         -4   -1    0    0    0  501 -0.00000000000E+00  0.00000000000E+00  0.43566227698E+02  0.43584734666E+02  0.12700000000E+01 0. -1.
          4   -1    0    0  501    0  0.00000000000E+00 -0.00000000000E+00 -0.89612574884E+02  0.89621573727E+02  0.12700000000E+01 0. -1.
         25    2    1    2    0    0  0.00000000000E+00  0.00000000000E+00 -0.46046347185E+02  0.13320630839E+03  0.12499461791E+03 0.  0.
    9000005    1    3    3    0    0  0.59988547795E+02  0.97714273806E+01 -0.38496224676E+02  0.71951830928E+02  0.10000000000E+01 0.  0.
    9000005    1    3    3    0    0 -0.59988547795E+02 -0.97714273806E+01 -0.75501225093E+01  0.61254477465E+02  0.10000000000E+01 0.  0.
<mgrwt>
<rscale>  0 0.12499462E+03</rscale>
<asrwt>0</asrwt>
<pdfrwt beam="2">  1        4 0.13788666E-01 0.12499462E+03</pdfrwt>
<pdfrwt beam="1">  1       -4 0.67046124E-02 0.12499462E+03</pdfrwt>
<totfact> 0.10277265E+04</totfact>
</mgrwt>
</event>
<event>
 5    1  0.3293542E-002  0.1250008E+03  0.7818608E-02  0.1235068E+00
         -4   -1    0    0    0  501 -0.00000000000E+00  0.00000000000E+00  0.30192814677E+02  0.30219512870E+02  0.12700000000E+01 0. -1.
          4   -1    0    0  501    0  0.00000000000E+00 -0.00000000000E+00 -0.12929140247E+03  0.12929763978E+03  0.12700000000E+01 0. -1.
         25    2    1    2    0    0  0.00000000000E+00  0.00000000000E+00 -0.99098587789E+02  0.15951715265E+03  0.12500076754E+03 0.  0.
    9000005    1    3    3    0    0 -0.46812709075E+02 -0.38085711390E+02 -0.70258276129E+02  0.92623844164E+02  0.10000000000E+01 0.  0.
    9000005    1    3    3    0    0  0.46812709075E+02  0.38085711390E+02 -0.28840311660E+02  0.66893308482E+02  0.10000000000E+01 0.  0.
<mgrwt>
<rscale>  0 0.12500077E+03</rscale>
<asrwt>0</asrwt>
<pdfrwt beam="2">  1        4 0.19893518E-01 0.12500077E+03</pdfrwt>
<pdfrwt beam="1">  1       -4 0.46475820E-02 0.12500077E+03</pdfrwt>
<totfact> 0.97434274E+03</totfact>
</mgrwt>
</event>
<event>
 5    1  0.3293542E-002  0.1250051E+03  0.7818608E-02  0.1235061E+00
          4   -1    0    0  501    0  0.00000000000E+00  0.00000000000E+00  0.40502329148E+03  0.40502528260E+03  0.12700000000E+01 0. -1.
         -4   -1    0    0    0  501 -0.00000000000E+00 -0.00000000000E+00 -0.96014608113E+01  0.96850890399E+01  0.12700000000E+01 0. -1.
         25    2    1    2    0    0  0.00000000000E+00  0.00000000000E+00  0.39542183067E+03  0.41471037164E+03  0.12500507259E+03 0.  0.
    9000005    1    3    3    0    0 -0.26269315897E+02 -0.54642991152E+02  0.24798393599E+03  0.25528996445E+03  0.10000000000E+01 0.  0.
    9000005    1    3    3    0    0  0.26269315897E+02  0.54642991152E+02  0.14743789468E+03  0.15942040718E+03  0.10000000000E+01 0.  0.
<mgrwt>
<rscale>  0 0.12500507E+03</rscale>
<asrwt>0</asrwt>
<pdfrwt beam="1">  1        4 0.62317856E-01 0.12500507E+03</pdfrwt>
<pdfrwt beam="2">  1       -4 0.14837340E-02 0.12500507E+03</pdfrwt>
<totfact> 0.63139722E+03</totfact>
</mgrwt>
</event>
<event>
 5    1  0.3293542E-002  0.1250003E+03  0.7818608E-02  0.1235069E+00
          4   -1    0    0  501    0  0.00000000000E+00  0.00000000000E+00  0.26180560161E+03  0.26180868193E+03  0.12700000000E+01 0.  1.
         -4   -1    0    0    0  501 -0.00000000000E+00 -0.00000000000E+00 -0.14890297891E+02  0.14944359180E+02  0.12700000000E+01 0.  1.
         25    2    1    2    0    0  0.00000000000E+00  0.00000000000E+00  0.24691530372E+03  0.27675304111E+03  0.12500031421E+03 0.  0.
    9000005    1    3    3    0    0  0.13622387143E+01 -0.35122583647E+01  0.26156483413E+03  0.26159387245E+03  0.10000000000E+01 0.  0.
    9000005    1    3    3    0    0 -0.13622387143E+01  0.35122583647E+01 -0.14649530410E+02  0.15159168656E+02  0.10000000000E+01 0.  0.
<mgrwt>
<rscale>  0 0.12500031E+03</rscale>
<asrwt>0</asrwt>
<pdfrwt beam="1">  1        4 0.40282182E-01 0.12500031E+03</pdfrwt>
<pdfrwt beam="2">  1       -4 0.22952105E-02 0.12500031E+03</pdfrwt>
<totfact> 0.78610055E+03</totfact>
</mgrwt>
</event>
<event>
 5    1  0.3293542E-002  0.1250011E+03  0.7818608E-02  0.1235068E+00
         -4   -1    0    0    0  501 -0.00000000000E+00  0.00000000000E+00  0.53888161609E+02  0.53903124785E+02  0.12700000000E+01 0.  1.
          4   -1    0    0  501    0  0.00000000000E+00 -0.00000000000E+00 -0.72458789233E+02  0.72469918153E+02  0.12700000000E+01 0.  1.
         25    2    1    2    0    0  0.00000000000E+00  0.00000000000E+00 -0.18570627624E+02  0.12637304294E+03  0.12500111108E+03 0.  0.
    9000005    1    3    3    0    0  0.39613509904E+02 -0.41483473369E+02  0.15790354379E+02  0.59501630407E+02  0.10000000000E+01 0.  0.
    9000005    1    3    3    0    0 -0.39613509904E+02  0.41483473369E+02 -0.34360982003E+02  0.66871412531E+02  0.10000000000E+01 0.  0.
<mgrwt>
<rscale>  0 0.12500111E+03</rscale>
<asrwt>0</asrwt>
<pdfrwt beam="2">  1        4 0.11149513E-01 0.12500111E+03</pdfrwt>
<pdfrwt beam="1">  1       -4 0.82924935E-02 0.12500111E+03</pdfrwt>
<totfact> 0.10422537E+04</totfact>
</mgrwt>
</event>
<event>
 5    1  0.3293542E-002  0.1249932E+03  0.7818608E-02  0.1235080E+00
         -4   -1    0    0    0  501 -0.00000000000E+00  0.00000000000E+00  0.48218445231E+01  0.49862896631E+01  0.12700000000E+01 0. -1.
          4   -1    0    0  501    0  0.00000000000E+00 -0.00000000000E+00 -0.79628070414E+03  0.79628171691E+03  0.12700000000E+01 0. -1.
         25    2    1    2    0    0  0.00000000000E+00  0.00000000000E+00 -0.79145885962E+03  0.80126800657E+03  0.12499316738E+03 0.  0.
    9000005    1    3    3    0    0 -0.50159169143E+02 -0.16977098194E+02 -0.18305371750E+03  0.19056187342E+03  0.10000000000E+01 0.  0.
    9000005    1    3    3    0    0  0.50159169143E+02  0.16977098194E+02 -0.60840514212E+03  0.61070613315E+03  0.10000000000E+01 0.  0.
<mgrwt>
<rscale>  0 0.12499317E+03</rscale>
<asrwt>0</asrwt>
<pdfrwt beam="2">  1        4 0.12251735E+00 0.12499317E+03</pdfrwt>
<pdfrwt beam="1">  1       -4 0.75455040E-03 0.12499317E+03</pdfrwt>
<totfact> 0.38213912E+03</totfact>
</mgrwt>
</event>
<event>
 5    1  0.3293542E-002  0.1250015E+03  0.7818608E-02  0.1235067E+00
          4   -1    0    0  501    0  0.00000000000E+00  0.00000000000E+00  0.19925195903E+04  0.19925199950E+04  0.12700000000E+01 0. -1.
         -4   -1    0    0    0  501 -0.00000000000E+00 -0.00000000000E+00 -0.17543815296E+01  0.21658149855E+01  0.12700000000E+01 0. -1.
         25    2    1    2    0    0  0.00000000000E+00  0.00000000000E+00  0.19907652087E+04  0.19946858100E+04  0.12500145704E+03 0.  0.
    9000005    1    3    3    0    0  0.22492672861E+02  0.56994984020E+02  0.11914643449E+04  0.11930392423E+04  0.10000000000E+01 0.  0.
    9000005    1    3    3    0    0 -0.22492672861E+02 -0.56994984020E+02  0.79930086387E+03  0.80164656770E+03  0.10000000000E+01 0.  0.
<mgrwt>
<rscale>  0 0.12500146E+03</rscale>
<asrwt>0</asrwt>
<pdfrwt beam="1">  1        4 0.30657514E+00 0.12500146E+03</pdfrwt>
<pdfrwt beam="2">  1       -4 0.30158276E-03 0.12500146E+03</pdfrwt>
<totfact> 0.99302509E+02</totfact>
</mgrwt>
</event>
<event>
 5    1  0.3293542E-002  0.1249997E+03  0.7818608E-02  0.1235070E+00
         -4   -1    0    0    0  501 -0.00000000000E+00  0.00000000000E+00  0.22374023492E+02  0.22410038537E+02  0.12700000000E+01 0. -1.
          4   -1    0    0  501    0  0.00000000000E+00 -0.00000000000E+00 -0.17440891969E+03  0.17441354353E+03  0.12700000000E+01 0. -1.
         25    2    1    2    0    0  0.00000000000E+00  0.00000000000E+00 -0.15203489620E+03  0.19682358207E+03  0.12499965118E+03 0.  0.
    9000005    1    3    3    0    0 -0.40612961973E+02  0.47244880051E+02 -0.83688937159E+02  0.10433757508E+03  0.10000000000E+01 0.  0.
    9000005    1    3    3    0    0  0.40612961973E+02 -0.47244880051E+02 -0.68345959036E+02  0.92486006984E+02  0.10000000000E+01 0.  0.
<mgrwt>
<rscale>  0 0.12499965E+03</rscale>
<asrwt>0</asrwt>
<pdfrwt beam="2">  1        4 0.26835267E-01 0.12499965E+03</pdfrwt>
<pdfrwt beam="1">  1       -4 0.34452836E-02 0.12499965E+03</pdfrwt>
<totfact> 0.90674110E+03</totfact>
</mgrwt>
</event>
<event>
 5    1  0.3293542E-002  0.1250346E+03  0.7818608E-02  0.1235015E+00
          4   -1    0    0  501    0  0.00000000000E+00  0.00000000000E+00  0.30372856545E+03  0.30373122061E+03  0.12700000000E+01 0.  1.
         -4   -1    0    0    0  501 -0.00000000000E+00 -0.00000000000E+00 -0.12834054812E+02  0.12896738460E+02  0.12700000000E+01 0.  1.
         25    2    1    2    0    0  0.00000000000E+00  0.00000000000E+00  0.29089451064E+03  0.31662795907E+03  0.12503458779E+03 0.  0.
    9000005    1    3    3    0    0  0.42981167850E+02 -0.94890513886E+01  0.33051214862E+02  0.55052753699E+02  0.10000000000E+01 0.  0.
    9000005    1    3    3    0    0 -0.42981167850E+02  0.94890513886E+01  0.25784329578E+03  0.26157520537E+03  0.10000000000E+01 0.  0.
<mgrwt>
<rscale>  0 0.12503459E+03</rscale>
<asrwt>0</asrwt>
<pdfrwt beam="1">  1        4 0.46732492E-01 0.12503459E+03</pdfrwt>
<pdfrwt beam="2">  1       -4 0.19794963E-02 0.12503459E+03</pdfrwt>
<totfact> 0.73502609E+03</totfact>
</mgrwt>
</event>
<event>
 5    1  0.3293542E-002  0.1250228E+03  0.7818608E-02  0.1235034E+00
          4   -1    0    0  501    0  0.00000000000E+00  0.00000000000E+00  0.29171475303E+03  0.29171751753E+03  0.12700000000E+01 0. -1.
         -4   -1    0    0    0  501 -0.00000000000E+00 -0.00000000000E+00 -0.13362593925E+02  0.13422809557E+02  0.12700000000E+01 0. -1.
         25    2    1    2    0    0  0.00000000000E+00  0.00000000000E+00  0.27835215911E+03  0.30514032709E+03  0.12502277687E+03 0.  0.
    9000005    1    3    3    0    0 -0.14014608164E+02  0.44583981149E+02  0.37879623710E+02  0.60166489922E+02  0.10000000000E+01 0.  0.
    9000005    1    3    3    0    0  0.14014608164E+02 -0.44583981149E+02  0.24047253540E+03  0.24497383717E+03  0.10000000000E+01 0.  0.
<mgrwt>
<rscale>  0 0.12502278E+03</rscale>
<asrwt>0</asrwt>
<pdfrwt beam="1">  1        4 0.44884034E-01 0.12502278E+03</pdfrwt>
<pdfrwt beam="2">  1       -4 0.20606285E-02 0.12502278E+03</pdfrwt>
<totfact> 0.74920662E+03</totfact>
</mgrwt>
</event>
<event>
 5    1  0.3293542E-002  0.1249988E+03  0.7818608E-02  0.1235071E+00
         -4   -1    0    0    0  501 -0.00000000000E+00  0.00000000000E+00  0.22472239924E+02  0.22508097814E+02  0.12700000000E+01 0.  1.
          4   -1    0    0  501    0  0.00000000000E+00 -0.00000000000E+00 -0.17364543882E+03  0.17365008299E+03  0.12700000000E+01 0.  1.
         25    2    1    2    0    0  0.00000000000E+00  0.00000000000E+00 -0.15117319890E+03  0.19615818081E+03  0.12499878332E+03 0.  0.
    9000005    1    3    3    0    0 -0.35080510667E+02  0.48308072138E+01 -0.15638848175E+03  0.16035066620E+03  0.10000000000E+01 0.  0.
    9000005    1    3    3    0    0  0.35080510667E+02 -0.48308072138E+01  0.52152828527E+01  0.35807514605E+02  0.10000000000E+01 0.  0.
<mgrwt>
<rscale>  0 0.12499878E+03</rscale>
<asrwt>0</asrwt>
<pdfrwt beam="2">  1        4 0.26717798E-01 0.12499878E+03</pdfrwt>
<pdfrwt beam="1">  1       -4 0.34603833E-02 0.12499878E+03</pdfrwt>
<totfact> 0.90789188E+03</totfact>
</mgrwt>
</event>
<event>
 5    1  0.3293542E-002  0.1249977E+03  0.7818608E-02  0.1235073E+00
          4   -1    0    0  501    0  0.00000000000E+00  0.00000000000E+00  0.98563408739E+03  0.98563490560E+03  0.12700000000E+01 0. -1.
         -4   -1    0    0    0  501 -0.00000000000E+00 -0.00000000000E+00 -0.38604538805E+01  0.40639887012E+01  0.12700000000E+01 0. -1.
         25    2    1    2    0    0  0.00000000000E+00  0.00000000000E+00  0.98177363351E+03  0.98969889430E+03  0.12499773564E+03 0.  0.
    9000005    1    3    3    0    0 -0.17261961628E+01 -0.56533911754E+02  0.70127304054E+03  0.70355095076E+03  0.10000000000E+01 0.  0.
    9000005    1    3    3    0    0  0.17261961628E+01  0.56533911754E+02  0.28050059298E+03  0.28614794354E+03  0.10000000000E+01 0.  0.
<mgrwt>
<rscale>  0 0.12499774E+03</rscale>
<asrwt>0</asrwt>
<pdfrwt beam="1">  1        4 0.15165169E+00 0.12499774E+03</pdfrwt>
<pdfrwt beam="2">  1       -4 0.60963562E-03 0.12499774E+03</pdfrwt>
<totfact> 0.30948600E+03</totfact>
</mgrwt>
</event>
<event>
 5    1  0.3293542E-002  0.1250037E+03  0.7818608E-02  0.1235064E+00
         -4   -1    0    0    0  501 -0.00000000000E+00  0.00000000000E+00  0.30831986400E+04  0.30831989016E+04  0.12700000000E+01 0. -1.
          4   -1    0    0  501    0  0.00000000000E+00 -0.00000000000E+00 -0.94844853118E+00  0.15850724325E+01  0.12700000000E+01 0. -1.
         25    2    1    2    0    0  0.00000000000E+00  0.00000000000E+00  0.30822501915E+04  0.30847839740E+04  0.12500369358E+03 0.  0.
    9000005    1    3    3    0    0 -0.18762589502E+02  0.28414309815E+02  0.28343020491E+04  0.28345067495E+04  0.10000000000E+01 0.  0.
    9000005    1    3    3    0    0  0.18762589502E+02 -0.28414309815E+02  0.24794814238E+03  0.25027722444E+03  0.10000000000E+01 0.  0.
<mgrwt>
<rscale>  0 0.12500369E+03</rscale>
<asrwt>0</asrwt>
<pdfrwt beam="2">  1        4 0.19490845E-03 0.12500369E+03</pdfrwt>
<pdfrwt beam="1">  1       -4 0.47438214E+00 0.12500369E+03</pdfrwt>
<totfact> 0.15175000E+02</totfact>
</mgrwt>
</event>
<event>
 5    1  0.3293542E-002  0.1250023E+03  0.7818608E-02  0.1235066E+00
          4   -1    0    0  501    0  0.00000000000E+00  0.00000000000E+00  0.14329286530E+03  0.14329849317E+03  0.12700000000E+01 0.  1.
         -4   -1    0    0    0  501 -0.00000000000E+00 -0.00000000000E+00 -0.27240628347E+02  0.27270216954E+02  0.12700000000E+01 0.  1.
         25    2    1    2    0    0  0.00000000000E+00  0.00000000000E+00  0.11605223695E+03  0.17056871012E+03  0.12500225267E+03 0.  0.
    9000005    1    3    3    0    0 -0.11695240260E+02 -0.20850937554E+02  0.13681312310E+03  0.13888977966E+03  0.10000000000E+01 0.  0.
    9000005    1    3    3    0    0  0.11695240260E+02  0.20850937554E+02 -0.20760886151E+02  0.31678930464E+02  0.10000000000E+01 0.  0.
<mgrwt>
<rscale>  0 0.12500225E+03</rscale>
<asrwt>0</asrwt>
<pdfrwt beam="1">  1        4 0.22047765E-01 0.12500225E+03</pdfrwt>
<pdfrwt beam="2">  1       -4 0.41935748E-02 0.12500225E+03</pdfrwt>
<totfact> 0.95337922E+03</totfact>
</mgrwt>
</event>
<event>
 5    1  0.3293542E-002  0.1249864E+03  0.7818608E-02  0.1235091E+00
         -4   -1    0    0    0  501 -0.00000000000E+00  0.00000000000E+00  0.58904431148E+02  0.58918120378E+02  0.12700000000E+01 0.  1.
          4   -1    0    0  501    0  0.00000000000E+00 -0.00000000000E+00 -0.66273124171E+02  0.66285291637E+02  0.12700000000E+01 0.  1.
         25    2    1    2    0    0  0.00000000000E+00  0.00000000000E+00 -0.73686930229E+01  0.12520341201E+03  0.12498638623E+03 0.  0.
    9000005    1    3    3    0    0  0.61551500598E+02  0.16025594228E+01 -0.14344429842E+02  0.63229092118E+02  0.10000000000E+01 0.  0.
    9000005    1    3    3    0    0 -0.61551500598E+02 -0.16025594228E+01  0.69757368192E+01  0.61974319897E+02  0.10000000000E+01 0.  0.
<mgrwt>
<rscale>  0 0.12498639E+03</rscale>
<asrwt>0</asrwt>
<pdfrwt beam="2">  1        4 0.10197854E-01 0.12498639E+03</pdfrwt>
<pdfrwt beam="1">  1       -4 0.90642092E-02 0.12498639E+03</pdfrwt>
<totfact> 0.10451661E+04</totfact>
</mgrwt>
</event>
<event>
 5    1  0.3293542E-002  0.1249978E+03  0.7818608E-02  0.1235073E+00
         -4   -1    0    0    0  501 -0.00000000000E+00  0.00000000000E+00  0.14834719527E+02  0.14888982619E+02  0.12700000000E+01 0.  1.
          4   -1    0    0  501    0  0.00000000000E+00 -0.00000000000E+00 -0.26277237798E+03  0.26277544697E+03  0.12700000000E+01 0.  1.
         25    2    1    2    0    0  0.00000000000E+00  0.00000000000E+00 -0.24793765846E+03  0.27766442959E+03  0.12499781190E+03 0.  0.
    9000005    1    3    3    0    0  0.22383812473E+02 -0.45965018491E+02 -0.44145356980E+02  0.67554648460E+02  0.10000000000E+01 0.  0.
    9000005    1    3    3    0    0 -0.22383812473E+02  0.45965018491E+02 -0.20379230148E+03  0.21010978113E+03  0.10000000000E+01 0.  0.
<mgrwt>
<rscale>  0 0.12499781E+03</rscale>
<asrwt>0</asrwt>
<pdfrwt beam="2">  1        4 0.40430926E-01 0.12499781E+03</pdfrwt>
<pdfrwt beam="1">  1       -4 0.22866749E-02 0.12499781E+03</pdfrwt>
<totfact> 0.78492627E+03</totfact>
</mgrwt>
</event>
<event>
 5    1  0.3293542E-002  0.1250008E+03  0.7818608E-02  0.1235068E+00
          4   -1    0    0  501    0  0.00000000000E+00  0.00000000000E+00  0.18345795529E+02  0.18389701292E+02  0.12700000000E+01 0. -1.
         -4   -1    0    0    0  501 -0.00000000000E+00 -0.00000000000E+00 -0.21262595954E+03  0.21262975232E+03  0.12700000000E+01 0. -1.
         25    2    1    2    0    0  0.00000000000E+00  0.00000000000E+00 -0.19428016401E+03  0.23101945361E+03  0.12500082327E+03 0.  0.
    9000005    1    3    3    0    0  0.99568976575E+01 -0.46242910966E+02 -0.17261484926E+03  0.17898165495E+03  0.10000000000E+01 0.  0.
    9000005    1    3    3    0    0 -0.99568976575E+01  0.46242910966E+02 -0.21665314753E+02  0.52037798656E+02  0.10000000000E+01 0.  0.
<mgrwt>
<rscale>  0 0.12500082E+03</rscale>
<asrwt>0</asrwt>
<pdfrwt beam="1">  1        4 0.28260993E-02 0.12500082E+03</pdfrwt>
<pdfrwt beam="2">  1       -4 0.32715354E-01 0.12500082E+03</pdfrwt>
<totfact> 0.85151741E+03</totfact>
</mgrwt>
</event>
<event>
 5    1  0.3293542E-002  0.1250004E+03  0.7818608E-02  0.1235069E+00
          4   -1    0    0  501    0  0.00000000000E+00  0.00000000000E+00  0.15256194209E+03  0.15256722804E+03  0.12700000000E+01 0.  1.
         -4   -1    0    0    0  501 -0.00000000000E+00 -0.00000000000E+00 -0.25583038429E+02  0.25614541871E+02  0.12700000000E+01 0.  1.
         25    2    1    2    0    0  0.00000000000E+00  0.00000000000E+00  0.12697890366E+03  0.17818176992E+03  0.12500040463E+03 0.  0.
    9000005    1    3    3    0    0 -0.23968257640E+01 -0.11270566261E+02  0.15104158929E+03  0.15148376854E+03  0.10000000000E+01 0.  0.
    9000005    1    3    3    0    0  0.23968257640E+01  0.11270566261E+02 -0.24062685630E+02  0.26698001373E+02  0.10000000000E+01 0.  0.
<mgrwt>
<rscale>  0 0.12500040E+03</rscale>
<asrwt>0</asrwt>
<pdfrwt beam="1">  1        4 0.23473898E-01 0.12500040E+03</pdfrwt>
<pdfrwt beam="2">  1       -4 0.39386820E-02 0.12500040E+03</pdfrwt>
<totfact> 0.93944465E+03</totfact>
</mgrwt>
</event>
<event>
 5    1  0.3293542E-002  0.1250044E+03  0.7818608E-02  0.1235062E+00
          4   -1    0    0  501    0  0.00000000000E+00  0.00000000000E+00  0.23223319378E+02  0.23258019325E+02  0.12700000000E+01 0. -1.
         -4   -1    0    0    0  501 -0.00000000000E+00 -0.00000000000E+00 -0.16805281034E+03  0.16805760906E+03  0.12700000000E+01 0. -1.
         25    2    1    2    0    0  0.00000000000E+00  0.00000000000E+00 -0.14482949096E+03  0.19131562839E+03  0.12500435277E+03 0.  0.
    9000005    1    3    3    0    0  0.40063616911E+02 -0.23353602614E+02 -0.13653106171E+03  0.14419505875E+03  0.10000000000E+01 0.  0.
    9000005    1    3    3    0    0 -0.40063616911E+02  0.23353602614E+02 -0.82984292506E+01  0.47120569639E+02  0.10000000000E+01 0.  0.
<mgrwt>
<rscale>  0 0.12500435E+03</rscale>
<asrwt>0</asrwt>
<pdfrwt beam="1">  1        4 0.35758568E-02 0.12500435E+03</pdfrwt>
<pdfrwt beam="2">  1       -4 0.25857316E-01 0.12500435E+03</pdfrwt>
<totfact> 0.91609972E+03</totfact>
</mgrwt>
</event>
<event>
 5    1  0.3293542E-002  0.1250010E+03  0.7818608E-02  0.1235068E+00
         -4   -1    0    0    0  501 -0.00000000000E+00  0.00000000000E+00  0.16416895815E+03  0.16417387039E+03  0.12700000000E+01 0.  1.
          4   -1    0    0  501    0  0.00000000000E+00 -0.00000000000E+00 -0.23772232276E+02  0.23806132138E+02  0.12700000000E+01 0.  1.
         25    2    1    2    0    0  0.00000000000E+00  0.00000000000E+00  0.14039672587E+03  0.18798000253E+03  0.12500096286E+03 0.  0.
    9000005    1    3    3    0    0 -0.22841840996E+02 -0.18831221129E+02  0.15296285018E+03  0.15580435849E+03  0.10000000000E+01 0.  0.
    9000005    1    3    3    0    0  0.22841840996E+02  0.18831221129E+02 -0.12566124307E+02  0.32175644040E+02  0.10000000000E+01 0.  0.
<mgrwt>
<rscale>  0 0.12500096E+03</rscale>
<asrwt>0</asrwt>
<pdfrwt beam="2">  1        4 0.36602519E-02 0.12500096E+03</pdfrwt>
<pdfrwt beam="1">  1       -4 0.25259750E-01 0.12500096E+03</pdfrwt>
<totfact> 0.92197989E+03</totfact>
</mgrwt>
</event>
<event>
 5    1  0.3293542E-002  0.1250009E+03  0.7818608E-02  0.1235068E+00
         -4   -1    0    0    0  501 -0.00000000000E+00  0.00000000000E+00  0.42257275319E+03  0.42257466161E+03  0.12700000000E+01 0.  1.
          4   -1    0    0  501    0  0.00000000000E+00 -0.00000000000E+00 -0.91985402287E+01  0.92857978838E+01  0.12700000000E+01 0.  1.
         25    2    1    2    0    0  0.00000000000E+00  0.00000000000E+00  0.41337421296E+03  0.43186045950E+03  0.12500086614E+03 0.  0.
    9000005    1    3    3    0    0  0.10923407587E+02 -0.51486376808E+02  0.90286718738E+02  0.10451248447E+03  0.10000000000E+01 0.  0.
    9000005    1    3    3    0    0 -0.10923407587E+02  0.51486376808E+02  0.32308749422E+03  0.32734797503E+03  0.10000000000E+01 0.  0.
<mgrwt>
<rscale>  0 0.12500087E+03</rscale>
<asrwt>0</asrwt>
<pdfrwt beam="2">  1        4 0.14220190E-02 0.12500087E+03</pdfrwt>
<pdfrwt beam="1">  1       -4 0.65018052E-01 0.12500087E+03</pdfrwt>
<totfact> 0.61566536E+03</totfact>
</mgrwt>
</event>
<event>
 5    1  0.3293542E-002  0.1250005E+03  0.7818608E-02  0.1235068E+00
         -4   -1    0    0    0  501 -0.00000000000E+00  0.00000000000E+00  0.18266777601E+01  0.22247812565E+01  0.12700000000E+01 0.  1.
          4   -1    0    0  501    0  0.00000000000E+00 -0.00000000000E+00 -0.19279355726E+04  0.19279359909E+04  0.12700000000E+01 0.  1.
         25    2    1    2    0    0  0.00000000000E+00  0.00000000000E+00 -0.19261088948E+04  0.19301607721E+04  0.12500052631E+03 0.  0.
    9000005    1    3    3    0    0 -0.54734462311E+02 -0.37646508803E+00 -0.49743574527E+03  0.50043913093E+03  0.10000000000E+01 0.  0.
    9000005    1    3    3    0    0  0.54734462311E+02  0.37646508803E+00 -0.14286731495E+04  0.14297216412E+04  0.10000000000E+01 0.  0.
<mgrwt>
<rscale>  0 0.12500053E+03</rscale>
<asrwt>0</asrwt>
<pdfrwt beam="2">  1        4 0.29663466E+00 0.12500053E+03</pdfrwt>
<pdfrwt beam="1">  1       -4 0.31168441E-03 0.12500053E+03</pdfrwt>
<totfact> 0.10800466E+03</totfact>
</mgrwt>
</event>
<event>
 5    1  0.3293542E-002  0.1250047E+03  0.7818608E-02  0.1235062E+00
         -4   -1    0    0    0  501 -0.00000000000E+00  0.00000000000E+00  0.13457354172E+03  0.13457953422E+03  0.12700000000E+01 0.  1.
          4   -1    0    0  501    0  0.00000000000E+00 -0.00000000000E+00 -0.29008550185E+02  0.29036337301E+02  0.12700000000E+01 0.  1.
         25    2    1    2    0    0  0.00000000000E+00  0.00000000000E+00  0.10556499154E+03  0.16361587152E+03  0.12500474381E+03 0.  0.
    9000005    1    3    3    0    0 -0.38088255481E+02 -0.19898330693E+02 -0.66077698620E+01  0.43489325041E+02  0.10000000000E+01 0.  0.
    9000005    1    3    3    0    0  0.38088255481E+02  0.19898330693E+02  0.11217276140E+03  0.12012654648E+03  0.10000000000E+01 0.  0.
<mgrwt>
<rscale>  0 0.12500474E+03</rscale>
<asrwt>0</asrwt>
<pdfrwt beam="2">  1        4 0.44654523E-02 0.12500474E+03</pdfrwt>
<pdfrwt beam="1">  1       -4 0.20706220E-01 0.12500474E+03</pdfrwt>
<totfact> 0.96639867E+03</totfact>
</mgrwt>
</event>
<event>
 5    1  0.3293542E-002  0.1249978E+03  0.7818608E-02  0.1235073E+00
         -4   -1    0    0    0  501 -0.00000000000E+00  0.00000000000E+00  0.27880958690E+02  0.27909868461E+02  0.12700000000E+01 0. -1.
          4   -1    0    0  501    0  0.00000000000E+00 -0.00000000000E+00 -0.13999526242E+03  0.14000102286E+03  0.12700000000E+01 0. -1.
         25    2    1    2    0    0  0.00000000000E+00  0.00000000000E+00 -0.11211430373E+03  0.16791089132E+03  0.12499780127E+03 0.  0.
    9000005    1    3    3    0    0 -0.82508601415E+01 -0.54311999211E+02 -0.96069836690E+02  0.11067196336E+03  0.10000000000E+01 0.  0.
    9000005    1    3    3    0    0  0.82508601415E+01  0.54311999211E+02 -0.16044467042E+02  0.57238927960E+02  0.10000000000E+01 0.  0.
<mgrwt>
<rscale>  0 0.12499780E+03</rscale>
<asrwt>0</asrwt>
<pdfrwt beam="2">  1        4 0.21540399E-01 0.12499780E+03</pdfrwt>
<pdfrwt beam="1">  1       -4 0.42920453E-02 0.12499780E+03</pdfrwt>
<totfact> 0.95843671E+03</totfact>
</mgrwt>
</event>
<event>
 5    1  0.3293542E-002  0.1249998E+03  0.7818608E-02  0.1235070E+00
          4   -1    0    0  501    0  0.00000000000E+00  0.00000000000E+00  0.72697487944E+03  0.72697598877E+03  0.12700000000E+01 0. -1.
         -4   -1    0    0    0  501 -0.00000000000E+00 -0.00000000000E+00 -0.52971011189E+01  0.54472176626E+01  0.12700000000E+01 0. -1.
         25    2    1    2    0    0  0.00000000000E+00  0.00000000000E+00  0.72167777833E+03  0.73242320643E+03  0.12499975035E+03 0.  0.
    9000005    1    3    3    0    0  0.17343210180E+02 -0.18605350700E+02  0.69530160398E+03  0.69576739397E+03  0.10000000000E+01 0.  0.
    9000005    1    3    3    0    0 -0.17343210180E+02  0.18605350700E+02  0.26376174348E+02  0.36655812462E+02  0.10000000000E+01 0.  0.
<mgrwt>
<rscale>  0 0.12499975E+03</rscale>
<asrwt>0</asrwt>
<pdfrwt beam="1">  1        4 0.11185399E+00 0.12499975E+03</pdfrwt>
<pdfrwt beam="2">  1       -4 0.82657092E-03 0.12499975E+03</pdfrwt>
<totfact> 0.41429480E+03</totfact>
</mgrwt>
</event>
<event>
 5    1  0.3293542E-002  0.1249995E+03  0.7818608E-02  0.1235070E+00
          4   -1    0    0  501    0  0.00000000000E+00  0.00000000000E+00  0.15470319067E+04  0.15470324279E+04  0.12700000000E+01 0. -1.
         -4   -1    0    0    0  501 -0.00000000000E+00 -0.00000000000E+00 -0.23647264040E+01  0.26841816193E+01  0.12700000000E+01 0. -1.
         25    2    1    2    0    0  0.00000000000E+00  0.00000000000E+00  0.15446671802E+04  0.15497166096E+04  0.12499948884E+03 0.  0.
    9000005    1    3    3    0    0 -0.33203498748E+02 -0.20218999062E+02  0.13789309026E+04  0.13794791461E+04  0.10000000000E+01 0.  0.
    9000005    1    3    3    0    0  0.33203498748E+02  0.20218999062E+02  0.16573627764E+03  0.17023746350E+03  0.10000000000E+01 0.  0.
<mgrwt>
<rscale>  0 0.12499949E+03</rscale>
<asrwt>0</asrwt>
<pdfrwt beam="1">  1        4 0.23802917E+00 0.12499949E+03</pdfrwt>
<pdfrwt beam="2">  1       -4 0.38841822E-03 0.12499949E+03</pdfrwt>
<totfact> 0.16973803E+03</totfact>
</mgrwt>
</event>
<event>
 5    1  0.3293542E-002  0.1249884E+03  0.7818608E-02  0.1235087E+00
         -4   -1    0    0    0  501 -0.00000000000E+00  0.00000000000E+00  0.16642093518E+03  0.16642578095E+03  0.12700000000E+01 0.  1.
          4   -1    0    0  501    0  0.00000000000E+00 -0.00000000000E+00 -0.23445372546E+02  0.23479744330E+02  0.12700000000E+01 0.  1.
         25    2    1    2    0    0  0.00000000000E+00  0.00000000000E+00  0.14297556263E+03  0.18990552528E+03  0.12498838755E+03 0.  0.
    9000005    1    3    3    0    0  0.84278299226E+01 -0.17784059497E+02 -0.18621162198E+02  0.27111782881E+02  0.10000000000E+01 0.  0.
    9000005    1    3    3    0    0 -0.84278299226E+01  0.17784059497E+02  0.16159672483E+03  0.16279374240E+03  0.10000000000E+01 0.  0.
<mgrwt>
<rscale>  0 0.12498839E+03</rscale>
<asrwt>0</asrwt>
<pdfrwt beam="2">  1        4 0.36099972E-02 0.12498839E+03</pdfrwt>
<pdfrwt beam="1">  1       -4 0.25606237E-01 0.12498839E+03</pdfrwt>
<totfact> 0.91887655E+03</totfact>
</mgrwt>
</event>
<event>
 5    1  0.3293542E-002  0.1249989E+03  0.7818608E-02  0.1235071E+00
         -4   -1    0    0    0  501 -0.00000000000E+00  0.00000000000E+00  0.28357736609E+02  0.28386160811E+02  0.12700000000E+01 0. -1.
          4   -1    0    0  501    0  0.00000000000E+00 -0.00000000000E+00 -0.13764623475E+03  0.13765209349E+03  0.12700000000E+01 0. -1.
         25    2    1    2    0    0  0.00000000000E+00  0.00000000000E+00 -0.10928849815E+03  0.16603825430E+03  0.12499890425E+03 0.  0.
    9000005    1    3    3    0    0 -0.36871179147E+02 -0.13933999915E+02 -0.11905795096E+03  0.12541704785E+03  0.10000000000E+01 0.  0.
    9000005    1    3    3    0    0  0.36871179147E+02  0.13933999915E+02  0.97694528106E+01  0.40621206451E+02  0.10000000000E+01 0.  0.
<mgrwt>
<rscale>  0 0.12499890E+03</rscale>
<asrwt>0</asrwt>
<pdfrwt beam="2">  1        4 0.21178981E-01 0.12499890E+03</pdfrwt>
<pdfrwt beam="1">  1       -4 0.43653659E-02 0.12499890E+03</pdfrwt>
<totfact> 0.96193492E+03</totfact>
</mgrwt>
</event>
<event>
 5    1  0.3293542E-002  0.1249995E+03  0.7818608E-02  0.1235070E+00
          4   -1    0    0  501    0  0.00000000000E+00  0.00000000000E+00  0.70171923381E+02  0.70183414928E+02  0.12700000000E+01 0.  1.
         -4   -1    0    0    0  501 -0.00000000000E+00 -0.00000000000E+00 -0.55643089024E+02  0.55657580402E+02  0.12700000000E+01 0.  1.
         25    2    1    2    0    0  0.00000000000E+00  0.00000000000E+00  0.14528834356E+02  0.12584099533E+03  0.12499947631E+03 0.  0.
    9000005    1    3    3    0    0 -0.35748386438E+02  0.43049157853E+02  0.35273294015E+02  0.66154231879E+02  0.10000000000E+01 0.  0.
    9000005    1    3    3    0    0  0.35748386438E+02 -0.43049157853E+02 -0.20744459659E+02  0.59686763451E+02  0.10000000000E+01 0.  0.
<mgrwt>
<rscale>  0 0.12499948E+03</rscale>
<asrwt>0</asrwt>
<pdfrwt beam="1">  1        4 0.10797679E-01 0.12499948E+03</pdfrwt>
<pdfrwt beam="2">  1       -4 0.85624739E-02 0.12499948E+03</pdfrwt>
<totfact> 0.10434568E+04</totfact>
</mgrwt>
</event>
<event>
 5    1  0.3293542E-002  0.1249988E+03  0.7818608E-02  0.1235071E+00
          4   -1    0    0  501    0  0.00000000000E+00  0.00000000000E+00  0.57375952784E+02  0.57390006603E+02  0.12700000000E+01 0.  1.
         -4   -1    0    0    0  501 -0.00000000000E+00 -0.00000000000E+00 -0.68052071925E+02  0.68063921377E+02  0.12700000000E+01 0.  1.
         25    2    1    2    0    0  0.00000000000E+00  0.00000000000E+00 -0.10676119141E+02  0.12545392798E+03  0.12499883410E+03 0.  0.
    9000005    1    3    3    0    0 -0.22778119945E+02 -0.52627852623E+02 -0.30260776480E+02  0.64847885187E+02  0.10000000000E+01 0.  0.
    9000005    1    3    3    0    0  0.22778119945E+02  0.52627852623E+02  0.19584657340E+02  0.60606042794E+02  0.10000000000E+01 0.  0.
<mgrwt>
<rscale>  0 0.12499883E+03</rscale>
<asrwt>0</asrwt>
<pdfrwt beam="1">  1        4 0.88290622E-02 0.12499883E+03</pdfrwt>
<pdfrwt beam="2">  1       -4 0.10471542E-01 0.12499883E+03</pdfrwt>
<totfact> 0.10443247E+04</totfact>
</mgrwt>
</event>
<event>
 5    1  0.3293542E-002  0.1249916E+03  0.7818608E-02  0.1235082E+00
          4   -1    0    0  501    0  0.00000000000E+00  0.00000000000E+00  0.93152572958E+01  0.94014317254E+01  0.12700000000E+01 0.  1.
         -4   -1    0    0    0  501 -0.00000000000E+00 -0.00000000000E+00 -0.41726499927E+03  0.41726693197E+03  0.12700000000E+01 0.  1.
         25    2    1    2    0    0  0.00000000000E+00  0.00000000000E+00 -0.40794974197E+03  0.42666836369E+03  0.12499160212E+03 0.  0.
    9000005    1    3    3    0    0 -0.12527586389E+02 -0.48775681792E+02 -0.77685577792E+02  0.92585401397E+02  0.10000000000E+01 0.  0.
    9000005    1    3    3    0    0  0.12527586389E+02  0.48775681792E+02 -0.33026416418E+03  0.33408296229E+03  0.10000000000E+01 0.  0.
<mgrwt>
<rscale>  0 0.12499160E+03</rscale>
<asrwt>0</asrwt>
<pdfrwt beam="1">  1        4 0.14398943E-02 0.12499160E+03</pdfrwt>
<pdfrwt beam="2">  1       -4 0.64201378E-01 0.12499160E+03</pdfrwt>
<totfact> 0.62050646E+03</totfact>
</mgrwt>
</event>
<event>
 5    1  0.3293542E-002  0.1250024E+03  0.7818608E-02  0.1235066E+00
          4   -1    0    0  501    0  0.00000000000E+00  0.00000000000E+00  0.17536831545E+03  0.17537291399E+03  0.12700000000E+01 0.  1.
         -4   -1    0    0    0  501 -0.00000000000E+00 -0.00000000000E+00 -0.22252410582E+02  0.22288622136E+02  0.12700000000E+01 0.  1.
         25    2    1    2    0    0  0.00000000000E+00  0.00000000000E+00  0.15311590486E+03  0.19766153613E+03  0.12500241015E+03 0.  0.
    9000005    1    3    3    0    0 -0.50917891791E+02 -0.33707117074E+02  0.55544465084E+02  0.82552946933E+02  0.10000000000E+01 0.  0.
    9000005    1    3    3    0    0  0.50917891791E+02  0.33707117074E+02  0.97571439779E+02  0.11510858920E+03  0.10000000000E+01 0.  0.
<mgrwt>
<rscale>  0 0.12500241E+03</rscale>
<asrwt>0</asrwt>
<pdfrwt beam="1">  1        4 0.26982880E-01 0.12500241E+03</pdfrwt>
<pdfrwt beam="2">  1       -4 0.34265870E-02 0.12500241E+03</pdfrwt>
<totfact> 0.90526172E+03</totfact>
</mgrwt>
</event>
<event>
 5    1  0.3293542E-002  0.1250000E+03  0.7818608E-02  0.1235069E+00
         -4   -1    0    0    0  501 -0.00000000000E+00  0.00000000000E+00  0.69793156210E+02  0.69804710112E+02  0.12700000000E+01 0. -1.
          4   -1    0    0  501    0  0.00000000000E+00 -0.00000000000E+00 -0.55945598285E+02  0.55960011325E+02  0.12700000000E+01 0. -1.
         25    2    1    2    0    0  0.00000000000E+00  0.00000000000E+00  0.13847557925E+02  0.12576472144E+03  0.12500004119E+03 0.  0.
    9000005    1    3    3    0    0  0.37820376874E+02 -0.49682995573E+02  0.94832789176E+01  0.63164179208E+02  0.10000000000E+01 0.  0.
    9000005    1    3    3    0    0 -0.37820376874E+02  0.49682995573E+02  0.43642790075E+01  0.62600542228E+02  0.10000000000E+01 0.  0.
<mgrwt>
<rscale>  0 0.12500004E+03</rscale>
<asrwt>0</asrwt>
<pdfrwt beam="2">  1        4 0.86090126E-02 0.12500004E+03</pdfrwt>
<pdfrwt beam="1">  1       -4 0.10739406E-01 0.12500004E+03</pdfrwt>
<totfact> 0.10436111E+04</totfact>
</mgrwt>
</event>
<event>
 5    1  0.3293542E-002  0.1249967E+03  0.7818608E-02  0.1235074E+00
          4   -1    0    0  501    0  0.00000000000E+00  0.00000000000E+00  0.66957982530E+02  0.66970025567E+02  0.12700000000E+01 0. -1.
         -4   -1    0    0    0  501 -0.00000000000E+00 -0.00000000000E+00 -0.58311535800E+02  0.58325364186E+02  0.12700000000E+01 0. -1.
         25    2    1    2    0    0  0.00000000000E+00  0.00000000000E+00  0.86464467299E+01  0.12529538975E+03  0.12499669457E+03 0.  0.
    9000005    1    3    3    0    0 -0.57719456305E+02 -0.18294016381E+02 -0.11168050493E+02  0.61578665326E+02  0.10000000000E+01 0.  0.
    9000005    1    3    3    0    0  0.57719456305E+02  0.18294016381E+02  0.19814497223E+02  0.63716724427E+02  0.10000000000E+01 0.  0.
<mgrwt>
<rscale>  0 0.12499669E+03</rscale>
<asrwt>0</asrwt>
<pdfrwt beam="1">  1        4 0.10303218E-01 0.12499669E+03</pdfrwt>
<pdfrwt beam="2">  1       -4 0.89729956E-02 0.12499669E+03</pdfrwt>
<totfact> 0.10447230E+04</totfact>
</mgrwt>
</event>
<event>
 5    1  0.3293542E-002  0.1250029E+03  0.7818608E-02  0.1235065E+00
         -4   -1    0    0    0  501 -0.00000000000E+00  0.00000000000E+00  0.77585383127E+03  0.77585487071E+03  0.12700000000E+01 0. -1.
          4   -1    0    0  501    0  0.00000000000E+00 -0.00000000000E+00 -0.49538657383E+01  0.51140674373E+01  0.12700000000E+01 0. -1.
         25    2    1    2    0    0  0.00000000000E+00  0.00000000000E+00  0.77089996553E+03  0.78096893814E+03  0.12500290191E+03 0.  0.
    9000005    1    3    3    0    0  0.14893633176E+02 -0.54201093455E+02  0.21482597083E+03  0.22206029943E+03  0.10000000000E+01 0.  0.
    9000005    1    3    3    0    0 -0.14893633176E+02  0.54201093455E+02  0.55607399470E+03  0.55890863871E+03  0.10000000000E+01 0.  0.
<mgrwt>
<rscale>  0 0.12500290E+03</rscale>
<asrwt>0</asrwt>
<pdfrwt beam="2">  1        4 0.77453639E-03 0.12500290E+03</pdfrwt>
<pdfrwt beam="1">  1       -4 0.11937453E+00 0.12500290E+03</pdfrwt>
<totfact> 0.39126089E+03</totfact>
</mgrwt>
</event>
<event>
 5    1  0.3293542E-002  0.1249968E+03  0.7818608E-02  0.1235074E+00
         -4   -1    0    0    0  501 -0.00000000000E+00  0.00000000000E+00  0.44456864676E+02  0.44475001032E+02  0.12700000000E+01 0. -1.
          4   -1    0    0  501    0  0.00000000000E+00 -0.00000000000E+00 -0.87820875353E+02  0.87830057770E+02  0.12700000000E+01 0. -1.
         25    2    1    2    0    0  0.00000000000E+00  0.00000000000E+00 -0.43364010677E+02  0.13230505880E+03  0.12499676461E+03 0.  0.
    9000005    1    3    3    0    0 -0.21345329123E+02 -0.43714696438E+02  0.19834364830E+02  0.52545216607E+02  0.10000000000E+01 0.  0.
    9000005    1    3    3    0    0  0.21345329123E+02  0.43714696438E+02 -0.63198375508E+02  0.79759842195E+02  0.10000000000E+01 0.  0.
<mgrwt>
<rscale>  0 0.12499676E+03</rscale>
<asrwt>0</asrwt>
<pdfrwt beam="2">  1        4 0.13513005E-01 0.12499676E+03</pdfrwt>
<pdfrwt beam="1">  1       -4 0.68416191E-02 0.12499676E+03</pdfrwt>
<totfact> 0.10295943E+04</totfact>
</mgrwt>
</event>
<event>
 5    1  0.3293542E-002  0.1250010E+03  0.7818608E-02  0.1235068E+00
         -4   -1    0    0    0  501 -0.00000000000E+00  0.00000000000E+00  0.45259662190E+02  0.45277476979E+02  0.12700000000E+01 0. -1.
          4   -1    0    0  501    0  0.00000000000E+00 -0.00000000000E+00 -0.86269379793E+02  0.86278727331E+02  0.12700000000E+01 0. -1.
         25    2    1    2    0    0  0.00000000000E+00  0.00000000000E+00 -0.41009717602E+02  0.13155620431E+03  0.12500095181E+03 0.  0.
    9000005    1    3    3    0    0 -0.32151715736E+01  0.13372669482E+01  0.45162639691E+02  0.45307721583E+02  0.10000000000E+01 0.  0.
    9000005    1    3    3    0    0  0.32151715736E+01 -0.13372669482E+01 -0.86172357294E+02  0.86248482727E+02  0.10000000000E+01 0.  0.
<mgrwt>
<rscale>  0 0.12500095E+03</rscale>
<asrwt>0</asrwt>
<pdfrwt beam="2">  1        4 0.13274302E-01 0.12500095E+03</pdfrwt>
<pdfrwt beam="1">  1       -4 0.69651144E-02 0.12500095E+03</pdfrwt>
<totfact> 0.10310959E+04</totfact>
</mgrwt>
</event>
<event>
 5    1  0.3293542E-002  0.1250038E+03  0.7818608E-02  0.1235063E+00
          4   -1    0    0  501    0  0.00000000000E+00  0.00000000000E+00  0.15048977481E+02  0.15102470766E+02  0.12700000000E+01 0.  1.
         -4   -1    0    0    0  501 -0.00000000000E+00 -0.00000000000E+00 -0.25906922893E+03  0.25907234179E+03  0.12700000000E+01 0.  1.
         25    2    1    2    0    0  0.00000000000E+00  0.00000000000E+00 -0.24402025145E+03  0.27417481256E+03  0.12500377883E+03 0.  0.
    9000005    1    3    3    0    0  0.14862219611E+02 -0.30014659865E+02 -0.62877740125E+01  0.34092542889E+02  0.10000000000E+01 0.  0.
    9000005    1    3    3    0    0 -0.14862219611E+02  0.30014659865E+02 -0.23773247744E+03  0.24008226967E+03  0.10000000000E+01 0.  0.
<mgrwt>
<rscale>  0 0.12500378E+03</rscale>
<asrwt>0</asrwt>
<pdfrwt beam="1">  1        4 0.23195818E-02 0.12500378E+03</pdfrwt>
<pdfrwt beam="2">  1       -4 0.39861156E-01 0.12500378E+03</pdfrwt>
<totfact> 0.78950244E+03</totfact>
</mgrwt>
</event>
<event>
 4    1  0.3293542E-002  0.1249189E+03  0.7818608E-02  0.1235196E+00
          4   -1    0    0  501    0  0.00000000000E+00  0.00000000000E+00  0.27974438872E+03  0.27974727152E+03  0.12700000000E+01 0.  1.
         -4   -1    0    0    0  501 -0.00000000000E+00 -0.00000000000E+00 -0.13913649835E+02  0.13971490676E+02  0.12700000000E+01 0.  1.
    9000005    1    1    2    0    0 -0.58937000493E+02 -0.98549686411E+01  0.90235216276E+02  0.10823162519E+03  0.10000000000E+01 0.  0.
    9000005    1    1    2    0    0  0.58937000493E+02  0.98549686411E+01  0.17559552261E+03  0.18548713701E+03  0.10000000000E+01 0.  0.
<mgrwt>
<rscale>  0 0.12491889E+03</rscale>
<asrwt>0</asrwt>
<pdfrwt beam="1">  1        4 0.43042269E-01 0.12491889E+03</pdfrwt>
<pdfrwt beam="2">  1       -4 0.21452326E-02 0.12491889E+03</pdfrwt>
<totfact> 0.76531328E+03</totfact>
</mgrwt>
</event>
<event>
 5    1  0.3293542E-002  0.1250043E+03  0.7818608E-02  0.1235063E+00
         -4   -1    0    0    0  501 -0.00000000000E+00  0.00000000000E+00  0.18315721391E+03  0.18316161690E+03  0.12700000000E+01 0. -1.
          4   -1    0    0  501    0  0.00000000000E+00 -0.00000000000E+00 -0.21305217682E+02  0.21343036346E+02  0.12700000000E+01 0. -1.
         25    2    1    2    0    0  0.00000000000E+00  0.00000000000E+00  0.16185199623E+03  0.20450465325E+03  0.12500433800E+03 0.  0.
    9000005    1    3    3    0    0 -0.62876026648E+01 -0.61379338007E+02  0.97167918436E+02  0.11510673940E+03  0.10000000000E+01 0.  0.
    9000005    1    3    3    0    0  0.62876026648E+01  0.61379338007E+02  0.64684077789E+02  0.89397913850E+02  0.10000000000E+01 0.  0.
<mgrwt>
<rscale>  0 0.12500434E+03</rscale>
<asrwt>0</asrwt>
<pdfrwt beam="2">  1        4 0.32809736E-02 0.12500434E+03</pdfrwt>
<pdfrwt beam="1">  1       -4 0.28181281E-01 0.12500434E+03</pdfrwt>
<totfact> 0.89372609E+03</totfact>
</mgrwt>
</event>
<event>
 5    1  0.3293542E-002  0.1249992E+03  0.7818608E-02  0.1235070E+00
         -4   -1    0    0    0  501 -0.00000000000E+00  0.00000000000E+00  0.49691795041E+02  0.49708021429E+02  0.12700000000E+01 0. -1.
          4   -1    0    0  501    0  0.00000000000E+00 -0.00000000000E+00 -0.78574415179E+02  0.78584678028E+02  0.12700000000E+01 0. -1.
         25    2    1    2    0    0  0.00000000000E+00  0.00000000000E+00 -0.28882620139E+02  0.12829269946E+03  0.12499924395E+03 0.  0.
    9000005    1    3    3    0    0 -0.49772836782E+02  0.31742508950E+02 -0.35482205812E+02  0.68883300480E+02  0.10000000000E+01 0.  0.
    9000005    1    3    3    0    0  0.49772836782E+02 -0.31742508950E+02  0.65995856734E+01  0.59409398977E+02  0.10000000000E+01 0.  0.
<mgrwt>
<rscale>  0 0.12499924E+03</rscale>
<asrwt>0</asrwt>
<pdfrwt beam="2">  1        4 0.12090409E-01 0.12499924E+03</pdfrwt>
<pdfrwt beam="1">  1       -4 0.76469292E-02 0.12499924E+03</pdfrwt>
<totfact> 0.10381349E+04</totfact>
</mgrwt>
</event>
<event>
 5    1  0.3293542E-002  0.1249998E+03  0.7818608E-02  0.1235070E+00
         -4   -1    0    0    0  501 -0.00000000000E+00  0.00000000000E+00  0.43027068798E+02  0.43045807570E+02  0.12700000000E+01 0.  1.
          4   -1    0    0  501    0  0.00000000000E+00 -0.00000000000E+00 -0.90742579961E+02  0.90751466754E+02  0.12700000000E+01 0.  1.
         25    2    1    2    0    0  0.00000000000E+00  0.00000000000E+00 -0.47715511163E+02  0.13379727432E+03  0.12499976244E+03 0.  0.
    9000005    1    3    3    0    0  0.18860244701E+02 -0.57828653697E+02 -0.39197209319E+02  0.72369076524E+02  0.10000000000E+01 0.  0.
    9000005    1    3    3    0    0 -0.18860244701E+02  0.57828653697E+02 -0.85183018435E+01  0.61428197799E+02  0.10000000000E+01 0.  0.
<mgrwt>
<rscale>  0 0.12499976E+03</rscale>
<asrwt>0</asrwt>
<pdfrwt beam="2">  1        4 0.13962522E-01 0.12499976E+03</pdfrwt>
<pdfrwt beam="1">  1       -4 0.66216741E-02 0.12499976E+03</pdfrwt>
<totfact> 0.10263539E+04</totfact>
</mgrwt>
</event>
<event>
 5    1  0.3293542E-002  0.1249935E+03  0.7818608E-02  0.1235080E+00
         -4   -1    0    0    0  501 -0.00000000000E+00  0.00000000000E+00  0.16280542197E+03  0.16281037535E+03  0.12700000000E+01 0.  1.
          4   -1    0    0  501    0  0.00000000000E+00 -0.00000000000E+00 -0.23968723829E+02  0.24002346176E+02  0.12700000000E+01 0.  1.
         25    2    1    2    0    0  0.00000000000E+00  0.00000000000E+00  0.13883669814E+03  0.18681272153E+03  0.12499345653E+03 0.  0.
    9000005    1    3    3    0    0 -0.35881398737E+02 -0.47005810536E+02  0.39235971127E+02  0.70975224055E+02  0.10000000000E+01 0.  0.
    9000005    1    3    3    0    0  0.35881398737E+02  0.47005810536E+02  0.99600727012E+02  0.11583749747E+03  0.10000000000E+01 0.  0.
<mgrwt>
<rscale>  0 0.12499346E+03</rscale>
<asrwt>0</asrwt>
<pdfrwt beam="2">  1        4 0.36904632E-02 0.12499346E+03</pdfrwt>
<pdfrwt beam="1">  1       -4 0.25049956E-01 0.12499346E+03</pdfrwt>
<totfact> 0.92418415E+03</totfact>
</mgrwt>
</event>
<event>
 5    1  0.3293542E-002  0.1249980E+03  0.7818608E-02  0.1235072E+00
         -4   -1    0    0    0  501 -0.00000000000E+00  0.00000000000E+00  0.46433733694E+02  0.46451098208E+02  0.12700000000E+01 0. -1.
          4   -1    0    0  501    0  0.00000000000E+00 -0.00000000000E+00 -0.84084674029E+02  0.84094264410E+02  0.12700000000E+01 0. -1.
         25    2    1    2    0    0  0.00000000000E+00  0.00000000000E+00 -0.37650940335E+02  0.13054536262E+03  0.12499799356E+03 0.  0.
    9000005    1    3    3    0    0  0.47398167221E+02  0.20826949788E+02  0.17724483468E+02  0.54731210544E+02  0.10000000000E+01 0.  0.
    9000005    1    3    3    0    0 -0.47398167221E+02 -0.20826949788E+02 -0.55375423803E+02  0.75814152074E+02  0.10000000000E+01 0.  0.
<mgrwt>
<rscale>  0 0.12499799E+03</rscale>
<asrwt>0</asrwt>
<pdfrwt beam="2">  1        4 0.12938177E-01 0.12499799E+03</pdfrwt>
<pdfrwt beam="1">  1       -4 0.71457248E-02 0.12499799E+03</pdfrwt>
<totfact> 0.10333314E+04</totfact>
</mgrwt>
</event>
<event>
 5    1  0.3293542E-002  0.1249986E+03  0.7818608E-02  0.1235071E+00
          4   -1    0    0  501    0  0.00000000000E+00  0.00000000000E+00  0.26732620759E+03  0.26732922430E+03  0.12700000000E+01 0. -1.
         -4   -1    0    0    0  501 -0.00000000000E+00 -0.00000000000E+00 -0.14581272921E+02  0.14636475668E+02  0.12700000000E+01 0. -1.
         25    2    1    2    0    0  0.00000000000E+00  0.00000000000E+00  0.25274493467E+03  0.28196569997E+03  0.12499861582E+03 0.  0.
    9000005    1    3    3    0    0 -0.51375589095E+02  0.30501613566E+02  0.85063034143E+02  0.10395441002E+03  0.10000000000E+01 0.  0.
    9000005    1    3    3    0    0  0.51375589095E+02 -0.30501613566E+02  0.16768190053E+03  0.17801128995E+03  0.10000000000E+01 0.  0.
<mgrwt>
<rscale>  0 0.12499862E+03</rscale>
<asrwt>0</asrwt>
<pdfrwt beam="1">  1        4 0.41131590E-01 0.12499862E+03</pdfrwt>
<pdfrwt beam="2">  1       -4 0.22477510E-02 0.12499862E+03</pdfrwt>
<totfact> 0.77920581E+03</totfact>
</mgrwt>
</event>
<event>
 5    1  0.3293542E-002  0.1249995E+03  0.7818608E-02  0.1235070E+00
          4   -1    0    0  501    0  0.00000000000E+00  0.00000000000E+00  0.51425359705E+02  0.51441039267E+02  0.12700000000E+01 0. -1.
         -4   -1    0    0    0  501 -0.00000000000E+00 -0.00000000000E+00 -0.75926474825E+02  0.75937095542E+02  0.12700000000E+01 0. -1.
         25    2    1    2    0    0  0.00000000000E+00  0.00000000000E+00 -0.24501115119E+02  0.12737813481E+03  0.12499953834E+03 0.  0.
    9000005    1    3    3    0    0 -0.17273194985E+02 -0.12706126029E+02  0.47564024492E+02  0.52183765000E+02  0.10000000000E+01 0.  0.
    9000005    1    3    3    0    0  0.17273194985E+02  0.12706126029E+02 -0.72065139612E+02  0.75194369809E+02  0.10000000000E+01 0.  0.
<mgrwt>
<rscale>  0 0.12499954E+03</rscale>
<asrwt>0</asrwt>
<pdfrwt beam="1">  1        4 0.79136169E-02 0.12499954E+03</pdfrwt>
<pdfrwt beam="2">  1       -4 0.11683019E-01 0.12499954E+03</pdfrwt>
<totfact> 0.10401049E+04</totfact>
</mgrwt>
</event>
<event>
 5    1  0.3293542E-002  0.1249897E+03  0.7818608E-02  0.1235085E+00
         -4   -1    0    0    0  501 -0.00000000000E+00  0.00000000000E+00  0.58256247716E+03  0.58256386148E+03  0.12700000000E+01 0.  1.
          4   -1    0    0  501    0  0.00000000000E+00 -0.00000000000E+00 -0.66426392458E+01  0.67629546908E+01  0.12700000000E+01 0.  1.
         25    2    1    2    0    0  0.00000000000E+00  0.00000000000E+00  0.57591983792E+03  0.58932681617E+03  0.12498974577E+03 0.  0.
    9000005    1    3    3    0    0  0.34344381817E+01 -0.58846311892E+02  0.19019605810E+03  0.19912364075E+03  0.10000000000E+01 0.  0.
    9000005    1    3    3    0    0 -0.34344381817E+01  0.58846311892E+02  0.38572377981E+03  0.39020317541E+03  0.10000000000E+01 0.  0.
<mgrwt>
<rscale>  0 0.12498975E+03</rscale>
<asrwt>0</asrwt>
<pdfrwt beam="2">  1        4 0.10313059E-02 0.12498975E+03</pdfrwt>
<pdfrwt beam="1">  1       -4 0.89634366E-01 0.12498975E+03</pdfrwt>
<totfact> 0.49559480E+03</totfact>
</mgrwt>
</event>
<event>
 5    1  0.3293542E-002  0.1250005E+03  0.7818608E-02  0.1235068E+00
         -4   -1    0    0    0  501 -0.00000000000E+00  0.00000000000E+00  0.50613724053E+03  0.50613883387E+03  0.12700000000E+01 0. -1.
          4   -1    0    0  501    0  0.00000000000E+00 -0.00000000000E+00 -0.76639679521E+01  0.77684814971E+01  0.12700000000E+01 0. -1.
         25    2    1    2    0    0  0.00000000000E+00  0.00000000000E+00  0.49847327257E+03  0.51390731536E+03  0.12500050125E+03 0.  0.
    9000005    1    3    3    0    0 -0.72713297094E+01 -0.41022594838E+02  0.44073208568E+03  0.44269797477E+03  0.10000000000E+01 0.  0.
    9000005    1    3    3    0    0  0.72713297094E+01  0.41022594838E+02  0.57741186896E+02  0.71209340589E+02  0.10000000000E+01 0.  0.
<mgrwt>
<rscale>  0 0.12500050E+03</rscale>
<asrwt>0</asrwt>
<pdfrwt beam="2">  1        4 0.11872341E-02 0.12500050E+03</pdfrwt>
<pdfrwt beam="1">  1       -4 0.77875427E-01 0.12500050E+03</pdfrwt>
<totfact> 0.54800644E+03</totfact>
</mgrwt>
</event>
<event>
 5    1  0.3293542E-002  0.1250232E+03  0.7818608E-02  0.1235033E+00
         -4   -1    0    0    0  501 -0.00000000000E+00  0.00000000000E+00  0.24700630119E+03  0.24700956607E+03  0.12700000000E+01 0.  1.
          4   -1    0    0  501    0  0.00000000000E+00 -0.00000000000E+00 -0.15791370727E+02  0.15842357446E+02  0.12700000000E+01 0.  1.
         25    2    1    2    0    0  0.00000000000E+00  0.00000000000E+00  0.23121493046E+03  0.26285192351E+03  0.12502315635E+03 0.  0.
    9000005    1    3    3    0    0 -0.24865728654E+02  0.15482988487E+02  0.23169241291E+03  0.23353886527E+03  0.10000000000E+01 0.  0.
    9000005    1    3    3    0    0  0.24865728654E+02 -0.15482988487E+02 -0.47748244207E+00  0.29313058241E+02  0.10000000000E+01 0.  0.
<mgrwt>
<rscale>  0 0.12502316E+03</rscale>
<asrwt>0</asrwt>
<pdfrwt beam="2">  1        4 0.24336152E-02 0.12502316E+03</pdfrwt>
<pdfrwt beam="1">  1       -4 0.38005137E-01 0.12502316E+03</pdfrwt>
<totfact> 0.80466020E+03</totfact>
</mgrwt>
</event>
<event>
 5    1  0.3293542E-002  0.1249681E+03  0.7818608E-02  0.1235119E+00
          4   -1    0    0  501    0  0.00000000000E+00  0.00000000000E+00  0.36130564464E+03  0.36130787668E+03  0.12700000000E+01 0. -1.
         -4   -1    0    0    0  501 -0.00000000000E+00 -0.00000000000E+00 -0.10766371096E+02  0.10841016861E+02  0.12700000000E+01 0. -1.
         25    2    1    2    0    0  0.00000000000E+00  0.00000000000E+00  0.35053927355E+03  0.37214889354E+03  0.12496806258E+03 0.  0.
    9000005    1    3    3    0    0 -0.51785771000E+02  0.33304386856E+02  0.20682832840E+03  0.21580061559E+03  0.10000000000E+01 0.  0.
    9000005    1    3    3    0    0  0.51785771000E+02 -0.33304386856E+02  0.14371094515E+03  0.15634827795E+03  0.10000000000E+01 0.  0.
<mgrwt>
<rscale>  0 0.12496806E+03</rscale>
<asrwt>0</asrwt>
<pdfrwt beam="1">  1        4 0.55591397E-01 0.12496806E+03</pdfrwt>
<pdfrwt beam="2">  1       -4 0.16622785E-02 0.12496806E+03</pdfrwt>
<totfact> 0.67402293E+03</totfact>
</mgrwt>
</event>
<event>
 5    1  0.3293542E-002  0.1249964E+03  0.7818608E-02  0.1235075E+00
         -4   -1    0    0    0  501 -0.00000000000E+00  0.00000000000E+00  0.57018541195E+02  0.57032683087E+02  0.12700000000E+01 0. -1.
          4   -1    0    0  501    0  0.00000000000E+00 -0.00000000000E+00 -0.68475929847E+02  0.68487705966E+02  0.12700000000E+01 0. -1.
         25    2    1    2    0    0  0.00000000000E+00  0.00000000000E+00 -0.11457388652E+02  0.12552038905E+03  0.12499638520E+03 0.  0.
    9000005    1    3    3    0    0 -0.49493161621E+02 -0.37898477813E+02 -0.10123846234E+02  0.63161380054E+02  0.10000000000E+01 0.  0.
    9000005    1    3    3    0    0  0.49493161621E+02  0.37898477813E+02 -0.13335424179E+01  0.62359008998E+02  0.10000000000E+01 0.  0.
<mgrwt>
<rscale>  0 0.12499639E+03</rscale>
<asrwt>0</asrwt>
<pdfrwt beam="2">  1        4 0.10536752E-01 0.12499639E+03</pdfrwt>
<pdfrwt beam="1">  1       -4 0.87740770E-02 0.12499639E+03</pdfrwt>
<totfact> 0.10442355E+04</totfact>
</mgrwt>
</event>
<event>
 5    1  0.3293542E-002  0.1249997E+03  0.7818608E-02  0.1235070E+00
         -4   -1    0    0    0  501 -0.00000000000E+00  0.00000000000E+00  0.46518164001E+02  0.46535497011E+02  0.12700000000E+01 0.  1.
          4   -1    0    0  501    0  0.00000000000E+00 -0.00000000000E+00 -0.83934369078E+02  0.83943976631E+02  0.12700000000E+01 0.  1.
         25    2    1    2    0    0  0.00000000000E+00  0.00000000000E+00 -0.37416205077E+02  0.13047947364E+03  0.12499968256E+03 0.  0.
    9000005    1    3    3    0    0  0.61559481497E+02  0.83396308828E+01 -0.25796292399E+02  0.67272341322E+02  0.10000000000E+01 0.  0.
    9000005    1    3    3    0    0 -0.61559481497E+02 -0.83396308828E+01 -0.11619912679E+02  0.63207132319E+02  0.10000000000E+01 0.  0.
<mgrwt>
<rscale>  0 0.12499968E+03</rscale>
<asrwt>0</asrwt>
<pdfrwt beam="2">  1        4 0.12915052E-01 0.12499968E+03</pdfrwt>
<pdfrwt beam="1">  1       -4 0.71587130E-02 0.12499968E+03</pdfrwt>
<totfact> 0.10334335E+04</totfact>
</mgrwt>
</event>
<event>
 5    1  0.3293542E-002  0.1249891E+03  0.7818608E-02  0.1235086E+00
         -4   -1    0    0    0  501 -0.00000000000E+00  0.00000000000E+00  0.31722965304E+02  0.31748376773E+02  0.12700000000E+01 0. -1.
          4   -1    0    0  501    0  0.00000000000E+00 -0.00000000000E+00 -0.12303679605E+03  0.12304335042E+03  0.12700000000E+01 0. -1.
         25    2    1    2    0    0  0.00000000000E+00  0.00000000000E+00 -0.91313830747E+02  0.15479172719E+03  0.12498905201E+03 0.  0.
    9000005    1    3    3    0    0  0.31447831852E+02 -0.10223603660E+02 -0.11131862524E+03  0.11613063560E+03  0.10000000000E+01 0.  0.
    9000005    1    3    3    0    0 -0.31447831852E+02  0.10223603660E+02  0.20004794496E+02  0.38661091588E+02  0.10000000000E+01 0.  0.
<mgrwt>
<rscale>  0 0.12498905E+03</rscale>
<asrwt>0</asrwt>
<pdfrwt beam="2">  1        4 0.18931197E-01 0.12498905E+03</pdfrwt>
<pdfrwt beam="1">  1       -4 0.48829152E-02 0.12498905E+03</pdfrwt>
<totfact> 0.98380623E+03</totfact>
</mgrwt>
</event>
<event>
 5    1  0.3293542E-002  0.1249985E+03  0.7818608E-02  0.1235072E+00
         -4   -1    0    0    0  501 -0.00000000000E+00  0.00000000000E+00  0.11519112493E+03  0.11519812569E+03  0.12700000000E+01 0. -1.
          4   -1    0    0  501    0  0.00000000000E+00 -0.00000000000E+00 -0.33890294645E+02  0.33914082195E+02  0.12700000000E+01 0. -1.
         25    2    1    2    0    0  0.00000000000E+00  0.00000000000E+00  0.81300830284E+02  0.14911220788E+03  0.12499850213E+03 0.  0.
    9000005    1    3    3    0    0  0.15457179061E+02  0.19234863908E+02  0.10913906356E+03  0.11189834480E+03  0.10000000000E+01 0.  0.
    9000005    1    3    3    0    0 -0.15457179061E+02 -0.19234863908E+02 -0.27838233273E+02  0.37213863087E+02  0.10000000000E+01 0.  0.
<mgrwt>
<rscale>  0 0.12499850E+03</rscale>
<asrwt>0</asrwt>
<pdfrwt beam="2">  1        4 0.52162599E-02 0.12499850E+03</pdfrwt>
<pdfrwt beam="1">  1       -4 0.17724080E-01 0.12499850E+03</pdfrwt>
<totfact> 0.99484315E+03</totfact>
</mgrwt>
</event>
<event>
 5    1  0.3293542E-002  0.1250011E+03  0.7818608E-02  0.1235068E+00
         -4   -1    0    0    0  501 -0.00000000000E+00  0.00000000000E+00  0.40052672005E+02  0.40072801683E+02  0.12700000000E+01 0. -1.
          4   -1    0    0  501    0  0.00000000000E+00 -0.00000000000E+00 -0.97480787572E+02  0.97489060133E+02  0.12700000000E+01 0. -1.
         25    2    1    2    0    0  0.00000000000E+00  0.00000000000E+00 -0.57428115567E+02  0.13756186182E+03  0.12500110947E+03 0.  0.
    9000005    1    3    3    0    0 -0.13155762584E+02 -0.39796745672E+02  0.22295111039E+02  0.47486071974E+02  0.10000000000E+01 0.  0.
    9000005    1    3    3    0    0  0.13155762584E+02  0.39796745672E+02 -0.79723226606E+02  0.90075789842E+02  0.10000000000E+01 0.  0.
<mgrwt>
<rscale>  0 0.12500111E+03</rscale>
<asrwt>0</asrwt>
<pdfrwt beam="2">  1        4 0.14999229E-01 0.12500111E+03</pdfrwt>
<pdfrwt beam="1">  1       -4 0.61641343E-02 0.12500111E+03</pdfrwt>
<totfact> 0.10184096E+04</totfact>
</mgrwt>
</event>
<event>
 5    1  0.3293542E-002  0.1249968E+03  0.7818608E-02  0.1235074E+00
          4   -1    0    0  501    0  0.00000000000E+00  0.00000000000E+00  0.27483395370E+03  0.27483688801E+03  0.12700000000E+01 0. -1.
         -4   -1    0    0    0  501 -0.00000000000E+00 -0.00000000000E+00 -0.14181004465E+02  0.14237759221E+02  0.12700000000E+01 0. -1.
         25    2    1    2    0    0  0.00000000000E+00  0.00000000000E+00  0.26065294924E+03  0.28907464723E+03  0.12499676685E+03 0.  0.
    9000005    1    3    3    0    0  0.38240450445E+02 -0.44537386362E+02  0.17988089678E+03  0.18921957579E+03  0.10000000000E+01 0.  0.
    9000005    1    3    3    0    0 -0.38240450445E+02  0.44537386362E+02  0.80772052460E+02  0.99855071443E+02  0.10000000000E+01 0.  0.
<mgrwt>
<rscale>  0 0.12499677E+03</rscale>
<asrwt>0</asrwt>
<pdfrwt beam="1">  1        4 0.42286738E-01 0.12499677E+03</pdfrwt>
<pdfrwt beam="2">  1       -4 0.21862845E-02 0.12499677E+03</pdfrwt>
<totfact> 0.76995584E+03</totfact>
</mgrwt>
</event>
<event>
 5    1  0.3293542E-002  0.1250051E+03  0.7818608E-02  0.1235061E+00
         -4   -1    0    0    0  501 -0.00000000000E+00  0.00000000000E+00  0.25976955528E+03  0.25977265974E+03  0.12700000000E+01 0. -1.
          4   -1    0    0  501    0  0.00000000000E+00 -0.00000000000E+00 -0.15008577682E+02  0.15062214447E+02  0.12700000000E+01 0. -1.
         25    2    1    2    0    0  0.00000000000E+00  0.00000000000E+00  0.24476097760E+03  0.27483487419E+03  0.12500508756E+03 0.  0.
    9000005    1    3    3    0    0  0.58545487579E+02 -0.44137692525E+01  0.16945867730E+03  0.17934407932E+03  0.10000000000E+01 0.  0.
    9000005    1    3    3    0    0 -0.58545487579E+02  0.44137692525E+01  0.75302300295E+02  0.95490794868E+02  0.10000000000E+01 0.  0.
<mgrwt>
<rscale>  0 0.12500509E+03</rscale>
<asrwt>0</asrwt>
<pdfrwt beam="2">  1        4 0.23133766E-02 0.12500509E+03</pdfrwt>
<pdfrwt beam="1">  1       -4 0.39968913E-01 0.12500509E+03</pdfrwt>
<totfact> 0.78859061E+03</totfact>
</mgrwt>
</event>
<event>
 5    1  0.3293542E-002  0.1250008E+03  0.7818608E-02  0.1235068E+00
          4   -1    0    0  501    0  0.00000000000E+00  0.00000000000E+00  0.73264170938E+02  0.73275177538E+02  0.12700000000E+01 0.  1.
         -4   -1    0    0    0  501 -0.00000000000E+00 -0.00000000000E+00 -0.53295413324E+02  0.53310542873E+02  0.12700000000E+01 0.  1.
         25    2    1    2    0    0  0.00000000000E+00  0.00000000000E+00  0.19968757614E+02  0.12658572041E+03  0.12500077332E+03 0.  0.
    9000005    1    3    3    0    0 -0.48073135056E+02  0.12845968766E+02 -0.28300439467E+02  0.57253472398E+02  0.10000000000E+01 0.  0.
    9000005    1    3    3    0    0  0.48073135056E+02 -0.12845968766E+02  0.48269197081E+02  0.69332248012E+02  0.10000000000E+01 0.  0.
<mgrwt>
<rscale>  0 0.12500077E+03</rscale>
<asrwt>0</asrwt>
<pdfrwt beam="1">  1        4 0.11273421E-01 0.12500077E+03</pdfrwt>
<pdfrwt beam="2">  1       -4 0.82013048E-02 0.12500077E+03</pdfrwt>
<totfact> 0.10417978E+04</totfact>
</mgrwt>
</event>
<event>
 5    1  0.3293542E-002  0.1249894E+03  0.7818608E-02  0.1235086E+00
          4   -1    0    0  501    0  0.00000000000E+00  0.00000000000E+00  0.13026008076E+03  0.13026627169E+03  0.12700000000E+01 0. -1.
         -4   -1    0    0    0  501 -0.00000000000E+00 -0.00000000000E+00 -0.29962653592E+02  0.29989556687E+02  0.12700000000E+01 0. -1.
         25    2    1    2    0    0  0.00000000000E+00  0.00000000000E+00  0.10029742717E+03  0.16025582838E+03  0.12498942608E+03 0.  0.
    9000005    1    3    3    0    0 -0.26562611204E+01 -0.34779990196E+02 -0.16324390476E+02  0.38525175737E+02  0.10000000000E+01 0.  0.
    9000005    1    3    3    0    0  0.26562611204E+01  0.34779990196E+02  0.11662181765E+03  0.12173065264E+03  0.10000000000E+01 0.  0.
<mgrwt>
<rscale>  0 0.12498943E+03</rscale>
<asrwt>0</asrwt>
<pdfrwt beam="1">  1        4 0.20042558E-01 0.12498943E+03</pdfrwt>
<pdfrwt beam="2">  1       -4 0.46121848E-02 0.12498943E+03</pdfrwt>
<totfact> 0.97316613E+03</totfact>
</mgrwt>
</event>
<event>
 5    1  0.3293542E-002  0.1250042E+03  0.7818608E-02  0.1235063E+00
          4   -1    0    0  501    0  0.00000000000E+00  0.00000000000E+00  0.29406364847E+02  0.29433776405E+02  0.12700000000E+01 0. -1.
         -4   -1    0    0    0  501 -0.00000000000E+00 -0.00000000000E+00 -0.13275349613E+03  0.13275957079E+03  0.12700000000E+01 0. -1.
         25    2    1    2    0    0  0.00000000000E+00  0.00000000000E+00 -0.10334713129E+03  0.16219334719E+03  0.12500420924E+03 0.  0.
    9000005    1    3    3    0    0 -0.77791569307E+01  0.10447424190E+02 -0.13097902111E+03  0.13162890232E+03  0.10000000000E+01 0.  0.
    9000005    1    3    3    0    0  0.77791569307E+01 -0.10447424190E+02  0.27631889827E+02  0.30564444870E+02  0.10000000000E+01 0.  0.
<mgrwt>
<rscale>  0 0.12500421E+03</rscale>
<asrwt>0</asrwt>
<pdfrwt beam="1">  1        4 0.45266321E-02 0.12500421E+03</pdfrwt>
<pdfrwt beam="2">  1       -4 0.20426190E-01 0.12500421E+03</pdfrwt>
<totfact> 0.96912417E+03</totfact>
</mgrwt>
</event>
<event>
 5    1  0.3293542E-002  0.1249973E+03  0.7818608E-02  0.1235074E+00
          4   -1    0    0  501    0  0.00000000000E+00  0.00000000000E+00  0.79388203089E+01  0.80397616817E+01  0.12700000000E+01 0. -1.
         -4   -1    0    0    0  501 -0.00000000000E+00 -0.00000000000E+00 -0.48881256506E+03  0.48881421487E+03  0.12700000000E+01 0. -1.
         25    2    1    2    0    0  0.00000000000E+00  0.00000000000E+00 -0.48087374475E+03  0.49685397655E+03  0.12499726247E+03 0.  0.
    9000005    1    3    3    0    0  0.57660388041E+02 -0.93215644270E+01 -0.15213755967E+03  0.16296763168E+03  0.10000000000E+01 0.  0.
    9000005    1    3    3    0    0 -0.57660388041E+02  0.93215644270E+01 -0.32873618508E+03  0.33388634488E+03  0.10000000000E+01 0.  0.
<mgrwt>
<rscale>  0 0.12499726E+03</rscale>
<asrwt>0</asrwt>
<pdfrwt beam="1">  1        4 0.12292490E-02 0.12499726E+03</pdfrwt>
<pdfrwt beam="2">  1       -4 0.75209801E-01 0.12499726E+03</pdfrwt>
<totfact> 0.56112676E+03</totfact>
</mgrwt>
</event>
<event>
 5    1  0.3293542E-002  0.1250009E+03  0.7818608E-02  0.1235068E+00
          4   -1    0    0  501    0  0.00000000000E+00  0.00000000000E+00  0.28871601388E+02  0.28899520181E+02  0.12700000000E+01 0.  1.
         -4   -1    0    0    0  501 -0.00000000000E+00 -0.00000000000E+00 -0.13520307727E+03  0.13520904187E+03  0.12700000000E+01 0.  1.
         25    2    1    2    0    0  0.00000000000E+00  0.00000000000E+00 -0.10633147588E+03  0.16410856205E+03  0.12500094950E+03 0.  0.
    9000005    1    3    3    0    0  0.51235546007E+02  0.33493450062E+02 -0.36641601119E+02  0.71347735103E+02  0.10000000000E+01 0.  0.
    9000005    1    3    3    0    0 -0.51235546007E+02 -0.33493450062E+02 -0.69689874764E+02  0.92760826950E+02  0.10000000000E+01 0.  0.
<mgrwt>
<rscale>  0 0.12500095E+03</rscale>
<asrwt>0</asrwt>
<pdfrwt beam="1">  1        4 0.44443913E-02 0.12500095E+03</pdfrwt>
<pdfrwt beam="2">  1       -4 0.20803079E-01 0.12500095E+03</pdfrwt>
<totfact> 0.96554424E+03</totfact>
</mgrwt>
</event>
<event>
 5    1  0.3293542E-002  0.1249992E+03  0.7818608E-02  0.1235070E+00
         -4   -1    0    0    0  501 -0.00000000000E+00  0.00000000000E+00  0.46646270206E+02  0.46663555631E+02  0.12700000000E+01 0. -1.
          4   -1    0    0  501    0  0.00000000000E+00 -0.00000000000E+00 -0.83703317020E+02  0.83712951090E+02  0.12700000000E+01 0. -1.
         25    2    1    2    0    0  0.00000000000E+00  0.00000000000E+00 -0.37057046814E+02  0.13037650672E+03  0.12499923514E+03 0.  0.
    9000005    1    3    3    0    0 -0.37973226170E+02  0.73383816445E+01 -0.69725585029E+02  0.79740046141E+02  0.10000000000E+01 0.  0.
    9000005    1    3    3    0    0  0.37973226170E+02 -0.73383816445E+01  0.32668538215E+02  0.50636460580E+02  0.10000000000E+01 0.  0.
<mgrwt>
<rscale>  0 0.12499924E+03</rscale>
<asrwt>0</asrwt>
<pdfrwt beam="2">  1        4 0.12879504E-01 0.12499924E+03</pdfrwt>
<pdfrwt beam="1">  1       -4 0.71784200E-02 0.12499924E+03</pdfrwt>
<totfact> 0.10336638E+04</totfact>
</mgrwt>
</event>
<event>
 5    1  0.3293542E-002  0.1249986E+03  0.7818608E-02  0.1235071E+00
          4   -1    0    0  501    0  0.00000000000E+00  0.00000000000E+00  0.35492803003E+03  0.35493030217E+03  0.12700000000E+01 0. -1.
         -4   -1    0    0    0  501 -0.00000000000E+00 -0.00000000000E+00 -0.10966552420E+02  0.11039844745E+02  0.12700000000E+01 0. -1.
         25    2    1    2    0    0  0.00000000000E+00  0.00000000000E+00  0.34396147761E+03  0.36597014691E+03  0.12499860142E+03 0.  0.
    9000005    1    3    3    0    0  0.59070767773E+02 -0.83493844030E+01  0.11751316621E+03  0.13179306529E+03  0.10000000000E+01 0.  0.
    9000005    1    3    3    0    0 -0.59070767773E+02  0.83493844030E+01  0.22644831139E+03  0.23417708162E+03  0.10000000000E+01 0.  0.
<mgrwt>
<rscale>  0 0.12499860E+03</rscale>
<asrwt>0</asrwt>
<pdfrwt beam="1">  1        4 0.54610126E-01 0.12499860E+03</pdfrwt>
<pdfrwt beam="2">  1       -4 0.16929745E-02 0.12499860E+03</pdfrwt>
<totfact> 0.68004753E+03</totfact>
</mgrwt>
</event>
<event>
 4    1  0.3293542E-002  0.1253860E+03  0.7818608E-02  0.1234467E+00
         -4   -1    0    0    0  501 -0.00000000000E+00  0.00000000000E+00  0.29667610245E+02  0.29694780646E+02  0.12700000000E+01 0. -1.
          4   -1    0    0  501    0  0.00000000000E+00 -0.00000000000E+00 -0.13239083718E+03  0.13239692848E+03  0.12700000000E+01 0. -1.
    9000005    1    1    2    0    0 -0.10912646662E+02 -0.61663005803E+02 -0.47704489608E+02  0.78728206322E+02  0.10000000000E+01 0.  0.
    9000005    1    1    2    0    0  0.10912646662E+02  0.61663005803E+02 -0.55018737330E+02  0.83363502801E+02  0.10000000000E+01 0.  0.
<mgrwt>
<rscale>  0 0.12538605E+03</rscale>
<asrwt>0</asrwt>
<pdfrwt beam="2">  1        4 0.20370379E-01 0.12538605E+03</pdfrwt>
<pdfrwt beam="1">  1       -4 0.45668064E-02 0.12538605E+03</pdfrwt>
<totfact> 0.96104808E+03</totfact>
</mgrwt>
</event>
<event>
 5    1  0.3293542E-002  0.1250000E+03  0.7818608E-02  0.1235069E+00
         -4   -1    0    0    0  501 -0.00000000000E+00  0.00000000000E+00  0.14898514242E+02  0.14952545824E+02  0.12700000000E+01 0.  1.
          4   -1    0    0  501    0  0.00000000000E+00 -0.00000000000E+00 -0.26166042780E+03  0.26166350983E+03  0.12700000000E+01 0.  1.
         25    2    1    2    0    0  0.00000000000E+00  0.00000000000E+00 -0.24676191356E+03  0.27661605566E+03  0.12500000105E+03 0.  0.
    9000005    1    3    3    0    0 -0.70446459363E+01  0.61969804359E+02 -0.11470628381E+03  0.13056958005E+03  0.10000000000E+01 0.  0.
    9000005    1    3    3    0    0  0.70446459363E+01 -0.61969804359E+02 -0.13205562975E+03  0.14604647561E+03  0.10000000000E+01 0.  0.
<mgrwt>
<rscale>  0 0.12500000E+03</rscale>
<asrwt>0</asrwt>
<pdfrwt beam="2">  1        4 0.40259840E-01 0.12500000E+03</pdfrwt>
<pdfrwt beam="1">  1       -4 0.22964727E-02 0.12500000E+03</pdfrwt>
<totfact> 0.78628941E+03</totfact>
</mgrwt>
</event>
<event>
 5    1  0.3293542E-002  0.1250021E+03  0.7818608E-02  0.1235066E+00
          4   -1    0    0  501    0  0.00000000000E+00  0.00000000000E+00  0.15874660217E+02  0.15925380278E+02  0.12700000000E+01 0. -1.
         -4   -1    0    0    0  501 -0.00000000000E+00 -0.00000000000E+00 -0.24563167654E+03  0.24563495969E+03  0.12700000000E+01 0. -1.
         25    2    1    2    0    0  0.00000000000E+00  0.00000000000E+00 -0.22975701633E+03  0.26156033997E+03  0.12500209955E+03 0.  0.
    9000005    1    3    3    0    0 -0.80665660138E-01  0.60183841623E+02 -0.79660686981E+02  0.99844510864E+02  0.10000000000E+01 0.  0.
    9000005    1    3    3    0    0  0.80665660138E-01 -0.60183841623E+02 -0.15009632935E+03  0.16171582910E+03  0.10000000000E+01 0.  0.
<mgrwt>
<rscale>  0 0.12500210E+03</rscale>
<asrwt>0</asrwt>
<pdfrwt beam="1">  1        4 0.24464097E-02 0.12500210E+03</pdfrwt>
<pdfrwt beam="2">  1       -4 0.37793640E-01 0.12500210E+03</pdfrwt>
<totfact> 0.80683817E+03</totfact>
</mgrwt>
</event>
<event>
 5    1  0.3293542E-002  0.1250057E+03  0.7818608E-02  0.1235060E+00
          4   -1    0    0  501    0  0.00000000000E+00  0.00000000000E+00  0.17890617971E+02  0.17935638026E+02  0.12700000000E+01 0. -1.
         -4   -1    0    0    0  501 -0.00000000000E+00 -0.00000000000E+00 -0.21803931416E+03  0.21804301277E+03  0.12700000000E+01 0. -1.
         25    2    1    2    0    0  0.00000000000E+00  0.00000000000E+00 -0.20014869619E+03  0.23597865080E+03  0.12500569206E+03 0.  0.
    9000005    1    3    3    0    0 -0.10377839042E+02  0.18252002086E+02  0.11042565574E+02  0.23743912436E+02  0.10000000000E+01 0.  0.
    9000005    1    3    3    0    0  0.10377839042E+02 -0.18252002086E+02 -0.21119126176E+03  0.21223473836E+03  0.10000000000E+01 0.  0.
<mgrwt>
<rscale>  0 0.12500569E+03</rscale>
<asrwt>0</asrwt>
<pdfrwt beam="1">  1        4 0.27561505E-02 0.12500569E+03</pdfrwt>
<pdfrwt beam="2">  1       -4 0.33548256E-01 0.12500569E+03</pdfrwt>
<totfact> 0.84389233E+03</totfact>
</mgrwt>
</event>
<event>
 5    1  0.3293542E-002  0.1250036E+03  0.7818608E-02  0.1235064E+00
          4   -1    0    0  501    0  0.00000000000E+00  0.00000000000E+00  0.13017136136E+02  0.13078942357E+02  0.12700000000E+01 0.  1.
         -4   -1    0    0    0  501 -0.00000000000E+00 -0.00000000000E+00 -0.29932836439E+03  0.29933105858E+03  0.12700000000E+01 0.  1.
         25    2    1    2    0    0  0.00000000000E+00  0.00000000000E+00 -0.28631122825E+03  0.31241000093E+03  0.12500355699E+03 0.  0.
    9000005    1    3    3    0    0 -0.57213452074E+02 -0.24394787102E+02 -0.12795607187E+03  0.14227522998E+03  0.10000000000E+01 0.  0.
    9000005    1    3    3    0    0  0.57213452074E+02  0.24394787102E+02 -0.15835515638E+03  0.17013477096E+03  0.10000000000E+01 0.  0.
<mgrwt>
<rscale>  0 0.12500356E+03</rscale>
<asrwt>0</asrwt>
<pdfrwt beam="1">  1        4 0.20075981E-02 0.12500356E+03</pdfrwt>
<pdfrwt beam="2">  1       -4 0.46055474E-01 0.12500356E+03</pdfrwt>
<totfact> 0.74062202E+03</totfact>
</mgrwt>
</event>
<event>
 5    1  0.3293542E-002  0.1249990E+03  0.7818608E-02  0.1235071E+00
          4   -1    0    0  501    0  0.00000000000E+00  0.00000000000E+00  0.45365321517E+03  0.45365499285E+03  0.12700000000E+01 0. -1.
         -4   -1    0    0    0  501 -0.00000000000E+00 -0.00000000000E+00 -0.85618862830E+01  0.86555644948E+01  0.12700000000E+01 0. -1.
         25    2    1    2    0    0  0.00000000000E+00  0.00000000000E+00  0.44509132889E+03  0.46231055734E+03  0.12499904151E+03 0.  0.
    9000005    1    3    3    0    0  0.14758879557E+02 -0.40042332219E+02  0.39138499044E+03  0.39370601168E+03  0.10000000000E+01 0.  0.
    9000005    1    3    3    0    0 -0.14758879557E+02  0.40042332219E+02  0.53706338451E+02  0.68604545659E+02  0.10000000000E+01 0.  0.
<mgrwt>
<rscale>  0 0.12499904E+03</rscale>
<asrwt>0</asrwt>
<pdfrwt beam="1">  1        4 0.69800155E-01 0.12499904E+03</pdfrwt>
<pdfrwt beam="2">  1       -4 0.13245558E-02 0.12499904E+03</pdfrwt>
<totfact> 0.58913209E+03</totfact>
</mgrwt>
</event>
<event>
 5    1  0.3293542E-002  0.1249987E+03  0.7818608E-02  0.1235071E+00
          4   -1    0    0  501    0  0.00000000000E+00  0.00000000000E+00  0.15719653653E+03  0.15720166665E+03  0.12700000000E+01 0. -1.
         -4   -1    0    0    0  501 -0.00000000000E+00 -0.00000000000E+00 -0.24827190824E+02  0.24859652134E+02  0.12700000000E+01 0. -1.
         25    2    1    2    0    0  0.00000000000E+00  0.00000000000E+00  0.13236934571E+03  0.18206131878E+03  0.12499872045E+03 0.  0.
    9000005    1    3    3    0    0 -0.59267134214E+02 -0.69166275985E+01  0.93227751090E+02  0.11069257657E+03  0.10000000000E+01 0.  0.
    9000005    1    3    3    0    0  0.59267134214E+02  0.69166275985E+01  0.39141594618E+02  0.71368742209E+02  0.10000000000E+01 0.  0.
<mgrwt>
<rscale>  0 0.12499872E+03</rscale>
<asrwt>0</asrwt>
<pdfrwt beam="1">  1        4 0.24186974E-01 0.12499872E+03</pdfrwt>
<pdfrwt beam="2">  1       -4 0.38224595E-02 0.12499872E+03</pdfrwt>
<totfact> 0.93249945E+03</totfact>
</mgrwt>
</event>
<event>
 5    1  0.3293542E-002  0.1249966E+03  0.7818608E-02  0.1235075E+00
          4   -1    0    0  501    0  0.00000000000E+00  0.00000000000E+00  0.60875331813E+02  0.60888577938E+02  0.12700000000E+01 0.  1.
         -4   -1    0    0    0  501 -0.00000000000E+00 -0.00000000000E+00 -0.64138041681E+02  0.64150614110E+02  0.12700000000E+01 0.  1.
         25    2    1    2    0    0  0.00000000000E+00  0.00000000000E+00 -0.32627098678E+01  0.12503919205E+03  0.12499661704E+03 0.  0.
    9000005    1    3    3    0    0  0.41366585320E+02  0.44330116482E+02  0.13496129016E+02  0.62124867057E+02  0.10000000000E+01 0.  0.
    9000005    1    3    3    0    0 -0.41366585320E+02 -0.44330116482E+02 -0.16758838884E+02  0.62914324991E+02  0.10000000000E+01 0.  0.
<mgrwt>
<rscale>  0 0.12499662E+03</rscale>
<asrwt>0</asrwt>
<pdfrwt beam="1">  1        4 0.93674217E-02 0.12499662E+03</pdfrwt>
<pdfrwt beam="2">  1       -4 0.98693771E-02 0.12499662E+03</pdfrwt>
<totfact> 0.10452811E+04</totfact>
</mgrwt>
</event>
<event>
 5    1  0.3293542E-002  0.1250018E+03  0.7818608E-02  0.1235066E+00
         -4   -1    0    0    0  501 -0.00000000000E+00  0.00000000000E+00  0.24547397226E+02  0.24580228042E+02  0.12700000000E+01 0.  1.
          4   -1    0    0  501    0  0.00000000000E+00 -0.00000000000E+00 -0.15899390977E+03  0.15899898189E+03  0.12700000000E+01 0.  1.
         25    2    1    2    0    0  0.00000000000E+00  0.00000000000E+00 -0.13444651254E+03  0.18357920994E+03  0.12500184633E+03 0.  0.
    9000005    1    3    3    0    0  0.45600441490E+02  0.57825063565E+00 -0.44732836289E+01  0.45833883801E+02  0.10000000000E+01 0.  0.
    9000005    1    3    3    0    0 -0.45600441490E+02 -0.57825063565E+00 -0.12997322891E+03  0.13774532613E+03  0.10000000000E+01 0.  0.
<mgrwt>
<rscale>  0 0.12500185E+03</rscale>
<asrwt>0</asrwt>
<pdfrwt beam="2">  1        4 0.24463516E-01 0.12500185E+03</pdfrwt>
<pdfrwt beam="1">  1       -4 0.37794384E-02 0.12500185E+03</pdfrwt>
<totfact> 0.92972825E+03</totfact>
</mgrwt>
</event>
<event>
 5    1  0.3293542E-002  0.1249995E+03  0.7818608E-02  0.1235070E+00
         -4   -1    0    0    0  501 -0.00000000000E+00  0.00000000000E+00  0.79676972014E+01  0.80682773065E+01  0.12700000000E+01 0.  1.
          4   -1    0    0  501    0  0.00000000000E+00 -0.00000000000E+00 -0.48708084382E+03  0.48708249950E+03  0.12700000000E+01 0.  1.
         25    2    1    2    0    0  0.00000000000E+00  0.00000000000E+00 -0.47911314662E+03  0.49515077681E+03  0.12499953803E+03 0.  0.
    9000005    1    3    3    0    0 -0.23183268928E+02 -0.57121709598E+02 -0.19899176450E+03  0.20832444889E+03  0.10000000000E+01 0.  0.
    9000005    1    3    3    0    0  0.23183268928E+02  0.57121709598E+02 -0.28012138212E+03  0.28682632792E+03  0.10000000000E+01 0.  0.
<mgrwt>
<rscale>  0 0.12499954E+03</rscale>
<asrwt>0</asrwt>
<pdfrwt beam="2">  1        4 0.74943355E-01 0.12499954E+03</pdfrwt>
<pdfrwt beam="1">  1       -4 0.12336642E-02 0.12499954E+03</pdfrwt>
<totfact> 0.56243161E+03</totfact>
</mgrwt>
</event>
<event>
 5    1  0.3293542E-002  0.1249963E+03  0.7818608E-02  0.1235075E+00
          4   -1    0    0  501    0  0.00000000000E+00  0.00000000000E+00  0.24590460111E+03  0.24590788062E+03  0.12700000000E+01 0. -1.
         -4   -1    0    0    0  501 -0.00000000000E+00 -0.00000000000E+00 -0.15855501078E+02  0.15906282232E+02  0.12700000000E+01 0. -1.
         25    2    1    2    0    0  0.00000000000E+00  0.00000000000E+00  0.23004910004E+03  0.26181416285E+03  0.12499626970E+03 0.  0.
    9000005    1    3    3    0    0  0.51963797002E+02  0.32153850708E+02  0.87641582315E+02  0.10684640034E+03  0.10000000000E+01 0.  0.
    9000005    1    3    3    0    0 -0.51963797002E+02 -0.32153850708E+02  0.14240751772E+03  0.15496776251E+03  0.10000000000E+01 0.  0.
<mgrwt>
<rscale>  0 0.12499627E+03</rscale>
<asrwt>0</asrwt>
<pdfrwt beam="1">  1        4 0.37835632E-01 0.12499627E+03</pdfrwt>
<pdfrwt beam="2">  1       -4 0.24434666E-02 0.12499627E+03</pdfrwt>
<totfact> 0.80658839E+03</totfact>
</mgrwt>
</event>
<event>
 5    1  0.3293542E-002  0.1249985E+03  0.7818608E-02  0.1235072E+00
         -4   -1    0    0    0  501 -0.00000000000E+00  0.00000000000E+00  0.32546518065E+01  0.34936597404E+01  0.12700000000E+01 0. -1.
          4   -1    0    0  501    0  0.00000000000E+00 -0.00000000000E+00 -0.11574300803E+04  0.11574307770E+04  0.12700000000E+01 0. -1.
         25    2    1    2    0    0  0.00000000000E+00  0.00000000000E+00 -0.11541754285E+04  0.11609244368E+04  0.12499851287E+03 0.  0.
    9000005    1    3    3    0    0  0.26119880885E+02 -0.41765620341E+02 -0.93420914709E+03  0.93550753377E+03  0.10000000000E+01 0.  0.
    9000005    1    3    3    0    0 -0.26119880885E+02  0.41765620341E+02 -0.21996628138E+03  0.22541690301E+03  0.10000000000E+01 0.  0.
<mgrwt>
<rscale>  0 0.12499851E+03</rscale>
<asrwt>0</asrwt>
<pdfrwt beam="2">  1        4 0.17808429E+00 0.12499851E+03</pdfrwt>
<pdfrwt beam="1">  1       -4 0.51915541E-03 0.12499851E+03</pdfrwt>
<totfact> 0.25759949E+03</totfact>
</mgrwt>
</event>
<event>
 5    1  0.3293542E-002  0.1250003E+03  0.7818608E-02  0.1235069E+00
          4   -1    0    0  501    0  0.00000000000E+00  0.00000000000E+00  0.61950132382E+01  0.63238508063E+01  0.12700000000E+01 0.  1.
         -4   -1    0    0    0  501 -0.00000000000E+00 -0.00000000000E+00 -0.62393126333E+03  0.62393255585E+03  0.12700000000E+01 0.  1.
         25    2    1    2    0    0  0.00000000000E+00  0.00000000000E+00 -0.61773625009E+03  0.63025640666E+03  0.12500025386E+03 0.  0.
    9000005    1    3    3    0    0 -0.48325199049E+02  0.78742421954E+01 -0.50466151143E+03  0.50703211897E+03  0.10000000000E+01 0.  0.
    9000005    1    3    3    0    0  0.48325199049E+02 -0.78742421954E+01 -0.11307473866E+03  0.12322428769E+03  0.10000000000E+01 0.  0.
<mgrwt>
<rscale>  0 0.12500025E+03</rscale>
<asrwt>0</asrwt>
<pdfrwt beam="1">  1        4 0.96308946E-03 0.12500025E+03</pdfrwt>
<pdfrwt beam="2">  1       -4 0.95999386E-01 0.12500025E+03</pdfrwt>
<totfact> 0.47011546E+03</totfact>
</mgrwt>
</event>
<event>
 5    1  0.3293542E-002  0.1249976E+03  0.7818608E-02  0.1235073E+00
          4   -1    0    0  501    0  0.00000000000E+00  0.00000000000E+00  0.39823535652E+01  0.41799569278E+01  0.12700000000E+01 0.  1.
         -4   -1    0    0    0  501 -0.00000000000E+00 -0.00000000000E+00 -0.95690768922E+03  0.95690853198E+03  0.12700000000E+01 0.  1.
         25    2    1    2    0    0  0.00000000000E+00  0.00000000000E+00 -0.95292533565E+03  0.96108848891E+03  0.12499755274E+03 0.  0.
    9000005    1    3    3    0    0  0.33650837703E+02  0.52655822551E+02 -0.47425393081E+03  0.47835426769E+03  0.10000000000E+01 0.  0.
    9000005    1    3    3    0    0 -0.33650837703E+02 -0.52655822551E+02 -0.47867140484E+03  0.48273422122E+03  0.10000000000E+01 0.  0.
<mgrwt>
<rscale>  0 0.12499755E+03</rscale>
<asrwt>0</asrwt>
<pdfrwt beam="1">  1        4 0.62793563E-03 0.12499755E+03</pdfrwt>
<pdfrwt beam="2">  1       -4 0.14723165E+00 0.12499755E+03</pdfrwt>
<totfact> 0.31927272E+03</totfact>
</mgrwt>
</event>
<event>
 5    1  0.3293542E-002  0.1249860E+03  0.7818608E-02  0.1235091E+00
         -4   -1    0    0    0  501 -0.00000000000E+00  0.00000000000E+00  0.10948171317E+03  0.10948907900E+03  0.12700000000E+01 0. -1.
          4   -1    0    0  501    0  0.00000000000E+00 -0.00000000000E+00 -0.35651596317E+02  0.35674209450E+02  0.12700000000E+01 0. -1.
         25    2    1    2    0    0  0.00000000000E+00  0.00000000000E+00  0.73830116858E+02  0.14516328845E+03  0.12498597584E+03 0.  0.
    9000005    1    3    3    0    0  0.14989680313E+02  0.56280614533E+02  0.10630245412E+02  0.59213175947E+02  0.10000000000E+01 0.  0.
    9000005    1    3    3    0    0 -0.14989680313E+02 -0.56280614533E+02  0.63199871445E+02  0.85950112501E+02  0.10000000000E+01 0.  0.
<mgrwt>
<rscale>  0 0.12498598E+03</rscale>
<asrwt>0</asrwt>
<pdfrwt beam="2">  1        4 0.54871672E-02 0.12498598E+03</pdfrwt>
<pdfrwt beam="1">  1       -4 0.16845646E-01 0.12498598E+03</pdfrwt>
<totfact> 0.10030839E+04</totfact>
</mgrwt>
</event>
<event>
 5    1  0.3293542E-002  0.1249990E+03  0.7818608E-02  0.1235071E+00
         -4   -1    0    0    0  501 -0.00000000000E+00  0.00000000000E+00  0.33879207485E+01  0.36181358457E+01  0.12700000000E+01 0. -1.
          4   -1    0    0  501    0  0.00000000000E+00 -0.00000000000E+00 -0.11148578247E+04  0.11148585481E+04  0.12700000000E+01 0. -1.
         25    2    1    2    0    0  0.00000000000E+00  0.00000000000E+00 -0.11114699040E+04  0.11184766839E+04  0.12499898025E+03 0.  0.
    9000005    1    3    3    0    0 -0.53613486482E+02  0.18135969819E+02 -0.79278926192E+03  0.79480760763E+03  0.10000000000E+01 0.  0.
    9000005    1    3    3    0    0  0.53613486482E+02 -0.18135969819E+02 -0.31868064205E+03  0.32366907630E+03  0.10000000000E+01 0.  0.
<mgrwt>
<rscale>  0 0.12499898E+03</rscale>
<asrwt>0</asrwt>
<pdfrwt beam="2">  1        4 0.17153407E+00 0.12499898E+03</pdfrwt>
<pdfrwt beam="1">  1       -4 0.53898396E-03 0.12499898E+03</pdfrwt>
<totfact> 0.26949485E+03</totfact>
</mgrwt>
</event>
<event>
 5    1  0.3293542E-002  0.1250126E+03  0.7818608E-02  0.1235050E+00
          4   -1    0    0  501    0  0.00000000000E+00  0.00000000000E+00  0.23715673312E+02  0.23749653906E+02  0.12700000000E+01 0. -1.
         -4   -1    0    0    0  501 -0.00000000000E+00 -0.00000000000E+00 -0.16459063034E+03  0.16459553000E+03  0.12700000000E+01 0. -1.
         25    2    1    2    0    0  0.00000000000E+00  0.00000000000E+00 -0.14087495703E+03  0.18834518390E+03  0.12501261849E+03 0.  0.
    9000005    1    3    3    0    0  0.16300803118E+02 -0.38885194819E+02 -0.93289728046E+00  0.42185837146E+02  0.10000000000E+01 0.  0.
    9000005    1    3    3    0    0 -0.16300803118E+02  0.38885194819E+02 -0.13994205975E+03  0.14615934676E+03  0.10000000000E+01 0.  0.
<mgrwt>
<rscale>  0 0.12501262E+03</rscale>
<asrwt>0</asrwt>
<pdfrwt beam="1">  1        4 0.36515560E-02 0.12501262E+03</pdfrwt>
<pdfrwt beam="2">  1       -4 0.25324626E-01 0.12501262E+03</pdfrwt>
<totfact> 0.92110005E+03</totfact>
</mgrwt>
</event>
<event>
 5    1  0.3293542E-002  0.1250010E+03  0.7818608E-02  0.1235068E+00
          4   -1    0    0  501    0  0.00000000000E+00  0.00000000000E+00  0.80050140486E+03  0.80050241229E+03  0.12700000000E+01 0.  1.
         -4   -1    0    0    0  501 -0.00000000000E+00 -0.00000000000E+00 -0.47961717756E+01  0.49614678978E+01  0.12700000000E+01 0.  1.
         25    2    1    2    0    0  0.00000000000E+00  0.00000000000E+00  0.79570523308E+03  0.80546388019E+03  0.12500097732E+03 0.  0.
    9000005    1    3    3    0    0 -0.42903936652E+02  0.45085978847E+02  0.43419955438E+03  0.43863851437E+03  0.10000000000E+01 0.  0.
    9000005    1    3    3    0    0  0.42903936652E+02 -0.45085978847E+02  0.36150567871E+03  0.36682536582E+03  0.10000000000E+01 0.  0.
<mgrwt>
<rscale>  0 0.12500098E+03</rscale>
<asrwt>0</asrwt>
<pdfrwt beam="1">  1        4 0.12316684E+00 0.12500098E+03</pdfrwt>
<pdfrwt beam="2">  1       -4 0.75066523E-03 0.12500098E+03</pdfrwt>
<totfact> 0.38021154E+03</totfact>
</mgrwt>
</event>
<event>
 5    1  0.3293542E-002  0.1249979E+03  0.7818608E-02  0.1235073E+00
         -4   -1    0    0    0  501 -0.00000000000E+00  0.00000000000E+00  0.12915601350E+03  0.12916225735E+03  0.12700000000E+01 0. -1.
          4   -1    0    0  501    0  0.00000000000E+00 -0.00000000000E+00 -0.30223081977E+02  0.30249753457E+02  0.12700000000E+01 0. -1.
         25    2    1    2    0    0  0.00000000000E+00  0.00000000000E+00  0.98932931526E+02  0.15941201081E+03  0.12499785698E+03 0.  0.
    9000005    1    3    3    0    0 -0.27107540336E+02 -0.15780375399E+02 -0.19462989706E+02  0.36927590757E+02  0.10000000000E+01 0.  0.
    9000005    1    3    3    0    0  0.27107540336E+02  0.15780375399E+02  0.11839592123E+03  0.12248442005E+03  0.10000000000E+01 0.  0.
<mgrwt>
<rscale>  0 0.12499786E+03</rscale>
<asrwt>0</asrwt>
<pdfrwt beam="2">  1        4 0.46522369E-02 0.12499786E+03</pdfrwt>
<pdfrwt beam="1">  1       -4 0.19872688E-01 0.12499786E+03</pdfrwt>
<totfact> 0.97460959E+03</totfact>
</mgrwt>
</event>
<event>
 5    1  0.3293542E-002  0.1250026E+03  0.7818608E-02  0.1235065E+00
          4   -1    0    0  501    0  0.00000000000E+00  0.00000000000E+00  0.27830166134E+01  0.30590981466E+01  0.12700000000E+01 0. -1.
         -4   -1    0    0    0  501 -0.00000000000E+00 -0.00000000000E+00 -0.13370514738E+04  0.13370520770E+04  0.12700000000E+01 0. -1.
         25    2    1    2    0    0  0.00000000000E+00  0.00000000000E+00 -0.13342684572E+04  0.13401111751E+04  0.12500258313E+03 0.  0.
    9000005    1    3    3    0    0 -0.44432447436E+02 -0.43001845227E+02 -0.57004831427E+03  0.57339295572E+03  0.10000000000E+01 0.  0.
    9000005    1    3    3    0    0  0.44432447436E+02  0.43001845227E+02 -0.76422014292E+03  0.76671821938E+03  0.10000000000E+01 0.  0.
<mgrwt>
<rscale>  0 0.12500258E+03</rscale>
<asrwt>0</asrwt>
<pdfrwt beam="1">  1        4 0.44944091E-03 0.12500258E+03</pdfrwt>
<pdfrwt beam="2">  1       -4 0.20572102E+00 0.12500258E+03</pdfrwt>
<totfact> 0.21300015E+03</totfact>
</mgrwt>
</event>
<event>
 5    1  0.3293542E-002  0.1249878E+03  0.7818608E-02  0.1235088E+00
          4   -1    0    0  501    0  0.00000000000E+00  0.00000000000E+00  0.40102423284E+03  0.40102624381E+03  0.12700000000E+01 0.  1.
         -4   -1    0    0    0  501 -0.00000000000E+00 -0.00000000000E+00 -0.96953374319E+01  0.97781628090E+01  0.12700000000E+01 0.  1.
         25    2    1    2    0    0  0.00000000000E+00  0.00000000000E+00  0.39132889541E+03  0.41080440662E+03  0.12498782387E+03 0.  0.
    9000005    1    3    3    0    0  0.11783010790E+02 -0.54266374724E+02  0.10149960722E+03  0.11570155156E+03  0.10000000000E+01 0.  0.
    9000005    1    3    3    0    0 -0.11783010790E+02  0.54266374724E+02  0.28982928819E+03  0.29510285506E+03  0.10000000000E+01 0.  0.
<mgrwt>
<rscale>  0 0.12498782E+03</rscale>
<asrwt>0</asrwt>
<pdfrwt beam="1">  1        4 0.61702558E-01 0.12498782E+03</pdfrwt>
<pdfrwt beam="2">  1       -4 0.14981163E-02 0.12498782E+03</pdfrwt>
<totfact> 0.63532427E+03</totfact>
</mgrwt>
</event>
<event>
 5    1  0.3293542E-002  0.1249986E+03  0.7818608E-02  0.1235071E+00
          4   -1    0    0  501    0  0.00000000000E+00  0.00000000000E+00  0.80094036430E+02  0.80104104587E+02  0.12700000000E+01 0.  1.
         -4   -1    0    0    0  501 -0.00000000000E+00 -0.00000000000E+00 -0.48748319496E+02  0.48764859824E+02  0.12700000000E+01 0.  1.
         25    2    1    2    0    0  0.00000000000E+00  0.00000000000E+00  0.31345716934E+02  0.12886896441E+03  0.12499862407E+03 0.  0.
    9000005    1    3    3    0    0  0.60190951807E+01  0.27469685352E+02  0.73207164206E+02  0.78428961558E+02  0.10000000000E+01 0.  0.
    9000005    1    3    3    0    0 -0.60190951807E+01 -0.27469685352E+02 -0.41861447271E+02  0.50440002852E+02  0.10000000000E+01 0.  0.
<mgrwt>
<rscale>  0 0.12499862E+03</rscale>
<asrwt>0</asrwt>
<pdfrwt beam="1">  1        4 0.12324206E-01 0.12499862E+03</pdfrwt>
<pdfrwt beam="2">  1       -4 0.75017883E-02 0.12499862E+03</pdfrwt>
<totfact> 0.10369085E+04</totfact>
</mgrwt>
</event>
<event>
 5    1  0.3293542E-002  0.1250013E+03  0.7818608E-02  0.1235067E+00
          4   -1    0    0  501    0  0.00000000000E+00  0.00000000000E+00  0.10344929040E+02  0.10422593575E+02  0.12700000000E+01 0. -1.
         -4   -1    0    0    0  501 -0.00000000000E+00 -0.00000000000E+00 -0.37611747538E+03  0.37611961952E+03  0.12700000000E+01 0. -1.
         25    2    1    2    0    0  0.00000000000E+00  0.00000000000E+00 -0.36577254634E+03  0.38654221310E+03  0.12500130738E+03 0.  0.
    9000005    1    3    3    0    0  0.24558338327E+02  0.31769482328E+02 -0.33095958791E+03  0.33338815339E+03  0.10000000000E+01 0.  0.
    9000005    1    3    3    0    0 -0.24558338327E+02 -0.31769482328E+02 -0.34812958432E+02  0.53154059709E+02  0.10000000000E+01 0.  0.
<mgrwt>
<rscale>  0 0.12500131E+03</rscale>
<asrwt>0</asrwt>
<pdfrwt beam="1">  1        4 0.15976670E-02 0.12500131E+03</pdfrwt>
<pdfrwt beam="2">  1       -4 0.57870356E-01 0.12500131E+03</pdfrwt>
<totfact> 0.65881169E+03</totfact>
</mgrwt>
</event>
<event>
 5    1  0.3293542E-002  0.1249989E+03  0.7818608E-02  0.1235071E+00
         -4   -1    0    0    0  501 -0.00000000000E+00  0.00000000000E+00  0.29819856819E+01  0.32411631565E+01  0.12700000000E+01 0. -1.
          4   -1    0    0  501    0  0.00000000000E+00 -0.00000000000E+00 -0.12551116441E+04  0.12551122866E+04  0.12700000000E+01 0. -1.
         25    2    1    2    0    0  0.00000000000E+00  0.00000000000E+00 -0.12521296584E+04  0.12583534498E+04  0.12499889242E+03 0.  0.
    9000005    1    3    3    0    0  0.17998028353E+02  0.19706671472E+01 -0.12281782419E+04  0.12283120965E+04  0.10000000000E+01 0.  0.
    9000005    1    3    3    0    0 -0.17998028353E+02 -0.19706671472E+01 -0.23951416514E+02  0.30041353276E+02  0.10000000000E+01 0.  0.
<mgrwt>
<rscale>  0 0.12499889E+03</rscale>
<asrwt>0</asrwt>
<pdfrwt beam="2">  1        4 0.19311368E+00 0.12499889E+03</pdfrwt>
<pdfrwt beam="1">  1       -4 0.47875419E-03 0.12499889E+03</pdfrwt>
<totfact> 0.23233904E+03</totfact>
</mgrwt>
</event>
<event>
 5    1  0.3293542E-002  0.1250012E+03  0.7818608E-02  0.1235067E+00
          4   -1    0    0  501    0  0.00000000000E+00  0.00000000000E+00  0.16136866278E+03  0.16137366026E+03  0.12700000000E+01 0. -1.
         -4   -1    0    0    0  501 -0.00000000000E+00 -0.00000000000E+00 -0.24185410427E+02  0.24218731955E+02  0.12700000000E+01 0. -1.
         25    2    1    2    0    0  0.00000000000E+00  0.00000000000E+00  0.13718325235E+03  0.18559239222E+03  0.12500116529E+03 0.  0.
    9000005    1    3    3    0    0  0.61861037964E+02 -0.88615134883E+01  0.68727634925E+02  0.92896728907E+02  0.10000000000E+01 0.  0.
    9000005    1    3    3    0    0 -0.61861037964E+02  0.88615134883E+01  0.68455617424E+02  0.92695663309E+02  0.10000000000E+01 0.  0.
<mgrwt>
<rscale>  0 0.12500117E+03</rscale>
<asrwt>0</asrwt>
<pdfrwt beam="1">  1        4 0.24828897E-01 0.12500117E+03</pdfrwt>
<pdfrwt beam="2">  1       -4 0.37237798E-02 0.12500117E+03</pdfrwt>
<totfact> 0.92617510E+03</totfact>
</mgrwt>
</event>
<event>
 5    1  0.3293542E-002  0.1249788E+03  0.7818608E-02  0.1235102E+00
         -4   -1    0    0    0  501 -0.00000000000E+00  0.00000000000E+00  0.96409517886E+01  0.97242404017E+01  0.12700000000E+01 0. -1.
          4   -1    0    0  501    0  0.00000000000E+00 -0.00000000000E+00 -0.40320906787E+03  0.40321106795E+03  0.12700000000E+01 0. -1.
         25    2    1    2    0    0  0.00000000000E+00  0.00000000000E+00 -0.39356811608E+03  0.41293530835E+03  0.12497882574E+03 0.  0.
    9000005    1    3    3    0    0  0.45611029582E+02  0.41994390868E+02 -0.22238384758E+03  0.23086678095E+03  0.10000000000E+01 0.  0.
    9000005    1    3    3    0    0 -0.45611029582E+02 -0.41994390868E+02 -0.17118426851E+03  0.18206852739E+03  0.10000000000E+01 0.  0.
<mgrwt>
<rscale>  0 0.12497883E+03</rscale>
<asrwt>0</asrwt>
<pdfrwt beam="2">  1        4 0.62038712E-01 0.12497883E+03</pdfrwt>
<pdfrwt beam="1">  1       -4 0.14897843E-02 0.12497883E+03</pdfrwt>
<totfact> 0.63343459E+03</totfact>
</mgrwt>
</event>
<event>
 5    1  0.3293542E-002  0.1250012E+03  0.7818608E-02  0.1235067E+00
         -4   -1    0    0    0  501 -0.00000000000E+00  0.00000000000E+00  0.25437687063E+02  0.25469370293E+02  0.12700000000E+01 0. -1.
          4   -1    0    0  501    0  0.00000000000E+00 -0.00000000000E+00 -0.15343458814E+03  0.15343984404E+03  0.12700000000E+01 0. -1.
         25    2    1    2    0    0  0.00000000000E+00  0.00000000000E+00 -0.12799690108E+03  0.17890921433E+03  0.12500120114E+03 0.  0.
    9000005    1    3    3    0    0  0.49214088605E+02 -0.23695872364E+02 -0.20543640011E+02  0.58365760761E+02  0.10000000000E+01 0.  0.
    9000005    1    3    3    0    0 -0.49214088605E+02  0.23695872364E+02 -0.10745326107E+03  0.12054345357E+03  0.10000000000E+01 0.  0.
<mgrwt>
<rscale>  0 0.12500120E+03</rscale>
<asrwt>0</asrwt>
<pdfrwt beam="2">  1        4 0.23608162E-01 0.12500120E+03</pdfrwt>
<pdfrwt beam="1">  1       -4 0.39163319E-02 0.12500120E+03</pdfrwt>
<totfact> 0.93811191E+03</totfact>
</mgrwt>
</event>
<event>
 5    1  0.3293542E-002  0.1249986E+03  0.7818608E-02  0.1235071E+00
         -4   -1    0    0    0  501 -0.00000000000E+00  0.00000000000E+00  0.73379363066E+02  0.73390352390E+02  0.12700000000E+01 0. -1.
          4   -1    0    0  501    0  0.00000000000E+00 -0.00000000000E+00 -0.53209923314E+02  0.53225077163E+02  0.12700000000E+01 0. -1.
         25    2    1    2    0    0  0.00000000000E+00  0.00000000000E+00  0.20169439752E+02  0.12661542955E+03  0.12499864280E+03 0.  0.
    9000005    1    3    3    0    0  0.95792699131E+01  0.46177395755E+02  0.51615660254E+02  0.69923462974E+02  0.10000000000E+01 0.  0.
    9000005    1    3    3    0    0 -0.95792699131E+01 -0.46177395755E+02 -0.31446220502E+02  0.56691966580E+02  0.10000000000E+01 0.  0.
<mgrwt>
<rscale>  0 0.12499864E+03</rscale>
<asrwt>0</asrwt>
<pdfrwt beam="2">  1        4 0.81881531E-02 0.12499864E+03</pdfrwt>
<pdfrwt beam="1">  1       -4 0.11291144E-01 0.12499864E+03</pdfrwt>
<totfact> 0.10417831E+04</totfact>
</mgrwt>
</event>
<event>
 5    1  0.3293542E-002  0.1249999E+03  0.7818608E-02  0.1235069E+00
          4   -1    0    0  501    0  0.00000000000E+00  0.00000000000E+00  0.28095402018E+03  0.28095689056E+03  0.12700000000E+01 0. -1.
         -4   -1    0    0    0  501 -0.00000000000E+00 -0.00000000000E+00 -0.13871547394E+02  0.13929563062E+02  0.12700000000E+01 0. -1.
         25    2    1    2    0    0  0.00000000000E+00  0.00000000000E+00  0.26708247278E+03  0.29488645362E+03  0.12499989305E+03 0.  0.
    9000005    1    3    3    0    0 -0.58107742034E+02  0.22713807401E+02  0.14198685249E+03  0.15509253048E+03  0.10000000000E+01 0.  0.
    9000005    1    3    3    0    0  0.58107742034E+02 -0.22713807401E+02  0.12509562030E+03  0.13979392315E+03  0.10000000000E+01 0.  0.
<mgrwt>
<rscale>  0 0.12499989E+03</rscale>
<asrwt>0</asrwt>
<pdfrwt beam="1">  1        4 0.43228374E-01 0.12499989E+03</pdfrwt>
<pdfrwt beam="2">  1       -4 0.21387680E-02 0.12499989E+03</pdfrwt>
<totfact> 0.76244966E+03</totfact>
</mgrwt>
</event>
<event>
 5    1  0.3293542E-002  0.1250001E+03  0.7818608E-02  0.1235069E+00
          4   -1    0    0  501    0  0.00000000000E+00  0.00000000000E+00  0.22445228822E+02  0.22481129796E+02  0.12700000000E+01 0. -1.
         -4   -1    0    0    0  501 -0.00000000000E+00 -0.00000000000E+00 -0.17385763129E+03  0.17386226979E+03  0.12700000000E+01 0. -1.
         25    2    1    2    0    0  0.00000000000E+00  0.00000000000E+00 -0.15141240247E+03  0.19634339959E+03  0.12500005976E+03 0.  0.
    9000005    1    3    3    0    0 -0.38569411791E+02  0.49161839781E+02 -0.74329920073E+02  0.97110365228E+02  0.10000000000E+01 0.  0.
    9000005    1    3    3    0    0  0.38569411791E+02 -0.49161839781E+02 -0.77082482396E+02  0.99233034363E+02  0.10000000000E+01 0.  0.
<mgrwt>
<rscale>  0 0.12500006E+03</rscale>
<asrwt>0</asrwt>
<pdfrwt beam="1">  1        4 0.34562306E-02 0.12500006E+03</pdfrwt>
<pdfrwt beam="2">  1       -4 0.26750446E-01 0.12500006E+03</pdfrwt>
<totfact> 0.90755027E+03</totfact>
</mgrwt>
</event>
<event>
 5    1  0.3293542E-002  0.1249906E+03  0.7818608E-02  0.1235084E+00
         -4   -1    0    0    0  501 -0.00000000000E+00  0.00000000000E+00  0.19011318439E+03  0.19011742629E+03  0.12700000000E+01 0.  1.
          4   -1    0    0  501    0  0.00000000000E+00 -0.00000000000E+00 -0.20519789738E+02  0.20559053259E+02  0.12700000000E+01 0.  1.
         25    2    1    2    0    0  0.00000000000E+00  0.00000000000E+00  0.16959339465E+03  0.21067647955E+03  0.12499063775E+03 0.  0.
    9000005    1    3    3    0    0 -0.18302620359E+02  0.58628430516E+02  0.10419035700E+03  0.12095002798E+03  0.10000000000E+01 0.  0.
    9000005    1    3    3    0    0  0.18302620359E+02 -0.58628430516E+02  0.65403037651E+02  0.89726451567E+02  0.10000000000E+01 0.  0.
<mgrwt>
<rscale>  0 0.12499064E+03</rscale>
<asrwt>0</asrwt>
<pdfrwt beam="2">  1        4 0.31602374E-02 0.12499064E+03</pdfrwt>
<pdfrwt beam="1">  1       -4 0.29251528E-01 0.12499064E+03</pdfrwt>
<totfact> 0.88384019E+03</totfact>
</mgrwt>
</event>
<event>
 5    1  0.3293542E-002  0.1250032E+03  0.7818608E-02  0.1235064E+00
         -4   -1    0    0    0  501 -0.00000000000E+00  0.00000000000E+00  0.64099943311E+02  0.64112523211E+02  0.12700000000E+01 0. -1.
          4   -1    0    0  501    0  0.00000000000E+00 -0.00000000000E+00 -0.60917954376E+02  0.60931191235E+02  0.12700000000E+01 0. -1.
         25    2    1    2    0    0  0.00000000000E+00  0.00000000000E+00  0.31819889354E+01  0.12504371445E+03  0.12500322183E+03 0.  0.
    9000005    1    3    3    0    0 -0.11150015451E+02  0.26608884501E+01  0.63044177180E+02  0.64085657117E+02  0.10000000000E+01 0.  0.
    9000005    1    3    3    0    0  0.11150015451E+02 -0.26608884501E+01 -0.59862188244E+02  0.60958057329E+02  0.10000000000E+01 0.  0.
<mgrwt>
<rscale>  0 0.12500322E+03</rscale>
<asrwt>0</asrwt>
<pdfrwt beam="2">  1        4 0.93739789E-02 0.12500322E+03</pdfrwt>
<pdfrwt beam="1">  1       -4 0.98635157E-02 0.12500322E+03</pdfrwt>
<totfact> 0.10451152E+04</totfact>
</mgrwt>
</event>
<event>
 5    1  0.3293542E-002  0.1249981E+03  0.7818608E-02  0.1235072E+00
          4   -1    0    0  501    0  0.00000000000E+00  0.00000000000E+00  0.64742859646E+03  0.64742984208E+03  0.12700000000E+01 0.  1.
         -4   -1    0    0    0  501 -0.00000000000E+00 -0.00000000000E+00 -0.59652032918E+01  0.60988974670E+01  0.12700000000E+01 0.  1.
         25    2    1    2    0    0  0.00000000000E+00  0.00000000000E+00  0.64146339317E+03  0.65352873955E+03  0.12499811454E+03 0.  0.
    9000005    1    3    3    0    0 -0.95155259185E+01  0.48326921803E+02  0.11965610986E+03  0.12940100939E+03  0.10000000000E+01 0.  0.
    9000005    1    3    3    0    0  0.95155259185E+01 -0.48326921803E+02  0.52180728330E+03  0.52412773015E+03  0.10000000000E+01 0.  0.
<mgrwt>
<rscale>  0 0.12499811E+03</rscale>
<asrwt>0</asrwt>
<pdfrwt beam="1">  1        4 0.99614761E-01 0.12499811E+03</pdfrwt>
<pdfrwt beam="2">  1       -4 0.92810374E-03 0.12499811E+03</pdfrwt>
<totfact> 0.45655808E+03</totfact>
</mgrwt>
</event>
<event>
 5    1  0.3293542E-002  0.1249999E+03  0.7818608E-02  0.1235069E+00
          4   -1    0    0  501    0  0.00000000000E+00  0.00000000000E+00  0.14572914687E+02  0.14628148976E+02  0.12700000000E+01 0. -1.
         -4   -1    0    0    0  501 -0.00000000000E+00 -0.00000000000E+00 -0.26748451277E+03  0.26748752770E+03  0.12700000000E+01 0. -1.
         25    2    1    2    0    0  0.00000000000E+00  0.00000000000E+00 -0.25291159809E+03  0.28211567667E+03  0.12499991431E+03 0.  0.
    9000005    1    3    3    0    0  0.39119224742E+02  0.40037758251E+02 -0.18916055827E+03  0.19727152008E+03  0.10000000000E+01 0.  0.
    9000005    1    3    3    0    0 -0.39119224742E+02 -0.40037758251E+02 -0.63751039821E+02  0.84844156596E+02  0.10000000000E+01 0.  0.
<mgrwt>
<rscale>  0 0.12499991E+03</rscale>
<asrwt>0</asrwt>
<pdfrwt beam="1">  1        4 0.22464678E-02 0.12499991E+03</pdfrwt>
<pdfrwt beam="2">  1       -4 0.41155941E-01 0.12499991E+03</pdfrwt>
<totfact> 0.77898566E+03</totfact>
</mgrwt>
</event>
<event>
 5    1  0.3293542E-002  0.1250131E+03  0.7818608E-02  0.1235049E+00
          4   -1    0    0  501    0  0.00000000000E+00  0.00000000000E+00  0.20875162228E+03  0.20875548544E+03  0.12700000000E+01 0. -1.
         -4   -1    0    0    0  501 -0.00000000000E+00 -0.00000000000E+00 -0.18690757158E+02  0.18733854466E+02  0.12700000000E+01 0. -1.
         25    2    1    2    0    0  0.00000000000E+00  0.00000000000E+00  0.19006086512E+03  0.22748933991E+03  0.12501306861E+03 0.  0.
    9000005    1    3    3    0    0 -0.21011692789E+02  0.20991898575E+02  0.19509734074E+03  0.19734772206E+03  0.10000000000E+01 0.  0.
    9000005    1    3    3    0    0  0.21011692789E+02 -0.20991898575E+02 -0.50364756234E+01  0.30141617845E+02  0.10000000000E+01 0.  0.
<mgrwt>
<rscale>  0 0.12501307E+03</rscale>
<asrwt>0</asrwt>
<pdfrwt beam="1">  1        4 0.32119244E-01 0.12501307E+03</pdfrwt>
<pdfrwt beam="2">  1       -4 0.28791137E-02 0.12501307E+03</pdfrwt>
<totfact> 0.85671622E+03</totfact>
</mgrwt>
</event>
<event>
 5    1  0.3293542E-002  0.1250013E+03  0.7818608E-02  0.1235067E+00
         -4   -1    0    0    0  501 -0.00000000000E+00  0.00000000000E+00  0.12456268630E+02  0.12520843748E+02  0.12700000000E+01 0.  1.
          4   -1    0    0  501    0  0.00000000000E+00 -0.00000000000E+00 -0.31272716677E+03  0.31272974552E+03  0.12700000000E+01 0.  1.
         25    2    1    2    0    0  0.00000000000E+00  0.00000000000E+00 -0.30027089814E+03  0.32525058927E+03  0.12500133420E+03 0.  0.
    9000005    1    3    3    0    0 -0.73403600177E+01 -0.57228318484E+02 -0.87667836807E+02  0.10495528063E+03  0.10000000000E+01 0.  0.
    9000005    1    3    3    0    0  0.73403600177E+01  0.57228318484E+02 -0.21260306133E+03  0.22029530864E+03  0.10000000000E+01 0.  0.
<mgrwt>
<rscale>  0 0.12500133E+03</rscale>
<asrwt>0</asrwt>
<pdfrwt beam="2">  1        4 0.48117032E-01 0.12500133E+03</pdfrwt>
<pdfrwt beam="1">  1       -4 0.19215149E-02 0.12500133E+03</pdfrwt>
<totfact> 0.72533817E+03</totfact>
</mgrwt>
</event>
<event>
 5    1  0.3293542E-002  0.1249998E+03  0.7818608E-02  0.1235070E+00
         -4   -1    0    0    0  501 -0.00000000000E+00  0.00000000000E+00  0.19052199346E+02  0.19094480875E+02  0.12700000000E+01 0. -1.
          4   -1    0    0  501    0  0.00000000000E+00 -0.00000000000E+00 -0.20475657937E+03  0.20476051791E+03  0.12700000000E+01 0. -1.
         25    2    1    2    0    0  0.00000000000E+00  0.00000000000E+00 -0.18570438002E+03  0.22385499878E+03  0.12499977489E+03 0.  0.
    9000005    1    3    3    0    0 -0.52296293405E+02 -0.26914639412E+02 -0.55034609405E+02  0.80555002024E+02  0.10000000000E+01 0.  0.
    9000005    1    3    3    0    0  0.52296293405E+02  0.26914639412E+02 -0.13066977062E+03  0.14329999676E+03  0.10000000000E+01 0.  0.
<mgrwt>
<rscale>  0 0.12499977E+03</rscale>
<asrwt>0</asrwt>
<pdfrwt beam="2">  1        4 0.31504566E-01 0.12499977E+03</pdfrwt>
<pdfrwt beam="1">  1       -4 0.29346631E-02 0.12499977E+03</pdfrwt>
<totfact> 0.86262433E+03</totfact>
</mgrwt>
</event>
<event>
 5    1  0.3293542E-002  0.1249999E+03  0.7818608E-02  0.1235070E+00
         -4   -1    0    0    0  501 -0.00000000000E+00  0.00000000000E+00  0.78847569242E+02  0.78857796542E+02  0.12700000000E+01 0.  1.
          4   -1    0    0  501    0  0.00000000000E+00 -0.00000000000E+00 -0.49520096209E+02  0.49536378839E+02  0.12700000000E+01 0.  1.
         25    2    1    2    0    0  0.00000000000E+00  0.00000000000E+00  0.29327473034E+02  0.12839417538E+03  0.12499985439E+03 0.  0.
    9000005    1    3    3    0    0 -0.46751044898E+02 -0.23150542198E+02  0.50001931717E+02  0.72268948924E+02  0.10000000000E+01 0.  0.
    9000005    1    3    3    0    0  0.46751044898E+02  0.23150542198E+02 -0.20674458683E+02  0.56125226458E+02  0.10000000000E+01 0.  0.
<mgrwt>
<rscale>  0 0.12499985E+03</rscale>
<asrwt>0</asrwt>
<pdfrwt beam="2">  1        4 0.76205156E-02 0.12499985E+03</pdfrwt>
<pdfrwt beam="1">  1       -4 0.12132434E-01 0.12499985E+03</pdfrwt>
<totfact> 0.10379018E+04</totfact>
</mgrwt>
</event>
<event>
 5    1  0.3293542E-002  0.1249964E+03  0.7818608E-02  0.1235075E+00
          4   -1    0    0  501    0  0.00000000000E+00  0.00000000000E+00  0.50716493812E+02  0.50732392459E+02  0.12700000000E+01 0. -1.
         -4   -1    0    0    0  501 -0.00000000000E+00 -0.00000000000E+00 -0.76983603984E+02  0.76994078878E+02  0.12700000000E+01 0. -1.
         25    2    1    2    0    0  0.00000000000E+00  0.00000000000E+00 -0.26267110172E+02  0.12772647134E+03  0.12499636156E+03 0.  0.
    9000005    1    3    3    0    0  0.45007981615E+02 -0.42037842957E+02 -0.23953691591E+02  0.66088410408E+02  0.10000000000E+01 0.  0.
    9000005    1    3    3    0    0 -0.45007981615E+02  0.42037842957E+02 -0.23134185806E+01  0.61638060928E+02  0.10000000000E+01 0.  0.
<mgrwt>
<rscale>  0 0.12499636E+03</rscale>
<asrwt>0</asrwt>
<pdfrwt beam="1">  1        4 0.78045662E-02 0.12499636E+03</pdfrwt>
<pdfrwt beam="2">  1       -4 0.11845660E-01 0.12499636E+03</pdfrwt>
<totfact> 0.10394253E+04</totfact>
</mgrwt>
</event>
<event>
 5    1  0.3293542E-002  0.1249972E+03  0.7818608E-02  0.1235074E+00
          4   -1    0    0  501    0  0.00000000000E+00  0.00000000000E+00  0.16013975090E+02  0.16064255295E+02  0.12700000000E+01 0.  1.
         -4   -1    0    0    0  501 -0.00000000000E+00 -0.00000000000E+00 -0.24348250294E+03  0.24348581506E+03  0.12700000000E+01 0.  1.
         25    2    1    2    0    0  0.00000000000E+00  0.00000000000E+00 -0.22746852785E+03  0.25955007036E+03  0.12499723141E+03 0.  0.
    9000005    1    3    3    0    0  0.23161327284E+02 -0.25138223544E+02 -0.51081303686E+01  0.34575574621E+02  0.10000000000E+01 0.  0.
    9000005    1    3    3    0    0 -0.23161327284E+02  0.25138223544E+02 -0.22236039748E+03  0.22497449574E+03  0.10000000000E+01 0.  0.
<mgrwt>
<rscale>  0 0.12499723E+03</rscale>
<asrwt>0</asrwt>
<pdfrwt beam="1">  1        4 0.24678111E-02 0.12499723E+03</pdfrwt>
<pdfrwt beam="2">  1       -4 0.37462966E-01 0.12499723E+03</pdfrwt>
<totfact> 0.80974235E+03</totfact>
</mgrwt>
</event>
<event>
 5    1  0.3293542E-002  0.1250001E+03  0.7818608E-02  0.1235069E+00
         -4   -1    0    0    0  501 -0.00000000000E+00  0.00000000000E+00  0.22731031613E+02  0.22766481902E+02  0.12700000000E+01 0.  1.
          4   -1    0    0  501    0  0.00000000000E+00 -0.00000000000E+00 -0.17167514488E+03  0.17167984235E+03  0.12700000000E+01 0.  1.
         25    2    1    2    0    0  0.00000000000E+00  0.00000000000E+00 -0.14894411327E+03  0.19444632426E+03  0.12500009656E+03 0.  0.
    9000005    1    3    3    0    0 -0.57169589902E+01 -0.60760468959E+02 -0.53559173187E+02  0.81204083892E+02  0.10000000000E+01 0.  0.
    9000005    1    3    3    0    0  0.57169589902E+01  0.60760468959E+02 -0.95384940083E+02  0.11324224036E+03  0.10000000000E+01 0.  0.
<mgrwt>
<rscale>  0 0.12500010E+03</rscale>
<asrwt>0</asrwt>
<pdfrwt beam="2">  1        4 0.26414648E-01 0.12500010E+03</pdfrwt>
<pdfrwt beam="1">  1       -4 0.35001702E-02 0.12500010E+03</pdfrwt>
<totfact> 0.91079176E+03</totfact>
</mgrwt>
</event>
<event>
 5    1  0.3293542E-002  0.1250021E+03  0.7818608E-02  0.1235066E+00
          4   -1    0    0  501    0  0.00000000000E+00  0.00000000000E+00  0.81213643661E+03  0.81213742961E+03  0.12700000000E+01 0.  1.
         -4   -1    0    0    0  501 -0.00000000000E+00 -0.00000000000E+00 -0.47251638968E+01  0.48928594760E+01  0.12700000000E+01 0.  1.
         25    2    1    2    0    0  0.00000000000E+00  0.00000000000E+00  0.80741127272E+03  0.81703028909E+03  0.12500211988E+03 0.  0.
    9000005    1    3    3    0    0  0.39764869962E+02 -0.23055280709E+01  0.88963782080E+02  0.97478791872E+02  0.10000000000E+01 0.  0.
    9000005    1    3    3    0    0 -0.39764869962E+02  0.23055280709E+01  0.71844749064E+03  0.71955149721E+03  0.10000000000E+01 0.  0.
<mgrwt>
<rscale>  0 0.12500212E+03</rscale>
<asrwt>0</asrwt>
<pdfrwt beam="1">  1        4 0.12495696E+00 0.12500212E+03</pdfrwt>
<pdfrwt beam="2">  1       -4 0.73992484E-03 0.12500212E+03</pdfrwt>
<totfact> 0.37513953E+03</totfact>
</mgrwt>
</event>
<event>
 5    1  0.3293542E-002  0.1250007E+03  0.7818608E-02  0.1235068E+00
          4   -1    0    0  501    0  0.00000000000E+00  0.00000000000E+00  0.23966638951E+02  0.24000264219E+02  0.12700000000E+01 0. -1.
         -4   -1    0    0    0  501 -0.00000000000E+00 -0.00000000000E+00 -0.16283848567E+03  0.16284343805E+03  0.12700000000E+01 0. -1.
         25    2    1    2    0    0  0.00000000000E+00  0.00000000000E+00 -0.13887184672E+03  0.18684370226E+03  0.12500071706E+03 0.  0.
    9000005    1    3    3    0    0  0.45934484853E+02 -0.83149580725E+01 -0.73334462665E+01  0.47264096952E+02  0.10000000000E+01 0.  0.
    9000005    1    3    3    0    0 -0.45934484853E+02  0.83149580725E+01 -0.13153840045E+03  0.13957960531E+03  0.10000000000E+01 0.  0.
<mgrwt>
<rscale>  0 0.12500072E+03</rscale>
<asrwt>0</asrwt>
<pdfrwt beam="1">  1        4 0.36901428E-02 0.12500072E+03</pdfrwt>
<pdfrwt beam="2">  1       -4 0.25055042E-01 0.12500072E+03</pdfrwt>
<totfact> 0.92397934E+03</totfact>
</mgrwt>
</event>
<event>
 5    1  0.3293542E-002  0.1250001E+03  0.7818608E-02  0.1235069E+00
         -4   -1    0    0    0  501 -0.00000000000E+00  0.00000000000E+00  0.62088793321E+01  0.63374350143E+01  0.12700000000E+01 0. -1.
          4   -1    0    0  501    0  0.00000000000E+00 -0.00000000000E+00 -0.62256436572E+03  0.62256566109E+03  0.12700000000E+01 0. -1.
         25    2    1    2    0    0  0.00000000000E+00  0.00000000000E+00 -0.61635548639E+03  0.62890309610E+03  0.12500007474E+03 0.  0.
    9000005    1    3    3    0    0 -0.37881488581E+02  0.65157037962E+01 -0.55607932409E+03  0.55740710101E+03  0.10000000000E+01 0.  0.
    9000005    1    3    3    0    0  0.37881488581E+02 -0.65157037962E+01 -0.60276162297E+02  0.71495995093E+02  0.10000000000E+01 0.  0.
<mgrwt>
<rscale>  0 0.12500007E+03</rscale>
<asrwt>0</asrwt>
<pdfrwt beam="2">  1        4 0.95789072E-01 0.12500007E+03</pdfrwt>
<pdfrwt beam="1">  1       -4 0.96520124E-03 0.12500007E+03</pdfrwt>
<totfact> 0.47092494E+03</totfact>
</mgrwt>
</event>
<event>
 5    1  0.3293542E-002  0.1249973E+03  0.7818608E-02  0.1235074E+00
          4   -1    0    0  501    0  0.00000000000E+00  0.00000000000E+00  0.10280462974E+04  0.10280470819E+04  0.12700000000E+01 0. -1.
         -4   -1    0    0    0  501 -0.00000000000E+00 -0.00000000000E+00 -0.36925830278E+01  0.39048776443E+01  0.12700000000E+01 0. -1.
         25    2    1    2    0    0  0.00000000000E+00  0.00000000000E+00  0.10243537144E+04  0.10319519595E+04  0.12499725819E+03 0.  0.
    9000005    1    3    3    0    0  0.18857601532E+02 -0.43320128134E+02  0.84984156905E+03  0.85115447195E+03  0.10000000000E+01 0.  0.
    9000005    1    3    3    0    0 -0.18857601532E+02  0.43320128134E+02  0.17451214537E+03  0.18079748759E+03  0.10000000000E+01 0.  0.
<mgrwt>
<rscale>  0 0.12499726E+03</rscale>
<asrwt>0</asrwt>
<pdfrwt beam="1">  1        4 0.15817745E+00 0.12499726E+03</pdfrwt>
<pdfrwt beam="2">  1       -4 0.58448006E-03 0.12499726E+03</pdfrwt>
<totfact> 0.29566804E+03</totfact>
</mgrwt>
</event>
<event>
 5    1  0.3293542E-002  0.1249951E+03  0.7818608E-02  0.1235077E+00
         -4   -1    0    0    0  501 -0.00000000000E+00  0.00000000000E+00  0.78632825885E+02  0.78643081111E+02  0.12700000000E+01 0.  1.
          4   -1    0    0  501    0  0.00000000000E+00 -0.00000000000E+00 -0.49651555429E+02  0.49667794964E+02  0.12700000000E+01 0.  1.
         25    2    1    2    0    0  0.00000000000E+00  0.00000000000E+00  0.28981270455E+02  0.12831087607E+03  0.12499506743E+03 0.  0.
    9000005    1    3    3    0    0  0.53553259488E+02  0.11077274057E+02  0.45529882662E+02  0.71166198560E+02  0.10000000000E+01 0.  0.
    9000005    1    3    3    0    0 -0.53553259488E+02 -0.11077274057E+02 -0.16548612207E+02  0.57144677515E+02  0.10000000000E+01 0.  0.
<mgrwt>
<rscale>  0 0.12499507E+03</rscale>
<asrwt>0</asrwt>
<pdfrwt beam="2">  1        4 0.76407390E-02 0.12499507E+03</pdfrwt>
<pdfrwt beam="1">  1       -4 0.12099396E-01 0.12499507E+03</pdfrwt>
<totfact> 0.10381935E+04</totfact>
</mgrwt>
</event>
<event>
 5    1  0.3293542E-002  0.1250026E+03  0.7818608E-02  0.1235065E+00
          4   -1    0    0  501    0  0.00000000000E+00  0.00000000000E+00  0.11395265836E+04  0.11395272913E+04  0.12700000000E+01 0.  1.
         -4   -1    0    0    0  501 -0.00000000000E+00 -0.00000000000E+00 -0.33097455773E+01  0.35450410134E+01  0.12700000000E+01 0.  1.
         25    2    1    2    0    0  0.00000000000E+00  0.00000000000E+00  0.11362168380E+04  0.11430723323E+04  0.12500261560E+03 0.  0.
    9000005    1    3    3    0    0 -0.89789248147E+01 -0.79553789406E+01  0.72730485960E+01  0.14064365638E+02  0.10000000000E+01 0.  0.
    9000005    1    3    3    0    0  0.89789248147E+01  0.79553789406E+01  0.11289437894E+04  0.11290079667E+04  0.10000000000E+01 0.  0.
<mgrwt>
<rscale>  0 0.12500262E+03</rscale>
<asrwt>0</asrwt>
<pdfrwt beam="1">  1        4 0.17533017E+00 0.12500262E+03</pdfrwt>
<pdfrwt beam="2">  1       -4 0.52734502E-03 0.12500262E+03</pdfrwt>
<totfact> 0.26251693E+03</totfact>
</mgrwt>
</event>
<event>
 5    1  0.3293542E-002  0.1250018E+03  0.7818608E-02  0.1235067E+00
         -4   -1    0    0    0  501 -0.00000000000E+00  0.00000000000E+00  0.18586040562E+02  0.18629380123E+02  0.12700000000E+01 0.  1.
          4   -1    0    0  501    0  0.00000000000E+00 -0.00000000000E+00 -0.20988707654E+03  0.20989091881E+03  0.12700000000E+01 0.  1.
         25    2    1    2    0    0  0.00000000000E+00  0.00000000000E+00 -0.19130103598E+03  0.22852029893E+03  0.12500176262E+03 0.  0.
    9000005    1    3    3    0    0  0.17256596274E+02 -0.56899216092E+02 -0.60483267468E+02  0.84820613947E+02  0.10000000000E+01 0.  0.
    9000005    1    3    3    0    0 -0.17256596274E+02  0.56899216092E+02 -0.13081776851E+03  0.14369968499E+03  0.10000000000E+01 0.  0.
<mgrwt>
<rscale>  0 0.12500176E+03</rscale>
<asrwt>0</asrwt>
<pdfrwt beam="2">  1        4 0.32293947E-01 0.12500176E+03</pdfrwt>
<pdfrwt beam="1">  1       -4 0.28630204E-02 0.12500176E+03</pdfrwt>
<totfact> 0.85533962E+03</totfact>
</mgrwt>
</event>
<event>
 5    1  0.3293542E-002  0.1250006E+03  0.7818608E-02  0.1235068E+00
         -4   -1    0    0    0  501 -0.00000000000E+00  0.00000000000E+00  0.18476708810E+03  0.18477145274E+03  0.12700000000E+01 0. -1.
          4   -1    0    0  501    0  0.00000000000E+00 -0.00000000000E+00 -0.21118001346E+02  0.21156154680E+02  0.12700000000E+01 0. -1.
         25    2    1    2    0    0  0.00000000000E+00  0.00000000000E+00  0.16364908676E+03  0.20592760742E+03  0.12500062360E+03 0.  0.
    9000005    1    3    3    0    0  0.56772488959E+02  0.26097736029E+02  0.83537889371E+02  0.10432538660E+03  0.10000000000E+01 0.  0.
    9000005    1    3    3    0    0 -0.56772488959E+02 -0.26097736029E+02  0.80111197388E+02  0.10160222082E+03  0.10000000000E+01 0.  0.
<mgrwt>
<rscale>  0 0.12500062E+03</rscale>
<asrwt>0</asrwt>
<pdfrwt beam="2">  1        4 0.32521940E-02 0.12500062E+03</pdfrwt>
<pdfrwt beam="1">  1       -4 0.28428976E-01 0.12500062E+03</pdfrwt>
<totfact> 0.89144062E+03</totfact>
</mgrwt>
</event>
<event>
 5    1  0.3293542E-002  0.1249968E+03  0.7818608E-02  0.1235074E+00
          4   -1    0    0  501    0  0.00000000000E+00  0.00000000000E+00  0.60986032310E+03  0.60986164545E+03  0.12700000000E+01 0.  1.
         -4   -1    0    0    0  501 -0.00000000000E+00 -0.00000000000E+00 -0.63405301693E+01  0.64664691159E+01  0.12700000000E+01 0.  1.
         25    2    1    2    0    0  0.00000000000E+00  0.00000000000E+00  0.60351979293E+03  0.61632811457E+03  0.12499681734E+03 0.  0.
    9000005    1    3    3    0    0  0.13355027669E+02 -0.34110085049E+02  0.55139402990E+03  0.55261037891E+03  0.10000000000E+01 0.  0.
    9000005    1    3    3    0    0 -0.13355027669E+02  0.34110085049E+02  0.52125763031E+02  0.63717735660E+02  0.10000000000E+01 0.  0.
<mgrwt>
<rscale>  0 0.12499682E+03</rscale>
<asrwt>0</asrwt>
<pdfrwt beam="1">  1        4 0.93834471E-01 0.12499682E+03</pdfrwt>
<pdfrwt beam="2">  1       -4 0.98525533E-03 0.12499682E+03</pdfrwt>
<totfact> 0.47856222E+03</totfact>
</mgrwt>
</event>
<event>
 5    1  0.3293542E-002  0.1249843E+03  0.7818608E-02  0.1235094E+00
          4   -1    0    0  501    0  0.00000000000E+00  0.00000000000E+00  0.10136985692E+03  0.10137781213E+03  0.12700000000E+01 0. -1.
         -4   -1    0    0    0  501 -0.00000000000E+00 -0.00000000000E+00 -0.38505002422E+02  0.38525940761E+02  0.12700000000E+01 0. -1.
         25    2    1    2    0    0  0.00000000000E+00  0.00000000000E+00  0.62864854499E+02  0.13990375289E+03  0.12498427958E+03 0.  0.
    9000005    1    3    3    0    0 -0.99020378226E+01 -0.45654951251E+02  0.77880820841E+02  0.90823164345E+02  0.10000000000E+01 0.  0.
    9000005    1    3    3    0    0  0.99020378226E+01  0.45654951251E+02 -0.15015966343E+02  0.49080588545E+02  0.10000000000E+01 0.  0.
<mgrwt>
<rscale>  0 0.12498428E+03</rscale>
<asrwt>0</asrwt>
<pdfrwt beam="1">  1        4 0.15597585E-01 0.12498428E+03</pdfrwt>
<pdfrwt beam="2">  1       -4 0.59260692E-02 0.12498428E+03</pdfrwt>
<totfact> 0.10139172E+04</totfact>
</mgrwt>
</event>
<event>
 5    1  0.3293542E-002  0.1249980E+03  0.7818608E-02  0.1235072E+00
          4   -1    0    0  501    0  0.00000000000E+00  0.00000000000E+00  0.22230431491E+02  0.22266678789E+02  0.12700000000E+01 0. -1.
         -4   -1    0    0    0  501 -0.00000000000E+00 -0.00000000000E+00 -0.17552900537E+03  0.17553359971E+03  0.12700000000E+01 0. -1.
         25    2    1    2    0    0  0.00000000000E+00  0.00000000000E+00 -0.15329857388E+03  0.19780027850E+03  0.12499798966E+03 0.  0.
    9000005    1    3    3    0    0 -0.12341638585E+02 -0.61092972012E+02 -0.69492044621E+02  0.93353154943E+02  0.10000000000E+01 0.  0.
    9000005    1    3    3    0    0  0.12341638585E+02  0.61092972012E+02 -0.83806529261E+02  0.10444712356E+03  0.10000000000E+01 0.  0.
<mgrwt>
<rscale>  0 0.12499799E+03</rscale>
<asrwt>0</asrwt>
<pdfrwt beam="1">  1        4 0.34232082E-02 0.12499799E+03</pdfrwt>
<pdfrwt beam="2">  1       -4 0.27007603E-01 0.12499799E+03</pdfrwt>
<totfact> 0.90511599E+03</totfact>
</mgrwt>
</event>
<event>
 5    1  0.3293542E-002  0.1250040E+03  0.7818608E-02  0.1235063E+00
          4   -1    0    0  501    0  0.00000000000E+00  0.00000000000E+00  0.68601940186E+03  0.68602057741E+03  0.12700000000E+01 0. -1.
         -4   -1    0    0    0  501 -0.00000000000E+00 -0.00000000000E+00 -0.56224424462E+01  0.57640922148E+01  0.12700000000E+01 0. -1.
         25    2    1    2    0    0  0.00000000000E+00  0.00000000000E+00  0.68039695941E+03  0.69178466962E+03  0.12500402692E+03 0.  0.
    9000005    1    3    3    0    0  0.53241499474E+02  0.25522951691E+02  0.22686108220E+03  0.23442062398E+03  0.10000000000E+01 0.  0.
    9000005    1    3    3    0    0 -0.53241499474E+02 -0.25522951691E+02  0.45353587721E+03  0.45736404564E+03  0.10000000000E+01 0.  0.
<mgrwt>
<rscale>  0 0.12500403E+03</rscale>
<asrwt>0</asrwt>
<pdfrwt beam="1">  1        4 0.10555244E+00 0.12500403E+03</pdfrwt>
<pdfrwt beam="2">  1       -4 0.87597766E-03 0.12500403E+03</pdfrwt>
<totfact> 0.43520090E+03</totfact>
</mgrwt>
</event>
<event>
 5    1  0.3293542E-002  0.1250017E+03  0.7818608E-02  0.1235067E+00
          4   -1    0    0  501    0  0.00000000000E+00  0.00000000000E+00  0.41521900730E+02  0.41541318470E+02  0.12700000000E+01 0. -1.
         -4   -1    0    0    0  501 -0.00000000000E+00 -0.00000000000E+00 -0.94033779113E+02  0.94042354895E+02  0.12700000000E+01 0. -1.
         25    2    1    2    0    0  0.00000000000E+00  0.00000000000E+00 -0.52511878382E+02  0.13558367337E+03  0.12500174044E+03 0.  0.
    9000005    1    3    3    0    0 -0.16215578834E+02  0.13521439657E+01  0.39189133283E+02  0.42444804837E+02  0.10000000000E+01 0.  0.
    9000005    1    3    3    0    0  0.16215578834E+02 -0.13521439657E+01 -0.91701011665E+02  0.93138868528E+02  0.10000000000E+01 0.  0.
<mgrwt>
<rscale>  0 0.12500174E+03</rscale>
<asrwt>0</asrwt>
<pdfrwt beam="1">  1        4 0.63901381E-02 0.12500174E+03</pdfrwt>
<pdfrwt beam="2">  1       -4 0.14468889E-01 0.12500174E+03</pdfrwt>
<totfact> 0.10225382E+04</totfact>
</mgrwt>
</event>
<event>
 5    1  0.3293542E-002  0.1249961E+03  0.7818608E-02  0.1235075E+00
          4   -1    0    0  501    0  0.00000000000E+00  0.00000000000E+00  0.64242070276E+02  0.64254622351E+02  0.12700000000E+01 0. -1.
         -4   -1    0    0    0  501 -0.00000000000E+00 -0.00000000000E+00 -0.60776233801E+02  0.60789501520E+02  0.12700000000E+01 0. -1.
         25    2    1    2    0    0  0.00000000000E+00  0.00000000000E+00  0.34658364755E+01  0.12504412387E+03  0.12499608351E+03 0.  0.
    9000005    1    3    3    0    0  0.31333017847E+00 -0.35627006482E+02  0.53090972816E+02  0.63945548408E+02  0.10000000000E+01 0.  0.
    9000005    1    3    3    0    0 -0.31333017847E+00  0.35627006482E+02 -0.49625136341E+02  0.61098575462E+02  0.10000000000E+01 0.  0.
<mgrwt>
<rscale>  0 0.12499608E+03</rscale>
<asrwt>0</asrwt>
<pdfrwt beam="1">  1        4 0.98853816E-02 0.12499608E+03</pdfrwt>
<pdfrwt beam="2">  1       -4 0.93521759E-02 0.12499608E+03</pdfrwt>
<totfact> 0.10452829E+04</totfact>
</mgrwt>
</event>
<event>
 5    1  0.3293542E-002  0.1249983E+03  0.7818608E-02  0.1235072E+00
         -4   -1    0    0    0  501 -0.00000000000E+00  0.00000000000E+00  0.34920692091E+03  0.34920923028E+03  0.12700000000E+01 0. -1.
          4   -1    0    0  501    0  0.00000000000E+00 -0.00000000000E+00 -0.11147357805E+02  0.11219469062E+02  0.12700000000E+01 0. -1.
         25    2    1    2    0    0  0.00000000000E+00  0.00000000000E+00  0.33805956311E+03  0.36042869934E+03  0.12499831639E+03 0.  0.
    9000005    1    3    3    0    0  0.49390885263E+02 -0.16104312899E+02  0.68880138563E+02  0.86280252257E+02  0.10000000000E+01 0.  0.
    9000005    1    3    3    0    0 -0.49390885263E+02  0.16104312899E+02  0.26917942454E+03  0.27414844708E+03  0.10000000000E+01 0.  0.
<mgrwt>
<rscale>  0 0.12499832E+03</rscale>
<asrwt>0</asrwt>
<pdfrwt beam="2">  1        4 0.17207029E-02 0.12499832E+03</pdfrwt>
<pdfrwt beam="1">  1       -4 0.53729862E-01 0.12499832E+03</pdfrwt>
<totfact> 0.68594861E+03</totfact>
</mgrwt>
</event>
<event>
 5    1  0.3293542E-002  0.1249928E+03  0.7818608E-02  0.1235081E+00
         -4   -1    0    0    0  501 -0.00000000000E+00  0.00000000000E+00  0.11368820006E+02  0.11439535320E+02  0.12700000000E+01 0. -1.
          4   -1    0    0  501    0  0.00000000000E+00 -0.00000000000E+00 -0.34241673989E+03  0.34241909505E+03  0.12700000000E+01 0. -1.
         25    2    1    2    0    0  0.00000000000E+00  0.00000000000E+00 -0.33104791988E+03  0.35385863037E+03  0.12499281991E+03 0.  0.
    9000005    1    3    3    0    0 -0.19089544522E+02  0.11236180642E+02 -0.33094292988E+03  0.33168491872E+03  0.10000000000E+01 0.  0.
    9000005    1    3    3    0    0  0.19089544522E+02 -0.11236180642E+02 -0.10498999704E+00  0.22173711651E+02  0.10000000000E+01 0.  0.
<mgrwt>
<rscale>  0 0.12499282E+03</rscale>
<asrwt>0</asrwt>
<pdfrwt beam="2">  1        4 0.52685112E-01 0.12499282E+03</pdfrwt>
<pdfrwt beam="1">  1       -4 0.17546703E-02 0.12499282E+03</pdfrwt>
<totfact> 0.69313149E+03</totfact>
</mgrwt>
</event>
<event>
 5    1  0.3293542E-002  0.1250006E+03  0.7818608E-02  0.1235068E+00
         -4   -1    0    0    0  501 -0.00000000000E+00  0.00000000000E+00  0.49958265569E+02  0.49974405436E+02  0.12700000000E+01 0.  1.
          4   -1    0    0  501    0  0.00000000000E+00 -0.00000000000E+00 -0.78157044049E+02  0.78167361696E+02  0.12700000000E+01 0.  1.
         25    2    1    2    0    0  0.00000000000E+00  0.00000000000E+00 -0.28198778480E+02  0.12814176713E+03  0.12500056550E+03 0.  0.
    9000005    1    3    3    0    0  0.30247883049E+02  0.19732061622E+02 -0.66380960130E+02  0.75575925748E+02  0.10000000000E+01 0.  0.
    9000005    1    3    3    0    0 -0.30247883049E+02 -0.19732061622E+02  0.38182181650E+02  0.52565841384E+02  0.10000000000E+01 0.  0.
<mgrwt>
<rscale>  0 0.12500057E+03</rscale>
<asrwt>0</asrwt>
<pdfrwt beam="2">  1        4 0.12026196E-01 0.12500057E+03</pdfrwt>
<pdfrwt beam="1">  1       -4 0.76879222E-02 0.12500057E+03</pdfrwt>
<totfact> 0.10384295E+04</totfact>
</mgrwt>
</event>
<event>
 5    1  0.3293542E-002  0.1250024E+03  0.7818608E-02  0.1235066E+00
         -4   -1    0    0    0  501 -0.00000000000E+00  0.00000000000E+00  0.25552692012E+03  0.25553007613E+03  0.12700000000E+01 0.  1.
          4   -1    0    0  501    0  0.00000000000E+00 -0.00000000000E+00 -0.15257996942E+02  0.15310759964E+02  0.12700000000E+01 0.  1.
         25    2    1    2    0    0  0.00000000000E+00  0.00000000000E+00  0.24026892318E+03  0.27084083609E+03  0.12500241217E+03 0.  0.
    9000005    1    3    3    0    0 -0.47890839560E+02  0.32950659586E+02  0.16983248307E+03  0.17950863708E+03  0.10000000000E+01 0.  0.
    9000005    1    3    3    0    0  0.47890839560E+02 -0.32950659586E+02  0.70436440103E+02  0.91332199006E+02  0.10000000000E+01 0.  0.
<mgrwt>
<rscale>  0 0.12500241E+03</rscale>
<asrwt>0</asrwt>
<pdfrwt beam="2">  1        4 0.23516855E-02 0.12500241E+03</pdfrwt>
<pdfrwt beam="1">  1       -4 0.39316137E-01 0.12500241E+03</pdfrwt>
<totfact> 0.79404107E+03</totfact>
</mgrwt>
</event>
<event>
 5    1  0.3293542E-002  0.1249801E+03  0.7818608E-02  0.1235100E+00
         -4   -1    0    0    0  501 -0.00000000000E+00  0.00000000000E+00  0.14903072281E+03  0.14903613401E+03  0.12700000000E+01 0. -1.
          4   -1    0    0  501    0  0.00000000000E+00 -0.00000000000E+00 -0.26181414123E+02  0.26212198410E+02  0.12700000000E+01 0. -1.
         25    2    1    2    0    0  0.00000000000E+00  0.00000000000E+00  0.12284930869E+03  0.17524833242E+03  0.12498009990E+03 0.  0.
    9000005    1    3    3    0    0  0.41863842531E+02  0.25561740484E+02  0.71531089585E+01  0.49579742393E+02  0.10000000000E+01 0.  0.
    9000005    1    3    3    0    0 -0.41863842531E+02 -0.25561740484E+02  0.11569619973E+03  0.12566859003E+03  0.10000000000E+01 0.  0.
<mgrwt>
<rscale>  0 0.12498010E+03</rscale>
<asrwt>0</asrwt>
<pdfrwt beam="2">  1        4 0.40306943E-02 0.12498010E+03</pdfrwt>
<pdfrwt beam="1">  1       -4 0.22930587E-01 0.12498010E+03</pdfrwt>
<totfact> 0.94521569E+03</totfact>
</mgrwt>
</event>
<event>
 5    1  0.3293542E-002  0.1250061E+03  0.7818608E-02  0.1235060E+00
          4   -1    0    0  501    0  0.00000000000E+00  0.00000000000E+00  0.11788881375E+02  0.11857091720E+02  0.12700000000E+01 0. -1.
         -4   -1    0    0    0  501 -0.00000000000E+00 -0.00000000000E+00 -0.33035759996E+03  0.33036004109E+03  0.12700000000E+01 0. -1.
         25    2    1    2    0    0  0.00000000000E+00  0.00000000000E+00 -0.31856871858E+03  0.34221713281E+03  0.12500614997E+03 0.  0.
    9000005    1    3    3    0    0 -0.11872378432E+02 -0.13291485692E+02  0.46981924394E+01  0.18457788972E+02  0.10000000000E+01 0.  0.
    9000005    1    3    3    0    0  0.11872378432E+02  0.13291485692E+02 -0.32326691102E+03  0.32375934384E+03  0.10000000000E+01 0.  0.
<mgrwt>
<rscale>  0 0.12500615E+03</rscale>
<asrwt>0</asrwt>
<pdfrwt beam="1">  1        4 0.18191090E-02 0.12500615E+03</pdfrwt>
<pdfrwt beam="2">  1       -4 0.50829674E-01 0.12500615E+03</pdfrwt>
<totfact> 0.70579731E+03</totfact>
</mgrwt>
</event>
<event>
 5    1  0.3293542E-002  0.1250033E+03  0.7818608E-02  0.1235064E+00
          4   -1    0    0  501    0  0.00000000000E+00  0.00000000000E+00  0.29241268814E+02  0.29268834993E+02  0.12700000000E+01 0. -1.
         -4   -1    0    0    0  501 -0.00000000000E+00 -0.00000000000E+00 -0.13350032097E+03  0.13350636164E+03  0.12700000000E+01 0. -1.
         25    2    1    2    0    0  0.00000000000E+00  0.00000000000E+00 -0.10425905216E+03  0.16277519664E+03  0.12500325869E+03 0.  0.
    9000005    1    3    3    0    0 -0.91956261411E+01  0.61285934932E+02 -0.41636906091E+02  0.74666976030E+02  0.10000000000E+01 0.  0.
    9000005    1    3    3    0    0  0.91956261411E+01 -0.61285934932E+02 -0.62622146064E+02  0.88108220606E+02  0.10000000000E+01 0.  0.
<mgrwt>
<rscale>  0 0.12500326E+03</rscale>
<asrwt>0</asrwt>
<pdfrwt beam="1">  1        4 0.45012419E-02 0.12500326E+03</pdfrwt>
<pdfrwt beam="2">  1       -4 0.20541096E-01 0.12500326E+03</pdfrwt>
<totfact> 0.96803313E+03</totfact>
</mgrwt>
</event>
<event>
 5    1  0.3293542E-002  0.1249992E+03  0.7818608E-02  0.1235071E+00
          4   -1    0    0  501    0  0.00000000000E+00  0.00000000000E+00  0.84071192293E+02  0.84080784212E+02  0.12700000000E+01 0.  1.
         -4   -1    0    0    0  501 -0.00000000000E+00 -0.00000000000E+00 -0.46442064662E+02  0.46459426063E+02  0.12700000000E+01 0.  1.
         25    2    1    2    0    0  0.00000000000E+00  0.00000000000E+00  0.37629127631E+02  0.13054021027E+03  0.12499918101E+03 0.  0.
    9000005    1    3    3    0    0 -0.92107143864E+01 -0.95219287156E+01  0.82592985294E+02  0.83654680717E+02  0.10000000000E+01 0.  0.
    9000005    1    3    3    0    0  0.92107143864E+01  0.95219287156E+01 -0.44963857663E+02  0.46885529558E+02  0.10000000000E+01 0.  0.
<mgrwt>
<rscale>  0 0.12499918E+03</rscale>
<asrwt>0</asrwt>
<pdfrwt beam="1">  1        4 0.12936103E-01 0.12499918E+03</pdfrwt>
<pdfrwt beam="2">  1       -4 0.71470063E-02 0.12499918E+03</pdfrwt>
<totfact> 0.10333147E+04</totfact>
</mgrwt>
</event>
<event>
 5    1  0.3293542E-002  0.1249988E+03  0.7818608E-02  0.1235071E+00
         -4   -1    0    0    0  501 -0.00000000000E+00  0.00000000000E+00  0.95704823661E+01  0.96543789401E+01  0.12700000000E+01 0.  1.
          4   -1    0    0  501    0  0.00000000000E+00 -0.00000000000E+00 -0.40628239575E+03  0.40628438070E+03  0.12700000000E+01 0.  1.
         25    2    1    2    0    0  0.00000000000E+00  0.00000000000E+00 -0.39671191339E+03  0.41593875964E+03  0.12499883818E+03 0.  0.
    9000005    1    3    3    0    0  0.14924213235E+02 -0.59963901436E+02 -0.22935317022E+03  0.23753374140E+03  0.10000000000E+01 0.  0.
    9000005    1    3    3    0    0 -0.14924213235E+02  0.59963901436E+02 -0.16735874317E+03  0.17840501824E+03  0.10000000000E+01 0.  0.
<mgrwt>
<rscale>  0 0.12499884E+03</rscale>
<asrwt>0</asrwt>
<pdfrwt beam="2">  1        4 0.62511577E-01 0.12499884E+03</pdfrwt>
<pdfrwt beam="1">  1       -4 0.14789885E-02 0.12499884E+03</pdfrwt>
<totfact> 0.63033195E+03</totfact>
</mgrwt>
</event>
<event>
 5    1  0.3293542E-002  0.1250019E+03  0.7818608E-02  0.1235066E+00
          4   -1    0    0  501    0  0.00000000000E+00  0.00000000000E+00  0.14859123955E+03  0.14859666676E+03  0.12700000000E+01 0. -1.
         -4   -1    0    0    0  501 -0.00000000000E+00 -0.00000000000E+00 -0.26268113800E+02  0.26298796600E+02  0.12700000000E+01 0. -1.
         25    2    1    2    0    0  0.00000000000E+00  0.00000000000E+00  0.12232312575E+03  0.17489546336E+03  0.12500190403E+03 0.  0.
    9000005    1    3    3    0    0 -0.22902128311E+02 -0.51845364805E+02  0.97991702135E+02  0.11320699192E+03  0.10000000000E+01 0.  0.
    9000005    1    3    3    0    0  0.22902128311E+02  0.51845364805E+02  0.24331423618E+02  0.61688471437E+02  0.10000000000E+01 0.  0.
<mgrwt>
<rscale>  0 0.12500190E+03</rscale>
<asrwt>0</asrwt>
<pdfrwt beam="1">  1        4 0.22862969E-01 0.12500190E+03</pdfrwt>
<pdfrwt beam="2">  1       -4 0.40440259E-02 0.12500190E+03</pdfrwt>
<totfact> 0.94539951E+03</totfact>
</mgrwt>
</event>
<event>
 5    1  0.3293542E-002  0.1250004E+03  0.7818608E-02  0.1235069E+00
          4   -1    0    0  501    0  0.00000000000E+00  0.00000000000E+00  0.79471801806E+03  0.79471903282E+03  0.12700000000E+01 0. -1.
         -4   -1    0    0    0  501 -0.00000000000E+00 -0.00000000000E+00 -0.48322237685E+01  0.49963273060E+01  0.12700000000E+01 0. -1.
         25    2    1    2    0    0  0.00000000000E+00  0.00000000000E+00  0.78988579429E+03  0.79971536013E+03  0.12500035680E+03 0.  0.
    9000005    1    3    3    0    0 -0.15654038826E+02 -0.13556269326E+02  0.77216074835E+03  0.77243902197E+03  0.10000000000E+01 0.  0.
    9000005    1    3    3    0    0  0.15654038826E+02  0.13556269326E+02  0.17725045938E+02  0.27276338155E+02  0.10000000000E+01 0.  0.
<mgrwt>
<rscale>  0 0.12500036E+03</rscale>
<asrwt>0</asrwt>
<pdfrwt beam="1">  1        4 0.12227694E+00 0.12500036E+03</pdfrwt>
<pdfrwt beam="2">  1       -4 0.75612087E-03 0.12500036E+03</pdfrwt>
<totfact> 0.38277155E+03</totfact>
</mgrwt>
</event>
<event>
 5    1  0.3293542E-002  0.1250028E+03  0.7818608E-02  0.1235065E+00
         -4   -1    0    0    0  501 -0.00000000000E+00  0.00000000000E+00  0.18400158154E+02  0.18443934507E+02  0.12700000000E+01 0. -1.
          4   -1    0    0  501    0  0.00000000000E+00 -0.00000000000E+00 -0.21200609058E+03  0.21200989444E+03  0.12700000000E+01 0. -1.
         25    2    1    2    0    0  0.00000000000E+00  0.00000000000E+00 -0.19360593243E+03  0.23045382895E+03  0.12500284080E+03 0.  0.
    9000005    1    3    3    0    0  0.58535852904E+02 -0.15811958895E+02 -0.12469929861E+03  0.13866282556E+03  0.10000000000E+01 0.  0.
    9000005    1    3    3    0    0 -0.58535852904E+02  0.15811958895E+02 -0.68906633816E+02  0.91791003389E+02  0.10000000000E+01 0.  0.
<mgrwt>
<rscale>  0 0.12500284E+03</rscale>
<asrwt>0</asrwt>
<pdfrwt beam="2">  1        4 0.32619980E-01 0.12500284E+03</pdfrwt>
<pdfrwt beam="1">  1       -4 0.28344537E-02 0.12500284E+03</pdfrwt>
<totfact> 0.85234558E+03</totfact>
</mgrwt>
</event>
<event>
 5    1  0.3293542E-002  0.1250006E+03  0.7818608E-02  0.1235068E+00
          4   -1    0    0  501    0  0.00000000000E+00  0.00000000000E+00  0.40667201345E+02  0.40687026989E+02  0.12700000000E+01 0.  1.
         -4   -1    0    0    0  501 -0.00000000000E+00 -0.00000000000E+00 -0.96007618810E+02  0.96016018296E+02  0.12700000000E+01 0.  1.
         25    2    1    2    0    0  0.00000000000E+00  0.00000000000E+00 -0.55340417465E+02  0.13670304529E+03  0.12500064314E+03 0.  0.
    9000005    1    3    3    0    0 -0.60445747992E+02 -0.26981337343E+01 -0.44764341376E+02  0.75271605767E+02  0.10000000000E+01 0.  0.
    9000005    1    3    3    0    0  0.60445747992E+02  0.26981337343E+01 -0.10576076089E+02  0.61431439519E+02  0.10000000000E+01 0.  0.
<mgrwt>
<rscale>  0 0.12500064E+03</rscale>
<asrwt>0</asrwt>
<pdfrwt beam="1">  1        4 0.62586637E-02 0.12500064E+03</pdfrwt>
<pdfrwt beam="2">  1       -4 0.14772574E-01 0.12500064E+03</pdfrwt>
<totfact> 0.10202150E+04</totfact>
</mgrwt>
</event>
<event>
 5    1  0.3293542E-002  0.1249996E+03  0.7818608E-02  0.1235070E+00
         -4   -1    0    0    0  501 -0.00000000000E+00  0.00000000000E+00  0.32516478052E+02  0.32541269872E+02  0.12700000000E+01 0. -1.
          4   -1    0    0  501    0  0.00000000000E+00 -0.00000000000E+00 -0.12005673232E+03  0.12006344937E+03  0.12700000000E+01 0. -1.
         25    2    1    2    0    0  0.00000000000E+00  0.00000000000E+00 -0.87540254267E+02  0.15260471924E+03  0.12499961687E+03 0.  0.
    9000005    1    3    3    0    0 -0.37622544555E+02 -0.44069349476E+02 -0.15199758945E+02  0.59913238053E+02  0.10000000000E+01 0.  0.
    9000005    1    3    3    0    0  0.37622544555E+02  0.44069349476E+02 -0.72340495322E+02  0.92691481191E+02  0.10000000000E+01 0.  0.
<mgrwt>
<rscale>  0 0.12499962E+03</rscale>
<asrwt>0</asrwt>
<pdfrwt beam="2">  1        4 0.18472690E-01 0.12499962E+03</pdfrwt>
<pdfrwt beam="1">  1       -4 0.50049589E-02 0.12499962E+03</pdfrwt>
<totfact> 0.98787849E+03</totfact>
</mgrwt>
</event>
<event>
 5    1  0.3293542E-002  0.1249850E+03  0.7818608E-02  0.1235093E+00
          4   -1    0    0  501    0  0.00000000000E+00  0.00000000000E+00  0.23892614532E+02  0.23926343832E+02  0.12700000000E+01 0.  1.
         -4   -1    0    0    0  501 -0.00000000000E+00 -0.00000000000E+00 -0.16330112776E+03  0.16330606611E+03  0.12700000000E+01 0.  1.
         25    2    1    2    0    0  0.00000000000E+00  0.00000000000E+00 -0.13940851323E+03  0.18723240994E+03  0.12498496618E+03 0.  0.
    9000005    1    3    3    0    0 -0.19062072559E+02 -0.59475984657E+02 -0.66879714582E+02  0.91513122468E+02  0.10000000000E+01 0.  0.
    9000005    1    3    3    0    0  0.19062072559E+02  0.59475984657E+02 -0.72528798646E+02  0.95719287472E+02  0.10000000000E+01 0.  0.
<mgrwt>
<rscale>  0 0.12498497E+03</rscale>
<asrwt>0</asrwt>
<pdfrwt beam="1">  1        4 0.36787614E-02 0.12498497E+03</pdfrwt>
<pdfrwt beam="2">  1       -4 0.25126224E-01 0.12498497E+03</pdfrwt>
<totfact> 0.92362217E+03</totfact>
</mgrwt>
</event>
<event>
 4    1  0.3293542E-002  0.1251554E+03  0.7818608E-02  0.1234827E+00
          4   -1    0    0  501    0  0.00000000000E+00  0.00000000000E+00  0.35864205346E+02  0.35886684510E+02  0.12700000000E+01 0.  1.
         -4   -1    0    0    0  501 -0.00000000000E+00 -0.00000000000E+00 -0.10912842126E+03  0.10913581093E+03  0.12700000000E+01 0.  1.
    9000005    1    1    2    0    0  0.39806536249E+02  0.31838527914E+02 -0.78678818388E+02  0.93752912759E+02  0.10000000000E+01 0.  0.
    9000005    1    1    2    0    0 -0.39806536249E+02 -0.31838527914E+02  0.54146024749E+01  0.51269582677E+02  0.10000000000E+01 0.  0.
<mgrwt>
<rscale>  0 0.12515542E+03</rscale>
<asrwt>0</asrwt>
<pdfrwt beam="1">  1        4 0.55198677E-02 0.12515542E+03</pdfrwt>
<pdfrwt beam="2">  1       -4 0.16791285E-01 0.12515542E+03</pdfrwt>
<totfact> 0.99955083E+03</totfact>
</mgrwt>
</event>
<event>
 5    1  0.3293542E-002  0.1249992E+03  0.7818608E-02  0.1235071E+00
          4   -1    0    0  501    0  0.00000000000E+00  0.00000000000E+00  0.12506981876E+02  0.12571296498E+02  0.12700000000E+01 0. -1.
         -4   -1    0    0    0  501 -0.00000000000E+00 -0.00000000000E+00 -0.31145495491E+03  0.31145754420E+03  0.12700000000E+01 0. -1.
         25    2    1    2    0    0  0.00000000000E+00  0.00000000000E+00 -0.29894797304E+03  0.32402884070E+03  0.12499919608E+03 0.  0.
    9000005    1    3    3    0    0 -0.13168547927E+02  0.54241208488E+02 -0.76628587378E+02  0.94807487870E+02  0.10000000000E+01 0.  0.
    9000005    1    3    3    0    0  0.13168547927E+02 -0.54241208488E+02 -0.22231938566E+03  0.22922135283E+03  0.10000000000E+01 0.  0.
<mgrwt>
<rscale>  0 0.12499920E+03</rscale>
<asrwt>0</asrwt>
<pdfrwt beam="1">  1        4 0.19292977E-02 0.12499920E+03</pdfrwt>
<pdfrwt beam="2">  1       -4 0.47921288E-01 0.12499920E+03</pdfrwt>
<totfact> 0.72680794E+03</totfact>
</mgrwt>
</event>
<event>
 4    1  0.3293542E-002  0.1248976E+03  0.7818608E-02  0.1235229E+00
          4   -1    0    0  501    0  0.00000000000E+00  0.00000000000E+00  0.20297721322E+02  0.20337413574E+02  0.12700000000E+01 0.  1.
         -4   -1    0    0    0  501 -0.00000000000E+00 -0.00000000000E+00 -0.19190300386E+03  0.19190720619E+03  0.12700000000E+01 0.  1.
    9000005    1    1    2    0    0  0.39321717470E+02 -0.13614227601E+02 -0.16491473094E+03  0.17008648723E+03  0.10000000000E+01 0.  0.
    9000005    1    1    2    0    0 -0.39321717470E+02  0.13614227601E+02 -0.66905515905E+01  0.42158132532E+02  0.10000000000E+01 0.  0.
<mgrwt>
<rscale>  0 0.12489758E+03</rscale>
<asrwt>0</asrwt>
<pdfrwt beam="1">  1        4 0.31261030E-02 0.12489758E+03</pdfrwt>
<pdfrwt beam="2">  1       -4 0.29526914E-01 0.12489758E+03</pdfrwt>
<totfact> 0.88312627E+03</totfact>
</mgrwt>
</event>
<event>
 5    1  0.3293542E-002  0.1250019E+03  0.7818608E-02  0.1235066E+00
         -4   -1    0    0    0  501 -0.00000000000E+00  0.00000000000E+00  0.54897373176E+02  0.54912061349E+02  0.12700000000E+01 0. -1.
          4   -1    0    0  501    0  0.00000000000E+00 -0.00000000000E+00 -0.71127801862E+02  0.71139139001E+02  0.12700000000E+01 0. -1.
         25    2    1    2    0    0  0.00000000000E+00  0.00000000000E+00 -0.16230428687E+02  0.12605120035E+03  0.12500191316E+03 0.  0.
    9000005    1    3    3    0    0 -0.61090089025E+02  0.60522914770E+01  0.36765473048E+01  0.61507285823E+02  0.10000000000E+01 0.  0.
    9000005    1    3    3    0    0  0.61090089025E+02 -0.60522914770E+01 -0.19906975992E+02  0.64543914526E+02  0.10000000000E+01 0.  0.
<mgrwt>
<rscale>  0 0.12500191E+03</rscale>
<asrwt>0</asrwt>
<pdfrwt beam="2">  1        4 0.10944741E-01 0.12500191E+03</pdfrwt>
<pdfrwt beam="1">  1       -4 0.84477516E-02 0.12500191E+03</pdfrwt>
<totfact> 0.10429385E+04</totfact>
</mgrwt>
</event>
<event>
 5    1  0.3293542E-002  0.1249929E+03  0.7818608E-02  0.1235080E+00
          4   -1    0    0  501    0  0.00000000000E+00  0.00000000000E+00  0.23046547281E+01  0.26314128174E+01  0.12700000000E+01 0.  1.
         -4   -1    0    0    0  501 -0.00000000000E+00 -0.00000000000E+00 -0.15822298745E+04  0.15822303842E+04  0.12700000000E+01 0.  1.
         25    2    1    2    0    0  0.00000000000E+00  0.00000000000E+00 -0.15799252198E+04  0.15848617970E+04  0.12499286199E+03 0.  0.
    9000005    1    3    3    0    0 -0.47122666302E+02 -0.28186777495E+02 -0.41174343184E+03  0.41538980942E+03  0.10000000000E+01 0.  0.
    9000005    1    3    3    0    0  0.47122666302E+02  0.28186777495E+02 -0.11681817879E+04  0.11694719876E+04  0.10000000000E+01 0.  0.
<mgrwt>
<rscale>  0 0.12499286E+03</rscale>
<asrwt>0</asrwt>
<pdfrwt beam="1">  1        4 0.37973798E-03 0.12499286E+03</pdfrwt>
<pdfrwt beam="2">  1       -4 0.24344434E+00 0.12499286E+03</pdfrwt>
<totfact> 0.16323883E+03</totfact>
</mgrwt>
</event>
<event>
 5    1  0.3293542E-002  0.1249986E+03  0.7818608E-02  0.1235071E+00
         -4   -1    0    0    0  501 -0.00000000000E+00  0.00000000000E+00  0.20902994401E+03  0.20903380204E+03  0.12700000000E+01 0.  1.
          4   -1    0    0  501    0  0.00000000000E+00 -0.00000000000E+00 -0.18661496861E+02  0.18704661588E+02  0.12700000000E+01 0.  1.
         25    2    1    2    0    0  0.00000000000E+00  0.00000000000E+00  0.19036844715E+03  0.22773846362E+03  0.12499864857E+03 0.  0.
    9000005    1    3    3    0    0  0.55963050966E+02  0.13793879212E+02  0.51191887350E+02  0.77095677619E+02  0.10000000000E+01 0.  0.
    9000005    1    3    3    0    0 -0.55963050966E+02 -0.13793879212E+02  0.13917655980E+03  0.15064278600E+03  0.10000000000E+01 0.  0.
<mgrwt>
<rscale>  0 0.12499865E+03</rscale>
<asrwt>0</asrwt>
<pdfrwt beam="2">  1        4 0.28746168E-02 0.12499865E+03</pdfrwt>
<pdfrwt beam="1">  1       -4 0.32162068E-01 0.12499865E+03</pdfrwt>
<totfact> 0.85660656E+03</totfact>
</mgrwt>
</event>
<event>
 5    1  0.3293542E-002  0.1250013E+03  0.7818608E-02  0.1235067E+00
         -4   -1    0    0    0  501 -0.00000000000E+00  0.00000000000E+00  0.86137768278E+02  0.86147130096E+02  0.12700000000E+01 0. -1.
          4   -1    0    0  501    0  0.00000000000E+00 -0.00000000000E+00 -0.45329111977E+02  0.45346899482E+02  0.12700000000E+01 0. -1.
         25    2    1    2    0    0  0.00000000000E+00  0.00000000000E+00  0.40808656301E+02  0.13149402958E+03  0.12500133354E+03 0.  0.
    9000005    1    3    3    0    0  0.34068737708E+02  0.57629503668E+01 -0.34371836030E+02  0.48747447093E+02  0.10000000000E+01 0.  0.
    9000005    1    3    3    0    0 -0.34068737708E+02 -0.57629503668E+01  0.75180492331E+02  0.82746582486E+02  0.10000000000E+01 0.  0.
<mgrwt>
<rscale>  0 0.12500133E+03</rscale>
<asrwt>0</asrwt>
<pdfrwt beam="2">  1        4 0.69757980E-02 0.12500133E+03</pdfrwt>
<pdfrwt beam="1">  1       -4 0.13254053E-01 0.12500133E+03</pdfrwt>
<totfact> 0.10312200E+04</totfact>
</mgrwt>
</event>
<event>
 5    1  0.3293542E-002  0.1249994E+03  0.7818608E-02  0.1235070E+00
         -4   -1    0    0    0  501 -0.00000000000E+00  0.00000000000E+00  0.13740203816E+02  0.13798771718E+02  0.12700000000E+01 0. -1.
          4   -1    0    0  501    0  0.00000000000E+00 -0.00000000000E+00 -0.28362601099E+03  0.28362885434E+03  0.12700000000E+01 0. -1.
         25    2    1    2    0    0  0.00000000000E+00  0.00000000000E+00 -0.26988580718E+03  0.29742762605E+03  0.12499937530E+03 0.  0.
    9000005    1    3    3    0    0 -0.14844758833E+02 -0.17882739244E+02 -0.27297158352E+03  0.27396102759E+03  0.10000000000E+01 0.  0.
    9000005    1    3    3    0    0  0.14844758833E+02  0.17882739244E+02  0.30857763467E+01  0.23466598462E+02  0.10000000000E+01 0.  0.
<mgrwt>
<rscale>  0 0.12499938E+03</rscale>
<asrwt>0</asrwt>
<pdfrwt beam="2">  1        4 0.43639491E-01 0.12499938E+03</pdfrwt>
<pdfrwt beam="1">  1       -4 0.21186017E-02 0.12499938E+03</pdfrwt>
<totfact> 0.75923705E+03</totfact>
</mgrwt>
</event>
<event>
 5    1  0.3293542E-002  0.1249989E+03  0.7818608E-02  0.1235071E+00
          4   -1    0    0  501    0  0.00000000000E+00  0.00000000000E+00  0.92878194961E+02  0.92886877432E+02  0.12700000000E+01 0.  1.
         -4   -1    0    0    0  501 -0.00000000000E+00 -0.00000000000E+00 -0.42036806733E+02  0.42055986736E+02  0.12700000000E+01 0.  1.
         25    2    1    2    0    0  0.00000000000E+00  0.00000000000E+00  0.50841388227E+02  0.13494286417E+03  0.12499891933E+03 0.  0.
    9000005    1    3    3    0    0 -0.33968367265E+01  0.43545540342E+02 -0.22827319286E+02  0.49293398028E+02  0.10000000000E+01 0.  0.
    9000005    1    3    3    0    0  0.33968367265E+01 -0.43545540342E+02  0.73668707513E+02  0.85649466140E+02  0.10000000000E+01 0.  0.
<mgrwt>
<rscale>  0 0.12499892E+03</rscale>
<asrwt>0</asrwt>
<pdfrwt beam="1">  1        4 0.14291096E-01 0.12499892E+03</pdfrwt>
<pdfrwt beam="2">  1       -4 0.64693444E-02 0.12499892E+03</pdfrwt>
<totfact> 0.10239525E+04</totfact>
</mgrwt>
</event>
<event>
 5    1  0.3293542E-002  0.1250465E+03  0.7818608E-02  0.1234997E+00
          4   -1    0    0  501    0  0.00000000000E+00  0.00000000000E+00  0.59478307996E+03  0.59478443583E+03  0.12700000000E+01 0.  1.
         -4   -1    0    0    0  501 -0.00000000000E+00 -0.00000000000E+00 -0.65096846591E+01  0.66324124089E+01  0.12700000000E+01 0.  1.
         25    2    1    2    0    0  0.00000000000E+00  0.00000000000E+00  0.58827339530E+03  0.60141684824E+03  0.12504654225E+03 0.  0.
    9000005    1    3    3    0    0 -0.40054835474E+02  0.33576454906E+02  0.12917626070E+03  0.13935305700E+03  0.10000000000E+01 0.  0.
    9000005    1    3    3    0    0  0.40054835474E+02 -0.33576454906E+02  0.45909713460E+03  0.46206379123E+03  0.10000000000E+01 0.  0.
<mgrwt>
<rscale>  0 0.12504654E+03</rscale>
<asrwt>0</asrwt>
<pdfrwt beam="1">  1        4 0.91514611E-01 0.12504654E+03</pdfrwt>
<pdfrwt beam="2">  1       -4 0.10110351E-02 0.12504654E+03</pdfrwt>
<totfact> 0.48728561E+03</totfact>
</mgrwt>
</event>
<event>
 5    1  0.3293542E-002  0.1250128E+03  0.7818608E-02  0.1235049E+00
          4   -1    0    0  501    0  0.00000000000E+00  0.00000000000E+00  0.41806478955E+03  0.41806671855E+03  0.12700000000E+01 0.  1.
         -4   -1    0    0    0  501 -0.00000000000E+00 -0.00000000000E+00 -0.93004560467E+01  0.93867663589E+01  0.12700000000E+01 0.  1.
         25    2    1    2    0    0  0.00000000000E+00  0.00000000000E+00  0.40876433350E+03  0.42745348491E+03  0.12501280502E+03 0.  0.
    9000005    1    3    3    0    0 -0.15393635525E+02  0.55945256180E+02  0.12498313541E+03  0.13779920116E+03  0.10000000000E+01 0.  0.
    9000005    1    3    3    0    0  0.15393635525E+02 -0.55945256180E+02  0.28378119809E+03  0.28965428375E+03  0.10000000000E+01 0.  0.
<mgrwt>
<rscale>  0 0.12501281E+03</rscale>
<asrwt>0</asrwt>
<pdfrwt beam="1">  1        4 0.64324441E-01 0.12501281E+03</pdfrwt>
<pdfrwt beam="2">  1       -4 0.14376272E-02 0.12501281E+03</pdfrwt>
<totfact> 0.61950006E+03</totfact>
</mgrwt>
</event>
<event>
 5    1  0.3293542E-002  0.1249992E+03  0.7818608E-02  0.1235071E+00
         -4   -1    0    0    0  501 -0.00000000000E+00  0.00000000000E+00  0.10697820830E+03  0.10698574649E+03  0.12700000000E+01 0. -1.
          4   -1    0    0  501    0  0.00000000000E+00 -0.00000000000E+00 -0.36494097067E+02  0.36516188475E+02  0.12700000000E+01 0. -1.
         25    2    1    2    0    0  0.00000000000E+00  0.00000000000E+00  0.70484111234E+02  0.14350193496E+03  0.12499918160E+03 0.  0.
    9000005    1    3    3    0    0 -0.24651314063E+02  0.42710619031E+02 -0.88234067989E+01  0.50107252675E+02  0.10000000000E+01 0.  0.
    9000005    1    3    3    0    0  0.24651314063E+02 -0.42710619031E+02  0.79307518033E+02  0.93394682288E+02  0.10000000000E+01 0.  0.
<mgrwt>
<rscale>  0 0.12499918E+03</rscale>
<asrwt>0</asrwt>
<pdfrwt beam="2">  1        4 0.56167557E-02 0.12499918E+03</pdfrwt>
<pdfrwt beam="1">  1       -4 0.16460465E-01 0.12499918E+03</pdfrwt>
<totfact> 0.10061700E+04</totfact>
</mgrwt>
</event>
<event>
 5    1  0.3293542E-002  0.1249989E+03  0.7818608E-02  0.1235071E+00
         -4   -1    0    0    0  501 -0.00000000000E+00  0.00000000000E+00  0.32482065323E+02  0.32506883388E+02  0.12700000000E+01 0.  1.
          4   -1    0    0  501    0  0.00000000000E+00 -0.00000000000E+00 -0.12018239742E+03  0.12018910745E+03  0.12700000000E+01 0.  1.
         25    2    1    2    0    0  0.00000000000E+00  0.00000000000E+00 -0.87700332095E+02  0.15269599084E+03  0.12499886947E+03 0.  0.
    9000005    1    3    3    0    0 -0.49266564304E+02 -0.37876379709E+02 -0.35805825592E+02  0.71727760626E+02  0.10000000000E+01 0.  0.
    9000005    1    3    3    0    0  0.49266564304E+02  0.37876379709E+02 -0.51894506503E+02  0.80968230210E+02  0.10000000000E+01 0.  0.
<mgrwt>
<rscale>  0 0.12499887E+03</rscale>
<asrwt>0</asrwt>
<pdfrwt beam="2">  1        4 0.18492025E-01 0.12499887E+03</pdfrwt>
<pdfrwt beam="1">  1       -4 0.49996661E-02 0.12499887E+03</pdfrwt>
<totfact> 0.98771495E+03</totfact>
</mgrwt>
</event>
<event>
 5    1  0.3293542E-002  0.1249979E+03  0.7818608E-02  0.1235073E+00
          4   -1    0    0  501    0  0.00000000000E+00  0.00000000000E+00  0.10565540422E+02  0.10641595013E+02  0.12700000000E+01 0. -1.
         -4   -1    0    0    0  501 -0.00000000000E+00 -0.00000000000E+00 -0.36830033713E+03  0.36830252677E+03  0.12700000000E+01 0. -1.
         25    2    1    2    0    0  0.00000000000E+00  0.00000000000E+00 -0.35773479670E+03  0.37894412179E+03  0.12499785063E+03 0.  0.
    9000005    1    3    3    0    0 -0.40507970231E+02  0.47276954943E+02 -0.16251089992E+03  0.17403102802E+03  0.10000000000E+01 0.  0.
    9000005    1    3    3    0    0  0.40507970231E+02 -0.47276954943E+02 -0.19522389679E+03  0.20491309377E+03  0.10000000000E+01 0.  0.
<mgrwt>
<rscale>  0 0.12499785E+03</rscale>
<asrwt>0</asrwt>
<pdfrwt beam="1">  1        4 0.16314868E-02 0.12499785E+03</pdfrwt>
<pdfrwt beam="2">  1       -4 0.56667599E-01 0.12499785E+03</pdfrwt>
<totfact> 0.66656651E+03</totfact>
</mgrwt>
</event>
<event>
 5    1  0.3293542E-002  0.1250002E+03  0.7818608E-02  0.1235069E+00
          4   -1    0    0  501    0  0.00000000000E+00  0.00000000000E+00  0.70956627573E+02  0.70967992056E+02  0.12700000000E+01 0. -1.
         -4   -1    0    0    0  501 -0.00000000000E+00 -0.00000000000E+00 -0.55028313420E+02  0.55042966652E+02  0.12700000000E+01 0. -1.
         25    2    1    2    0    0  0.00000000000E+00  0.00000000000E+00  0.15928314153E+02  0.12601095871E+03  0.12500020209E+03 0.  0.
    9000005    1    3    3    0    0 -0.20019661335E+02  0.17182310256E+01  0.67616309874E+02  0.70545761877E+02  0.10000000000E+01 0.  0.
    9000005    1    3    3    0    0  0.20019661335E+02 -0.17182310256E+01 -0.51687995721E+02  0.55465196831E+02  0.10000000000E+01 0.  0.
<mgrwt>
<rscale>  0 0.12500020E+03</rscale>
<asrwt>0</asrwt>
<pdfrwt beam="1">  1        4 0.10918405E-01 0.12500020E+03</pdfrwt>
<pdfrwt beam="2">  1       -4 0.84678958E-02 0.12500020E+03</pdfrwt>
<totfact> 0.10430669E+04</totfact>
</mgrwt>
</event>
<event>
 5    1  0.3293542E-002  0.1249990E+03  0.7818608E-02  0.1235071E+00
         -4   -1    0    0    0  501 -0.00000000000E+00  0.00000000000E+00  0.75590867367E+03  0.75590974053E+03  0.12700000000E+01 0. -1.
          4   -1    0    0  501    0  0.00000000000E+00 -0.00000000000E+00 -0.50884203238E+01  0.52445134562E+01  0.12700000000E+01 0. -1.
         25    2    1    2    0    0  0.00000000000E+00  0.00000000000E+00  0.75082025335E+03  0.76115425399E+03  0.12499898211E+03 0.  0.
    9000005    1    3    3    0    0 -0.44714060248E+02  0.37291375254E+02  0.51362379097E+03  0.51691429899E+03  0.10000000000E+01 0.  0.
    9000005    1    3    3    0    0  0.44714060248E+02 -0.37291375254E+02  0.23719646238E+03  0.24423995500E+03  0.10000000000E+01 0.  0.
<mgrwt>
<rscale>  0 0.12499898E+03</rscale>
<asrwt>0</asrwt>
<pdfrwt beam="2">  1        4 0.79492308E-03 0.12499898E+03</pdfrwt>
<pdfrwt beam="1">  1       -4 0.11630574E+00 0.12499898E+03</pdfrwt>
<totfact> 0.40047117E+03</totfact>
</mgrwt>
</event>
<event>
 5    1  0.3293542E-002  0.1249945E+03  0.7818608E-02  0.1235078E+00
         -4   -1    0    0    0  501 -0.00000000000E+00  0.00000000000E+00  0.54416955236E+03  0.54417103434E+03  0.12700000000E+01 0.  1.
          4   -1    0    0  501    0  0.00000000000E+00 -0.00000000000E+00 -0.71200589155E+01  0.72324365853E+01  0.12700000000E+01 0.  1.
         25    2    1    2    0    0  0.00000000000E+00  0.00000000000E+00  0.53704949344E+03  0.55140347092E+03  0.12499451724E+03 0.  0.
    9000005    1    3    3    0    0 -0.48855802434E+02 -0.35338144292E+02  0.19614066827E+03  0.20520193865E+03  0.10000000000E+01 0.  0.
    9000005    1    3    3    0    0  0.48855802434E+02  0.35338144292E+02  0.34090882517E+03  0.34620153228E+03  0.10000000000E+01 0.  0.
<mgrwt>
<rscale>  0 0.12499452E+03</rscale>
<asrwt>0</asrwt>
<pdfrwt beam="2">  1        4 0.11041522E-02 0.12499452E+03</pdfrwt>
<pdfrwt beam="1">  1       -4 0.83727147E-01 0.12499452E+03</pdfrwt>
<totfact> 0.52092518E+03</totfact>
</mgrwt>
</event>
<event>
 5    1  0.3293542E-002  0.1250038E+03  0.7818608E-02  0.1235063E+00
         -4   -1    0    0    0  501 -0.00000000000E+00  0.00000000000E+00  0.68020536660E+03  0.68020655220E+03  0.12700000000E+01 0. -1.
          4   -1    0    0  501    0  0.00000000000E+00 -0.00000000000E+00 -0.56716824356E+01  0.58121322809E+01  0.12700000000E+01 0. -1.
         25    2    1    2    0    0  0.00000000000E+00  0.00000000000E+00  0.67453368417E+03  0.68601868448E+03  0.12500377746E+03 0.  0.
    9000005    1    3    3    0    0 -0.34902689501E+02  0.34320413014E+02  0.12405337297E+03  0.13336539217E+03  0.10000000000E+01 0.  0.
    9000005    1    3    3    0    0  0.34902689501E+02 -0.34320413014E+02  0.55048031120E+03  0.55265329231E+03  0.10000000000E+01 0.  0.
<mgrwt>
<rscale>  0 0.12500378E+03</rscale>
<asrwt>0</asrwt>
<pdfrwt beam="2">  1        4 0.88346113E-03 0.12500378E+03</pdfrwt>
<pdfrwt beam="1">  1       -4 0.10465793E+00 0.12500378E+03</pdfrwt>
<totfact> 0.43831454E+03</totfact>
</mgrwt>
</event>
<event>
 5    1  0.3293542E-002  0.1249984E+03  0.7818608E-02  0.1235072E+00
          4   -1    0    0  501    0  0.00000000000E+00  0.00000000000E+00  0.31557081770E+02  0.31582626709E+02  0.12700000000E+01 0.  1.
         -4   -1    0    0    0  501 -0.00000000000E+00 -0.00000000000E+00 -0.12370153112E+03  0.12370805027E+03  0.12700000000E+01 0.  1.
         25    2    1    2    0    0  0.00000000000E+00  0.00000000000E+00 -0.92144449351E+02  0.15529067698E+03  0.12499837923E+03 0.  0.
    9000005    1    3    3    0    0 -0.34396090810E+02  0.88732968711E+01  0.17800590292E+02  0.39745282425E+02  0.10000000000E+01 0.  0.
    9000005    1    3    3    0    0  0.34396090810E+02 -0.88732968711E+01 -0.10994503964E+03  0.11554539455E+03  0.10000000000E+01 0.  0.
<mgrwt>
<rscale>  0 0.12499838E+03</rscale>
<asrwt>0</asrwt>
<pdfrwt beam="1">  1        4 0.48574022E-02 0.12499838E+03</pdfrwt>
<pdfrwt beam="2">  1       -4 0.19033471E-01 0.12499838E+03</pdfrwt>
<totfact> 0.98262047E+03</totfact>
</mgrwt>
</event>
<event>
 5    1  0.3293542E-002  0.1249996E+03  0.7818608E-02  0.1235070E+00
          4   -1    0    0  501    0  0.00000000000E+00  0.00000000000E+00  0.80342969784E+02  0.80353006750E+02  0.12700000000E+01 0.  1.
         -4   -1    0    0    0  501 -0.00000000000E+00 -0.00000000000E+00 -0.48597978185E+02  0.48614569665E+02  0.12700000000E+01 0.  1.
         25    2    1    2    0    0  0.00000000000E+00  0.00000000000E+00  0.31744991599E+02  0.12896757641E+03  0.12499956510E+03 0.  0.
    9000005    1    3    3    0    0  0.54910110247E+01 -0.55948644295E+02  0.44030245235E+02  0.71414735847E+02  0.10000000000E+01 0.  0.
    9000005    1    3    3    0    0 -0.54910110247E+01  0.55948644295E+02 -0.12285253636E+02  0.57552840568E+02  0.10000000000E+01 0.  0.
<mgrwt>
<rscale>  0 0.12499957E+03</rscale>
<asrwt>0</asrwt>
<pdfrwt beam="1">  1        4 0.12362505E-01 0.12499957E+03</pdfrwt>
<pdfrwt beam="2">  1       -4 0.74786604E-02 0.12499957E+03</pdfrwt>
<totfact> 0.10366745E+04</totfact>
</mgrwt>
</event>
<event>
 5    1  0.3293542E-002  0.1249393E+03  0.7818608E-02  0.1235164E+00
         -4   -1    0    0    0  501 -0.00000000000E+00  0.00000000000E+00  0.19149120906E+03  0.19149542043E+03  0.12700000000E+01 0. -1.
          4   -1    0    0  501    0  0.00000000000E+00 -0.00000000000E+00 -0.20355090960E+02  0.20394671559E+02  0.12700000000E+01 0. -1.
         25    2    1    2    0    0  0.00000000000E+00  0.00000000000E+00  0.17113611810E+03  0.21189009199E+03  0.12493934595E+03 0.  0.
    9000005    1    3    3    0    0 -0.19667916802E+02 -0.59165032969E+02  0.91943536059E+02  0.11109429284E+03  0.10000000000E+01 0.  0.
    9000005    1    3    3    0    0  0.19667916802E+02  0.59165032969E+02  0.79192582041E+02  0.10079579916E+03  0.10000000000E+01 0.  0.
<mgrwt>
<rscale>  0 0.12493935E+03</rscale>
<asrwt>0</asrwt>
<pdfrwt beam="2">  1        4 0.31349211E-02 0.12493935E+03</pdfrwt>
<pdfrwt beam="1">  1       -4 0.29463555E-01 0.12493935E+03</pdfrwt>
<totfact> 0.88287775E+03</totfact>
</mgrwt>
</event>
<event>
 5    1  0.3293542E-002  0.1249957E+03  0.7818608E-02  0.1235076E+00
         -4   -1    0    0    0  501 -0.00000000000E+00  0.00000000000E+00  0.26657091949E+03  0.26657394474E+03  0.12700000000E+01 0.  1.
          4   -1    0    0  501    0  0.00000000000E+00 -0.00000000000E+00 -0.14622067273E+02  0.14677116588E+02  0.12700000000E+01 0.  1.
         25    2    1    2    0    0  0.00000000000E+00  0.00000000000E+00  0.25194885221E+03  0.28125106133E+03  0.12499574140E+03 0.  0.
    9000005    1    3    3    0    0 -0.32138401471E+02  0.43990296709E+02  0.57099735463E+02  0.78926566147E+02  0.10000000000E+01 0.  0.
    9000005    1    3    3    0    0  0.32138401471E+02 -0.43990296709E+02  0.19484911675E+03  0.20232449518E+03  0.10000000000E+01 0.  0.
<mgrwt>
<rscale>  0 0.12499574E+03</rscale>
<asrwt>0</asrwt>
<pdfrwt beam="2">  1        4 0.22540162E-02 0.12499574E+03</pdfrwt>
<pdfrwt beam="1">  1       -4 0.41015376E-01 0.12499574E+03</pdfrwt>
<totfact> 0.78019901E+03</totfact>
</mgrwt>
</event>
<event>
 5    1  0.3293542E-002  0.1250000E+03  0.7818608E-02  0.1235069E+00
         -4   -1    0    0    0  501 -0.00000000000E+00  0.00000000000E+00  0.70084864962E+03  0.70084980029E+03  0.12700000000E+01 0.  1.
          4   -1    0    0  501    0  0.00000000000E+00 -0.00000000000E+00 -0.55000805474E+01  0.56448016818E+01  0.12700000000E+01 0.  1.
         25    2    1    2    0    0  0.00000000000E+00  0.00000000000E+00  0.69534856907E+03  0.70649460198E+03  0.12499996045E+03 0.  0.
    9000005    1    3    3    0    0 -0.22030439034E+02 -0.56633518159E+02  0.26527347603E+03  0.27214649126E+03  0.10000000000E+01 0.  0.
    9000005    1    3    3    0    0  0.22030439034E+02  0.56633518159E+02  0.43007509304E+03  0.43434811071E+03  0.10000000000E+01 0.  0.
<mgrwt>
<rscale>  0 0.12499996E+03</rscale>
<asrwt>0</asrwt>
<pdfrwt beam="2">  1        4 0.85738705E-03 0.12499996E+03</pdfrwt>
<pdfrwt beam="1">  1       -4 0.10783410E+00 0.12499996E+03</pdfrwt>
<totfact> 0.42746097E+03</totfact>
</mgrwt>
</event>
<event>
 5    1  0.3293542E-002  0.1249984E+03  0.7818608E-02  0.1235072E+00
         -4   -1    0    0    0  501 -0.00000000000E+00  0.00000000000E+00  0.37920630011E+02  0.37941890838E+02  0.12700000000E+01 0.  1.
          4   -1    0    0  501    0  0.00000000000E+00 -0.00000000000E+00 -0.10295455799E+03  0.10296239076E+03  0.12700000000E+01 0.  1.
         25    2    1    2    0    0  0.00000000000E+00  0.00000000000E+00 -0.65033927975E+02  0.14090428159E+03  0.12499841912E+03 0.  0.
    9000005    1    3    3    0    0  0.43954161050E+02 -0.50541475543E+01 -0.82264760206E+02  0.93413079667E+02  0.10000000000E+01 0.  0.
    9000005    1    3    3    0    0 -0.43954161050E+02  0.50541475543E+01  0.17230832230E+02  0.47491201927E+02  0.10000000000E+01 0.  0.
<mgrwt>
<rscale>  0 0.12499842E+03</rscale>
<asrwt>0</asrwt>
<pdfrwt beam="2">  1        4 0.15841401E-01 0.12499842E+03</pdfrwt>
<pdfrwt beam="1">  1       -4 0.58361811E-02 0.12499842E+03</pdfrwt>
<totfact> 0.10115239E+04</totfact>
</mgrwt>
</event>
<event>
 5    1  0.3293542E-002  0.1250010E+03  0.7818608E-02  0.1235068E+00
          4   -1    0    0  501    0  0.00000000000E+00  0.00000000000E+00  0.35065669014E+03  0.35065898996E+03  0.12700000000E+01 0.  1.
         -4   -1    0    0    0  501 -0.00000000000E+00 -0.00000000000E+00 -0.11101459352E+02  0.11173866821E+02  0.12700000000E+01 0.  1.
         25    2    1    2    0    0  0.00000000000E+00  0.00000000000E+00  0.33955523079E+03  0.36183285679E+03  0.12500104596E+03 0.  0.
    9000005    1    3    3    0    0  0.34201542669E+01  0.52395424732E+02  0.71686628062E+02  0.88864788476E+02  0.10000000000E+01 0.  0.
    9000005    1    3    3    0    0 -0.34201542669E+01 -0.52395424732E+02  0.26786860273E+03  0.27296806831E+03  0.10000000000E+01 0.  0.
<mgrwt>
<rscale>  0 0.12500105E+03</rscale>
<asrwt>0</asrwt>
<pdfrwt beam="1">  1        4 0.53952917E-01 0.12500105E+03</pdfrwt>
<pdfrwt beam="2">  1       -4 0.17136639E-02 0.12500105E+03</pdfrwt>
<totfact> 0.68440541E+03</totfact>
</mgrwt>
</event>
<event>
 5    1  0.3293542E-002  0.1250003E+03  0.7818608E-02  0.1235069E+00
          4   -1    0    0  501    0  0.00000000000E+00  0.00000000000E+00  0.17504168739E+02  0.17550180148E+02  0.12700000000E+01 0. -1.
         -4   -1    0    0    0  501 -0.00000000000E+00 -0.00000000000E+00 -0.22282129042E+03  0.22282490966E+03  0.12700000000E+01 0. -1.
         25    2    1    2    0    0  0.00000000000E+00  0.00000000000E+00 -0.20531712168E+03  0.24037508981E+03  0.12500025338E+03 0.  0.
    9000005    1    3    3    0    0  0.14634608860E+02 -0.60581325218E+02 -0.93846892003E+02  0.11266103089E+03  0.10000000000E+01 0.  0.
    9000005    1    3    3    0    0 -0.14634608860E+02  0.60581325218E+02 -0.11147022968E+03  0.12771405892E+03  0.10000000000E+01 0.  0.
<mgrwt>
<rscale>  0 0.12500025E+03</rscale>
<asrwt>0</asrwt>
<pdfrwt beam="1">  1        4 0.26967669E-02 0.12500025E+03</pdfrwt>
<pdfrwt beam="2">  1       -4 0.34284014E-01 0.12500025E+03</pdfrwt>
<totfact> 0.83741064E+03</totfact>
</mgrwt>
</event>
<event>
 5    1  0.3293542E-002  0.1249991E+03  0.7818608E-02  0.1235071E+00
          4   -1    0    0  501    0  0.00000000000E+00  0.00000000000E+00  0.17103389301E+02  0.17150475958E+02  0.12700000000E+01 0. -1.
         -4   -1    0    0    0  501 -0.00000000000E+00 -0.00000000000E+00 -0.22802428634E+03  0.22802782300E+03  0.12700000000E+01 0. -1.
         25    2    1    2    0    0  0.00000000000E+00  0.00000000000E+00 -0.21092089704E+03  0.24517829896E+03  0.12499909388E+03 0.  0.
    9000005    1    3    3    0    0 -0.14785977671E+02  0.17472099413E+02 -0.21951605234E+03  0.22070839728E+03  0.10000000000E+01 0.  0.
    9000005    1    3    3    0    0  0.14785977671E+02 -0.17472099413E+02  0.85951552999E+01  0.24469901680E+02  0.10000000000E+01 0.  0.
<mgrwt>
<rscale>  0 0.12499909E+03</rscale>
<asrwt>0</asrwt>
<pdfrwt beam="1">  1        4 0.26351849E-02 0.12499909E+03</pdfrwt>
<pdfrwt beam="2">  1       -4 0.35084551E-01 0.12499909E+03</pdfrwt>
<totfact> 0.83033824E+03</totfact>
</mgrwt>
</event>
<event>
 5    1  0.3293542E-002  0.1250210E+03  0.7818608E-02  0.1235036E+00
          4   -1    0    0  501    0  0.00000000000E+00  0.00000000000E+00  0.57729292299E+01  0.59109738532E+01  0.12700000000E+01 0.  1.
         -4   -1    0    0    0  501 -0.00000000000E+00 -0.00000000000E+00 -0.66874134293E+03  0.66874254885E+03  0.12700000000E+01 0.  1.
         25    2    1    2    0    0  0.00000000000E+00  0.00000000000E+00 -0.66296841370E+03  0.67465352271E+03  0.12502103076E+03 0.  0.
    9000005    1    3    3    0    0 -0.36417685872E+02 -0.22683232616E+02 -0.86216395755E+02  0.96307028732E+02  0.10000000000E+01 0.  0.
    9000005    1    3    3    0    0  0.36417685872E+02  0.22683232616E+02 -0.57675201795E+03  0.57834649397E+03  0.10000000000E+01 0.  0.
<mgrwt>
<rscale>  0 0.12502103E+03</rscale>
<asrwt>0</asrwt>
<pdfrwt beam="1">  1        4 0.89885507E-03 0.12502103E+03</pdfrwt>
<pdfrwt beam="2">  1       -4 0.10289393E+00 0.12502103E+03</pdfrwt>
<totfact> 0.44438461E+03</totfact>
</mgrwt>
</event>
<event>
 5    1  0.3293542E-002  0.1250019E+03  0.7818608E-02  0.1235066E+00
          4   -1    0    0  501    0  0.00000000000E+00  0.00000000000E+00  0.89563946007E+03  0.89564036048E+03  0.12700000000E+01 0.  1.
         -4   -1    0    0    0  501 -0.00000000000E+00 -0.00000000000E+00 -0.42681670880E+01  0.44531056905E+01  0.12700000000E+01 0.  1.
         25    2    1    2    0    0  0.00000000000E+00  0.00000000000E+00  0.89137129298E+03  0.90009346617E+03  0.12500186360E+03 0.  0.
    9000005    1    3    3    0    0  0.13878051969E+02  0.57802217098E+02  0.30686636683E+03  0.31257265350E+03  0.10000000000E+01 0.  0.
    9000005    1    3    3    0    0 -0.13878051969E+02 -0.57802217098E+02  0.58450492615E+03  0.58752081267E+03  0.10000000000E+01 0.  0.
<mgrwt>
<rscale>  0 0.12500186E+03</rscale>
<asrwt>0</asrwt>
<pdfrwt beam="1">  1        4 0.13780500E+00 0.12500186E+03</pdfrwt>
<pdfrwt beam="2">  1       -4 0.67093631E-03 0.12500186E+03</pdfrwt>
<totfact> 0.34154943E+03</totfact>
</mgrwt>
</event>
<event>
 5    1  0.3293542E-002  0.1250047E+03  0.7818608E-02  0.1235062E+00
         -4   -1    0    0    0  501 -0.00000000000E+00  0.00000000000E+00  0.19908872654E+03  0.19909277720E+03  0.12700000000E+01 0. -1.
          4   -1    0    0  501    0  0.00000000000E+00 -0.00000000000E+00 -0.19597314559E+02  0.19638422491E+02  0.12700000000E+01 0. -1.
         25    2    1    2    0    0  0.00000000000E+00  0.00000000000E+00  0.17949141198E+03  0.21873119970E+03  0.12500468289E+03 0.  0.
    9000005    1    3    3    0    0 -0.15988300591E+02  0.21815560189E+02 -0.88340626793E+01  0.28470775992E+02  0.10000000000E+01 0.  0.
    9000005    1    3    3    0    0  0.15988300591E+02 -0.21815560189E+02  0.18832547466E+03  0.19026042370E+03  0.10000000000E+01 0.  0.
<mgrwt>
<rscale>  0 0.12500468E+03</rscale>
<asrwt>0</asrwt>
<pdfrwt beam="2">  1        4 0.30184452E-02 0.12500468E+03</pdfrwt>
<pdfrwt beam="1">  1       -4 0.30632509E-01 0.12500468E+03</pdfrwt>
<totfact> 0.87060411E+03</totfact>
</mgrwt>
</event>
<event>
 5    1  0.3293542E-002  0.1250301E+03  0.7818608E-02  0.1235022E+00
         -4   -1    0    0    0  501 -0.00000000000E+00  0.00000000000E+00  0.30032983974E+02  0.30059824124E+02  0.12700000000E+01 0.  1.
          4   -1    0    0  501    0  0.00000000000E+00 -0.00000000000E+00 -0.13003988408E+03  0.13004608549E+03  0.12700000000E+01 0.  1.
         25    2    1    2    0    0  0.00000000000E+00  0.00000000000E+00 -0.10000690011E+03  0.16010590961E+03  0.12503008528E+03 0.  0.
    9000005    1    3    3    0    0  0.54419724426E+02 -0.30565703533E+02 -0.54319819828E+02  0.82749087399E+02  0.10000000000E+01 0.  0.
    9000005    1    3    3    0    0 -0.54419724426E+02  0.30565703533E+02 -0.45687080277E+02  0.77356822216E+02  0.10000000000E+01 0.  0.
<mgrwt>
<rscale>  0 0.12503009E+03</rscale>
<asrwt>0</asrwt>
<pdfrwt beam="2">  1        4 0.20008677E-01 0.12503009E+03</pdfrwt>
<pdfrwt beam="1">  1       -4 0.46230008E-02 0.12503009E+03</pdfrwt>
<totfact> 0.97256588E+03</totfact>
</mgrwt>
</event>
<event>
 5    1  0.3293542E-002  0.1250007E+03  0.7818608E-02  0.1235068E+00
          4   -1    0    0  501    0  0.00000000000E+00  0.00000000000E+00  0.63274554675E+02  0.63287298641E+02  0.12700000000E+01 0. -1.
         -4   -1    0    0    0  501 -0.00000000000E+00 -0.00000000000E+00 -0.61710155324E+02  0.61723222292E+02  0.12700000000E+01 0. -1.
         25    2    1    2    0    0  0.00000000000E+00  0.00000000000E+00  0.15643993507E+01  0.12501052093E+03  0.12500073199E+03 0.  0.
    9000005    1    3    3    0    0 -0.28216945169E+02  0.47710817011E+02 -0.28077948135E+02  0.62144100493E+02  0.10000000000E+01 0.  0.
    9000005    1    3    3    0    0  0.28216945169E+02 -0.47710817011E+02  0.29642347485E+02  0.62866420441E+02  0.10000000000E+01 0.  0.
<mgrwt>
<rscale>  0 0.12500073E+03</rscale>
<asrwt>0</asrwt>
<pdfrwt beam="1">  1        4 0.97365324E-02 0.12500073E+03</pdfrwt>
<pdfrwt beam="2">  1       -4 0.94958555E-02 0.12500073E+03</pdfrwt>
<totfact> 0.10452461E+04</totfact>
</mgrwt>
</event>
<event>
 5    1  0.3293542E-002  0.1249992E+03  0.7818608E-02  0.1235071E+00
         -4   -1    0    0    0  501 -0.00000000000E+00  0.00000000000E+00  0.94014880510E+03  0.94014966289E+03  0.12700000000E+01 0.  1.
          4   -1    0    0  501    0  0.00000000000E+00 -0.00000000000E+00 -0.40569467416E+01  0.42510841986E+01  0.12700000000E+01 0.  1.
         25    2    1    2    0    0  0.00000000000E+00  0.00000000000E+00  0.93609185836E+03  0.94440074709E+03  0.12499921526E+03 0.  0.
    9000005    1    3    3    0    0 -0.30248061064E+02 -0.36260161176E+02  0.77730013132E+03  0.77873374053E+03  0.10000000000E+01 0.  0.
    9000005    1    3    3    0    0  0.30248061064E+02  0.36260161176E+02  0.15879172703E+03  0.16566700655E+03  0.10000000000E+01 0.  0.
<mgrwt>
<rscale>  0 0.12499922E+03</rscale>
<asrwt>0</asrwt>
<pdfrwt beam="2">  1        4 0.63914552E-03 0.12499922E+03</pdfrwt>
<pdfrwt beam="1">  1       -4 0.14465322E+00 0.12499922E+03</pdfrwt>
<totfact> 0.32516173E+03</totfact>
</mgrwt>
</event>
<event>
 5    1  0.3293542E-002  0.1250021E+03  0.7818608E-02  0.1235066E+00
          4   -1    0    0  501    0  0.00000000000E+00  0.00000000000E+00  0.89901693053E+03  0.89901782756E+03  0.12700000000E+01 0. -1.
         -4   -1    0    0    0  501 -0.00000000000E+00 -0.00000000000E+00 -0.42514532892E+01  0.44370885804E+01  0.12700000000E+01 0. -1.
         25    2    1    2    0    0  0.00000000000E+00  0.00000000000E+00  0.89476547724E+03  0.90345491614E+03  0.12500210496E+03 0.  0.
    9000005    1    3    3    0    0  0.12363579466E+02 -0.59464965464E+02  0.34105189180E+03  0.34641930246E+03  0.10000000000E+01 0.  0.
    9000005    1    3    3    0    0 -0.12363579466E+02  0.59464965464E+02  0.55371358544E+03  0.55703561368E+03  0.10000000000E+01 0.  0.
<mgrwt>
<rscale>  0 0.12500210E+03</rscale>
<asrwt>0</asrwt>
<pdfrwt beam="1">  1        4 0.13832460E+00 0.12500210E+03</pdfrwt>
<pdfrwt beam="2">  1       -4 0.66841859E-03 0.12500210E+03</pdfrwt>
<totfact> 0.34026416E+03</totfact>
</mgrwt>
</event>
<event>
 5    1  0.3293542E-002  0.1249979E+03  0.7818608E-02  0.1235073E+00
          4   -1    0    0  501    0  0.00000000000E+00  0.00000000000E+00  0.15365225408E+03  0.15365750253E+03  0.12700000000E+01 0. -1.
         -4   -1    0    0    0  501 -0.00000000000E+00 -0.00000000000E+00 -0.25400264914E+02  0.25431994765E+02  0.12700000000E+01 0. -1.
         25    2    1    2    0    0  0.00000000000E+00  0.00000000000E+00  0.12825198916E+03  0.17908949729E+03  0.12499790125E+03 0.  0.
    9000005    1    3    3    0    0 -0.25693300666E+02 -0.56650847948E+02  0.72681091161E+02  0.95671339934E+02  0.10000000000E+01 0.  0.
    9000005    1    3    3    0    0  0.25693300666E+02  0.56650847948E+02  0.55570898000E+02  0.83418157357E+02  0.10000000000E+01 0.  0.
<mgrwt>
<rscale>  0 0.12499790E+03</rscale>
<asrwt>0</asrwt>
<pdfrwt beam="1">  1        4 0.23641652E-01 0.12499790E+03</pdfrwt>
<pdfrwt beam="2">  1       -4 0.39105776E-02 0.12499790E+03</pdfrwt>
<totfact> 0.93785568E+03</totfact>
</mgrwt>
</event>
<event>
 5    1  0.3293542E-002  0.1249932E+03  0.7818608E-02  0.1235080E+00
          4   -1    0    0  501    0  0.00000000000E+00  0.00000000000E+00  0.84561168794E+02  0.84570705139E+02  0.12700000000E+01 0.  1.
         -4   -1    0    0    0  501 -0.00000000000E+00 -0.00000000000E+00 -0.46168449409E+02  0.46185913662E+02  0.12700000000E+01 0.  1.
         25    2    1    2    0    0  0.00000000000E+00  0.00000000000E+00  0.38392719385E+02  0.13075661880E+03  0.12499316965E+03 0.  0.
    9000005    1    3    3    0    0 -0.18009332607E+02 -0.49886768441E+02  0.53762304010E+02  0.75527551654E+02  0.10000000000E+01 0.  0.
    9000005    1    3    3    0    0  0.18009332607E+02  0.49886768441E+02 -0.15369584625E+02  0.55229067147E+02  0.10000000000E+01 0.  0.
<mgrwt>
<rscale>  0 0.12499317E+03</rscale>
<asrwt>0</asrwt>
<pdfrwt beam="1">  1        4 0.13011487E-01 0.12499317E+03</pdfrwt>
<pdfrwt beam="2">  1       -4 0.71049155E-02 0.12499317E+03</pdfrwt>
<totfact> 0.10329902E+04</totfact>
</mgrwt>
</event>
<event>
 5    1  0.3293542E-002  0.1249986E+03  0.7818608E-02  0.1235072E+00
         -4   -1    0    0    0  501 -0.00000000000E+00  0.00000000000E+00  0.17587831212E+03  0.17588289734E+03  0.12700000000E+01 0.  1.
          4   -1    0    0  501    0  0.00000000000E+00 -0.00000000000E+00 -0.22186414067E+02  0.22222733162E+02  0.12700000000E+01 0.  1.
         25    2    1    2    0    0  0.00000000000E+00  0.00000000000E+00  0.15369189806E+03  0.19810563050E+03  0.12499856522E+03 0.  0.
    9000005    1    3    3    0    0  0.58578301886E+02 -0.82717210884E+01  0.10875336355E+03  0.12380683707E+03  0.10000000000E+01 0.  0.
    9000005    1    3    3    0    0 -0.58578301886E+02  0.82717210884E+01  0.44938534509E+02  0.74298793431E+02  0.10000000000E+01 0.  0.
<mgrwt>
<rscale>  0 0.12499857E+03</rscale>
<asrwt>0</asrwt>
<pdfrwt beam="2">  1        4 0.34164410E-02 0.12499857E+03</pdfrwt>
<pdfrwt beam="1">  1       -4 0.27061348E-01 0.12499857E+03</pdfrwt>
<totfact> 0.90458680E+03</totfact>
</mgrwt>
</event>
<event>
 5    1  0.3293542E-002  0.1250016E+03  0.7818608E-02  0.1235067E+00
         -4   -1    0    0    0  501 -0.00000000000E+00  0.00000000000E+00  0.12347639263E+04  0.12347645794E+04  0.12700000000E+01 0. -1.
          4   -1    0    0  501    0  0.00000000000E+00 -0.00000000000E+00 -0.30355035411E+01  0.32904683175E+01  0.12700000000E+01 0. -1.
         25    2    1    2    0    0  0.00000000000E+00  0.00000000000E+00  0.12317284228E+04  0.12380550477E+04  0.12500157518E+03 0.  0.
    9000005    1    3    3    0    0 -0.58705438806E+02  0.19849231084E+02  0.69573250986E+03  0.69848768478E+03  0.10000000000E+01 0.  0.
    9000005    1    3    3    0    0  0.58705438806E+02 -0.19849231084E+02  0.53599591290E+03  0.53956736296E+03  0.10000000000E+01 0.  0.
<mgrwt>
<rscale>  0 0.12500158E+03</rscale>
<asrwt>0</asrwt>
<pdfrwt beam="2">  1        4 0.48666341E-03 0.12500158E+03</pdfrwt>
<pdfrwt beam="1">  1       -4 0.18998336E+00 0.12500158E+03</pdfrwt>
<totfact> 0.23737005E+03</totfact>
</mgrwt>
</event>
<event>
 5    1  0.3293542E-002  0.1249988E+03  0.7818608E-02  0.1235071E+00
          4   -1    0    0  501    0  0.00000000000E+00  0.00000000000E+00  0.64133284608E+03  0.64133410353E+03  0.12700000000E+01 0.  1.
         -4   -1    0    0    0  501 -0.00000000000E+00 -0.00000000000E+00 -0.60232291405E+01  0.61556631876E+01  0.12700000000E+01 0.  1.
         25    2    1    2    0    0  0.00000000000E+00  0.00000000000E+00  0.63530961694E+03  0.64748976672E+03  0.12499875455E+03 0.  0.
    9000005    1    3    3    0    0 -0.29428166994E+02  0.17960977040E+02  0.47671602518E+02  0.58840423141E+02  0.10000000000E+01 0.  0.
    9000005    1    3    3    0    0  0.29428166994E+02 -0.17960977040E+02  0.58763801442E+03  0.58864934358E+03  0.10000000000E+01 0.  0.
<mgrwt>
<rscale>  0 0.12499875E+03</rscale>
<asrwt>0</asrwt>
<pdfrwt beam="1">  1        4 0.98676855E-01 0.12499875E+03</pdfrwt>
<pdfrwt beam="2">  1       -4 0.93693480E-03 0.12499875E+03</pdfrwt>
<totfact> 0.46001984E+03</totfact>
</mgrwt>
</event>
<event>
 5    1  0.3293542E-002  0.1250030E+03  0.7818608E-02  0.1235065E+00
          4   -1    0    0  501    0  0.00000000000E+00  0.00000000000E+00  0.45535146805E+03  0.45535323910E+03  0.12700000000E+01 0.  1.
         -4   -1    0    0    0  501 -0.00000000000E+00 -0.00000000000E+00 -0.85301527529E+01  0.86241756700E+01  0.12700000000E+01 0.  1.
         25    2    1    2    0    0  0.00000000000E+00  0.00000000000E+00  0.44682131530E+03  0.46397741477E+03  0.12500301440E+03 0.  0.
    9000005    1    3    3    0    0 -0.17499950714E+02  0.22714771527E+02  0.17310053101E+02  0.33508910142E+02  0.10000000000E+01 0.  0.
    9000005    1    3    3    0    0  0.17499950714E+02 -0.22714771527E+02  0.42951126220E+03  0.43046850462E+03  0.10000000000E+01 0.  0.
<mgrwt>
<rscale>  0 0.12500301E+03</rscale>
<asrwt>0</asrwt>
<pdfrwt beam="1">  1        4 0.70061430E-01 0.12500301E+03</pdfrwt>
<pdfrwt beam="2">  1       -4 0.13197002E-02 0.12500301E+03</pdfrwt>
<totfact> 0.58767876E+03</totfact>
</mgrwt>
</event>
<event>
 5    1  0.3293542E-002  0.1249902E+03  0.7818608E-02  0.1235085E+00
          4   -1    0    0  501    0  0.00000000000E+00  0.00000000000E+00  0.54659187098E+01  0.56115209473E+01  0.12700000000E+01 0.  1.
         -4   -1    0    0    0  501 -0.00000000000E+00 -0.00000000000E+00 -0.70500558957E+03  0.70500673346E+03  0.12700000000E+01 0.  1.
         25    2    1    2    0    0  0.00000000000E+00  0.00000000000E+00 -0.69953967086E+03  0.71061825441E+03  0.12499020918E+03 0.  0.
    9000005    1    3    3    0    0 -0.45944719737E+02 -0.47527022999E+01 -0.11050112507E+03  0.11977063118E+03  0.10000000000E+01 0.  0.
    9000005    1    3    3    0    0  0.45944719737E+02  0.47527022999E+01 -0.58903854579E+03  0.59084762323E+03  0.10000000000E+01 0.  0.
<mgrwt>
<rscale>  0 0.12499021E+03</rscale>
<asrwt>0</asrwt>
<pdfrwt beam="1">  1        4 0.85219929E-03 0.12499021E+03</pdfrwt>
<pdfrwt beam="2">  1       -4 0.10847362E+00 0.12499021E+03</pdfrwt>
<totfact> 0.42541205E+03</totfact>
</mgrwt>
</event>
<event>
 4    1  0.3293542E-002  0.1250804E+03  0.7818608E-02  0.1234944E+00
         -4   -1    0    0    0  501 -0.00000000000E+00  0.00000000000E+00  0.17259659669E+02  0.17306321154E+02  0.12700000000E+01 0.  1.
          4   -1    0    0  501    0  0.00000000000E+00 -0.00000000000E+00 -0.22625939126E+03  0.22626295550E+03  0.12700000000E+01 0.  1.
    9000005    1    1    2    0    0  0.22276100810E+02  0.54601081392E+02 -0.63989742830E+02  0.87024076805E+02  0.10000000000E+01 0.  0.
    9000005    1    1    2    0    0 -0.22276100810E+02 -0.54601081392E+02 -0.14500998876E+03  0.15654519985E+03  0.10000000000E+01 0.  0.
<mgrwt>
<rscale>  0 0.12508039E+03</rscale>
<asrwt>0</asrwt>
<pdfrwt beam="2">  1        4 0.34812999E-01 0.12508039E+03</pdfrwt>
<pdfrwt beam="1">  1       -4 0.26591959E-02 0.12508039E+03</pdfrwt>
<totfact> 0.83119622E+03</totfact>
</mgrwt>
</event>
<event>
 5    1  0.3293542E-002  0.1250115E+03  0.7818608E-02  0.1235051E+00
          4   -1    0    0  501    0  0.00000000000E+00  0.00000000000E+00  0.88682594955E+03  0.88682685891E+03  0.12700000000E+01 0. -1.
         -4   -1    0    0    0  501 -0.00000000000E+00 -0.00000000000E+00 -0.43131052279E+01  0.44961958038E+01  0.12700000000E+01 0. -1.
         25    2    1    2    0    0  0.00000000000E+00  0.00000000000E+00  0.88251284432E+03  0.89132305472E+03  0.12501146940E+03 0.  0.
    9000005    1    3    3    0    0  0.66471957898E+01  0.61663769429E+02  0.49618983863E+03  0.50005195893E+03  0.10000000000E+01 0.  0.
    9000005    1    3    3    0    0 -0.66471957898E+01 -0.61663769429E+02  0.38632300569E+03  0.39127109578E+03  0.10000000000E+01 0.  0.
<mgrwt>
<rscale>  0 0.12501147E+03</rscale>
<asrwt>0</asrwt>
<pdfrwt beam="1">  1        4 0.13644890E+00 0.12501147E+03</pdfrwt>
<pdfrwt beam="2">  1       -4 0.67770859E-03 0.12501147E+03</pdfrwt>
<totfact> 0.34484685E+03</totfact>
</mgrwt>
</event>
<event>
 5    1  0.3293542E-002  0.1250000E+03  0.7818608E-02  0.1235069E+00
         -4   -1    0    0    0  501 -0.00000000000E+00  0.00000000000E+00  0.28877509132E+03  0.28877788396E+03  0.12700000000E+01 0.  1.
          4   -1    0    0  501    0  0.00000000000E+00 -0.00000000000E+00 -0.13494283898E+02  0.13553914487E+02  0.12700000000E+01 0.  1.
         25    2    1    2    0    0  0.00000000000E+00  0.00000000000E+00  0.27528080742E+03  0.30233179845E+03  0.12499997368E+03 0.  0.
    9000005    1    3    3    0    0 -0.23850135100E-01  0.38203045501E+02  0.18026361908E+02  0.42254265797E+02  0.10000000000E+01 0.  0.
    9000005    1    3    3    0    0  0.23850135100E-01 -0.38203045501E+02  0.25725444551E+03  0.26007753265E+03  0.10000000000E+01 0.  0.
<mgrwt>
<rscale>  0 0.12499997E+03</rscale>
<asrwt>0</asrwt>
<pdfrwt beam="2">  1        4 0.20808456E-02 0.12499997E+03</pdfrwt>
<pdfrwt beam="1">  1       -4 0.44431737E-01 0.12499997E+03</pdfrwt>
<totfact> 0.75307314E+03</totfact>
</mgrwt>
</event>
<event>
 5    1  0.3293542E-002  0.1250034E+03  0.7818608E-02  0.1235064E+00
         -4   -1    0    0    0  501 -0.00000000000E+00  0.00000000000E+00  0.21372632171E+03  0.21373009496E+03  0.12700000000E+01 0. -1.
          4   -1    0    0  501    0  0.00000000000E+00 -0.00000000000E+00 -0.18251886315E+02  0.18296017437E+02  0.12700000000E+01 0. -1.
         25    2    1    2    0    0  0.00000000000E+00  0.00000000000E+00  0.19547443539E+03  0.23202611239E+03  0.12500344772E+03 0.  0.
    9000005    1    3    3    0    0  0.41986720738E+02 -0.38113643469E+02  0.14649205207E+03  0.15708741470E+03  0.10000000000E+01 0.  0.
    9000005    1    3    3    0    0 -0.41986720738E+02  0.38113643469E+02  0.48982383324E+02  0.74938697699E+02  0.10000000000E+01 0.  0.
<mgrwt>
<rscale>  0 0.12500345E+03</rscale>
<asrwt>0</asrwt>
<pdfrwt beam="2">  1        4 0.28116673E-02 0.12500345E+03</pdfrwt>
<pdfrwt beam="1">  1       -4 0.32884659E-01 0.12500345E+03</pdfrwt>
<totfact> 0.84992914E+03</totfact>
</mgrwt>
</event>
<event>
 5    1  0.3293542E-002  0.1249982E+03  0.7818608E-02  0.1235072E+00
          4   -1    0    0  501    0  0.00000000000E+00  0.00000000000E+00  0.88762018484E+01  0.89665968602E+01  0.12700000000E+01 0.  1.
         -4   -1    0    0    0  501 -0.00000000000E+00 -0.00000000000E+00 -0.43774791125E+03  0.43774975352E+03  0.12700000000E+01 0.  1.
         25    2    1    2    0    0  0.00000000000E+00  0.00000000000E+00 -0.42887170940E+03  0.44671635038E+03  0.12499821826E+03 0.  0.
    9000005    1    3    3    0    0 -0.32659940830E+02 -0.37965613345E+01 -0.40435312070E+03  0.40568895947E+03  0.10000000000E+01 0.  0.
    9000005    1    3    3    0    0  0.32659940830E+02  0.37965613345E+01 -0.24518588702E+02  0.41027390911E+02  0.10000000000E+01 0.  0.
<mgrwt>
<rscale>  0 0.12499822E+03</rscale>
<asrwt>0</asrwt>
<pdfrwt beam="1">  1        4 0.13726650E-02 0.12499822E+03</pdfrwt>
<pdfrwt beam="2">  1       -4 0.67352911E-01 0.12499822E+03</pdfrwt>
<totfact> 0.60251689E+03</totfact>
</mgrwt>
</event>
<event>
 5    1  0.3293542E-002  0.1250061E+03  0.7818608E-02  0.1235060E+00
          4   -1    0    0  501    0  0.00000000000E+00  0.00000000000E+00  0.85936260834E+02  0.85945644602E+02  0.12700000000E+01 0.  1.
         -4   -1    0    0    0  501 -0.00000000000E+00 -0.00000000000E+00 -0.45438872246E+02  0.45456616801E+02  0.12700000000E+01 0.  1.
         25    2    1    2    0    0  0.00000000000E+00  0.00000000000E+00  0.40497388587E+02  0.13140226140E+03  0.12500606313E+03 0.  0.
    9000005    1    3    3    0    0  0.38835189100E+02 -0.59781308351E+01 -0.30835420558E+02  0.49957312995E+02  0.10000000000E+01 0.  0.
    9000005    1    3    3    0    0 -0.38835189100E+02  0.59781308351E+01  0.71332809145E+02  0.81444948408E+02  0.10000000000E+01 0.  0.
<mgrwt>
<rscale>  0 0.12500606E+03</rscale>
<asrwt>0</asrwt>
<pdfrwt beam="1">  1        4 0.13223050E-01 0.12500606E+03</pdfrwt>
<pdfrwt beam="2">  1       -4 0.69926826E-02 0.12500606E+03</pdfrwt>
<totfact> 0.10313063E+04</totfact>
</mgrwt>
</event>
<event>
 5    1  0.3293542E-002  0.1249992E+03  0.7818608E-02  0.1235071E+00
          4   -1    0    0  501    0  0.00000000000E+00  0.00000000000E+00  0.13674457322E+04  0.13674463219E+04  0.12700000000E+01 0. -1.
         -4   -1    0    0    0  501 -0.00000000000E+00 -0.00000000000E+00 -0.27147889371E+01  0.29971618196E+01  0.12700000000E+01 0. -1.
         25    2    1    2    0    0  0.00000000000E+00  0.00000000000E+00  0.13647309433E+04  0.13704434838E+04  0.12499917882E+03 0.  0.
    9000005    1    3    3    0    0 -0.41512796020E+02 -0.36584642694E+02  0.36395764477E+03  0.36814116247E+03  0.10000000000E+01 0.  0.
    9000005    1    3    3    0    0  0.41512796020E+02  0.36584642694E+02  0.10007732985E+04  0.10023023213E+04  0.10000000000E+01 0.  0.
<mgrwt>
<rscale>  0 0.12499918E+03</rscale>
<asrwt>0</asrwt>
<pdfrwt beam="1">  1        4 0.21039862E+00 0.12499918E+03</pdfrwt>
<pdfrwt beam="2">  1       -4 0.43942497E-03 0.12499918E+03</pdfrwt>
<totfact> 0.20624471E+03</totfact>
</mgrwt>
</event>
<event>
 5    1  0.3293542E-002  0.1250023E+03  0.7818608E-02  0.1235066E+00
          4   -1    0    0  501    0  0.00000000000E+00  0.00000000000E+00  0.15766446890E+03  0.15766958379E+03  0.12700000000E+01 0. -1.
         -4   -1    0    0    0  501 -0.00000000000E+00 -0.00000000000E+00 -0.24754843559E+02  0.24787399614E+02  0.12700000000E+01 0. -1.
         25    2    1    2    0    0  0.00000000000E+00  0.00000000000E+00  0.13290962534E+03  0.18245698340E+03  0.12500232912E+03 0.  0.
    9000005    1    3    3    0    0  0.48352886699E+02  0.34209345679E+02  0.37367720604E+02  0.70040185087E+02  0.10000000000E+01 0.  0.
    9000005    1    3    3    0    0 -0.48352886699E+02 -0.34209345679E+02  0.95541904733E+02  0.11241679832E+03  0.10000000000E+01 0.  0.
<mgrwt>
<rscale>  0 0.12500233E+03</rscale>
<asrwt>0</asrwt>
<pdfrwt beam="1">  1        4 0.24258970E-01 0.12500233E+03</pdfrwt>
<pdfrwt beam="2">  1       -4 0.38113352E-02 0.12500233E+03</pdfrwt>
<totfact> 0.93171733E+03</totfact>
</mgrwt>
</event>
<event>
 5    1  0.3293542E-002  0.1249965E+03  0.7818608E-02  0.1235075E+00
         -4   -1    0    0    0  501 -0.00000000000E+00  0.00000000000E+00  0.62690001735E+02  0.62702864508E+02  0.12700000000E+01 0.  1.
          4   -1    0    0  501    0  0.00000000000E+00 -0.00000000000E+00 -0.62281397966E+02  0.62294345109E+02  0.12700000000E+01 0.  1.
         25    2    1    2    0    0  0.00000000000E+00  0.00000000000E+00  0.40860376914E+00  0.12499720962E+03  0.12499654177E+03 0.  0.
    9000005    1    3    3    0    0 -0.52382379623E+02  0.55053863789E+01 -0.33423409505E+02  0.62388679078E+02  0.10000000000E+01 0.  0.
    9000005    1    3    3    0    0  0.52382379623E+02 -0.55053863789E+01  0.33832013274E+02  0.62608530539E+02  0.10000000000E+01 0.  0.
<mgrwt>
<rscale>  0 0.12499654E+03</rscale>
<asrwt>0</asrwt>
<pdfrwt beam="2">  1        4 0.95837389E-02 0.12499654E+03</pdfrwt>
<pdfrwt beam="1">  1       -4 0.96466010E-02 0.12499654E+03</pdfrwt>
<totfact> 0.10453740E+04</totfact>
</mgrwt>
</event>
<event>
 5    1  0.3293542E-002  0.1249985E+03  0.7818608E-02  0.1235072E+00
         -4   -1    0    0    0  501 -0.00000000000E+00  0.00000000000E+00  0.20199496662E+01  0.23860210925E+01  0.12700000000E+01 0.  1.
          4   -1    0    0  501    0  0.00000000000E+00 -0.00000000000E+00 -0.17727521933E+04  0.17727526482E+04  0.12700000000E+01 0.  1.
         25    2    1    2    0    0  0.00000000000E+00  0.00000000000E+00 -0.17707322436E+04  0.17751386693E+04  0.12499846648E+03 0.  0.
    9000005    1    3    3    0    0  0.43771299337E+02  0.44522466256E+02 -0.84785346831E+03  0.85014979879E+03  0.10000000000E+01 0.  0.
    9000005    1    3    3    0    0 -0.43771299337E+02 -0.44522466256E+02 -0.92287877528E+03  0.92498887048E+03  0.10000000000E+01 0.  0.
<mgrwt>
<rscale>  0 0.12499847E+03</rscale>
<asrwt>0</asrwt>
<pdfrwt beam="2">  1        4 0.27275816E+00 0.12499847E+03</pdfrwt>
<pdfrwt beam="1">  1       -4 0.33895724E-03 0.12499847E+03</pdfrwt>
<totfact> 0.13090990E+03</totfact>
</mgrwt>
</event>
<event>
 5    1  0.3293542E-002  0.1249952E+03  0.7818608E-02  0.1235077E+00
          4   -1    0    0  501    0  0.00000000000E+00  0.00000000000E+00  0.12228544414E+03  0.12229203878E+03  0.12700000000E+01 0. -1.
         -4   -1    0    0    0  501 -0.00000000000E+00 -0.00000000000E+00 -0.31921182957E+02  0.31946436756E+02  0.12700000000E+01 0. -1.
         25    2    1    2    0    0  0.00000000000E+00  0.00000000000E+00  0.90364261183E+02  0.15423847553E+03  0.12499523045E+03 0.  0.
    9000005    1    3    3    0    0 -0.19835022383E+02 -0.29365598140E+02 -0.18329821656E+02  0.39909257435E+02  0.10000000000E+01 0.  0.
    9000005    1    3    3    0    0  0.19835022383E+02  0.29365598140E+02  0.10869408284E+03  0.11432921810E+03  0.10000000000E+01 0.  0.
<mgrwt>
<rscale>  0 0.12499523E+03</rscale>
<asrwt>0</asrwt>
<pdfrwt beam="1">  1        4 0.18815595E-01 0.12499523E+03</pdfrwt>
<pdfrwt beam="2">  1       -4 0.49134012E-02 0.12499523E+03</pdfrwt>
<totfact> 0.98475767E+03</totfact>
</mgrwt>
</event>
<event>
 5    1  0.3293542E-002  0.1250005E+03  0.7818608E-02  0.1235069E+00
          4   -1    0    0  501    0  0.00000000000E+00  0.00000000000E+00  0.15206591294E+02  0.15259532063E+02  0.12700000000E+01 0. -1.
         -4   -1    0    0    0  501 -0.00000000000E+00 -0.00000000000E+00 -0.25637976118E+03  0.25638290669E+03  0.12700000000E+01 0. -1.
         25    2    1    2    0    0  0.00000000000E+00  0.00000000000E+00 -0.24117316989E+03  0.27164243875E+03  0.12500046664E+03 0.  0.
    9000005    1    3    3    0    0  0.90144789333E+01  0.40589097715E+02 -0.19202529274E+02  0.45809090956E+02  0.10000000000E+01 0.  0.
    9000005    1    3    3    0    0 -0.90144789333E+01 -0.40589097715E+02 -0.22197064061E+03  0.22583334780E+03  0.10000000000E+01 0.  0.
<mgrwt>
<rscale>  0 0.12500047E+03</rscale>
<asrwt>0</asrwt>
<pdfrwt beam="1">  1        4 0.23437901E-02 0.12500047E+03</pdfrwt>
<pdfrwt beam="2">  1       -4 0.39447351E-01 0.12500047E+03</pdfrwt>
<totfact> 0.79298648E+03</totfact>
</mgrwt>
</event>
<event>
 5    1  0.3293542E-002  0.1249962E+03  0.7818608E-02  0.1235075E+00
          4   -1    0    0  501    0  0.00000000000E+00  0.00000000000E+00  0.34352026488E+02  0.34375494525E+02  0.12700000000E+01 0.  1.
         -4   -1    0    0    0  501 -0.00000000000E+00 -0.00000000000E+00 -0.11363956233E+03  0.11364665867E+03  0.12700000000E+01 0.  1.
         25    2    1    2    0    0  0.00000000000E+00  0.00000000000E+00 -0.79287535842E+02  0.14802215319E+03  0.12499617793E+03 0.  0.
    9000005    1    3    3    0    0  0.25069050193E+02 -0.50200079213E+02 -0.72215146594E+02  0.91457818847E+02  0.10000000000E+01 0.  0.
    9000005    1    3    3    0    0 -0.25069050193E+02  0.50200079213E+02 -0.70723892480E+01  0.56564334348E+02  0.10000000000E+01 0.  0.
<mgrwt>
<rscale>  0 0.12499618E+03</rscale>
<asrwt>0</asrwt>
<pdfrwt beam="1">  1        4 0.52872783E-02 0.12499618E+03</pdfrwt>
<pdfrwt beam="2">  1       -4 0.17485361E-01 0.12499618E+03</pdfrwt>
<totfact> 0.99708001E+03</totfact>
</mgrwt>
</event>
<event>
 5    1  0.3293542E-002  0.1249978E+03  0.7818608E-02  0.1235073E+00
          4   -1    0    0  501    0  0.00000000000E+00  0.00000000000E+00  0.27469846843E+02  0.27499188816E+02  0.12700000000E+01 0.  1.
         -4   -1    0    0    0  501 -0.00000000000E+00 -0.00000000000E+00 -0.14208817752E+03  0.14209385311E+03  0.12700000000E+01 0.  1.
         25    2    1    2    0    0  0.00000000000E+00  0.00000000000E+00 -0.11461833068E+03  0.16959304192E+03  0.12499775255E+03 0.  0.
    9000005    1    3    3    0    0 -0.20372970317E+02 -0.53994695293E+02 -0.24785619083E+02  0.62815698298E+02  0.10000000000E+01 0.  0.
    9000005    1    3    3    0    0  0.20372970317E+02  0.53994695293E+02 -0.89832711592E+02  0.10677734362E+03  0.10000000000E+01 0.  0.
<mgrwt>
<rscale>  0 0.12499775E+03</rscale>
<asrwt>0</asrwt>
<pdfrwt beam="1">  1        4 0.42288240E-02 0.12499775E+03</pdfrwt>
<pdfrwt beam="2">  1       -4 0.21862413E-01 0.12499775E+03</pdfrwt>
<totfact> 0.95529362E+03</totfact>
</mgrwt>
</event>
<event>
 5    1  0.3293542E-002  0.1250025E+03  0.7818608E-02  0.1235065E+00
          4   -1    0    0  501    0  0.00000000000E+00  0.00000000000E+00  0.27432001111E+03  0.27432295090E+03  0.12700000000E+01 0. -1.
         -4   -1    0    0    0  501 -0.00000000000E+00 -0.00000000000E+00 -0.14208984922E+02  0.14265628360E+02  0.12700000000E+01 0. -1.
         25    2    1    2    0    0  0.00000000000E+00  0.00000000000E+00  0.26011102618E+03  0.28858857926E+03  0.12500248853E+03 0.  0.
    9000005    1    3    3    0    0 -0.96246203278E+00 -0.55957429961E+01 -0.13623582264E+02  0.14793264229E+02  0.10000000000E+01 0.  0.
    9000005    1    3    3    0    0  0.96246203278E+00  0.55957429961E+01  0.27373460845E+03  0.27379531503E+03  0.10000000000E+01 0.  0.
<mgrwt>
<rscale>  0 0.12500249E+03</rscale>
<asrwt>0</asrwt>
<pdfrwt beam="1">  1        4 0.42207666E-01 0.12500249E+03</pdfrwt>
<pdfrwt beam="2">  1       -4 0.21905808E-02 0.12500249E+03</pdfrwt>
<totfact> 0.77048667E+03</totfact>
</mgrwt>
</event>
<event>
 5    1  0.3293542E-002  0.1250220E+03  0.7818608E-02  0.1235035E+00
          4   -1    0    0  501    0  0.00000000000E+00  0.00000000000E+00  0.98386279668E+02  0.98394476099E+02  0.12700000000E+01 0. -1.
         -4   -1    0    0    0  501 -0.00000000000E+00 -0.00000000000E+00 -0.39697150427E+02  0.39717460292E+02  0.12700000000E+01 0. -1.
         25    2    1    2    0    0  0.00000000000E+00  0.00000000000E+00  0.58689129240E+02  0.13811193639E+03  0.12502197040E+03 0.  0.
    9000005    1    3    3    0    0 -0.58786645232E+02 -0.81037933846E+01  0.76664470830E+01  0.59844093574E+02  0.10000000000E+01 0.  0.
    9000005    1    3    3    0    0  0.58786645232E+02  0.81037933846E+01  0.51022682157E+02  0.78267842818E+02  0.10000000000E+01 0.  0.
<mgrwt>
<rscale>  0 0.12502197E+03</rscale>
<asrwt>0</asrwt>
<pdfrwt beam="1">  1        4 0.15138543E-01 0.12502197E+03</pdfrwt>
<pdfrwt beam="2">  1       -4 0.61094467E-02 0.12502197E+03</pdfrwt>
<totfact> 0.10167833E+04</totfact>
</mgrwt>
</event>
<event>
 5    1  0.3293542E-002  0.1249958E+03  0.7818608E-02  0.1235076E+00
          4   -1    0    0  501    0  0.00000000000E+00  0.00000000000E+00  0.51443610008E+02  0.51459284008E+02  0.12700000000E+01 0. -1.
         -4   -1    0    0    0  501 -0.00000000000E+00 -0.00000000000E+00 -0.75895044999E+02  0.75905670114E+02  0.12700000000E+01 0. -1.
         25    2    1    2    0    0  0.00000000000E+00  0.00000000000E+00 -0.24451434991E+02  0.12736495412E+03  0.12499583539E+03 0.  0.
    9000005    1    3    3    0    0  0.24976553544E+02 -0.43980047922E+02  0.25170252009E+02  0.56503224938E+02  0.10000000000E+01 0.  0.
    9000005    1    3    3    0    0 -0.24976553544E+02  0.43980047922E+02 -0.49621687001E+02  0.70861729184E+02  0.10000000000E+01 0.  0.
<mgrwt>
<rscale>  0 0.12499584E+03</rscale>
<asrwt>0</asrwt>
<pdfrwt beam="1">  1        4 0.79164246E-02 0.12499584E+03</pdfrwt>
<pdfrwt beam="2">  1       -4 0.11678184E-01 0.12499584E+03</pdfrwt>
<totfact> 0.10402204E+04</totfact>
</mgrwt>
</event>
<event>
 5    1  0.3293542E-002  0.1250008E+03  0.7818608E-02  0.1235068E+00
         -4   -1    0    0    0  501 -0.00000000000E+00  0.00000000000E+00  0.89730212739E+01  0.90624505947E+01  0.12700000000E+01 0.  1.
          4   -1    0    0  501    0  0.00000000000E+00 -0.00000000000E+00 -0.43308952614E+03  0.43309138822E+03  0.12700000000E+01 0.  1.
         25    2    1    2    0    0  0.00000000000E+00  0.00000000000E+00 -0.42411650486E+03  0.44215383881E+03  0.12500082992E+03 0.  0.
    9000005    1    3    3    0    0 -0.47711619336E+02 -0.32993933594E+02 -0.12983788132E+03  0.14221066662E+03  0.10000000000E+01 0.  0.
    9000005    1    3    3    0    0  0.47711619336E+02  0.32993933594E+02 -0.29427862354E+03  0.29994317219E+03  0.10000000000E+01 0.  0.
<mgrwt>
<rscale>  0 0.12500083E+03</rscale>
<asrwt>0</asrwt>
<pdfrwt beam="2">  1        4 0.66636164E-01 0.12500083E+03</pdfrwt>
<pdfrwt beam="1">  1       -4 0.13874876E-02 0.12500083E+03</pdfrwt>
<totfact> 0.60648459E+03</totfact>
</mgrwt>
</event>
<event>
 5    1  0.3293542E-002  0.1249998E+03  0.7818608E-02  0.1235070E+00
         -4   -1    0    0    0  501 -0.00000000000E+00  0.00000000000E+00  0.61314511351E+02  0.61327662618E+02  0.12700000000E+01 0.  1.
          4   -1    0    0  501    0  0.00000000000E+00 -0.00000000000E+00 -0.63681856436E+02  0.63694518909E+02  0.12700000000E+01 0.  1.
         25    2    1    2    0    0  0.00000000000E+00  0.00000000000E+00 -0.23673450847E+01  0.12502218153E+03  0.12499976620E+03 0.  0.
    9000005    1    3    3    0    0 -0.20654340031E+02 -0.10923329725E+02 -0.59153659653E+02  0.63608775689E+02  0.10000000000E+01 0.  0.
    9000005    1    3    3    0    0  0.20654340031E+02  0.10923329725E+02  0.56786314568E+02  0.61413405838E+02  0.10000000000E+01 0.  0.
<mgrwt>
<rscale>  0 0.12499977E+03</rscale>
<asrwt>0</asrwt>
<pdfrwt beam="2">  1        4 0.97991943E-02 0.12499977E+03</pdfrwt>
<pdfrwt beam="1">  1       -4 0.94349875E-02 0.12499977E+03</pdfrwt>
<totfact> 0.10452436E+04</totfact>
</mgrwt>
</event>
<event>
 5    1  0.3293542E-002  0.1250005E+03  0.7818608E-02  0.1235068E+00
         -4   -1    0    0    0  501 -0.00000000000E+00  0.00000000000E+00  0.16901176518E+03  0.16901653668E+03  0.12700000000E+01 0. -1.
          4   -1    0    0  501    0  0.00000000000E+00 -0.00000000000E+00 -0.23089934450E+02  0.23124834549E+02  0.12700000000E+01 0. -1.
         25    2    1    2    0    0  0.00000000000E+00  0.00000000000E+00  0.14592183073E+03  0.19214137122E+03  0.12500050341E+03 0.  0.
    9000005    1    3    3    0    0  0.27379883619E+02 -0.53384287614E+02  0.99838247475E+02  0.11648268476E+03  0.10000000000E+01 0.  0.
    9000005    1    3    3    0    0 -0.27379883619E+02  0.53384287614E+02  0.46083583256E+02  0.75658686459E+02  0.10000000000E+01 0.  0.
<mgrwt>
<rscale>  0 0.12500050E+03</rscale>
<asrwt>0</asrwt>
<pdfrwt beam="2">  1        4 0.35553493E-02 0.12500050E+03</pdfrwt>
<pdfrwt beam="1">  1       -4 0.26004862E-01 0.12500050E+03</pdfrwt>
<totfact> 0.91475021E+03</totfact>
</mgrwt>
</event>
<event>
 5    1  0.3293542E-002  0.1249907E+03  0.7818608E-02  0.1235084E+00
         -4   -1    0    0    0  501 -0.00000000000E+00  0.00000000000E+00  0.77561364788E+02  0.77571761665E+02  0.12700000000E+01 0. -1.
          4   -1    0    0  501    0  0.00000000000E+00 -0.00000000000E+00 -0.50334044014E+02  0.50350063424E+02  0.12700000000E+01 0. -1.
         25    2    1    2    0    0  0.00000000000E+00  0.00000000000E+00  0.27227320774E+02  0.12792182509E+03  0.12499066500E+03 0.  0.
    9000005    1    3    3    0    0 -0.38018926391E+02  0.47099087282E+02  0.29498721557E+02  0.67341943543E+02  0.10000000000E+01 0.  0.
    9000005    1    3    3    0    0  0.38018926391E+02 -0.47099087282E+02 -0.22714007828E+01  0.60579881546E+02  0.10000000000E+01 0.  0.
<mgrwt>
<rscale>  0 0.12499067E+03</rscale>
<asrwt>0</asrwt>
<pdfrwt beam="2">  1        4 0.77457312E-02 0.12499067E+03</pdfrwt>
<pdfrwt beam="1">  1       -4 0.11934550E-01 0.12499067E+03</pdfrwt>
<totfact> 0.10391366E+04</totfact>
</mgrwt>
</event>
<event>
 5    1  0.3293542E-002  0.1250405E+03  0.7818608E-02  0.1235006E+00
          4   -1    0    0  501    0  0.00000000000E+00  0.00000000000E+00  0.15694064341E+02  0.15745366161E+02  0.12700000000E+01 0.  1.
         -4   -1    0    0    0  501 -0.00000000000E+00 -0.00000000000E+00 -0.24860168256E+03  0.24860492648E+03  0.12700000000E+01 0.  1.
         25    2    1    2    0    0  0.00000000000E+00  0.00000000000E+00 -0.23290761822E+03  0.26435029264E+03  0.12504046783E+03 0.  0.
    9000005    1    3    3    0    0  0.23383912986E+02 -0.56967372642E+02 -0.93714437366E+02  0.11214046862E+03  0.10000000000E+01 0.  0.
    9000005    1    3    3    0    0 -0.23383912986E+02  0.56967372642E+02 -0.13919318085E+03  0.15220982402E+03  0.10000000000E+01 0.  0.
<mgrwt>
<rscale>  0 0.12504047E+03</rscale>
<asrwt>0</asrwt>
<pdfrwt beam="1">  1        4 0.24186675E-02 0.12504047E+03</pdfrwt>
<pdfrwt beam="2">  1       -4 0.38250606E-01 0.12504047E+03</pdfrwt>
<totfact> 0.80227142E+03</totfact>
</mgrwt>
</event>
<event>
 5    1  0.3293542E-002  0.1249999E+03  0.7818608E-02  0.1235069E+00
          4   -1    0    0  501    0  0.00000000000E+00  0.00000000000E+00  0.16781393059E+02  0.16829380648E+02  0.12700000000E+01 0. -1.
         -4   -1    0    0    0  501 -0.00000000000E+00 -0.00000000000E+00 -0.23239036823E+03  0.23239383844E+03  0.12700000000E+01 0. -1.
         25    2    1    2    0    0  0.00000000000E+00  0.00000000000E+00 -0.21560897517E+03  0.24922321909E+03  0.12499993104E+03 0.  0.
    9000005    1    3    3    0    0 -0.13766145325E+02 -0.59456194499E+02 -0.81003077363E+02  0.10142506773E+03  0.10000000000E+01 0.  0.
    9000005    1    3    3    0    0  0.13766145325E+02  0.59456194499E+02 -0.13460589781E+03  0.14779815136E+03  0.10000000000E+01 0.  0.
<mgrwt>
<rscale>  0 0.12499993E+03</rscale>
<asrwt>0</asrwt>
<pdfrwt beam="1">  1        4 0.25857112E-02 0.12499993E+03</pdfrwt>
<pdfrwt beam="2">  1       -4 0.35756320E-01 0.12499993E+03</pdfrwt>
<totfact> 0.82442754E+03</totfact>
</mgrwt>
</event>
<event>
 5    1  0.3293542E-002  0.1249965E+03  0.7818608E-02  0.1235075E+00
          4   -1    0    0  501    0  0.00000000000E+00  0.00000000000E+00  0.12210483263E+03  0.12211143702E+03  0.12700000000E+01 0. -1.
         -4   -1    0    0    0  501 -0.00000000000E+00 -0.00000000000E+00 -0.31969080887E+02  0.31994296879E+02  0.12700000000E+01 0. -1.
         25    2    1    2    0    0  0.00000000000E+00  0.00000000000E+00  0.90135751743E+02  0.15410573390E+03  0.12499649387E+03 0.  0.
    9000005    1    3    3    0    0  0.15626071506E+02  0.58166545679E+01 -0.29182069566E+02  0.33624407285E+02  0.10000000000E+01 0.  0.
    9000005    1    3    3    0    0 -0.15626071506E+02 -0.58166545679E+01  0.11931782131E+03  0.12048132662E+03  0.10000000000E+01 0.  0.
<mgrwt>
<rscale>  0 0.12499649E+03</rscale>
<asrwt>0</asrwt>
<pdfrwt beam="1">  1        4 0.18787806E-01 0.12499649E+03</pdfrwt>
<pdfrwt beam="2">  1       -4 0.49207679E-02 0.12499649E+03</pdfrwt>
<totfact> 0.98499108E+03</totfact>
</mgrwt>
</event>
<event>
 5    1  0.3293542E-002  0.1249948E+03  0.7818608E-02  0.1235077E+00
         -4   -1    0    0    0  501 -0.00000000000E+00  0.00000000000E+00  0.55372139388E+03  0.55372285030E+03  0.12700000000E+01 0. -1.
          4   -1    0    0  501    0  0.00000000000E+00 -0.00000000000E+00 -0.69953111896E+01  0.71096609370E+01  0.12700000000E+01 0. -1.
         25    2    1    2    0    0  0.00000000000E+00  0.00000000000E+00  0.54672608269E+03  0.56083251123E+03  0.12499478454E+03 0.  0.
    9000005    1    3    3    0    0 -0.57977211562E+02  0.14591168717E+02  0.19177335640E+03  0.20087876814E+03  0.10000000000E+01 0.  0.
    9000005    1    3    3    0    0  0.57977211562E+02 -0.14591168717E+02  0.35495272629E+03  0.35995374309E+03  0.10000000000E+01 0.  0.
<mgrwt>
<rscale>  0 0.12499478E+03</rscale>
<asrwt>0</asrwt>
<pdfrwt beam="2">  1        4 0.10851092E-02 0.12499478E+03</pdfrwt>
<pdfrwt beam="1">  1       -4 0.85196865E-01 0.12499478E+03</pdfrwt>
<totfact> 0.51443011E+03</totfact>
</mgrwt>
</event>
<event>
 5    1  0.3293542E-002  0.1249934E+03  0.7818608E-02  0.1235080E+00
         -4   -1    0    0    0  501 -0.00000000000E+00  0.00000000000E+00  0.26278345338E+04  0.26278348407E+04  0.12700000000E+01 0.  1.
          4   -1    0    0  501    0  0.00000000000E+00 -0.00000000000E+00 -0.12146803224E+01  0.17573697066E+01  0.12700000000E+01 0.  1.
         25    2    1    2    0    0  0.00000000000E+00  0.00000000000E+00  0.26266198535E+04  0.26295922104E+04  0.12499335296E+03 0.  0.
    9000005    1    3    3    0    0 -0.28976042845E+02  0.55281142544E+02  0.12494338156E+04  0.12509921964E+04  0.10000000000E+01 0.  0.
    9000005    1    3    3    0    0  0.28976042845E+02 -0.55281142544E+02  0.13771860379E+04  0.13786000140E+04  0.10000000000E+01 0.  0.
<mgrwt>
<rscale>  0 0.12499335E+03</rscale>
<asrwt>0</asrwt>
<pdfrwt beam="2">  1        4 0.22864171E-03 0.12499335E+03</pdfrwt>
<pdfrwt beam="1">  1       -4 0.40432600E+00 0.12499335E+03</pdfrwt>
<totfact> 0.37298289E+02</totfact>
</mgrwt>
</event>
<event>
 5    1  0.3293542E-002  0.1250003E+03  0.7818608E-02  0.1235069E+00
         -4   -1    0    0    0  501 -0.00000000000E+00  0.00000000000E+00  0.69566680265E+02  0.69578271774E+02  0.12700000000E+01 0. -1.
          4   -1    0    0  501    0  0.00000000000E+00 -0.00000000000E+00 -0.56128004292E+02  0.56142370504E+02  0.12700000000E+01 0. -1.
         25    2    1    2    0    0  0.00000000000E+00  0.00000000000E+00  0.13438675972E+02  0.12572064228E+03  0.12500032753E+03 0.  0.
    9000005    1    3    3    0    0 -0.23259403991E+02  0.11146329819E+02  0.63968607691E+02  0.68979876140E+02  0.10000000000E+01 0.  0.
    9000005    1    3    3    0    0  0.23259403991E+02 -0.11146329819E+02 -0.50529931718E+02  0.56740766138E+02  0.10000000000E+01 0.  0.
<mgrwt>
<rscale>  0 0.12500033E+03</rscale>
<asrwt>0</asrwt>
<pdfrwt beam="2">  1        4 0.86370744E-02 0.12500033E+03</pdfrwt>
<pdfrwt beam="1">  1       -4 0.10704563E-01 0.12500033E+03</pdfrwt>
<totfact> 0.10437013E+04</totfact>
</mgrwt>
</event>
<event>
 5    1  0.3293542E-002  0.1250105E+03  0.7818608E-02  0.1235053E+00
          4   -1    0    0  501    0  0.00000000000E+00  0.00000000000E+00  0.14822725593E+03  0.14823269646E+03  0.12700000000E+01 0.  1.
         -4   -1    0    0    0  501 -0.00000000000E+00 -0.00000000000E+00 -0.26336326833E+02  0.26366930254E+02  0.12700000000E+01 0.  1.
         25    2    1    2    0    0  0.00000000000E+00  0.00000000000E+00  0.12189092910E+03  0.17459962672E+03  0.12501052377E+03 0.  0.
    9000005    1    3    3    0    0  0.82111045014E+01  0.61472195703E+02  0.71732919685E+02  0.94830716797E+02  0.10000000000E+01 0.  0.
    9000005    1    3    3    0    0 -0.82111045014E+01 -0.61472195703E+02  0.50158009415E+02  0.79768909922E+02  0.10000000000E+01 0.  0.
<mgrwt>
<rscale>  0 0.12501052E+03</rscale>
<asrwt>0</asrwt>
<pdfrwt beam="1">  1        4 0.22806965E-01 0.12501052E+03</pdfrwt>
<pdfrwt beam="2">  1       -4 0.40545153E-02 0.12501052E+03</pdfrwt>
<totfact> 0.94575889E+03</totfact>
</mgrwt>
</event>
<event>
 5    1  0.3293542E-002  0.1249681E+03  0.7818608E-02  0.1235119E+00
         -4   -1    0    0    0  501 -0.00000000000E+00  0.00000000000E+00  0.11572895731E+03  0.11573592554E+03  0.12700000000E+01 0.  1.
          4   -1    0    0  501    0  0.00000000000E+00 -0.00000000000E+00 -0.33716271099E+02  0.33740181339E+02  0.12700000000E+01 0.  1.
         25    2    1    2    0    0  0.00000000000E+00  0.00000000000E+00  0.82012686211E+02  0.14947610688E+03  0.12496809924E+03 0.  0.
    9000005    1    3    3    0    0 -0.42597017958E+02  0.39804296814E+02  0.14143833746E+02  0.59999466804E+02  0.10000000000E+01 0.  0.
    9000005    1    3    3    0    0  0.42597017958E+02 -0.39804296814E+02  0.67868852465E+02  0.89476640073E+02  0.10000000000E+01 0.  0.
<mgrwt>
<rscale>  0 0.12496810E+03</rscale>
<asrwt>0</asrwt>
<pdfrwt beam="2">  1        4 0.51894939E-02 0.12496810E+03</pdfrwt>
<pdfrwt beam="1">  1       -4 0.17806830E-01 0.12496810E+03</pdfrwt>
<totfact> 0.99479638E+03</totfact>
</mgrwt>
</event>
<event>
 5    1  0.3293542E-002  0.1249920E+03  0.7818608E-02  0.1235082E+00
         -4   -1    0    0    0  501 -0.00000000000E+00  0.00000000000E+00  0.33816864936E+02  0.33840704102E+02  0.12700000000E+01 0. -1.
          4   -1    0    0  501    0  0.00000000000E+00 -0.00000000000E+00 -0.11542914681E+03  0.11543613313E+03  0.12700000000E+01 0. -1.
         25    2    1    2    0    0  0.00000000000E+00  0.00000000000E+00 -0.81612281872E+02  0.14927683724E+03  0.12499203808E+03 0.  0.
    9000005    1    3    3    0    0  0.13759791040E+02  0.53350408842E+02 -0.55967471585E+01  0.55388821542E+02  0.10000000000E+01 0.  0.
    9000005    1    3    3    0    0 -0.13759791040E+02 -0.53350408842E+02 -0.76015534713E+02  0.93888015693E+02  0.10000000000E+01 0.  0.
<mgrwt>
<rscale>  0 0.12499204E+03</rscale>
<asrwt>0</asrwt>
<pdfrwt beam="2">  1        4 0.17760701E-01 0.12499204E+03</pdfrwt>
<pdfrwt beam="1">  1       -4 0.52049658E-02 0.12499204E+03</pdfrwt>
<totfact> 0.99465868E+03</totfact>
</mgrwt>
</event>
<event>
 5    1  0.3293542E-002  0.1250033E+03  0.7818608E-02  0.1235064E+00
         -4   -1    0    0    0  501 -0.00000000000E+00  0.00000000000E+00  0.11234306586E+02  0.11305863278E+02  0.12700000000E+01 0.  1.
          4   -1    0    0  501    0  0.00000000000E+00 -0.00000000000E+00 -0.34654885135E+03  0.34655117843E+03  0.12700000000E+01 0.  1.
         25    2    1    2    0    0  0.00000000000E+00  0.00000000000E+00 -0.33531454476E+03  0.35785704171E+03  0.12500327344E+03 0.  0.
    9000005    1    3    3    0    0  0.20358409750E+01  0.90981396007E+01 -0.34456080319E+03  0.34468836343E+03  0.10000000000E+01 0.  0.
    9000005    1    3    3    0    0 -0.20358409750E+01 -0.90981396007E+01  0.92462584246E+01  0.13168678276E+02  0.10000000000E+01 0.  0.
<mgrwt>
<rscale>  0 0.12500327E+03</rscale>
<asrwt>0</asrwt>
<pdfrwt beam="2">  1        4 0.53320883E-01 0.12500327E+03</pdfrwt>
<pdfrwt beam="1">  1       -4 0.17340385E-02 0.12500327E+03</pdfrwt>
<totfact> 0.68863764E+03</totfact>
</mgrwt>
</event>
<event>
 5    1  0.3293542E-002  0.1250066E+03  0.7818608E-02  0.1235059E+00
         -4   -1    0    0    0  501 -0.00000000000E+00  0.00000000000E+00  0.90839286020E+02  0.90848163353E+02  0.12700000000E+01 0.  1.
          4   -1    0    0  501    0  0.00000000000E+00 -0.00000000000E+00 -0.42985960033E+02  0.43004716718E+02  0.12700000000E+01 0.  1.
         25    2    1    2    0    0  0.00000000000E+00  0.00000000000E+00  0.47853325987E+02  0.13385288007E+03  0.12500661061E+03 0.  0.
    9000005    1    3    3    0    0 -0.21624232876E+02  0.26654719099E+01  0.86646077733E+02  0.89349062527E+02  0.10000000000E+01 0.  0.
    9000005    1    3    3    0    0  0.21624232876E+02 -0.26654719099E+01 -0.38792751746E+02  0.44503817544E+02  0.10000000000E+01 0.  0.
<mgrwt>
<rscale>  0 0.12500661E+03</rscale>
<asrwt>0</asrwt>
<pdfrwt beam="2">  1        4 0.66153503E-02 0.12500661E+03</pdfrwt>
<pdfrwt beam="1">  1       -4 0.13977400E-01 0.12500661E+03</pdfrwt>
<totfact> 0.10260776E+04</totfact>
</mgrwt>
</event>
<event>
 5    1  0.3293542E-002  0.1249894E+03  0.7818608E-02  0.1235086E+00
         -4   -1    0    0    0  501 -0.00000000000E+00  0.00000000000E+00  0.72727663548E+02  0.72738751331E+02  0.12700000000E+01 0.  1.
          4   -1    0    0  501    0  0.00000000000E+00 -0.00000000000E+00 -0.53678836558E+02  0.53693858068E+02  0.12700000000E+01 0.  1.
         25    2    1    2    0    0  0.00000000000E+00  0.00000000000E+00  0.19048826990E+02  0.12643260940E+03  0.12498938719E+03 0.  0.
    9000005    1    3    3    0    0 -0.32087186212E+02  0.25611780152E+02  0.57174986697E+02  0.70395524754E+02  0.10000000000E+01 0.  0.
    9000005    1    3    3    0    0  0.32087186212E+02 -0.25611780152E+02 -0.38126159707E+02  0.56037084645E+02  0.10000000000E+01 0.  0.
<mgrwt>
<rscale>  0 0.12498939E+03</rscale>
<asrwt>0</asrwt>
<pdfrwt beam="2">  1        4 0.82602910E-02 0.12498939E+03</pdfrwt>
<pdfrwt beam="1">  1       -4 0.11190880E-01 0.12498939E+03</pdfrwt>
<totfact> 0.10423995E+04</totfact>
</mgrwt>
</event>
<event>
 5    1  0.3293542E-002  0.1250005E+03  0.7818608E-02  0.1235069E+00
         -4   -1    0    0    0  501 -0.00000000000E+00  0.00000000000E+00  0.21709703012E+02  0.21746818270E+02  0.12700000000E+01 0.  1.
          4   -1    0    0  501    0  0.00000000000E+00 -0.00000000000E+00 -0.17973936126E+03  0.17974384797E+03  0.12700000000E+01 0.  1.
         25    2    1    2    0    0  0.00000000000E+00  0.00000000000E+00 -0.15802965824E+03  0.20149066625E+03  0.12500046280E+03 0.  0.
    9000005    1    3    3    0    0  0.15211427357E+02 -0.19295853907E+02 -0.17163445081E+03  0.17338714545E+03  0.10000000000E+01 0.  0.
    9000005    1    3    3    0    0 -0.15211427357E+02  0.19295853907E+02  0.13604792571E+02  0.28103520796E+02  0.10000000000E+01 0.  0.
<mgrwt>
<rscale>  0 0.12500046E+03</rscale>
<asrwt>0</asrwt>
<pdfrwt beam="2">  1        4 0.27655409E-01 0.12500046E+03</pdfrwt>
<pdfrwt beam="1">  1       -4 0.33431546E-02 0.12500046E+03</pdfrwt>
<totfact> 0.89883771E+03</totfact>
</mgrwt>
</event>
<event>
 5    1  0.3293542E-002  0.1249980E+03  0.7818608E-02  0.1235072E+00
          4   -1    0    0  501    0  0.00000000000E+00  0.00000000000E+00  0.61188698061E+02  0.61201876364E+02  0.12700000000E+01 0. -1.
         -4   -1    0    0    0  501 -0.00000000000E+00 -0.00000000000E+00 -0.63810989807E+02  0.63823626661E+02  0.12700000000E+01 0. -1.
         25    2    1    2    0    0  0.00000000000E+00  0.00000000000E+00 -0.26222917455E+01  0.12502550302E+03  0.12499799995E+03 0.  0.
    9000005    1    3    3    0    0  0.30011013665E+02  0.27832574469E+02 -0.48542419472E+02  0.63503382830E+02  0.10000000000E+01 0.  0.
    9000005    1    3    3    0    0 -0.30011013665E+02 -0.27832574469E+02  0.45920127726E+02  0.61522120194E+02  0.10000000000E+01 0.  0.
<mgrwt>
<rscale>  0 0.12499800E+03</rscale>
<asrwt>0</asrwt>
<pdfrwt beam="1">  1        4 0.94156317E-02 0.12499800E+03</pdfrwt>
<pdfrwt beam="2">  1       -4 0.98190611E-02 0.12499800E+03</pdfrwt>
<totfact> 0.10452781E+04</totfact>
</mgrwt>
</event>
<event>
 5    1  0.3293542E-002  0.1250025E+03  0.7818608E-02  0.1235065E+00
         -4   -1    0    0    0  501 -0.00000000000E+00  0.00000000000E+00  0.52673259113E+02  0.52688567314E+02  0.12700000000E+01 0.  1.
          4   -1    0    0  501    0  0.00000000000E+00 -0.00000000000E+00 -0.74131497887E+02  0.74142375731E+02  0.12700000000E+01 0.  1.
         25    2    1    2    0    0  0.00000000000E+00  0.00000000000E+00 -0.21458238774E+02  0.12683094304E+03  0.12500252838E+03 0.  0.
    9000005    1    3    3    0    0 -0.40524210418E+02 -0.41444751275E+02  0.12969079523E+02  0.59406027151E+02  0.10000000000E+01 0.  0.
    9000005    1    3    3    0    0  0.40524210418E+02  0.41444751275E+02 -0.34427318297E+02  0.67424915894E+02  0.10000000000E+01 0.  0.
<mgrwt>
<rscale>  0 0.12500253E+03</rscale>
<asrwt>0</asrwt>
<pdfrwt beam="2">  1        4 0.11406860E-01 0.12500253E+03</pdfrwt>
<pdfrwt beam="1">  1       -4 0.81055926E-02 0.12500253E+03</pdfrwt>
<totfact> 0.10412226E+04</totfact>
</mgrwt>
</event>
<event>
 5    1  0.3293542E-002  0.1250013E+03  0.7818608E-02  0.1235067E+00
          4   -1    0    0  501    0  0.00000000000E+00  0.00000000000E+00  0.45399496002E+03  0.45399673635E+03  0.12700000000E+01 0. -1.
         -4   -1    0    0    0  501 -0.00000000000E+00 -0.00000000000E+00 -0.85556808370E+01  0.86494262575E+01  0.12700000000E+01 0. -1.
         25    2    1    2    0    0  0.00000000000E+00  0.00000000000E+00  0.44543927918E+03  0.46264616261E+03  0.12500128137E+03 0.  0.
    9000005    1    3    3    0    0 -0.52341587838E+02  0.25736833173E+02  0.13968686408E+03  0.15137848723E+03  0.10000000000E+01 0.  0.
    9000005    1    3    3    0    0  0.52341587838E+02 -0.25736833173E+02  0.30575241510E+03  0.31126767538E+03  0.10000000000E+01 0.  0.
<mgrwt>
<rscale>  0 0.12500128E+03</rscale>
<asrwt>0</asrwt>
<pdfrwt beam="1">  1        4 0.69852745E-01 0.12500128E+03</pdfrwt>
<pdfrwt beam="2">  1       -4 0.13236061E-02 0.12500128E+03</pdfrwt>
<totfact> 0.58882030E+03</totfact>
</mgrwt>
</event>
<event>
 5    1  0.3293542E-002  0.1249914E+03  0.7818608E-02  0.1235083E+00
         -4   -1    0    0    0  501 -0.00000000000E+00  0.00000000000E+00  0.62472169092E+02  0.62485076707E+02  0.12700000000E+01 0. -1.
          4   -1    0    0  501    0  0.00000000000E+00 -0.00000000000E+00 -0.62493457420E+02  0.62506360638E+02  0.12700000000E+01 0. -1.
         25    2    1    2    0    0  0.00000000000E+00  0.00000000000E+00 -0.21288327918E-01  0.12499143735E+03  0.12499143553E+03 0.  0.
    9000005    1    3    3    0    0 -0.56754072756E+02  0.24980986407E+02  0.77120680918E+01  0.62494403353E+02  0.10000000000E+01 0.  0.
    9000005    1    3    3    0    0  0.56754072756E+02 -0.24980986407E+02 -0.77333564197E+01  0.62497033992E+02  0.10000000000E+01 0.  0.
<mgrwt>
<rscale>  0 0.12499144E+03</rscale>
<asrwt>0</asrwt>
<pdfrwt beam="2">  1        4 0.96163635E-02 0.12499144E+03</pdfrwt>
<pdfrwt beam="1">  1       -4 0.96130884E-02 0.12499144E+03</pdfrwt>
<totfact> 0.10455072E+04</totfact>
</mgrwt>
</event>
<event>
 5    1  0.3293542E-002  0.1250019E+03  0.7818608E-02  0.1235066E+00
          4   -1    0    0  501    0  0.00000000000E+00  0.00000000000E+00  0.94164664329E+01  0.95017230060E+01  0.12700000000E+01 0.  1.
         -4   -1    0    0    0  501 -0.00000000000E+00 -0.00000000000E+00 -0.41288842245E+03  0.41289037564E+03  0.12700000000E+01 0.  1.
         25    2    1    2    0    0  0.00000000000E+00  0.00000000000E+00 -0.40347195602E+03  0.42239209865E+03  0.12500186280E+03 0.  0.
    9000005    1    3    3    0    0 -0.45384520734E+02  0.20265240224E+02 -0.32973743763E+03  0.33346395976E+03  0.10000000000E+01 0.  0.
    9000005    1    3    3    0    0  0.45384520734E+02 -0.20265240224E+02 -0.73734518391E+02  0.88928138887E+02  0.10000000000E+01 0.  0.
<mgrwt>
<rscale>  0 0.12500186E+03</rscale>
<asrwt>0</asrwt>
<pdfrwt beam="1">  1        4 0.14553959E-02 0.12500186E+03</pdfrwt>
<pdfrwt beam="2">  1       -4 0.63527990E-01 0.12500186E+03</pdfrwt>
<totfact> 0.62429149E+03</totfact>
</mgrwt>
</event>
<event>
 5    1  0.3293542E-002  0.1250055E+03  0.7818608E-02  0.1235061E+00
         -4   -1    0    0    0  501 -0.00000000000E+00  0.00000000000E+00  0.45204851859E+01  0.46954963865E+01  0.12700000000E+01 0.  1.
          4   -1    0    0  501    0  0.00000000000E+00 -0.00000000000E+00 -0.84761108651E+03  0.84761203794E+03  0.12700000000E+01 0.  1.
         25    2    1    2    0    0  0.00000000000E+00  0.00000000000E+00 -0.84309060132E+03  0.85230753433E+03  0.12500548405E+03 0.  0.
    9000005    1    3    3    0    0 -0.40541283745E+02 -0.31233466528E+02 -0.66609475319E+03  0.66805863915E+03  0.10000000000E+01 0.  0.
    9000005    1    3    3    0    0  0.40541283745E+02  0.31233466528E+02 -0.17699584813E+03  0.18424889518E+03  0.10000000000E+01 0.  0.
<mgrwt>
<rscale>  0 0.12500548E+03</rscale>
<asrwt>0</asrwt>
<pdfrwt beam="2">  1        4 0.13041512E+00 0.12500548E+03</pdfrwt>
<pdfrwt beam="1">  1       -4 0.70899552E-03 0.12500548E+03</pdfrwt>
<totfact> 0.36028799E+03</totfact>
</mgrwt>
</event>
<event>
 5    1  0.3293542E-002  0.1249914E+03  0.7818608E-02  0.1235083E+00
         -4   -1    0    0    0  501 -0.00000000000E+00  0.00000000000E+00  0.21801175541E+03  0.21801545449E+03  0.12700000000E+01 0. -1.
          4   -1    0    0  501    0  0.00000000000E+00 -0.00000000000E+00 -0.17888779012E+02  0.17933803683E+02  0.12700000000E+01 0. -1.
         25    2    1    2    0    0  0.00000000000E+00  0.00000000000E+00  0.20012297640E+03  0.23594925817E+03  0.12499138671E+03 0.  0.
    9000005    1    3    3    0    0 -0.39076104660E+02 -0.56303367775E+01  0.19149574182E+03  0.19552560391E+03  0.10000000000E+01 0.  0.
    9000005    1    3    3    0    0  0.39076104660E+02  0.56303367775E+01  0.86272345721E+01  0.40423654263E+02  0.10000000000E+01 0.  0.
<mgrwt>
<rscale>  0 0.12499139E+03</rscale>
<asrwt>0</asrwt>
<pdfrwt beam="2">  1        4 0.27558678E-02 0.12499139E+03</pdfrwt>
<pdfrwt beam="1">  1       -4 0.33544019E-01 0.12499139E+03</pdfrwt>
<totfact> 0.84420589E+03</totfact>
</mgrwt>
</event>
<event>
 5    1  0.3293542E-002  0.1249994E+03  0.7818608E-02  0.1235070E+00
         -4   -1    0    0    0  501 -0.00000000000E+00  0.00000000000E+00  0.74482714400E+01  0.75557691497E+01  0.12700000000E+01 0.  1.
          4   -1    0    0  501    0  0.00000000000E+00 -0.00000000000E+00 -0.52058018921E+03  0.52058173835E+03  0.12700000000E+01 0.  1.
         25    2    1    2    0    0  0.00000000000E+00  0.00000000000E+00 -0.51313191777E+03  0.52813750750E+03  0.12499944715E+03 0.  0.
    9000005    1    3    3    0    0 -0.64331010098E+00  0.16271944954E+02 -0.16534621087E+01  0.16398901714E+02  0.10000000000E+01 0.  0.
    9000005    1    3    3    0    0  0.64331010098E+00 -0.16271944954E+02 -0.51147845566E+03  0.51173860578E+03  0.10000000000E+01 0.  0.
<mgrwt>
<rscale>  0 0.12499945E+03</rscale>
<asrwt>0</asrwt>
<pdfrwt beam="2">  1        4 0.80097620E-01 0.12499945E+03</pdfrwt>
<pdfrwt beam="1">  1       -4 0.11542765E-02 0.12499945E+03</pdfrwt>
<totfact> 0.53746139E+03</totfact>
</mgrwt>
</event>
<event>
 5    1  0.3293542E-002  0.1250023E+03  0.7818608E-02  0.1235066E+00
         -4   -1    0    0    0  501 -0.00000000000E+00  0.00000000000E+00  0.45219130652E+02  0.45236961403E+02  0.12700000000E+01 0.  1.
          4   -1    0    0  501    0  0.00000000000E+00 -0.00000000000E+00 -0.86348532500E+02  0.86357871471E+02  0.12700000000E+01 0.  1.
         25    2    1    2    0    0  0.00000000000E+00  0.00000000000E+00 -0.41129401848E+02  0.13159483287E+03  0.12500228935E+03 0.  0.
    9000005    1    3    3    0    0 -0.55043271809E+02 -0.74949841516E+01 -0.50700577549E+02  0.75216255708E+02  0.10000000000E+01 0.  0.
    9000005    1    3    3    0    0  0.55043271809E+02  0.74949841516E+01  0.95711757015E+01  0.56378577166E+02  0.10000000000E+01 0.  0.
<mgrwt>
<rscale>  0 0.12500229E+03</rscale>
<asrwt>0</asrwt>
<pdfrwt beam="2">  1        4 0.13286480E-01 0.12500229E+03</pdfrwt>
<pdfrwt beam="1">  1       -4 0.69588793E-02 0.12500229E+03</pdfrwt>
<totfact> 0.10309821E+04</totfact>
</mgrwt>
</event>
<event>
 5    1  0.3293542E-002  0.1250014E+03  0.7818608E-02  0.1235067E+00
          4   -1    0    0  501    0  0.00000000000E+00  0.00000000000E+00  0.22758241683E+02  0.22793649653E+02  0.12700000000E+01 0. -1.
         -4   -1    0    0    0  501 -0.00000000000E+00 -0.00000000000E+00 -0.17147368308E+03  0.17147838607E+03  0.12700000000E+01 0. -1.
         25    2    1    2    0    0  0.00000000000E+00  0.00000000000E+00 -0.14871544140E+03  0.19427203572E+03  0.12500136541E+03 0.  0.
    9000005    1    3    3    0    0  0.50506445764E+02  0.20040857405E+02 -0.12233062626E+03  0.13385932598E+03  0.10000000000E+01 0.  0.
    9000005    1    3    3    0    0 -0.50506445764E+02 -0.20040857405E+02 -0.26384815138E+02  0.60412709748E+02  0.10000000000E+01 0.  0.
<mgrwt>
<rscale>  0 0.12500137E+03</rscale>
<asrwt>0</asrwt>
<pdfrwt beam="1">  1        4 0.35043535E-02 0.12500137E+03</pdfrwt>
<pdfrwt beam="2">  1       -4 0.26383651E-01 0.12500137E+03</pdfrwt>
<totfact> 0.91106477E+03</totfact>
</mgrwt>
</event>
<event>
 5    1  0.3293542E-002  0.1249980E+03  0.7818608E-02  0.1235072E+00
         -4   -1    0    0    0  501 -0.00000000000E+00  0.00000000000E+00  0.75826599116E+02  0.75837233820E+02  0.12700000000E+01 0.  1.
          4   -1    0    0  501    0  0.00000000000E+00 -0.00000000000E+00 -0.51491865845E+02  0.51507525161E+02  0.12700000000E+01 0.  1.
         25    2    1    2    0    0  0.00000000000E+00  0.00000000000E+00  0.24334733271E+02  0.12734475898E+03  0.12499803357E+03 0.  0.
    9000005    1    3    3    0    0  0.53641091911E+02  0.17430254252E+02  0.39578763008E+02  0.68910514335E+02  0.10000000000E+01 0.  0.
    9000005    1    3    3    0    0 -0.53641091911E+02 -0.17430254252E+02 -0.15244029736E+02  0.58434244646E+02  0.10000000000E+01 0.  0.
<mgrwt>
<rscale>  0 0.12499803E+03</rscale>
<asrwt>0</asrwt>
<pdfrwt beam="2">  1        4 0.79238481E-02 0.12499803E+03</pdfrwt>
<pdfrwt beam="1">  1       -4 0.11667653E-01 0.12499803E+03</pdfrwt>
<totfact> 0.10402126E+04</totfact>
</mgrwt>
</event>
<event>
 5    1  0.3293542E-002  0.1249999E+03  0.7818608E-02  0.1235069E+00
         -4   -1    0    0    0  501 -0.00000000000E+00  0.00000000000E+00  0.29240112814E+03  0.29240388615E+03  0.12700000000E+01 0.  1.
          4   -1    0    0  501    0  0.00000000000E+00 -0.00000000000E+00 -0.13326189679E+02  0.13386569066E+02  0.12700000000E+01 0.  1.
         25    2    1    2    0    0  0.00000000000E+00  0.00000000000E+00  0.27907493846E+03  0.30579045522E+03  0.12499992490E+03 0.  0.
    9000005    1    3    3    0    0 -0.13991173212E+02  0.39746381035E+02  0.26642346356E+02  0.49863236483E+02  0.10000000000E+01 0.  0.
    9000005    1    3    3    0    0  0.13991173212E+02 -0.39746381035E+02  0.25243259211E+03  0.25592721874E+03  0.10000000000E+01 0.  0.
<mgrwt>
<rscale>  0 0.12499992E+03</rscale>
<asrwt>0</asrwt>
<pdfrwt beam="2">  1        4 0.20550398E-02 0.12499992E+03</pdfrwt>
<pdfrwt beam="1">  1       -4 0.44989645E-01 0.12499992E+03</pdfrwt>
<totfact> 0.74878312E+03</totfact>
</mgrwt>
</event>
<event>
 5    1  0.3293542E-002  0.1249995E+03  0.7818608E-02  0.1235070E+00
         -4   -1    0    0    0  501 -0.00000000000E+00  0.00000000000E+00  0.83628262164E+01  0.84587092588E+01  0.12700000000E+01 0.  1.
          4   -1    0    0  501    0  0.00000000000E+00 -0.00000000000E+00 -0.46433406404E+03  0.46433580082E+03  0.12700000000E+01 0.  1.
         25    2    1    2    0    0  0.00000000000E+00  0.00000000000E+00 -0.45597123782E+03  0.47279451008E+03  0.12499951617E+03 0.  0.
    9000005    1    3    3    0    0 -0.16574459142E+02  0.40997823551E+02 -0.39499711911E+03  0.39746604678E+03  0.10000000000E+01 0.  0.
    9000005    1    3    3    0    0  0.16574459142E+02 -0.40997823551E+02 -0.60974118706E+02  0.75328463304E+02  0.10000000000E+01 0.  0.
<mgrwt>
<rscale>  0 0.12499952E+03</rscale>
<asrwt>0</asrwt>
<pdfrwt beam="2">  1        4 0.71443499E-01 0.12499952E+03</pdfrwt>
<pdfrwt beam="1">  1       -4 0.12940982E-02 0.12499952E+03</pdfrwt>
<totfact> 0.58039368E+03</totfact>
</mgrwt>
</event>
<event>
 5    1  0.3293542E-002  0.1249512E+03  0.7818608E-02  0.1235146E+00
         -4   -1    0    0    0  501 -0.00000000000E+00  0.00000000000E+00  0.23621923249E+03  0.23622264646E+03  0.12700000000E+01 0. -1.
          4   -1    0    0  501    0  0.00000000000E+00 -0.00000000000E+00 -0.16495697611E+02  0.16544513885E+02  0.12700000000E+01 0. -1.
         25    2    1    2    0    0  0.00000000000E+00  0.00000000000E+00  0.21972353488E+03  0.25276716034E+03  0.12495121275E+03 0.  0.
    9000005    1    3    3    0    0 -0.29963970612E+02 -0.28822705061E+02  0.15548815507E+02  0.44399927089E+02  0.10000000000E+01 0.  0.
    9000005    1    3    3    0    0  0.29963970612E+02  0.28822705061E+02  0.20417471937E+03  0.20836723325E+03  0.10000000000E+01 0.  0.
<mgrwt>
<rscale>  0 0.12495121E+03</rscale>
<asrwt>0</asrwt>
<pdfrwt beam="2">  1        4 0.25418175E-02 0.12495121E+03</pdfrwt>
<pdfrwt beam="1">  1       -4 0.36345436E-01 0.12495121E+03</pdfrwt>
<totfact> 0.82021015E+03</totfact>
</mgrwt>
</event>
<event>
 5    1  0.3293542E-002  0.1249985E+03  0.7818608E-02  0.1235072E+00
         -4   -1    0    0    0  501 -0.00000000000E+00  0.00000000000E+00  0.34957138020E+03  0.34957368716E+03  0.12700000000E+01 0.  1.
          4   -1    0    0  501    0  0.00000000000E+00 -0.00000000000E+00 -0.11135696348E+02  0.11207882635E+02  0.12700000000E+01 0.  1.
         25    2    1    2    0    0  0.00000000000E+00  0.00000000000E+00  0.33843568385E+03  0.36078156980E+03  0.12499851599E+03 0.  0.
    9000005    1    3    3    0    0  0.24394989928E+02 -0.42719440982E+02  0.57989354480E+02  0.76051504945E+02  0.10000000000E+01 0.  0.
    9000005    1    3    3    0    0 -0.24394989928E+02  0.42719440982E+02  0.28044632937E+03  0.28473006485E+03  0.10000000000E+01 0.  0.
<mgrwt>
<rscale>  0 0.12499852E+03</rscale>
<asrwt>0</asrwt>
<pdfrwt beam="2">  1        4 0.17189145E-02 0.12499852E+03</pdfrwt>
<pdfrwt beam="1">  1       -4 0.53785936E-01 0.12499852E+03</pdfrwt>
<totfact> 0.68556766E+03</totfact>
</mgrwt>
</event>
<event>
 5    1  0.3293542E-002  0.1249990E+03  0.7818608E-02  0.1235071E+00
          4   -1    0    0  501    0  0.00000000000E+00  0.00000000000E+00  0.12822430816E+03  0.12823059738E+03  0.12700000000E+01 0. -1.
         -4   -1    0    0    0  501 -0.00000000000E+00 -0.00000000000E+00 -0.30443444286E+02  0.30469922875E+02  0.12700000000E+01 0. -1.
         25    2    1    2    0    0  0.00000000000E+00  0.00000000000E+00  0.97780863876E+02  0.15870052025E+03  0.12499903115E+03 0.  0.
    9000005    1    3    3    0    0 -0.57257183146E+02  0.24888419483E+02  0.45443482363E+02  0.77226475612E+02  0.10000000000E+01 0.  0.
    9000005    1    3    3    0    0  0.57257183146E+02 -0.24888419483E+02  0.52337381513E+02  0.81474044639E+02  0.10000000000E+01 0.  0.
<mgrwt>
<rscale>  0 0.12499903E+03</rscale>
<asrwt>0</asrwt>
<pdfrwt beam="1">  1        4 0.19729338E-01 0.12499903E+03</pdfrwt>
<pdfrwt beam="2">  1       -4 0.46861273E-02 0.12499903E+03</pdfrwt>
<totfact> 0.97596026E+03</totfact>
</mgrwt>
</event>
<event>
 5    1  0.3293542E-002  0.1249909E+03  0.7818608E-02  0.1235084E+00
          4   -1    0    0  501    0  0.00000000000E+00  0.00000000000E+00  0.15186519425E+02  0.15239529922E+02  0.12700000000E+01 0. -1.
         -4   -1    0    0    0  501 -0.00000000000E+00 -0.00000000000E+00 -0.25667811038E+03  0.25668125224E+03  0.12700000000E+01 0. -1.
         25    2    1    2    0    0  0.00000000000E+00  0.00000000000E+00 -0.24149159096E+03  0.27192078216E+03  0.12499089273E+03 0.  0.
    9000005    1    3    3    0    0  0.27274764938E+02  0.33781729603E+02 -0.21851288973E+03  0.22278689601E+03  0.10000000000E+01 0.  0.
    9000005    1    3    3    0    0 -0.27274764938E+02 -0.33781729603E+02 -0.22978701227E+02  0.49133886143E+02  0.10000000000E+01 0.  0.
<mgrwt>
<rscale>  0 0.12499089E+03</rscale>
<asrwt>0</asrwt>
<pdfrwt beam="1">  1        4 0.23407072E-02 0.12499089E+03</pdfrwt>
<pdfrwt beam="2">  1       -4 0.39493256E-01 0.12499089E+03</pdfrwt>
<totfact> 0.79277751E+03</totfact>
</mgrwt>
</event>
<event>
 5    1  0.3293542E-002  0.1250060E+03  0.7818608E-02  0.1235060E+00
         -4   -1    0    0    0  501 -0.00000000000E+00  0.00000000000E+00  0.13253818444E+03  0.13254426896E+03  0.12700000000E+01 0.  1.
          4   -1    0    0  501    0  0.00000000000E+00 -0.00000000000E+00 -0.29455029687E+02  0.29482395999E+02  0.12700000000E+01 0.  1.
         25    2    1    2    0    0  0.00000000000E+00  0.00000000000E+00  0.10308315475E+03  0.16202666496E+03  0.12500601331E+03 0.  0.
    9000005    1    3    3    0    0  0.21530604240E+02 -0.57435895403E+02  0.67050869523E+02  0.90880515532E+02  0.10000000000E+01 0.  0.
    9000005    1    3    3    0    0 -0.21530604240E+02  0.57435895403E+02  0.36032285231E+02  0.71146149429E+02  0.10000000000E+01 0.  0.
<mgrwt>
<rscale>  0 0.12500601E+03</rscale>
<asrwt>0</asrwt>
<pdfrwt beam="2">  1        4 0.45341161E-02 0.12500601E+03</pdfrwt>
<pdfrwt beam="1">  1       -4 0.20393063E-01 0.12500601E+03</pdfrwt>
<totfact> 0.96940376E+03</totfact>
</mgrwt>
</event>
<event>
 5    1  0.3293542E-002  0.1250008E+03  0.7818608E-02  0.1235068E+00
         -4   -1    0    0    0  501 -0.00000000000E+00  0.00000000000E+00  0.53306405046E+01  0.54798383360E+01  0.12700000000E+01 0.  1.
          4   -1    0    0  501    0  0.00000000000E+00 -0.00000000000E+00 -0.72253844733E+03  0.72253956346E+03  0.12700000000E+01 0.  1.
         25    2    1    2    0    0  0.00000000000E+00  0.00000000000E+00 -0.71720780683E+03  0.72801940180E+03  0.12500084490E+03 0.  0.
    9000005    1    3    3    0    0 -0.21463723574E+02  0.48684920772E+02 -0.54950611366E+03  0.55207688041E+03  0.10000000000E+01 0.  0.
    9000005    1    3    3    0    0  0.21463723574E+02 -0.48684920772E+02 -0.16770169317E+03  0.17594252139E+03  0.10000000000E+01 0.  0.
<mgrwt>
<rscale>  0 0.12500084E+03</rscale>
<asrwt>0</asrwt>
<pdfrwt beam="2">  1        4 0.11117125E+00 0.12500084E+03</pdfrwt>
<pdfrwt beam="1">  1       -4 0.83166172E-03 0.12500084E+03</pdfrwt>
<totfact> 0.41647427E+03</totfact>
</mgrwt>
</event>
<event>
 5    1  0.3293542E-002  0.1249997E+03  0.7818608E-02  0.1235070E+00
          4   -1    0    0  501    0  0.00000000000E+00  0.00000000000E+00  0.14415504691E+02  0.14471339796E+02  0.12700000000E+01 0.  1.
         -4   -1    0    0    0  501 -0.00000000000E+00 -0.00000000000E+00 -0.27039337500E+03  0.27039635749E+03  0.12700000000E+01 0.  1.
         25    2    1    2    0    0  0.00000000000E+00  0.00000000000E+00 -0.25597787031E+03  0.28486769729E+03  0.12499973948E+03 0.  0.
    9000005    1    3    3    0    0  0.24325411008E+02  0.23930630254E+02 -0.24729853442E+03  0.24964367769E+03  0.10000000000E+01 0.  0.
    9000005    1    3    3    0    0 -0.24325411008E+02 -0.23930630254E+02 -0.86793358928E+01  0.35224019598E+02  0.10000000000E+01 0.  0.
<mgrwt>
<rscale>  0 0.12499974E+03</rscale>
<asrwt>0</asrwt>
<pdfrwt beam="1">  1        4 0.22222946E-02 0.12499974E+03</pdfrwt>
<pdfrwt beam="2">  1       -4 0.41603502E-01 0.12499974E+03</pdfrwt>
<totfact> 0.77537530E+03</totfact>
</mgrwt>
</event>
<event>
 5    1  0.3293542E-002  0.1250071E+03  0.7818608E-02  0.1235058E+00
          4   -1    0    0  501    0  0.00000000000E+00  0.00000000000E+00  0.26163338969E+03  0.26163647204E+03  0.12700000000E+01 0.  1.
         -4   -1    0    0    0  501 -0.00000000000E+00 -0.00000000000E+00 -0.14901747520E+02  0.14955767421E+02  0.12700000000E+01 0.  1.
         25    2    1    2    0    0  0.00000000000E+00  0.00000000000E+00  0.24673164217E+03  0.27659223946E+03  0.12500705453E+03 0.  0.
    9000005    1    3    3    0    0 -0.39259421597E+02  0.12568788794E+02  0.22729775264E+03  0.23100767302E+03  0.10000000000E+01 0.  0.
    9000005    1    3    3    0    0  0.39259421597E+02 -0.12568788794E+02  0.19433889530E+02  0.45584566447E+02  0.10000000000E+01 0.  0.
<mgrwt>
<rscale>  0 0.12500705E+03</rscale>
<asrwt>0</asrwt>
<pdfrwt beam="1">  1        4 0.40255680E-01 0.12500705E+03</pdfrwt>
<pdfrwt beam="2">  1       -4 0.22969692E-02 0.12500705E+03</pdfrwt>
<totfact> 0.78619799E+03</totfact>
</mgrwt>
</event>
<event>
 5    1  0.3293542E-002  0.1249997E+03  0.7818608E-02  0.1235070E+00
          4   -1    0    0  501    0  0.00000000000E+00  0.00000000000E+00  0.96948181709E+02  0.96956499714E+02  0.12700000000E+01 0. -1.
         -4   -1    0    0    0  501 -0.00000000000E+00 -0.00000000000E+00 -0.40271866994E+02  0.40291887163E+02  0.12700000000E+01 0. -1.
         25    2    1    2    0    0  0.00000000000E+00  0.00000000000E+00  0.56676314716E+02  0.13724838688E+03  0.12499966020E+03 0.  0.
    9000005    1    3    3    0    0 -0.19709616948E+02 -0.33140375635E+02  0.82335108825E+02  0.90922074563E+02  0.10000000000E+01 0.  0.
    9000005    1    3    3    0    0  0.19709616948E+02  0.33140375635E+02 -0.25658794110E+02  0.46326312315E+02  0.10000000000E+01 0.  0.
<mgrwt>
<rscale>  0 0.12499966E+03</rscale>
<asrwt>0</asrwt>
<pdfrwt beam="1">  1        4 0.14917285E-01 0.12499966E+03</pdfrwt>
<pdfrwt beam="2">  1       -4 0.61978518E-02 0.12499966E+03</pdfrwt>
<totfact> 0.10190973E+04</totfact>
</mgrwt>
</event>
<event>
 5    1  0.3293542E-002  0.1250014E+03  0.7818608E-02  0.1235067E+00
         -4   -1    0    0    0  501 -0.00000000000E+00  0.00000000000E+00  0.63377790580E+03  0.63377917825E+03  0.12700000000E+01 0. -1.
          4   -1    0    0  501    0  0.00000000000E+00 -0.00000000000E+00 -0.60968578047E+01  0.62277263179E+01  0.12700000000E+01 0. -1.
         25    2    1    2    0    0  0.00000000000E+00  0.00000000000E+00  0.62768104800E+03  0.64000690457E+03  0.12500135951E+03 0.  0.
    9000005    1    3    3    0    0  0.52001750901E+02 -0.31331560361E+01  0.13711995822E+03  0.14668633783E+03  0.10000000000E+01 0.  0.
    9000005    1    3    3    0    0 -0.52001750901E+02  0.31331560361E+01  0.49056108978E+03  0.49332056674E+03  0.10000000000E+01 0.  0.
<mgrwt>
<rscale>  0 0.12500136E+03</rscale>
<asrwt>0</asrwt>
<pdfrwt beam="2">  1        4 0.94814265E-03 0.12500136E+03</pdfrwt>
<pdfrwt beam="1">  1       -4 0.97514475E-01 0.12500136E+03</pdfrwt>
<totfact> 0.46434423E+03</totfact>
</mgrwt>
</event>
<event>
 5    1  0.3293542E-002  0.1249979E+03  0.7818608E-02  0.1235073E+00
         -4   -1    0    0    0  501 -0.00000000000E+00  0.00000000000E+00  0.15568295556E+03  0.15568813555E+03  0.12700000000E+01 0.  1.
          4   -1    0    0  501    0  0.00000000000E+00 -0.00000000000E+00 -0.25068550396E+02  0.25100699571E+02  0.12700000000E+01 0.  1.
         25    2    1    2    0    0  0.00000000000E+00  0.00000000000E+00  0.13061440516E+03  0.18078883512E+03  0.12499792026E+03 0.  0.
    9000005    1    3    3    0    0 -0.15078832145E+02 -0.56626852147E+02  0.96701278532E+02  0.11307567746E+03  0.10000000000E+01 0.  0.
    9000005    1    3    3    0    0  0.15078832145E+02  0.56626852147E+02  0.33913126631E+02  0.67713157664E+02  0.10000000000E+01 0.  0.
<mgrwt>
<rscale>  0 0.12499792E+03</rscale>
<asrwt>0</asrwt>
<pdfrwt beam="2">  1        4 0.38595716E-02 0.12499792E+03</pdfrwt>
<pdfrwt beam="1">  1       -4 0.23954095E-01 0.12499792E+03</pdfrwt>
<totfact> 0.93479561E+03</totfact>
</mgrwt>
</event>
<event>
 5    1  0.3293542E-002  0.1250016E+03  0.7818608E-02  0.1235067E+00
         -4   -1    0    0    0  501 -0.00000000000E+00  0.00000000000E+00  0.26228014841E+02  0.26258744496E+02  0.12700000000E+01 0.  1.
          4   -1    0    0  501    0  0.00000000000E+00 -0.00000000000E+00 -0.14881737144E+03  0.14882279040E+03  0.12700000000E+01 0.  1.
         25    2    1    2    0    0  0.00000000000E+00  0.00000000000E+00 -0.12258935660E+03  0.17508153490E+03  0.12500157403E+03 0.  0.
    9000005    1    3    3    0    0  0.46654376569E+02  0.39249544639E+02 -0.80508954237E+02  0.10099430340E+03  0.10000000000E+01 0.  0.
    9000005    1    3    3    0    0 -0.46654376569E+02 -0.39249544639E+02 -0.42080402361E+02  0.74087231493E+02  0.10000000000E+01 0.  0.
<mgrwt>
<rscale>  0 0.12500157E+03</rscale>
<asrwt>0</asrwt>
<pdfrwt beam="2">  1        4 0.22897760E-01 0.12500157E+03</pdfrwt>
<pdfrwt beam="1">  1       -4 0.40378600E-02 0.12500157E+03</pdfrwt>
<totfact> 0.94506573E+03</totfact>
</mgrwt>
</event>
<event>
 5    1  0.3293542E-002  0.1250012E+03  0.7818608E-02  0.1235067E+00
          4   -1    0    0  501    0  0.00000000000E+00  0.00000000000E+00  0.10730257317E+03  0.10731008857E+03  0.12700000000E+01 0. -1.
         -4   -1    0    0    0  501 -0.00000000000E+00 -0.00000000000E+00 -0.36384898292E+02  0.36407055961E+02  0.12700000000E+01 0. -1.
         25    2    1    2    0    0  0.00000000000E+00  0.00000000000E+00  0.70917674879E+02  0.14371714453E+03  0.12500120408E+03 0.  0.
    9000005    1    3    3    0    0  0.46920726309E+02  0.19510369869E+02 -0.63620622190E+01  0.51221918408E+02  0.10000000000E+01 0.  0.
    9000005    1    3    3    0    0 -0.46920726309E+02 -0.19510369869E+02  0.77279737098E+02  0.92495226123E+02  0.10000000000E+01 0.  0.
<mgrwt>
<rscale>  0 0.12500120E+03</rscale>
<asrwt>0</asrwt>
<pdfrwt beam="1">  1        4 0.16510370E-01 0.12500120E+03</pdfrwt>
<pdfrwt beam="2">  1       -4 0.55999593E-02 0.12500120E+03</pdfrwt>
<totfact> 0.10056846E+04</totfact>
</mgrwt>
</event>
<event>
 5    1  0.3293542E-002  0.1249985E+03  0.7818608E-02  0.1235072E+00
          4   -1    0    0  501    0  0.00000000000E+00  0.00000000000E+00  0.37990022679E+03  0.37990234957E+03  0.12700000000E+01 0.  1.
         -4   -1    0    0    0  501 -0.00000000000E+00 -0.00000000000E+00 -0.10240676924E+02  0.10319126120E+02  0.12700000000E+01 0.  1.
         25    2    1    2    0    0  0.00000000000E+00  0.00000000000E+00  0.36965954986E+03  0.39022147569E+03  0.12499846915E+03 0.  0.
    9000005    1    3    3    0    0  0.17355819760E+02  0.14273976331E+02  0.27936228189E+01  0.22666609987E+02  0.10000000000E+01 0.  0.
    9000005    1    3    3    0    0 -0.17355819760E+02 -0.14273976331E+02  0.36686592704E+03  0.36755486571E+03  0.10000000000E+01 0.  0.
<mgrwt>
<rscale>  0 0.12499847E+03</rscale>
<asrwt>0</asrwt>
<pdfrwt beam="1">  1        4 0.58452382E-01 0.12499847E+03</pdfrwt>
<pdfrwt beam="2">  1       -4 0.15816867E-02 0.12499847E+03</pdfrwt>
<totfact> 0.65517295E+03</totfact>
</mgrwt>
</event>
<event>
 5    1  0.3293542E-002  0.1250004E+03  0.7818608E-02  0.1235069E+00
          4   -1    0    0  501    0  0.00000000000E+00  0.00000000000E+00  0.17493145248E+02  0.17539185576E+02  0.12700000000E+01 0. -1.
         -4   -1    0    0    0  501 -0.00000000000E+00 -0.00000000000E+00 -0.22296169889E+03  0.22296531585E+03  0.12700000000E+01 0. -1.
         25    2    1    2    0    0  0.00000000000E+00  0.00000000000E+00 -0.20546855364E+03  0.24050450142E+03  0.12500035468E+03 0.  0.
    9000005    1    3    3    0    0  0.31621216678E+02 -0.53234231655E+02 -0.11900199819E+03  0.13415014103E+03  0.10000000000E+01 0.  0.
    9000005    1    3    3    0    0 -0.31621216678E+02  0.53234231655E+02 -0.86466555449E+02  0.10635436040E+03  0.10000000000E+01 0.  0.
<mgrwt>
<rscale>  0 0.12500035E+03</rscale>
<asrwt>0</asrwt>
<pdfrwt beam="1">  1        4 0.26950731E-02 0.12500035E+03</pdfrwt>
<pdfrwt beam="2">  1       -4 0.34305618E-01 0.12500035E+03</pdfrwt>
<totfact> 0.83721627E+03</totfact>
</mgrwt>
</event>
<event>
 5    1  0.3293542E-002  0.1250024E+03  0.7818608E-02  0.1235066E+00
         -4   -1    0    0    0  501 -0.00000000000E+00  0.00000000000E+00  0.11444326148E+03  0.11445030798E+03  0.12700000000E+01 0.  1.
          4   -1    0    0  501    0  0.00000000000E+00 -0.00000000000E+00 -0.34114017870E+02  0.34137649527E+02  0.12700000000E+01 0.  1.
         25    2    1    2    0    0  0.00000000000E+00  0.00000000000E+00  0.80329243606E+02  0.14858795751E+03  0.12500237493E+03 0.  0.
    9000005    1    3    3    0    0  0.28119802575E+02 -0.52443138477E+02  0.17473812670E+02  0.62026931243E+02  0.10000000000E+01 0.  0.
    9000005    1    3    3    0    0 -0.28119802575E+02  0.52443138477E+02  0.62855430935E+02  0.86561026266E+02  0.10000000000E+01 0.  0.
<mgrwt>
<rscale>  0 0.12500237E+03</rscale>
<asrwt>0</asrwt>
<pdfrwt beam="2">  1        4 0.52506704E-02 0.12500237E+03</pdfrwt>
<pdfrwt beam="1">  1       -4 0.17609015E-01 0.12500237E+03</pdfrwt>
<totfact> 0.99580592E+03</totfact>
</mgrwt>
</event>
<event>
 5    1  0.3293542E-002  0.1249879E+03  0.7818608E-02  0.1235088E+00
          4   -1    0    0  501    0  0.00000000000E+00  0.00000000000E+00  0.10074303111E+04  0.10074311116E+04  0.12700000000E+01 0. -1.
         -4   -1    0    0    0  501 -0.00000000000E+00 -0.00000000000E+00 -0.37718510929E+01  0.39799196810E+01  0.12700000000E+01 0. -1.
         25    2    1    2    0    0  0.00000000000E+00  0.00000000000E+00  0.10036584600E+04  0.10114110313E+04  0.12498787884E+03 0.  0.
    9000005    1    3    3    0    0  0.17490903278E+02 -0.32194089038E+02  0.91142734099E+03  0.91216401429E+03  0.10000000000E+01 0.  0.
    9000005    1    3    3    0    0 -0.17490903278E+02  0.32194089038E+02  0.92231119035E+02  0.99247017008E+02  0.10000000000E+01 0.  0.
<mgrwt>
<rscale>  0 0.12498788E+03</rscale>
<asrwt>0</asrwt>
<pdfrwt beam="1">  1        4 0.15500550E+00 0.12498788E+03</pdfrwt>
<pdfrwt beam="2">  1       -4 0.59635103E-03 0.12498788E+03</pdfrwt>
<totfact> 0.30238606E+03</totfact>
</mgrwt>
</event>
<event>
 5    1  0.3293542E-002  0.1249990E+03  0.7818608E-02  0.1235071E+00
          4   -1    0    0  501    0  0.00000000000E+00  0.00000000000E+00  0.65993677543E+03  0.65993799744E+03  0.12700000000E+01 0. -1.
         -4   -1    0    0    0  501 -0.00000000000E+00 -0.00000000000E+00 -0.58496688882E+01  0.59859440443E+01  0.12700000000E+01 0. -1.
         25    2    1    2    0    0  0.00000000000E+00  0.00000000000E+00  0.65408710654E+03  0.66592394149E+03  0.12499901159E+03 0.  0.
    9000005    1    3    3    0    0 -0.58576397731E+02 -0.17164669033E+02  0.25569412110E+03  0.26288077868E+03  0.10000000000E+01 0.  0.
    9000005    1    3    3    0    0  0.58576397731E+02  0.17164669033E+02  0.39839298544E+03  0.40304316281E+03  0.10000000000E+01 0.  0.
<mgrwt>
<rscale>  0 0.12499901E+03</rscale>
<asrwt>0</asrwt>
<pdfrwt beam="1">  1        4 0.10153926E+00 0.12499901E+03</pdfrwt>
<pdfrwt beam="2">  1       -4 0.91052625E-03 0.12499901E+03</pdfrwt>
<totfact> 0.44948531E+03</totfact>
</mgrwt>
</event>
<event>
 4    1  0.3293542E-002  0.1244357E+03  0.7818608E-02  0.1235954E+00
         -4   -1    0    0    0  501 -0.00000000000E+00  0.00000000000E+00  0.30193123280E+02  0.30219821200E+02  0.12700000000E+01 0.  1.
          4   -1    0    0  501    0  0.00000000000E+00 -0.00000000000E+00 -0.12812355931E+03  0.12812985347E+03  0.12700000000E+01 0.  1.
    9000005    1    1    2    0    0  0.18195951485E+01 -0.17738395507E+02  0.26877647606E+02  0.32270257862E+02  0.10000000000E+01 0.  0.
    9000005    1    1    2    0    0 -0.18195951485E+01  0.17738395507E+02 -0.12480808364E+03  0.12607941681E+03  0.10000000000E+01 0.  0.
<mgrwt>
<rscale>  0 0.12443572E+03</rscale>
<asrwt>0</asrwt>
<pdfrwt beam="2">  1        4 0.19713854E-01 0.12443572E+03</pdfrwt>
<pdfrwt beam="1">  1       -4 0.46476338E-02 0.12443572E+03</pdfrwt>
<totfact> 0.98911213E+03</totfact>
</mgrwt>
</event>
<event>
 5    1  0.3293542E-002  0.1249998E+03  0.7818608E-02  0.1235070E+00
         -4   -1    0    0    0  501 -0.00000000000E+00  0.00000000000E+00  0.21987421596E+02  0.22024068844E+02  0.12700000000E+01 0.  1.
          4   -1    0    0  501    0  0.00000000000E+00 -0.00000000000E+00 -0.17747106453E+03  0.17747560860E+03  0.12700000000E+01 0.  1.
         25    2    1    2    0    0  0.00000000000E+00  0.00000000000E+00 -0.15548364294E+03  0.19949967744E+03  0.12499983231E+03 0.  0.
    9000005    1    3    3    0    0  0.33413546493E+02  0.40503016929E+02 -0.13182431129E+03  0.14189999477E+03  0.10000000000E+01 0.  0.
    9000005    1    3    3    0    0 -0.33413546493E+02 -0.40503016929E+02 -0.23659331651E+02  0.57599682671E+02  0.10000000000E+01 0.  0.
<mgrwt>
<rscale>  0 0.12499983E+03</rscale>
<asrwt>0</asrwt>
<pdfrwt beam="2">  1        4 0.27306408E-01 0.12499983E+03</pdfrwt>
<pdfrwt beam="1">  1       -4 0.33858489E-02 0.12499983E+03</pdfrwt>
<totfact> 0.90220297E+03</totfact>
</mgrwt>
</event>
<event>
 5    1  0.3293542E-002  0.1249983E+03  0.7818608E-02  0.1235072E+00
         -4   -1    0    0    0  501 -0.00000000000E+00  0.00000000000E+00  0.27607696784E+02  0.27636892403E+02  0.12700000000E+01 0. -1.
          4   -1    0    0  501    0  0.00000000000E+00 -0.00000000000E+00 -0.14138071957E+03  0.14138642356E+03  0.12700000000E+01 0. -1.
         25    2    1    2    0    0  0.00000000000E+00  0.00000000000E+00 -0.11377302279E+03  0.16902331596E+03  0.12499832249E+03 0.  0.
    9000005    1    3    3    0    0 -0.34566194191E+02  0.47678458711E+02 -0.85156579179E+02  0.10354081409E+03  0.10000000000E+01 0.  0.
    9000005    1    3    3    0    0  0.34566194191E+02 -0.47678458711E+02 -0.28616443609E+02  0.65482501867E+02  0.10000000000E+01 0.  0.
<mgrwt>
<rscale>  0 0.12499832E+03</rscale>
<asrwt>0</asrwt>
<pdfrwt beam="2">  1        4 0.21753564E-01 0.12499832E+03</pdfrwt>
<pdfrwt beam="1">  1       -4 0.42500226E-02 0.12499832E+03</pdfrwt>
<totfact> 0.95634421E+03</totfact>
</mgrwt>
</event>
<event>
 5    1  0.3293542E-002  0.1249970E+03  0.7818608E-02  0.1235074E+00
          4   -1    0    0  501    0  0.00000000000E+00  0.00000000000E+00  0.31892301012E+02  0.31917577662E+02  0.12700000000E+01 0.  1.
         -4   -1    0    0    0  501 -0.00000000000E+00 -0.00000000000E+00 -0.12239966004E+03  0.12240624852E+03  0.12700000000E+01 0.  1.
         25    2    1    2    0    0  0.00000000000E+00  0.00000000000E+00 -0.90507359026E+02  0.15432382618E+03  0.12499704513E+03 0.  0.
    9000005    1    3    3    0    0 -0.50746112212E+02  0.31404175168E+02 -0.68141652528E+02  0.90585180531E+02  0.10000000000E+01 0.  0.
    9000005    1    3    3    0    0  0.50746112212E+02 -0.31404175168E+02 -0.22365706498E+02  0.63738645653E+02  0.10000000000E+01 0.  0.
<mgrwt>
<rscale>  0 0.12499705E+03</rscale>
<asrwt>0</asrwt>
<pdfrwt beam="1">  1        4 0.49089591E-02 0.12499705E+03</pdfrwt>
<pdfrwt beam="2">  1       -4 0.18833168E-01 0.12499705E+03</pdfrwt>
<totfact> 0.98454947E+03</totfact>
</mgrwt>
</event>
<event>
 5    1  0.3293542E-002  0.1250016E+03  0.7818608E-02  0.1235067E+00
          4   -1    0    0  501    0  0.00000000000E+00  0.00000000000E+00  0.28034945118E+03  0.28035232775E+03  0.12700000000E+01 0. -1.
         -4   -1    0    0    0  501 -0.00000000000E+00 -0.00000000000E+00 -0.13901962181E+02  0.13959851449E+02  0.12700000000E+01 0. -1.
         25    2    1    2    0    0  0.00000000000E+00  0.00000000000E+00  0.26644748900E+03  0.29431217920E+03  0.12500157772E+03 0.  0.
    9000005    1    3    3    0    0  0.50709493673E+02 -0.36276114293E+02  0.12325141559E+03  0.13812791413E+03  0.10000000000E+01 0.  0.
    9000005    1    3    3    0    0 -0.50709493673E+02  0.36276114293E+02  0.14319607341E+03  0.15618426507E+03  0.10000000000E+01 0.  0.
<mgrwt>
<rscale>  0 0.12500158E+03</rscale>
<asrwt>0</asrwt>
<pdfrwt beam="1">  1        4 0.43135356E-01 0.12500158E+03</pdfrwt>
<pdfrwt beam="2">  1       -4 0.21434379E-02 0.12500158E+03</pdfrwt>
<totfact> 0.76315220E+03</totfact>
</mgrwt>
</event>
<event>
 5    1  0.3293542E-002  0.1249862E+03  0.7818608E-02  0.1235091E+00
          4   -1    0    0  501    0  0.00000000000E+00  0.00000000000E+00  0.47794098717E+03  0.47794267451E+03  0.12700000000E+01 0. -1.
         -4   -1    0    0    0  501 -0.00000000000E+00 -0.00000000000E+00 -0.81202127118E+01  0.82189266018E+01  0.12700000000E+01 0. -1.
         25    2    1    2    0    0  0.00000000000E+00  0.00000000000E+00  0.46982077446E+03  0.48616160111E+03  0.12498616836E+03 0.  0.
    9000005    1    3    3    0    0 -0.28483108230E+02 -0.20054717563E+02  0.43668568491E+03  0.43807404232E+03  0.10000000000E+01 0.  0.
    9000005    1    3    3    0    0  0.28483108230E+02  0.20054717563E+02  0.33135089551E+02  0.48087558792E+02  0.10000000000E+01 0.  0.
<mgrwt>
<rscale>  0 0.12498617E+03</rscale>
<asrwt>0</asrwt>
<pdfrwt beam="1">  1        4 0.73537120E-01 0.12498617E+03</pdfrwt>
<pdfrwt beam="2">  1       -4 0.12569864E-02 0.12498617E+03</pdfrwt>
<totfact> 0.56971596E+03</totfact>
</mgrwt>
</event>
<event>
 5    1  0.3293542E-002  0.1250017E+03  0.7818608E-02  0.1235067E+00
          4   -1    0    0  501    0  0.00000000000E+00  0.00000000000E+00  0.14160485952E+03  0.14161055447E+03  0.12700000000E+01 0.  1.
         -4   -1    0    0    0  501 -0.00000000000E+00 -0.00000000000E+00 -0.27565425935E+02  0.27594666277E+02  0.12700000000E+01 0.  1.
         25    2    1    2    0    0  0.00000000000E+00  0.00000000000E+00  0.11403943358E+03  0.16920522075E+03  0.12500165726E+03 0.  0.
    9000005    1    3    3    0    0  0.41520028999E+02  0.35788292890E+02  0.97642841834E+02  0.11198142381E+03  0.10000000000E+01 0.  0.
    9000005    1    3    3    0    0 -0.41520028999E+02 -0.35788292890E+02  0.16396591747E+02  0.57223796947E+02  0.10000000000E+01 0.  0.
<mgrwt>
<rscale>  0 0.12500166E+03</rscale>
<asrwt>0</asrwt>
<pdfrwt beam="1">  1        4 0.21788050E-01 0.12500166E+03</pdfrwt>
<pdfrwt beam="2">  1       -4 0.42435221E-02 0.12500166E+03</pdfrwt>
<totfact> 0.95593307E+03</totfact>
</mgrwt>
</event>
<event>
 5    1  0.3293542E-002  0.1249989E+03  0.7818608E-02  0.1235071E+00
          4   -1    0    0  501    0  0.00000000000E+00  0.00000000000E+00  0.65908007294E+01  0.67120454599E+01  0.12700000000E+01 0.  1.
         -4   -1    0    0    0  501 -0.00000000000E+00 -0.00000000000E+00 -0.58714818879E+03  0.58714956229E+03  0.12700000000E+01 0.  1.
         25    2    1    2    0    0  0.00000000000E+00  0.00000000000E+00 -0.58055738806E+03  0.59386160775E+03  0.12499891331E+03 0.  0.
    9000005    1    3    3    0    0  0.14278580509E+02 -0.41939083959E+02 -0.80891412457E+02  0.92234403744E+02  0.10000000000E+01 0.  0.
    9000005    1    3    3    0    0 -0.14278580509E+02  0.41939083959E+02 -0.49966597561E+03  0.50162720401E+03  0.10000000000E+01 0.  0.
<mgrwt>
<rscale>  0 0.12499891E+03</rscale>
<asrwt>0</asrwt>
<pdfrwt beam="1">  1        4 0.10234020E-02 0.12499891E+03</pdfrwt>
<pdfrwt beam="2">  1       -4 0.90339882E-01 0.12499891E+03</pdfrwt>
<totfact> 0.49258580E+03</totfact>
</mgrwt>
</event>
<event>
 5    1  0.3293542E-002  0.1250578E+03  0.7818608E-02  0.1234979E+00
          4   -1    0    0  501    0  0.00000000000E+00  0.00000000000E+00  0.13777746913E+04  0.13777752766E+04  0.12700000000E+01 0.  1.
         -4   -1    0    0    0  501 -0.00000000000E+00 -0.00000000000E+00 -0.26951044503E+01  0.29793435515E+01  0.12700000000E+01 0.  1.
         25    2    1    2    0    0  0.00000000000E+00  0.00000000000E+00  0.13750795869E+04  0.13807546202E+04  0.12505779054E+03 0.  0.
    9000005    1    3    3    0    0  0.22198373478E+02  0.57996247209E+02  0.76756200759E+03  0.77007062531E+03  0.10000000000E+01 0.  0.
    9000005    1    3    3    0    0 -0.22198373478E+02 -0.57996247209E+02  0.60751757927E+03  0.61068399487E+03  0.10000000000E+01 0.  0.
<mgrwt>
<rscale>  0 0.12505779E+03</rscale>
<asrwt>0</asrwt>
<pdfrwt beam="1">  1        4 0.21198764E+00 0.12505779E+03</pdfrwt>
<pdfrwt beam="2">  1       -4 0.43654022E-03 0.12505779E+03</pdfrwt>
<totfact> 0.20371943E+03</totfact>
</mgrwt>
</event>
<event>
 5    1  0.3293542E-002  0.1249995E+03  0.7818608E-02  0.1235070E+00
          4   -1    0    0  501    0  0.00000000000E+00  0.00000000000E+00  0.73398670374E+02  0.73409656808E+02  0.12700000000E+01 0.  1.
         -4   -1    0    0    0  501 -0.00000000000E+00 -0.00000000000E+00 -0.53196675108E+02  0.53211832731E+02  0.12700000000E+01 0.  1.
         25    2    1    2    0    0  0.00000000000E+00  0.00000000000E+00  0.20201995266E+02  0.12662148954E+03  0.12499952400E+03 0.  0.
    9000005    1    3    3    0    0  0.20157002579E+02  0.53777244315E+02  0.35056483659E+02  0.67292301236E+02  0.10000000000E+01 0.  0.
    9000005    1    3    3    0    0 -0.20157002579E+02 -0.53777244315E+02 -0.14854488394E+02  0.59329188302E+02  0.10000000000E+01 0.  0.
<mgrwt>
<rscale>  0 0.12499952E+03</rscale>
<asrwt>0</asrwt>
<pdfrwt beam="1">  1        4 0.11294114E-01 0.12499952E+03</pdfrwt>
<pdfrwt beam="2">  1       -4 0.81861149E-02 0.12499952E+03</pdfrwt>
<totfact> 0.10417492E+04</totfact>
</mgrwt>
</event>
<event>
 5    1  0.3293542E-002  0.1249945E+03  0.7818608E-02  0.1235078E+00
         -4   -1    0    0    0  501 -0.00000000000E+00  0.00000000000E+00  0.65535900254E+02  0.65548204568E+02  0.12700000000E+01 0. -1.
          4   -1    0    0  501    0  0.00000000000E+00 -0.00000000000E+00 -0.59574823362E+02  0.59588358583E+02  0.12700000000E+01 0. -1.
         25    2    1    2    0    0  0.00000000000E+00  0.00000000000E+00  0.59610768916E+01  0.12513656315E+03  0.12499449988E+03 0.  0.
    9000005    1    3    3    0    0 -0.32637763978E+02  0.51918958620E+02 -0.90374522234E+01  0.61995785699E+02  0.10000000000E+01 0.  0.
    9000005    1    3    3    0    0  0.32637763978E+02 -0.51918958620E+02  0.14998529115E+02  0.63140777452E+02  0.10000000000E+01 0.  0.
<mgrwt>
<rscale>  0 0.12499450E+03</rscale>
<asrwt>0</asrwt>
<pdfrwt beam="2">  1        4 0.91673450E-02 0.12499450E+03</pdfrwt>
<pdfrwt beam="1">  1       -4 0.10084434E-01 0.12499450E+03</pdfrwt>
<totfact> 0.10451196E+04</totfact>
</mgrwt>
</event>
<event>
 5    1  0.3293542E-002  0.1250011E+03  0.7818608E-02  0.1235068E+00
         -4   -1    0    0    0  501 -0.00000000000E+00  0.00000000000E+00  0.33831802597E+02  0.33855631245E+02  0.12700000000E+01 0. -1.
          4   -1    0    0  501    0  0.00000000000E+00 -0.00000000000E+00 -0.11539489623E+03  0.11540188463E+03  0.12700000000E+01 0. -1.
         25    2    1    2    0    0  0.00000000000E+00  0.00000000000E+00 -0.81563093632E+02  0.14925751587E+03  0.12500107120E+03 0.  0.
    9000005    1    3    3    0    0  0.51084882987E+02 -0.25821836152E+02 -0.10837678404E+02  0.58265665407E+02  0.10000000000E+01 0.  0.
    9000005    1    3    3    0    0 -0.51084882987E+02  0.25821836152E+02 -0.70725415228E+02  0.90991850466E+02  0.10000000000E+01 0.  0.
<mgrwt>
<rscale>  0 0.12500107E+03</rscale>
<asrwt>0</asrwt>
<pdfrwt beam="2">  1        4 0.17755431E-01 0.12500107E+03</pdfrwt>
<pdfrwt beam="1">  1       -4 0.52072633E-02 0.12500107E+03</pdfrwt>
<totfact> 0.99449509E+03</totfact>
</mgrwt>
</event>
<event>
 5    1  0.3293542E-002  0.1249931E+03  0.7818608E-02  0.1235080E+00
          4   -1    0    0  501    0  0.00000000000E+00  0.00000000000E+00  0.16723945622E+03  0.16724427828E+03  0.12700000000E+01 0.  1.
         -4   -1    0    0    0  501 -0.00000000000E+00 -0.00000000000E+00 -0.23332219661E+02  0.23366757890E+02  0.12700000000E+01 0.  1.
         25    2    1    2    0    0  0.00000000000E+00  0.00000000000E+00  0.14390723656E+03  0.19061103617E+03  0.12499309731E+03 0.  0.
    9000005    1    3    3    0    0  0.55306076596E+01 -0.19146314088E+02 -0.18363508973E+02  0.27118027694E+02  0.10000000000E+01 0.  0.
    9000005    1    3    3    0    0 -0.55306076596E+01  0.19146314088E+02  0.16227074553E+03  0.16349300847E+03  0.10000000000E+01 0.  0.
<mgrwt>
<rscale>  0 0.12499310E+03</rscale>
<asrwt>0</asrwt>
<pdfrwt beam="1">  1        4 0.25732175E-01 0.12499310E+03</pdfrwt>
<pdfrwt beam="2">  1       -4 0.35926000E-02 0.12499310E+03</pdfrwt>
<totfact> 0.91755290E+03</totfact>
</mgrwt>
</event>
<event>
 5    1  0.3293542E-002  0.1249981E+03  0.7818608E-02  0.1235072E+00
         -4   -1    0    0    0  501 -0.00000000000E+00  0.00000000000E+00  0.10812923218E+03  0.10813669013E+03  0.12700000000E+01 0.  1.
          4   -1    0    0  501    0  0.00000000000E+00 -0.00000000000E+00 -0.36104811767E+02  0.36127141220E+02  0.12700000000E+01 0.  1.
         25    2    1    2    0    0  0.00000000000E+00  0.00000000000E+00  0.72024420413E+02  0.14426383135E+03  0.12499814358E+03 0.  0.
    9000005    1    3    3    0    0  0.32072321948E+02 -0.34499447473E+02 -0.11381401663E+02  0.48470424126E+02  0.10000000000E+01 0.  0.
    9000005    1    3    3    0    0 -0.32072321948E+02  0.34499447473E+02  0.83405822076E+02  0.95793407223E+02  0.10000000000E+01 0.  0.
<mgrwt>
<rscale>  0 0.12499814E+03</rscale>
<asrwt>0</asrwt>
<pdfrwt beam="2">  1        4 0.55568778E-02 0.12499814E+03</pdfrwt>
<pdfrwt beam="1">  1       -4 0.16637558E-01 0.12499814E+03</pdfrwt>
<totfact> 0.10046387E+04</totfact>
</mgrwt>
</event>
<event>
 5    1  0.3293542E-002  0.1250004E+03  0.7818608E-02  0.1235069E+00
         -4   -1    0    0    0  501 -0.00000000000E+00  0.00000000000E+00  0.74260930522E+02  0.74271789409E+02  0.12700000000E+01 0.  1.
          4   -1    0    0  501    0  0.00000000000E+00 -0.00000000000E+00 -0.52579624971E+02  0.52594960425E+02  0.12700000000E+01 0.  1.
         25    2    1    2    0    0  0.00000000000E+00  0.00000000000E+00  0.21681305550E+02  0.12686674983E+03  0.12500037281E+03 0.  0.
    9000005    1    3    3    0    0  0.27317260521E+02  0.22702494218E+02  0.63024662196E+02  0.72351530813E+02  0.10000000000E+01 0.  0.
    9000005    1    3    3    0    0 -0.27317260521E+02 -0.22702494218E+02 -0.41343356646E+02  0.54515219021E+02  0.10000000000E+01 0.  0.
<mgrwt>
<rscale>  0 0.12500037E+03</rscale>
<asrwt>0</asrwt>
<pdfrwt beam="2">  1        4 0.80911880E-02 0.12500037E+03</pdfrwt>
<pdfrwt beam="1">  1       -4 0.11426773E-01 0.12500037E+03</pdfrwt>
<totfact> 0.10411954E+04</totfact>
</mgrwt>
</event>
<event>
 5    1  0.3293542E-002  0.1249980E+03  0.7818608E-02  0.1235072E+00
          4   -1    0    0  501    0  0.00000000000E+00  0.00000000000E+00  0.61677426949E+02  0.61690500849E+02  0.12700000000E+01 0. -1.
         -4   -1    0    0    0  501 -0.00000000000E+00 -0.00000000000E+00 -0.63305376965E+02  0.63318114728E+02  0.12700000000E+01 0. -1.
         25    2    1    2    0    0  0.00000000000E+00  0.00000000000E+00 -0.16279500163E+01  0.12500861558E+03  0.12499801497E+03 0.  0.
    9000005    1    3    3    0    0  0.17124180523E+02 -0.45883945492E+02 -0.39631592979E+02  0.63009818081E+02  0.10000000000E+01 0.  0.
    9000005    1    3    3    0    0 -0.17124180523E+02  0.45883945492E+02  0.38003642963E+02  0.61998797496E+02  0.10000000000E+01 0.  0.
<mgrwt>
<rscale>  0 0.12499801E+03</rscale>
<asrwt>0</asrwt>
<pdfrwt beam="1">  1        4 0.94908205E-02 0.12499801E+03</pdfrwt>
<pdfrwt beam="2">  1       -4 0.97412742E-02 0.12499801E+03</pdfrwt>
<totfact> 0.10453144E+04</totfact>
</mgrwt>
</event>
<event>
 5    1  0.3293542E-002  0.1249994E+03  0.7818608E-02  0.1235070E+00
         -4   -1    0    0    0  501 -0.00000000000E+00  0.00000000000E+00  0.10160667913E+02  0.10239730096E+02  0.12700000000E+01 0.  1.
          4   -1    0    0  501    0  0.00000000000E+00 -0.00000000000E+00 -0.38287428577E+03  0.38287639207E+03  0.12700000000E+01 0.  1.
         25    2    1    2    0    0  0.00000000000E+00  0.00000000000E+00 -0.37271361786E+03  0.39311612216E+03  0.12499937828E+03 0.  0.
    9000005    1    3    3    0    0 -0.11562306013E+02 -0.50929733597E+02 -0.78430371198E+02  0.94232944403E+02  0.10000000000E+01 0.  0.
    9000005    1    3    3    0    0  0.11562306013E+02  0.50929733597E+02 -0.29428324666E+03  0.29888317776E+03  0.10000000000E+01 0.  0.
<mgrwt>
<rscale>  0 0.12499938E+03</rscale>
<asrwt>0</asrwt>
<pdfrwt beam="2">  1        4 0.58909969E-01 0.12499938E+03</pdfrwt>
<pdfrwt beam="1">  1       -4 0.15694237E-02 0.12499938E+03</pdfrwt>
<totfact> 0.65228759E+03</totfact>
</mgrwt>
</event>
<event>
 5    1  0.3293542E-002  0.1250031E+03  0.7818608E-02  0.1235064E+00
          4   -1    0    0  501    0  0.00000000000E+00  0.00000000000E+00  0.78124917578E+01  0.79150443755E+01  0.12700000000E+01 0. -1.
         -4   -1    0    0    0  501 -0.00000000000E+00 -0.00000000000E+00 -0.49666160714E+03  0.49666323088E+03  0.12700000000E+01 0. -1.
         25    2    1    2    0    0  0.00000000000E+00  0.00000000000E+00 -0.48884911539E+03  0.50457827526E+03  0.12500311296E+03 0.  0.
    9000005    1    3    3    0    0 -0.29185562721E+02 -0.33488328956E+02 -0.42185634762E+03  0.42418986701E+03  0.10000000000E+01 0.  0.
    9000005    1    3    3    0    0  0.29185562721E+02  0.33488328956E+02 -0.66992767768E+02  0.80388408249E+02  0.10000000000E+01 0.  0.
<mgrwt>
<rscale>  0 0.12500311E+03</rscale>
<asrwt>0</asrwt>
<pdfrwt beam="1">  1        4 0.12099358E-02 0.12500311E+03</pdfrwt>
<pdfrwt beam="2">  1       -4 0.76417467E-01 0.12500311E+03</pdfrwt>
<totfact> 0.55507102E+03</totfact>
</mgrwt>
</event>
<event>
 5    1  0.3293542E-002  0.1250041E+03  0.7818608E-02  0.1235063E+00
          4   -1    0    0  501    0  0.00000000000E+00  0.00000000000E+00  0.13391420990E+02  0.13451507578E+02  0.12700000000E+01 0.  1.
         -4   -1    0    0    0  501 -0.00000000000E+00 -0.00000000000E+00 -0.29100242300E+03  0.29100519427E+03  0.12700000000E+01 0.  1.
         25    2    1    2    0    0  0.00000000000E+00  0.00000000000E+00 -0.27761100201E+03  0.30445670184E+03  0.12500405938E+03 0.  0.
    9000005    1    3    3    0    0  0.47127604981E+02  0.26712861070E+02 -0.62914170745E+02  0.83028796078E+02  0.10000000000E+01 0.  0.
    9000005    1    3    3    0    0 -0.47127604981E+02 -0.26712861070E+02 -0.21469683126E+03  0.22142790577E+03  0.10000000000E+01 0.  0.
<mgrwt>
<rscale>  0 0.12500406E+03</rscale>
<asrwt>0</asrwt>
<pdfrwt beam="1">  1        4 0.20650541E-02 0.12500406E+03</pdfrwt>
<pdfrwt beam="2">  1       -4 0.44774434E-01 0.12500406E+03</pdfrwt>
<totfact> 0.75036419E+03</totfact>
</mgrwt>
</event>
<event>
 5    1  0.3293542E-002  0.1250015E+03  0.7818608E-02  0.1235067E+00
         -4   -1    0    0    0  501 -0.00000000000E+00  0.00000000000E+00  0.75276942995E+01  0.76340737138E+01  0.12700000000E+01 0.  1.
          4   -1    0    0  501    0  0.00000000000E+00 -0.00000000000E+00 -0.51518172885E+03  0.51518329422E+03  0.12700000000E+01 0.  1.
         25    2    1    2    0    0  0.00000000000E+00  0.00000000000E+00 -0.50765403455E+03  0.52281736793E+03  0.12500152565E+03 0.  0.
    9000005    1    3    3    0    0 -0.69253424425E+01 -0.60274201939E+02 -0.31648140720E+03  0.32224590128E+03  0.10000000000E+01 0.  0.
    9000005    1    3    3    0    0  0.69253424425E+01  0.60274201939E+02 -0.19117262735E+03  0.20057146666E+03  0.10000000000E+01 0.  0.
<mgrwt>
<rscale>  0 0.12500153E+03</rscale>
<asrwt>0</asrwt>
<pdfrwt beam="2">  1        4 0.79267003E-01 0.12500153E+03</pdfrwt>
<pdfrwt beam="1">  1       -4 0.11664107E-02 0.12500153E+03</pdfrwt>
<totfact> 0.54134681E+03</totfact>
</mgrwt>
</event>
<event>
 5    1  0.3293542E-002  0.1249885E+03  0.7818608E-02  0.1235087E+00
         -4   -1    0    0    0  501 -0.00000000000E+00  0.00000000000E+00  0.41550547048E+02  0.41569951407E+02  0.12700000000E+01 0. -1.
          4   -1    0    0  501    0  0.00000000000E+00 -0.00000000000E+00 -0.93949006903E+02  0.93957590423E+02  0.12700000000E+01 0. -1.
         25    2    1    2    0    0  0.00000000000E+00  0.00000000000E+00 -0.52398459855E+02  0.13552754183E+03  0.12498846347E+03 0.  0.
    9000005    1    3    3    0    0  0.18842241455E+02 -0.10958630261E+02 -0.89698271442E+02  0.92314145936E+02  0.10000000000E+01 0.  0.
    9000005    1    3    3    0    0 -0.18842241455E+02  0.10958630261E+02  0.37299811587E+02  0.43213395894E+02  0.10000000000E+01 0.  0.
<mgrwt>
<rscale>  0 0.12498846E+03</rscale>
<asrwt>0</asrwt>
<pdfrwt beam="2">  1        4 0.14455846E-01 0.12498846E+03</pdfrwt>
<pdfrwt beam="1">  1       -4 0.63945448E-02 0.12498846E+03</pdfrwt>
<totfact> 0.10229625E+04</totfact>
</mgrwt>
</event>
<event>
 5    1  0.3293542E-002  0.1249867E+03  0.7818608E-02  0.1235090E+00
         -4   -1    0    0    0  501 -0.00000000000E+00  0.00000000000E+00  0.37793836339E+02  0.37815168454E+02  0.12700000000E+01 0.  1.
          4   -1    0    0  501    0  0.00000000000E+00 -0.00000000000E+00 -0.10328041348E+03  0.10328822154E+03  0.12700000000E+01 0.  1.
         25    2    1    2    0    0  0.00000000000E+00  0.00000000000E+00 -0.65486577143E+02  0.14110338999E+03  0.12498669882E+03 0.  0.
    9000005    1    3    3    0    0  0.11777417849E+02  0.57745983261E+02 -0.56183903006E+02  0.81430566196E+02  0.10000000000E+01 0.  0.
    9000005    1    3    3    0    0 -0.11777417849E+02 -0.57745983261E+02 -0.93026741362E+01  0.59672823798E+02  0.10000000000E+01 0.  0.
<mgrwt>
<rscale>  0 0.12498670E+03</rscale>
<asrwt>0</asrwt>
<pdfrwt beam="2">  1        4 0.15891536E-01 0.12498670E+03</pdfrwt>
<pdfrwt beam="1">  1       -4 0.58166779E-02 0.12498670E+03</pdfrwt>
<totfact> 0.10113799E+04</totfact>
</mgrwt>
</event>
<event>
 5    1  0.3293542E-002  0.1250050E+03  0.7818608E-02  0.1235061E+00
          4   -1    0    0  501    0  0.00000000000E+00  0.00000000000E+00  0.38984283305E+03  0.38984490170E+03  0.12700000000E+01 0. -1.
         -4   -1    0    0    0  501 -0.00000000000E+00 -0.00000000000E+00 -0.99785258085E+01  0.10059019699E+02  0.12700000000E+01 0. -1.
         25    2    1    2    0    0  0.00000000000E+00  0.00000000000E+00  0.37986430724E+03  0.39990392140E+03  0.12500501763E+03 0.  0.
    9000005    1    3    3    0    0 -0.48385765083E+02 -0.20260053329E+02  0.29860335889E+03  0.30317753539E+03  0.10000000000E+01 0.  0.
    9000005    1    3    3    0    0  0.48385765083E+02  0.20260053329E+02  0.81260948351E+02  0.96726386009E+02  0.10000000000E+01 0.  0.
<mgrwt>
<rscale>  0 0.12500502E+03</rscale>
<asrwt>0</asrwt>
<pdfrwt beam="1">  1        4 0.59982163E-01 0.12500502E+03</pdfrwt>
<pdfrwt beam="2">  1       -4 0.15415090E-02 0.12500502E+03</pdfrwt>
<totfact> 0.64554987E+03</totfact>
</mgrwt>
</event>
<event>
 5    1  0.3293542E-002  0.1250022E+03  0.7818608E-02  0.1235066E+00
         -4   -1    0    0    0  501 -0.00000000000E+00  0.00000000000E+00  0.17566323596E+03  0.17566782678E+03  0.12700000000E+01 0. -1.
          4   -1    0    0  501    0  0.00000000000E+00 -0.00000000000E+00 -0.22214909856E+02  0.22251182438E+02  0.12700000000E+01 0. -1.
         25    2    1    2    0    0  0.00000000000E+00  0.00000000000E+00  0.15344832610E+03  0.19791900922E+03  0.12500218169E+03 0.  0.
    9000005    1    3    3    0    0 -0.35457222030E+02 -0.37437096847E+02  0.20820576972E+02  0.55616968992E+02  0.10000000000E+01 0.  0.
    9000005    1    3    3    0    0  0.35457222030E+02  0.37437096847E+02  0.13262774913E+03  0.14230204023E+03  0.10000000000E+01 0.  0.
<mgrwt>
<rscale>  0 0.12500218E+03</rscale>
<asrwt>0</asrwt>
<pdfrwt beam="2">  1        4 0.34208217E-02 0.12500218E+03</pdfrwt>
<pdfrwt beam="1">  1       -4 0.27028257E-01 0.12500218E+03</pdfrwt>
<totfact> 0.90482978E+03</totfact>
</mgrwt>
</event>
<event>
 5    1  0.3293542E-002  0.1250012E+03  0.7818608E-02  0.1235067E+00
         -4   -1    0    0    0  501 -0.00000000000E+00  0.00000000000E+00  0.58943617346E+02  0.58957297477E+02  0.12700000000E+01 0. -1.
          4   -1    0    0  501    0  0.00000000000E+00 -0.00000000000E+00 -0.66244742358E+02  0.66256915036E+02  0.12700000000E+01 0. -1.
         25    2    1    2    0    0  0.00000000000E+00  0.00000000000E+00 -0.73011250126E+01  0.12521421251E+03  0.12500117035E+03 0.  0.
    9000005    1    3    3    0    0 -0.11775944233E+02  0.60836325957E+02 -0.11763237650E+02  0.63080148847E+02  0.10000000000E+01 0.  0.
    9000005    1    3    3    0    0  0.11775944233E+02 -0.60836325957E+02  0.44621126373E+01  0.62134063666E+02  0.10000000000E+01 0.  0.
<mgrwt>
<rscale>  0 0.12500117E+03</rscale>
<asrwt>0</asrwt>
<pdfrwt beam="2">  1        4 0.10193487E-01 0.12500117E+03</pdfrwt>
<pdfrwt beam="1">  1       -4 0.90702375E-02 0.12500117E+03</pdfrwt>
<totfact> 0.10447935E+04</totfact>
</mgrwt>
</event>
<event>
 5    1  0.3293542E-002  0.1250178E+03  0.7818608E-02  0.1235041E+00
         -4   -1    0    0    0  501 -0.00000000000E+00  0.00000000000E+00  0.83066352638E+02  0.83076060575E+02  0.12700000000E+01 0. -1.
          4   -1    0    0  501    0  0.00000000000E+00 -0.00000000000E+00 -0.47018049452E+02  0.47035198249E+02  0.12700000000E+01 0. -1.
         25    2    1    2    0    0  0.00000000000E+00  0.00000000000E+00  0.36048303186E+02  0.13011125882E+03  0.12501783677E+03 0.  0.
    9000005    1    3    3    0    0 -0.31249256174E+01 -0.32147844418E+02 -0.37663942799E+02  0.49626823875E+02  0.10000000000E+01 0.  0.
    9000005    1    3    3    0    0  0.31249256174E+01  0.32147844418E+02  0.73712245985E+02  0.80484434948E+02  0.10000000000E+01 0.  0.
<mgrwt>
<rscale>  0 0.12501784E+03</rscale>
<asrwt>0</asrwt>
<pdfrwt beam="2">  1        4 0.72356121E-02 0.12501784E+03</pdfrwt>
<pdfrwt beam="1">  1       -4 0.12781505E-01 0.12501784E+03</pdfrwt>
<totfact> 0.10337965E+04</totfact>
</mgrwt>
</event>
<event>
 5    1  0.3293542E-002  0.1250011E+03  0.7818608E-02  0.1235068E+00
         -4   -1    0    0    0  501 -0.00000000000E+00  0.00000000000E+00  0.14339188444E+02  0.14395319560E+02  0.12700000000E+01 0. -1.
          4   -1    0    0  501    0  0.00000000000E+00 -0.00000000000E+00 -0.27183270071E+03  0.27183566741E+03  0.12700000000E+01 0. -1.
         25    2    1    2    0    0  0.00000000000E+00  0.00000000000E+00 -0.25749351227E+03  0.28623098697E+03  0.12500107616E+03 0.  0.
    9000005    1    3    3    0    0 -0.59345775763E+02  0.11084652473E+02 -0.91787011279E+02  0.10986649198E+03  0.10000000000E+01 0.  0.
    9000005    1    3    3    0    0  0.59345775763E+02 -0.11084652473E+02 -0.16570650099E+03  0.17636449499E+03  0.10000000000E+01 0.  0.
<mgrwt>
<rscale>  0 0.12500108E+03</rscale>
<asrwt>0</asrwt>
<pdfrwt beam="2">  1        4 0.41824958E-01 0.12500108E+03</pdfrwt>
<pdfrwt beam="1">  1       -4 0.22105752E-02 0.12500108E+03</pdfrwt>
<totfact> 0.77357262E+03</totfact>
</mgrwt>
</event>
<event>
 5    1  0.3293542E-002  0.1250048E+03  0.7818608E-02  0.1235062E+00
          4   -1    0    0  501    0  0.00000000000E+00  0.00000000000E+00  0.90161850006E+02  0.90170794033E+02  0.12700000000E+01 0.  1.
         -4   -1    0    0    0  501 -0.00000000000E+00 -0.00000000000E+00 -0.43307772577E+02  0.43326389944E+02  0.12700000000E+01 0.  1.
         25    2    1    2    0    0  0.00000000000E+00  0.00000000000E+00  0.46854077429E+02  0.13349718398E+03  0.12500477414E+03 0.  0.
    9000005    1    3    3    0    0  0.36679623589E+02 -0.40303770597E+02 -0.92413465577E+01  0.55282829135E+02  0.10000000000E+01 0.  0.
    9000005    1    3    3    0    0 -0.36679623589E+02  0.40303770597E+02  0.56095423987E+02  0.78214354841E+02  0.10000000000E+01 0.  0.
<mgrwt>
<rscale>  0 0.12500477E+03</rscale>
<asrwt>0</asrwt>
<pdfrwt beam="1">  1        4 0.13873174E-01 0.12500477E+03</pdfrwt>
<pdfrwt beam="2">  1       -4 0.66648544E-02 0.12500477E+03</pdfrwt>
<totfact> 0.10268739E+04</totfact>
</mgrwt>
</event>
<event>
 5    1  0.3293542E-002  0.1250016E+03  0.7818608E-02  0.1235067E+00
         -4   -1    0    0    0  501 -0.00000000000E+00  0.00000000000E+00  0.12722653963E+03  0.12723287816E+03  0.12700000000E+01 0. -1.
          4   -1    0    0  501    0  0.00000000000E+00 -0.00000000000E+00 -0.30683636027E+02  0.30709907519E+02  0.12700000000E+01 0. -1.
         25    2    1    2    0    0  0.00000000000E+00  0.00000000000E+00  0.96542903600E+02  0.15794278568E+03  0.12500156524E+03 0.  0.
    9000005    1    3    3    0    0 -0.37613879297E+02  0.38418929056E+02  0.88516898023E+02  0.10357151762E+03  0.10000000000E+01 0.  0.
    9000005    1    3    3    0    0  0.37613879297E+02 -0.38418929056E+02  0.80260055770E+01  0.54371268066E+02  0.10000000000E+01 0.  0.
<mgrwt>
<rscale>  0 0.12500157E+03</rscale>
<asrwt>0</asrwt>
<pdfrwt beam="2">  1        4 0.47230679E-02 0.12500157E+03</pdfrwt>
<pdfrwt beam="1">  1       -4 0.19575822E-01 0.12500157E+03</pdfrwt>
<totfact> 0.97737432E+03</totfact>
</mgrwt>
</event>
<event>
 5    1  0.3293542E-002  0.1249999E+03  0.7818608E-02  0.1235069E+00
         -4   -1    0    0    0  501 -0.00000000000E+00  0.00000000000E+00  0.95342733819E+01  0.96184857915E+01  0.12700000000E+01 0.  1.
          4   -1    0    0  501    0  0.00000000000E+00 -0.00000000000E+00 -0.40781866109E+03  0.40782063856E+03  0.12700000000E+01 0.  1.
         25    2    1    2    0    0  0.00000000000E+00  0.00000000000E+00 -0.39828438771E+03  0.41743912435E+03  0.12499987618E+03 0.  0.
    9000005    1    3    3    0    0  0.83934176919E+01 -0.75624478848E+01  0.61118292305E+01  0.12883886646E+02  0.10000000000E+01 0.  0.
    9000005    1    3    3    0    0 -0.83934176919E+01  0.75624478848E+01 -0.40439621694E+03  0.40455523771E+03  0.10000000000E+01 0.  0.
<mgrwt>
<rscale>  0 0.12499988E+03</rscale>
<asrwt>0</asrwt>
<pdfrwt beam="2">  1        4 0.62747949E-01 0.12499988E+03</pdfrwt>
<pdfrwt beam="1">  1       -4 0.14734416E-02 0.12499988E+03</pdfrwt>
<totfact> 0.62891477E+03</totfact>
</mgrwt>
</event>
<event>
 5    1  0.3293542E-002  0.1250081E+03  0.7818608E-02  0.1235057E+00
         -4   -1    0    0    0  501 -0.00000000000E+00  0.00000000000E+00  0.19395848091E+03  0.19396263871E+03  0.12700000000E+01 0. -1.
          4   -1    0    0  501    0  0.00000000000E+00 -0.00000000000E+00 -0.20117843156E+02  0.20157889603E+02  0.12700000000E+01 0. -1.
         25    2    1    2    0    0  0.00000000000E+00  0.00000000000E+00  0.17384063775E+03  0.21412052832E+03  0.12500813298E+03 0.  0.
    9000005    1    3    3    0    0  0.44989291736E+02 -0.43376775355E+02  0.86199053559E+02  0.10647468171E+03  0.10000000000E+01 0.  0.
    9000005    1    3    3    0    0 -0.44989291736E+02  0.43376775355E+02  0.87641584193E+02  0.10764584660E+03  0.10000000000E+01 0.  0.
<mgrwt>
<rscale>  0 0.12500813E+03</rscale>
<asrwt>0</asrwt>
<pdfrwt beam="2">  1        4 0.30984532E-02 0.12500813E+03</pdfrwt>
<pdfrwt beam="1">  1       -4 0.29843166E-01 0.12500813E+03</pdfrwt>
<totfact> 0.87791377E+03</totfact>
</mgrwt>
</event>
<event>
 5    1  0.3293542E-002  0.1249997E+03  0.7818608E-02  0.1235070E+00
         -4   -1    0    0    0  501 -0.00000000000E+00  0.00000000000E+00  0.39208425397E+01  0.41213961495E+01  0.12700000000E+01 0.  1.
          4   -1    0    0  501    0  0.00000000000E+00 -0.00000000000E+00 -0.97122738962E+03  0.97122821996E+03  0.12700000000E+01 0.  1.
         25    2    1    2    0    0  0.00000000000E+00  0.00000000000E+00 -0.96730654708E+03  0.97534961611E+03  0.12499967049E+03 0.  0.
    9000005    1    3    3    0    0 -0.12482222305E+02 -0.60989671921E+02 -0.44114155678E+03  0.44551365756E+03  0.10000000000E+01 0.  0.
    9000005    1    3    3    0    0  0.12482222305E+02  0.60989671921E+02 -0.52616499030E+03  0.52983595855E+03  0.10000000000E+01 0.  0.
<mgrwt>
<rscale>  0 0.12499967E+03</rscale>
<asrwt>0</asrwt>
<pdfrwt beam="2">  1        4 0.14943490E+00 0.12499967E+03</pdfrwt>
<pdfrwt beam="1">  1       -4 0.61869839E-03 0.12499967E+03</pdfrwt>
<totfact> 0.31432978E+03</totfact>
</mgrwt>
</event>
<event>
 5    1  0.3293542E-002  0.1250004E+03  0.7818608E-02  0.1235069E+00
          4   -1    0    0  501    0  0.00000000000E+00  0.00000000000E+00  0.32852560592E+02  0.32877098982E+02  0.12700000000E+01 0.  1.
         -4   -1    0    0    0  501 -0.00000000000E+00 -0.00000000000E+00 -0.11883094224E+03  0.11883772857E+03  0.12700000000E+01 0.  1.
         25    2    1    2    0    0  0.00000000000E+00  0.00000000000E+00 -0.85978381644E+02  0.15171482756E+03  0.12500042716E+03 0.  0.
    9000005    1    3    3    0    0 -0.10450994533E+01 -0.61759151959E+02 -0.31475420785E+02  0.69332439718E+02  0.10000000000E+01 0.  0.
    9000005    1    3    3    0    0  0.10450994533E+01  0.61759151959E+02 -0.54502960859E+02  0.82382387838E+02  0.10000000000E+01 0.  0.
<mgrwt>
<rscale>  0 0.12500043E+03</rscale>
<asrwt>0</asrwt>
<pdfrwt beam="1">  1        4 0.50566498E-02 0.12500043E+03</pdfrwt>
<pdfrwt beam="2">  1       -4 0.18284093E-01 0.12500043E+03</pdfrwt>
<totfact> 0.98962014E+03</totfact>
</mgrwt>
</event>
<event>
 5    1  0.3293542E-002  0.1250051E+03  0.7818608E-02  0.1235061E+00
          4   -1    0    0  501    0  0.00000000000E+00  0.00000000000E+00  0.32189812259E+02  0.32214855475E+02  0.12700000000E+01 0.  1.
         -4   -1    0    0    0  501 -0.00000000000E+00 -0.00000000000E+00 -0.12128490793E+03  0.12129155697E+03  0.12700000000E+01 0.  1.
         25    2    1    2    0    0  0.00000000000E+00  0.00000000000E+00 -0.89095095670E+02  0.15350641244E+03  0.12500513025E+03 0.  0.
    9000005    1    3    3    0    0  0.39958060222E+02 -0.30056268389E+02  0.14909379960E+01  0.50032476875E+02  0.10000000000E+01 0.  0.
    9000005    1    3    3    0    0 -0.39958060222E+02  0.30056268389E+02 -0.90586033666E+02  0.10347393557E+03  0.10000000000E+01 0.  0.
<mgrwt>
<rscale>  0 0.12500513E+03</rscale>
<asrwt>0</asrwt>
<pdfrwt beam="1">  1        4 0.49547167E-02 0.12500513E+03</pdfrwt>
<pdfrwt beam="2">  1       -4 0.18661654E-01 0.12500513E+03</pdfrwt>
<totfact> 0.98597903E+03</totfact>
</mgrwt>
</event>
<event>
 5    1  0.3293542E-002  0.1249989E+03  0.7818608E-02  0.1235071E+00
          4   -1    0    0  501    0  0.00000000000E+00  0.00000000000E+00  0.85430148685E+03  0.85430243084E+03  0.12700000000E+01 0. -1.
         -4   -1    0    0    0  501 -0.00000000000E+00 -0.00000000000E+00 -0.44832186077E+01  0.46596297154E+01  0.12700000000E+01 0. -1.
         25    2    1    2    0    0  0.00000000000E+00  0.00000000000E+00  0.84981826825E+03  0.85896206056E+03  0.12499892972E+03 0.  0.
    9000005    1    3    3    0    0  0.20451928508E+02 -0.53543233986E+01  0.20803589221E+02  0.29677255319E+02  0.10000000000E+01 0.  0.
    9000005    1    3    3    0    0 -0.20451928508E+02  0.53543233986E+01  0.82901467902E+03  0.82928480524E+03  0.10000000000E+01 0.  0.
<mgrwt>
<rscale>  0 0.12499893E+03</rscale>
<asrwt>0</asrwt>
<pdfrwt beam="1">  1        4 0.13144467E+00 0.12499893E+03</pdfrwt>
<pdfrwt beam="2">  1       -4 0.70336847E-03 0.12499893E+03</pdfrwt>
<totfact> 0.35764195E+03</totfact>
</mgrwt>
</event>
<event>
 5    1  0.3293542E-002  0.1250009E+03  0.7818608E-02  0.1235068E+00
         -4   -1    0    0    0  501 -0.00000000000E+00  0.00000000000E+00  0.53818143166E+02  0.53833125804E+02  0.12700000000E+01 0. -1.
          4   -1    0    0  501    0  0.00000000000E+00 -0.00000000000E+00 -0.72552791114E+02  0.72563905618E+02  0.12700000000E+01 0. -1.
         25    2    1    2    0    0  0.00000000000E+00  0.00000000000E+00 -0.18734647948E+02  0.12639703142E+03  0.12500089007E+03 0.  0.
    9000005    1    3    3    0    0 -0.53006035277E+02  0.36403179739E+01 -0.42634846291E+02  0.68129448912E+02  0.10000000000E+01 0.  0.
    9000005    1    3    3    0    0  0.53006035277E+02 -0.36403179739E+01  0.23900198343E+02  0.58267582510E+02  0.10000000000E+01 0.  0.
<mgrwt>
<rscale>  0 0.12500089E+03</rscale>
<asrwt>0</asrwt>
<pdfrwt beam="2">  1        4 0.11163975E-01 0.12500089E+03</pdfrwt>
<pdfrwt beam="1">  1       -4 0.82817218E-02 0.12500089E+03</pdfrwt>
<totfact> 0.10422065E+04</totfact>
</mgrwt>
</event>
<event>
 5    1  0.3293542E-002  0.1250008E+03  0.7818608E-02  0.1235068E+00
          4   -1    0    0  501    0  0.00000000000E+00  0.00000000000E+00  0.49934351155E+01  0.51524066467E+01  0.12700000000E+01 0.  1.
         -4   -1    0    0    0  501 -0.00000000000E+00 -0.00000000000E+00 -0.76987043017E+03  0.76987147769E+03  0.12700000000E+01 0.  1.
         25    2    1    2    0    0  0.00000000000E+00  0.00000000000E+00 -0.76487699506E+03  0.77502388433E+03  0.12500081487E+03 0.  0.
    9000005    1    3    3    0    0 -0.40334753658E+02 -0.37878937333E+02 -0.56252002241E+03  0.56523577545E+03  0.10000000000E+01 0.  0.
    9000005    1    3    3    0    0  0.40334753658E+02  0.37878937333E+02 -0.20235697265E+03  0.20978810888E+03  0.10000000000E+01 0.  0.
<mgrwt>
<rscale>  0 0.12500081E+03</rscale>
<asrwt>0</asrwt>
<pdfrwt beam="1">  1        4 0.78053055E-03 0.12500081E+03</pdfrwt>
<pdfrwt beam="2">  1       -4 0.11845382E+00 0.12500081E+03</pdfrwt>
<totfact> 0.39403641E+03</totfact>
</mgrwt>
</event>
<event>
 5    1  0.3293542E-002  0.1250004E+03  0.7818608E-02  0.1235069E+00
          4   -1    0    0  501    0  0.00000000000E+00  0.00000000000E+00  0.92553547370E+01  0.93420817438E+01  0.12700000000E+01 0. -1.
         -4   -1    0    0    0  501 -0.00000000000E+00 -0.00000000000E+00 -0.41999964877E+03  0.42000156889E+03  0.12700000000E+01 0. -1.
         25    2    1    2    0    0  0.00000000000E+00  0.00000000000E+00 -0.41074429404E+03  0.42934365063E+03  0.12500038102E+03 0.  0.
    9000005    1    3    3    0    0  0.18151570595E+02  0.48415007952E+02 -0.32592028649E+03  0.32999776614E+03  0.10000000000E+01 0.  0.
    9000005    1    3    3    0    0 -0.18151570595E+02 -0.48415007952E+02 -0.84824007548E+02  0.99345884497E+02  0.10000000000E+01 0.  0.
<mgrwt>
<rscale>  0 0.12500038E+03</rscale>
<asrwt>0</asrwt>
<pdfrwt beam="1">  1        4 0.14307201E-02 0.12500038E+03</pdfrwt>
<pdfrwt beam="2">  1       -4 0.64622135E-01 0.12500038E+03</pdfrwt>
<totfact> 0.61795018E+03</totfact>
</mgrwt>
</event>
<event>
 5    1  0.3293542E-002  0.1250012E+03  0.7818608E-02  0.1235067E+00
          4   -1    0    0  501    0  0.00000000000E+00  0.00000000000E+00  0.14178901844E+03  0.14179470600E+03  0.12700000000E+01 0.  1.
         -4   -1    0    0    0  501 -0.00000000000E+00 -0.00000000000E+00 -0.27529390167E+02  0.27558668745E+02  0.12700000000E+01 0.  1.
         25    2    1    2    0    0  0.00000000000E+00  0.00000000000E+00  0.11425962827E+03  0.16935337475E+03  0.12500121153E+03 0.  0.
    9000005    1    3    3    0    0 -0.57349926966E+01 -0.44673630037E+02 -0.15619729042E+01  0.45078410812E+02  0.10000000000E+01 0.  0.
    9000005    1    3    3    0    0  0.57349926966E+01  0.44673630037E+02  0.11582160118E+03  0.12427496393E+03  0.10000000000E+01 0.  0.
<mgrwt>
<rscale>  0 0.12500121E+03</rscale>
<asrwt>0</asrwt>
<pdfrwt beam="1">  1        4 0.21816385E-01 0.12500121E+03</pdfrwt>
<pdfrwt beam="2">  1       -4 0.42379805E-02 0.12500121E+03</pdfrwt>
<totfact> 0.95566625E+03</totfact>
</mgrwt>
</event>
<event>
 5    1  0.3293542E-002  0.1250024E+03  0.7818608E-02  0.1235066E+00
         -4   -1    0    0    0  501 -0.00000000000E+00  0.00000000000E+00  0.12376168336E+03  0.12376819934E+03  0.12700000000E+01 0.  1.
          4   -1    0    0  501    0  0.00000000000E+00 -0.00000000000E+00 -0.31543753316E+02  0.31569309040E+02  0.12700000000E+01 0.  1.
         25    2    1    2    0    0  0.00000000000E+00  0.00000000000E+00  0.92217930044E+02  0.15533750838E+03  0.12500237953E+03 0.  0.
    9000005    1    3    3    0    0 -0.46248054869E+02 -0.83452580303E+01 -0.50807486167E+01  0.47279381524E+02  0.10000000000E+01 0.  0.
    9000005    1    3    3    0    0  0.46248054869E+02  0.83452580303E+01  0.97298678660E+02  0.10805812686E+03  0.10000000000E+01 0.  0.
<mgrwt>
<rscale>  0 0.12500238E+03</rscale>
<asrwt>0</asrwt>
<pdfrwt beam="2">  1        4 0.48553522E-02 0.12500238E+03</pdfrwt>
<pdfrwt beam="1">  1       -4 0.19042726E-01 0.12500238E+03</pdfrwt>
<totfact> 0.98244025E+03</totfact>
</mgrwt>
</event>
<event>
 5    1  0.3293542E-002  0.1250015E+03  0.7818608E-02  0.1235067E+00
         -4   -1    0    0    0  501 -0.00000000000E+00  0.00000000000E+00  0.33841030325E+03  0.33841268629E+03  0.12700000000E+01 0. -1.
          4   -1    0    0  501    0  0.00000000000E+00 -0.00000000000E+00 -0.11505858559E+02  0.11575736745E+02  0.12700000000E+01 0. -1.
         25    2    1    2    0    0  0.00000000000E+00  0.00000000000E+00  0.32690444469E+03  0.34998842304E+03  0.12500152120E+03 0.  0.
    9000005    1    3    3    0    0  0.36741127579E+02  0.47734931615E+02  0.11686895002E+03  0.13148340439E+03  0.10000000000E+01 0.  0.
    9000005    1    3    3    0    0 -0.36741127579E+02 -0.47734931615E+02  0.21003549467E+03  0.21850501864E+03  0.10000000000E+01 0.  0.
<mgrwt>
<rscale>  0 0.12500152E+03</rscale>
<asrwt>0</asrwt>
<pdfrwt beam="2">  1        4 0.17756904E-02 0.12500152E+03</pdfrwt>
<pdfrwt beam="1">  1       -4 0.52068689E-01 0.12500152E+03</pdfrwt>
<totfact> 0.69723476E+03</totfact>
</mgrwt>
</event>
<event>
 5    1  0.3293542E-002  0.1249995E+03  0.7818608E-02  0.1235070E+00
         -4   -1    0    0    0  501 -0.00000000000E+00  0.00000000000E+00  0.14777261551E+04  0.14777267008E+04  0.12700000000E+01 0. -1.
          4   -1    0    0  501    0  0.00000000000E+00 -0.00000000000E+00 -0.24902804240E+01  0.27954242236E+01  0.12700000000E+01 0. -1.
         25    2    1    2    0    0  0.00000000000E+00  0.00000000000E+00  0.14752358747E+04  0.14805221250E+04  0.12499950745E+03 0.  0.
    9000005    1    3    3    0    0 -0.42216153036E+02 -0.44704994830E+02  0.86976416736E+03  0.87193546032E+03  0.10000000000E+01 0.  0.
    9000005    1    3    3    0    0  0.42216153036E+02  0.44704994830E+02  0.60547170729E+03  0.60858666472E+03  0.10000000000E+01 0.  0.
<mgrwt>
<rscale>  0 0.12499951E+03</rscale>
<asrwt>0</asrwt>
<pdfrwt beam="2">  1        4 0.40663418E-03 0.12499951E+03</pdfrwt>
<pdfrwt beam="1">  1       -4 0.22736626E+00 0.12499951E+03</pdfrwt>
<totfact> 0.18316283E+03</totfact>
</mgrwt>
</event>
<event>
 5    1  0.3293542E-002  0.1249992E+03  0.7818608E-02  0.1235071E+00
         -4   -1    0    0    0  501 -0.00000000000E+00  0.00000000000E+00  0.25521242135E+03  0.25521558125E+03  0.12700000000E+01 0.  1.
          4   -1    0    0  501    0  0.00000000000E+00 -0.00000000000E+00 -0.15276074884E+02  0.15328775681E+02  0.12700000000E+01 0.  1.
         25    2    1    2    0    0  0.00000000000E+00  0.00000000000E+00  0.23993634647E+03  0.27054435693E+03  0.12499919484E+03 0.  0.
    9000005    1    3    3    0    0 -0.56390669398E+02 -0.14571785358E+01  0.61764408234E+02  0.83653290962E+02  0.10000000000E+01 0.  0.
    9000005    1    3    3    0    0  0.56390669398E+02  0.14571785358E+01  0.17817193823E+03  0.18689106597E+03  0.10000000000E+01 0.  0.
<mgrwt>
<rscale>  0 0.12499919E+03</rscale>
<asrwt>0</asrwt>
<pdfrwt beam="2">  1        4 0.23544624E-02 0.12499919E+03</pdfrwt>
<pdfrwt beam="1">  1       -4 0.39267746E-01 0.12499919E+03</pdfrwt>
<totfact> 0.79450133E+03</totfact>
</mgrwt>
</event>
<event>
 5    1  0.3293542E-002  0.1250196E+03  0.7818608E-02  0.1235039E+00
         -4   -1    0    0    0  501 -0.00000000000E+00  0.00000000000E+00  0.64204318705E+03  0.64204444311E+03  0.12700000000E+01 0. -1.
          4   -1    0    0  501    0  0.00000000000E+00 -0.00000000000E+00 -0.60184722210E+01  0.61510086876E+01  0.12700000000E+01 0. -1.
         25    2    1    2    0    0  0.00000000000E+00  0.00000000000E+00  0.63602471482E+03  0.64819545180E+03  0.12501962193E+03 0.  0.
    9000005    1    3    3    0    0  0.35299536952E+02  0.59153225534E+01  0.52351320054E+02  0.63424830006E+02  0.10000000000E+01 0.  0.
    9000005    1    3    3    0    0 -0.35299536952E+02 -0.59153225534E+01  0.58367339477E+03  0.58477062179E+03  0.10000000000E+01 0.  0.
<mgrwt>
<rscale>  0 0.12501962E+03</rscale>
<asrwt>0</asrwt>
<pdfrwt beam="2">  1        4 0.93621108E-03 0.12501962E+03</pdfrwt>
<pdfrwt beam="1">  1       -4 0.98786109E-01 0.12501962E+03</pdfrwt>
<totfact> 0.45940274E+03</totfact>
</mgrwt>
</event>
<event>
 5    1  0.3293542E-002  0.1250021E+03  0.7818608E-02  0.1235066E+00
          4   -1    0    0  501    0  0.00000000000E+00  0.00000000000E+00  0.17020940542E+02  0.17068254654E+02  0.12700000000E+01 0.  1.
         -4   -1    0    0    0  501 -0.00000000000E+00 -0.00000000000E+00 -0.22913665788E+03  0.22914017736E+03  0.12700000000E+01 0.  1.
         25    2    1    2    0    0  0.00000000000E+00  0.00000000000E+00 -0.21211571733E+03  0.24620843202E+03  0.12500205781E+03 0.  0.
    9000005    1    3    3    0    0  0.33060038213E+02  0.33011999662E+02 -0.18780650097E+03  0.19353304641E+03  0.10000000000E+01 0.  0.
    9000005    1    3    3    0    0 -0.33060038213E+02 -0.33011999662E+02 -0.24309216366E+02  0.52675385605E+02  0.10000000000E+01 0.  0.
<mgrwt>
<rscale>  0 0.12500206E+03</rscale>
<asrwt>0</asrwt>
<pdfrwt beam="1">  1        4 0.26225167E-02 0.12500206E+03</pdfrwt>
<pdfrwt beam="2">  1       -4 0.35255702E-01 0.12500206E+03</pdfrwt>
<totfact> 0.82877535E+03</totfact>
</mgrwt>
</event>
<event>
 5    1  0.3293542E-002  0.1250071E+03  0.7818608E-02  0.1235058E+00
         -4   -1    0    0    0  501 -0.00000000000E+00  0.00000000000E+00  0.14117995311E+02  0.14175002349E+02  0.12700000000E+01 0. -1.
          4   -1    0    0  501    0  0.00000000000E+00 -0.00000000000E+00 -0.27610128473E+03  0.27610420556E+03  0.12700000000E+01 0. -1.
         25    2    1    2    0    0  0.00000000000E+00  0.00000000000E+00 -0.26198328942E+03  0.29027920791E+03  0.12500709824E+03 0.  0.
    9000005    1    3    3    0    0 -0.36884869842E+02  0.40278416430E+02 -0.60449830440E+02  0.81474084552E+02  0.10000000000E+01 0.  0.
    9000005    1    3    3    0    0  0.36884869842E+02 -0.40278416430E+02 -0.20153345898E+03  0.20880512336E+03  0.10000000000E+01 0.  0.
<mgrwt>
<rscale>  0 0.12500710E+03</rscale>
<asrwt>0</asrwt>
<pdfrwt beam="2">  1        4 0.42481726E-01 0.12500710E+03</pdfrwt>
<pdfrwt beam="1">  1       -4 0.21766093E-02 0.12500710E+03</pdfrwt>
<totfact> 0.76822492E+03</totfact>
</mgrwt>
</event>
<event>
 5    1  0.3293542E-002  0.1249975E+03  0.7818608E-02  0.1235073E+00
          4   -1    0    0  501    0  0.00000000000E+00  0.00000000000E+00  0.88431803488E+03  0.88431894682E+03  0.12700000000E+01 0.  1.
         -4   -1    0    0    0  501 -0.00000000000E+00 -0.00000000000E+00 -0.43248498943E+01  0.45074634339E+01  0.12700000000E+01 0.  1.
         25    2    1    2    0    0  0.00000000000E+00  0.00000000000E+00  0.87999318498E+03  0.88882641026E+03  0.12499752779E+03 0.  0.
    9000005    1    3    3    0    0  0.48298232241E+02  0.32621808061E+02  0.27969780166E+03  0.28570747602E+03  0.10000000000E+01 0.  0.
    9000005    1    3    3    0    0 -0.48298232241E+02 -0.32621808061E+02  0.60029538333E+03  0.60311893424E+03  0.10000000000E+01 0.  0.
<mgrwt>
<rscale>  0 0.12499753E+03</rscale>
<asrwt>0</asrwt>
<pdfrwt beam="1">  1        4 0.13606304E+00 0.12499753E+03</pdfrwt>
<pdfrwt beam="2">  1       -4 0.67947891E-03 0.12499753E+03</pdfrwt>
<totfact> 0.34590830E+03</totfact>
</mgrwt>
</event>
<event>
 5    1  0.3293542E-002  0.1250006E+03  0.7818608E-02  0.1235068E+00
         -4   -1    0    0    0  501 -0.00000000000E+00  0.00000000000E+00  0.11682765087E+03  0.11683455357E+03  0.12700000000E+01 0. -1.
          4   -1    0    0  501    0  0.00000000000E+00 -0.00000000000E+00 -0.33416356450E+02  0.33440481133E+02  0.12700000000E+01 0. -1.
         25    2    1    2    0    0  0.00000000000E+00  0.00000000000E+00  0.83411294424E+02  0.15027503471E+03  0.12500056807E+03 0.  0.
    9000005    1    3    3    0    0  0.32023734034E+02 -0.28232832276E+02 -0.13158092676E+02  0.44684983637E+02  0.10000000000E+01 0.  0.
    9000005    1    3    3    0    0 -0.32023734034E+02  0.28232832276E+02  0.96569387101E+02  0.10559005107E+03  0.10000000000E+01 0.  0.
<mgrwt>
<rscale>  0 0.12500057E+03</rscale>
<asrwt>0</asrwt>
<pdfrwt beam="2">  1        4 0.51433646E-02 0.12500057E+03</pdfrwt>
<pdfrwt beam="1">  1       -4 0.17975871E-01 0.12500057E+03</pdfrwt>
<totfact> 0.99247633E+03</totfact>
</mgrwt>
</event>
<event>
 5    1  0.3293542E-002  0.1250002E+03  0.7818608E-02  0.1235069E+00
          4   -1    0    0  501    0  0.00000000000E+00  0.00000000000E+00  0.31958286334E+03  0.31958538677E+03  0.12700000000E+01 0.  1.
         -4   -1    0    0    0  501 -0.00000000000E+00 -0.00000000000E+00 -0.12187437522E+02  0.12253429453E+02  0.12700000000E+01 0.  1.
         25    2    1    2    0    0  0.00000000000E+00  0.00000000000E+00  0.30739542581E+03  0.33183881623E+03  0.12500020857E+03 0.  0.
    9000005    1    3    3    0    0  0.52867427566E+02  0.15321956637E+02  0.75146409096E+02  0.93154227240E+02  0.10000000000E+01 0.  0.
    9000005    1    3    3    0    0 -0.52867427566E+02 -0.15321956637E+02  0.23224901672E+03  0.23868458899E+03  0.10000000000E+01 0.  0.
<mgrwt>
<rscale>  0 0.12500021E+03</rscale>
<asrwt>0</asrwt>
<pdfrwt beam="1">  1        4 0.49171858E-01 0.12500021E+03</pdfrwt>
<pdfrwt beam="2">  1       -4 0.18802610E-02 0.12500021E+03</pdfrwt>
<totfact> 0.71769503E+03</totfact>
</mgrwt>
</event>
<event>
 5    1  0.3293542E-002  0.1249968E+03  0.7818608E-02  0.1235074E+00
         -4   -1    0    0    0  501 -0.00000000000E+00  0.00000000000E+00  0.92351472361E+02  0.92360204349E+02  0.12700000000E+01 0. -1.
          4   -1    0    0  501    0  0.00000000000E+00 -0.00000000000E+00 -0.42275195406E+02  0.42294267302E+02  0.12700000000E+01 0. -1.
         25    2    1    2    0    0  0.00000000000E+00  0.00000000000E+00  0.50076276955E+02  0.13465447165E+03  0.12499677285E+03 0.  0.
    9000005    1    3    3    0    0 -0.49134045627E+02 -0.23143099920E+02 -0.82576861479E+01  0.54944944209E+02  0.10000000000E+01 0.  0.
    9000005    1    3    3    0    0  0.49134045627E+02  0.23143099920E+02  0.58333963103E+02  0.79709527442E+02  0.10000000000E+01 0.  0.
<mgrwt>
<rscale>  0 0.12499677E+03</rscale>
<asrwt>0</asrwt>
<pdfrwt beam="2">  1        4 0.65060150E-02 0.12499677E+03</pdfrwt>
<pdfrwt beam="1">  1       -4 0.14210057E-01 0.12499677E+03</pdfrwt>
<totfact> 0.10246105E+04</totfact>
</mgrwt>
</event>
<event>
 5    1  0.3293542E-002  0.1250013E+03  0.7818608E-02  0.1235067E+00
          4   -1    0    0  501    0  0.00000000000E+00  0.00000000000E+00  0.38960891865E+03  0.38961098854E+03  0.12700000000E+01 0.  1.
         -4   -1    0    0    0  501 -0.00000000000E+00 -0.00000000000E+00 -0.99839707283E+01  0.10064421071E+02  0.12700000000E+01 0.  1.
         25    2    1    2    0    0  0.00000000000E+00  0.00000000000E+00  0.37962494792E+03  0.39967540961E+03  0.12500132785E+03 0.  0.
    9000005    1    3    3    0    0  0.49931784832E+02  0.37345275354E+02  0.17644446321E+03  0.18714032522E+03  0.10000000000E+01 0.  0.
    9000005    1    3    3    0    0 -0.49931784832E+02 -0.37345275354E+02  0.20318048471E+03  0.21253508439E+03  0.10000000000E+01 0.  0.
<mgrwt>
<rscale>  0 0.12500133E+03</rscale>
<asrwt>0</asrwt>
<pdfrwt beam="1">  1        4 0.59946177E-01 0.12500133E+03</pdfrwt>
<pdfrwt beam="2">  1       -4 0.15423433E-02 0.12500133E+03</pdfrwt>
<totfact> 0.64582478E+03</totfact>
</mgrwt>
</event>
<event>
 5    1  0.3293542E-002  0.1249982E+03  0.7818608E-02  0.1235072E+00
          4   -1    0    0  501    0  0.00000000000E+00  0.00000000000E+00  0.56330517621E+03  0.56330660785E+03  0.12700000000E+01 0. -1.
         -4   -1    0    0    0  501 -0.00000000000E+00 -0.00000000000E+00 -0.68747209905E+01  0.69910434627E+01  0.12700000000E+01 0. -1.
         25    2    1    2    0    0  0.00000000000E+00  0.00000000000E+00  0.55643045522E+03  0.57029765131E+03  0.12499823837E+03 0.  0.
    9000005    1    3    3    0    0 -0.51796919202E+02  0.17941857606E+02  0.14131838255E+03  0.15158072549E+03  0.10000000000E+01 0.  0.
    9000005    1    3    3    0    0  0.51796919202E+02 -0.17941857606E+02  0.41511207268E+03  0.41871692583E+03  0.10000000000E+01 0.  0.
<mgrwt>
<rscale>  0 0.12499824E+03</rscale>
<asrwt>0</asrwt>
<pdfrwt beam="1">  1        4 0.86671368E-01 0.12499824E+03</pdfrwt>
<pdfrwt beam="2">  1       -4 0.10667077E-02 0.12499824E+03</pdfrwt>
<totfact> 0.50799812E+03</totfact>
</mgrwt>
</event>
<event>
 5    1  0.3293542E-002  0.1250047E+03  0.7818608E-02  0.1235062E+00
          4   -1    0    0  501    0  0.00000000000E+00  0.00000000000E+00  0.44026034993E+01  0.45821193320E+01  0.12700000000E+01 0. -1.
         -4   -1    0    0    0  501 -0.00000000000E+00 -0.00000000000E+00 -0.86941649841E+03  0.86941742599E+03  0.12700000000E+01 0. -1.
         25    2    1    2    0    0  0.00000000000E+00  0.00000000000E+00 -0.86501389491E+03  0.87399954532E+03  0.12500466722E+03 0.  0.
    9000005    1    3    3    0    0 -0.40009778637E+02  0.21333207432E+02 -0.13180919833E+03  0.13939351811E+03  0.10000000000E+01 0.  0.
    9000005    1    3    3    0    0  0.40009778637E+02 -0.21333207432E+02 -0.73320469658E+03  0.73460602721E+03  0.10000000000E+01 0.  0.
<mgrwt>
<rscale>  0 0.12500467E+03</rscale>
<asrwt>0</asrwt>
<pdfrwt beam="1">  1        4 0.69120457E-03 0.12500467E+03</pdfrwt>
<pdfrwt beam="2">  1       -4 0.13377013E+00 0.12500467E+03</pdfrwt>
<totfact> 0.35161312E+03</totfact>
</mgrwt>
</event>
<event>
 5    1  0.3293542E-002  0.1250042E+03  0.7818608E-02  0.1235063E+00
         -4   -1    0    0    0  501 -0.00000000000E+00  0.00000000000E+00  0.22713532763E+02  0.22749010321E+02  0.12700000000E+01 0. -1.
          4   -1    0    0  501    0  0.00000000000E+00 -0.00000000000E+00 -0.17181852258E+03  0.17182321613E+03  0.12700000000E+01 0. -1.
         25    2    1    2    0    0  0.00000000000E+00  0.00000000000E+00 -0.14910498982E+03  0.19457222645E+03  0.12500421320E+03 0.  0.
    9000005    1    3    3    0    0  0.24688253177E+02 -0.55468977441E+02 -0.51507716535E+02  0.79626391140E+02  0.10000000000E+01 0.  0.
    9000005    1    3    3    0    0 -0.24688253177E+02  0.55468977441E+02 -0.97597273283E+02  0.11494583531E+03  0.10000000000E+01 0.  0.
<mgrwt>
<rscale>  0 0.12500421E+03</rscale>
<asrwt>0</asrwt>
<pdfrwt beam="2">  1        4 0.26436708E-01 0.12500421E+03</pdfrwt>
<pdfrwt beam="1">  1       -4 0.34974798E-02 0.12500421E+03</pdfrwt>
<totfact> 0.91049203E+03</totfact>
</mgrwt>
</event>
<event>
 5    1  0.3293542E-002  0.1250355E+03  0.7818608E-02  0.1235014E+00
          4   -1    0    0  501    0  0.00000000000E+00  0.00000000000E+00  0.30653227040E+03  0.30653490127E+03  0.12700000000E+01 0.  1.
         -4   -1    0    0    0  501 -0.00000000000E+00 -0.00000000000E+00 -0.12716276313E+02  0.12779537678E+02  0.12700000000E+01 0.  1.
         25    2    1    2    0    0  0.00000000000E+00  0.00000000000E+00  0.29381599408E+03  0.31931443894E+03  0.12503548512E+03 0.  0.
    9000005    1    3    3    0    0  0.38015900981E+02 -0.15601875556E+02  0.26612781756E+02  0.48968024272E+02  0.10000000000E+01 0.  0.
    9000005    1    3    3    0    0 -0.38015900981E+02  0.15601875556E+02  0.26720321233E+03  0.27034641467E+03  0.10000000000E+01 0.  0.
<mgrwt>
<rscale>  0 0.12503549E+03</rscale>
<asrwt>0</asrwt>
<pdfrwt beam="1">  1        4 0.47163884E-01 0.12503549E+03</pdfrwt>
<pdfrwt beam="2">  1       -4 0.19614186E-02 0.12503549E+03</pdfrwt>
<totfact> 0.73180151E+03</totfact>
</mgrwt>
</event>
<event>
 5    1  0.3293542E-002  0.1250016E+03  0.7818608E-02  0.1235067E+00
         -4   -1    0    0    0  501 -0.00000000000E+00  0.00000000000E+00  0.26133395556E+02  0.26164236340E+02  0.12700000000E+01 0. -1.
          4   -1    0    0  501    0  0.00000000000E+00 -0.00000000000E+00 -0.14935566502E+03  0.14936106445E+03  0.12700000000E+01 0. -1.
         25    2    1    2    0    0  0.00000000000E+00  0.00000000000E+00 -0.12322226947E+03  0.17552530079E+03  0.12500161409E+03 0.  0.
    9000005    1    3    3    0    0 -0.51679268782E+02  0.28982163095E+02 -0.33716305255E+02  0.68179922555E+02  0.10000000000E+01 0.  0.
    9000005    1    3    3    0    0  0.51679268782E+02 -0.28982163095E+02 -0.89505964213E+02  0.10734537824E+03  0.10000000000E+01 0.  0.
<mgrwt>
<rscale>  0 0.12500161E+03</rscale>
<asrwt>0</asrwt>
<pdfrwt beam="2">  1        4 0.22980582E-01 0.12500161E+03</pdfrwt>
<pdfrwt beam="1">  1       -4 0.40233102E-02 0.12500161E+03</pdfrwt>
<totfact> 0.94425302E+03</totfact>
</mgrwt>
</event>
<event>
 5    1  0.3293542E-002  0.1249974E+03  0.7818608E-02  0.1235073E+00
          4   -1    0    0  501    0  0.00000000000E+00  0.00000000000E+00  0.32486928567E+02  0.32511742921E+02  0.12700000000E+01 0. -1.
         -4   -1    0    0    0  501 -0.00000000000E+00 -0.00000000000E+00 -0.12016161164E+03  0.12016832284E+03  0.12700000000E+01 0. -1.
         25    2    1    2    0    0  0.00000000000E+00  0.00000000000E+00 -0.87674683077E+02  0.15268006576E+03  0.12499740968E+03 0.  0.
    9000005    1    3    3    0    0 -0.10292659563E+02  0.13574904056E+02  0.29601825388E+02  0.34168478563E+02  0.10000000000E+01 0.  0.
    9000005    1    3    3    0    0  0.10292659563E+02 -0.13574904056E+02 -0.11727650847E+03  0.11851158719E+03  0.10000000000E+01 0.  0.
<mgrwt>
<rscale>  0 0.12499741E+03</rscale>
<asrwt>0</asrwt>
<pdfrwt beam="1">  1        4 0.50004141E-02 0.12499741E+03</pdfrwt>
<pdfrwt beam="2">  1       -4 0.18488827E-01 0.12499741E+03</pdfrwt>
<totfact> 0.98777882E+03</totfact>
</mgrwt>
</event>
<event>
 5    1  0.3293542E-002  0.1250010E+03  0.7818608E-02  0.1235068E+00
         -4   -1    0    0    0  501 -0.00000000000E+00  0.00000000000E+00  0.12926535871E+02  0.12988773215E+02  0.12700000000E+01 0.  1.
          4   -1    0    0  501    0  0.00000000000E+00 -0.00000000000E+00 -0.30140378773E+03  0.30140646336E+03  0.12700000000E+01 0.  1.
         25    2    1    2    0    0  0.00000000000E+00  0.00000000000E+00 -0.28847725186E+03  0.31439523658E+03  0.12500095977E+03 0.  0.
    9000005    1    3    3    0    0 -0.17903966111E+02  0.43102881720E+02 -0.24875784366E+03  0.25310052390E+03  0.10000000000E+01 0.  0.
    9000005    1    3    3    0    0  0.17903966111E+02 -0.43102881720E+02 -0.39719408199E+02  0.61294712682E+02  0.10000000000E+01 0.  0.
<mgrwt>
<rscale>  0 0.12500096E+03</rscale>
<asrwt>0</asrwt>
<pdfrwt beam="2">  1        4 0.46374802E-01 0.12500096E+03</pdfrwt>
<pdfrwt beam="1">  1       -4 0.19936914E-02 0.12500096E+03</pdfrwt>
<totfact> 0.73826165E+03</totfact>
</mgrwt>
</event>
<event>
 5    1  0.3293542E-002  0.1249996E+03  0.7818608E-02  0.1235070E+00
          4   -1    0    0  501    0  0.00000000000E+00  0.00000000000E+00  0.12244913611E+03  0.12245572194E+03  0.12700000000E+01 0. -1.
         -4   -1    0    0    0  501 -0.00000000000E+00 -0.00000000000E+00 -0.31880714353E+02  0.31906000183E+02  0.12700000000E+01 0. -1.
         25    2    1    2    0    0  0.00000000000E+00  0.00000000000E+00  0.90568421759E+02  0.15436172212E+03  0.12499960894E+03 0.  0.
    9000005    1    3    3    0    0  0.30230137819E+02  0.68874164616E-02  0.11282491943E+03  0.11680891971E+03  0.10000000000E+01 0.  0.
    9000005    1    3    3    0    0 -0.30230137819E+02 -0.68874164616E-02 -0.22256497670E+02  0.37552802406E+02  0.10000000000E+01 0.  0.
<mgrwt>
<rscale>  0 0.12499961E+03</rscale>
<asrwt>0</asrwt>
<pdfrwt beam="1">  1        4 0.18840780E-01 0.12499961E+03</pdfrwt>
<pdfrwt beam="2">  1       -4 0.49071769E-02 0.12499961E+03</pdfrwt>
<totfact> 0.98441812E+03</totfact>
</mgrwt>
</event>
<event>
 5    1  0.3293542E-002  0.1250048E+03  0.7818608E-02  0.1235062E+00
          4   -1    0    0  501    0  0.00000000000E+00  0.00000000000E+00  0.13063337732E+03  0.13063955056E+03  0.12700000000E+01 0. -1.
         -4   -1    0    0    0  501 -0.00000000000E+00 -0.00000000000E+00 -0.29884308633E+02  0.29911282194E+02  0.12700000000E+01 0. -1.
         25    2    1    2    0    0  0.00000000000E+00  0.00000000000E+00  0.10074906869E+03  0.16055083275E+03  0.12500478013E+03 0.  0.
    9000005    1    3    3    0    0  0.55791068144E+02 -0.11680988120E+02  0.17467399195E+02  0.59625487861E+02  0.10000000000E+01 0.  0.
    9000005    1    3    3    0    0 -0.55791068144E+02  0.11680988120E+02  0.83281669494E+02  0.10092534489E+03  0.10000000000E+01 0.  0.
<mgrwt>
<rscale>  0 0.12500478E+03</rscale>
<asrwt>0</asrwt>
<pdfrwt beam="1">  1        4 0.20099993E-01 0.12500478E+03</pdfrwt>
<pdfrwt beam="2">  1       -4 0.46001357E-02 0.12500478E+03</pdfrwt>
<totfact> 0.97226247E+03</totfact>
</mgrwt>
</event>
<event>
 5    1  0.3293542E-002  0.1250018E+03  0.7818608E-02  0.1235066E+00
          4   -1    0    0  501    0  0.00000000000E+00  0.00000000000E+00  0.13031708721E+04  0.13031714909E+04  0.12700000000E+01 0.  1.
         -4   -1    0    0    0  501 -0.00000000000E+00 -0.00000000000E+00 -0.28624197121E+01  0.31315086793E+01  0.12700000000E+01 0.  1.
         25    2    1    2    0    0  0.00000000000E+00  0.00000000000E+00  0.13003084524E+04  0.13063029996E+04  0.12500182180E+03 0.  0.
    9000005    1    3    3    0    0  0.15642167266E+02  0.57866015964E+02  0.46550331828E+03  0.46934794399E+03  0.10000000000E+01 0.  0.
    9000005    1    3    3    0    0 -0.15642167266E+02 -0.57866015964E+02  0.83480513410E+03  0.83695505561E+03  0.10000000000E+01 0.  0.
<mgrwt>
<rscale>  0 0.12500182E+03</rscale>
<asrwt>0</asrwt>
<pdfrwt beam="1">  1        4 0.20050808E+00 0.12500182E+03</pdfrwt>
<pdfrwt beam="2">  1       -4 0.46112015E-03 0.12500182E+03</pdfrwt>
<totfact> 0.22079438E+03</totfact>
</mgrwt>
</event>
<event>
 5    1  0.3293542E-002  0.1249975E+03  0.7818608E-02  0.1235073E+00
          4   -1    0    0  501    0  0.00000000000E+00  0.00000000000E+00  0.30150178284E+03  0.30150445761E+03  0.12700000000E+01 0.  1.
         -4   -1    0    0    0  501 -0.00000000000E+00 -0.00000000000E+00 -0.12921599922E+02  0.12983860926E+02  0.12700000000E+01 0.  1.
         25    2    1    2    0    0  0.00000000000E+00  0.00000000000E+00  0.28858018292E+03  0.31448831853E+03  0.12499752205E+03 0.  0.
    9000005    1    3    3    0    0 -0.34954792173E+02  0.91987458023E+01  0.27254566104E+03  0.27493379525E+03  0.10000000000E+01 0.  0.
    9000005    1    3    3    0    0  0.34954792173E+02 -0.91987458023E+01  0.16034521884E+02  0.39554523284E+02  0.10000000000E+01 0.  0.
<mgrwt>
<rscale>  0 0.12499752E+03</rscale>
<asrwt>0</asrwt>
<pdfrwt beam="1">  1        4 0.46389884E-01 0.12499752E+03</pdfrwt>
<pdfrwt beam="2">  1       -4 0.19929336E-02 0.12499752E+03</pdfrwt>
<totfact> 0.73820553E+03</totfact>
</mgrwt>
</event>
<event>
 5    1  0.3293542E-002  0.1250043E+03  0.7818608E-02  0.1235063E+00
         -4   -1    0    0    0  501 -0.00000000000E+00  0.00000000000E+00  0.31937969276E+02  0.31963209812E+02  0.12700000000E+01 0.  1.
          4   -1    0    0  501    0  0.00000000000E+00 -0.00000000000E+00 -0.12223891669E+03  0.12224551384E+03  0.12700000000E+01 0.  1.
         25    2    1    2    0    0  0.00000000000E+00  0.00000000000E+00 -0.90300947415E+02  0.15420872365E+03  0.12500427731E+03 0.  0.
    9000005    1    3    3    0    0  0.59539414818E+02 -0.18920169076E+02 -0.47140641093E+02  0.78269756339E+02  0.10000000000E+01 0.  0.
    9000005    1    3    3    0    0 -0.59539414818E+02  0.18920169076E+02 -0.43160306323E+02  0.75938967313E+02  0.10000000000E+01 0.  0.
<mgrwt>
<rscale>  0 0.12500428E+03</rscale>
<asrwt>0</asrwt>
<pdfrwt beam="2">  1        4 0.18808436E-01 0.12500428E+03</pdfrwt>
<pdfrwt beam="1">  1       -4 0.49159828E-02 0.12500428E+03</pdfrwt>
<totfact> 0.98461588E+03</totfact>
</mgrwt>
</event>
<event>
 5    1  0.3293542E-002  0.1250025E+03  0.7818608E-02  0.1235065E+00
         -4   -1    0    0    0  501 -0.00000000000E+00  0.00000000000E+00  0.54113508648E+01  0.55583826948E+01  0.12700000000E+01 0. -1.
          4   -1    0    0  501    0  0.00000000000E+00 -0.00000000000E+00 -0.71206721179E+03  0.71206834434E+03  0.12700000000E+01 0. -1.
         25    2    1    2    0    0  0.00000000000E+00  0.00000000000E+00 -0.70665586093E+03  0.71762672703E+03  0.12500245426E+03 0.  0.
    9000005    1    3    3    0    0  0.42622585044E+02 -0.36277259230E+02 -0.19374749434E+03  0.20167254611E+03  0.10000000000E+01 0.  0.
    9000005    1    3    3    0    0 -0.42622585044E+02  0.36277259230E+02 -0.51290836659E+03  0.51595418092E+03  0.10000000000E+01 0.  0.
<mgrwt>
<rscale>  0 0.12500245E+03</rscale>
<asrwt>0</asrwt>
<pdfrwt beam="2">  1        4 0.10956013E+00 0.12500245E+03</pdfrwt>
<pdfrwt beam="1">  1       -4 0.84391334E-03 0.12500245E+03</pdfrwt>
<totfact> 0.42170147E+03</totfact>
</mgrwt>
</event>
<event>
 5    1  0.3293542E-002  0.1250032E+03  0.7818608E-02  0.1235064E+00
         -4   -1    0    0    0  501 -0.00000000000E+00  0.00000000000E+00  0.73710732187E+01  0.74796805009E+01  0.12700000000E+01 0.  1.
          4   -1    0    0  501    0  0.00000000000E+00 -0.00000000000E+00 -0.52598522996E+03  0.52598676318E+03  0.12700000000E+01 0.  1.
         25    2    1    2    0    0  0.00000000000E+00  0.00000000000E+00 -0.51861415674E+03  0.53346644368E+03  0.12500321179E+03 0.  0.
    9000005    1    3    3    0    0 -0.48577742929E+02 -0.29329547953E+02 -0.14757757086E+03  0.15811438553E+03  0.10000000000E+01 0.  0.
    9000005    1    3    3    0    0  0.48577742929E+02  0.29329547953E+02 -0.37103658588E+03  0.37535205815E+03  0.10000000000E+01 0.  0.
<mgrwt>
<rscale>  0 0.12500321E+03</rscale>
<asrwt>0</asrwt>
<pdfrwt beam="2">  1        4 0.80929248E-01 0.12500321E+03</pdfrwt>
<pdfrwt beam="1">  1       -4 0.11424840E-02 0.12500321E+03</pdfrwt>
<totfact> 0.53354416E+03</totfact>
</mgrwt>
</event>
<event>
 5    1  0.3293542E-002  0.1249996E+03  0.7818608E-02  0.1235070E+00
         -4   -1    0    0    0  501 -0.00000000000E+00  0.00000000000E+00  0.58229354318E+02  0.58243202215E+02  0.12700000000E+01 0. -1.
          4   -1    0    0  501    0  0.00000000000E+00 -0.00000000000E+00 -0.67055593178E+02  0.67067618688E+02  0.12700000000E+01 0. -1.
         25    2    1    2    0    0  0.00000000000E+00  0.00000000000E+00 -0.88262388604E+01  0.12531082090E+03  0.12499959737E+03 0.  0.
    9000005    1    3    3    0    0 -0.17185184521E+02  0.28210763116E+02  0.48766551175E+02  0.58909712579E+02  0.10000000000E+01 0.  0.
    9000005    1    3    3    0    0  0.17185184521E+02 -0.28210763116E+02 -0.57592790036E+02  0.66401108324E+02  0.10000000000E+01 0.  0.
<mgrwt>
<rscale>  0 0.12499960E+03</rscale>
<asrwt>0</asrwt>
<pdfrwt beam="2">  1        4 0.10318235E-01 0.12499960E+03</pdfrwt>
<pdfrwt beam="1">  1       -4 0.89603525E-02 0.12499960E+03</pdfrwt>
<totfact> 0.10446210E+04</totfact>
</mgrwt>
</event>
<event>
 5    1  0.3293542E-002  0.1249929E+03  0.7818608E-02  0.1235080E+00
          4   -1    0    0  501    0  0.00000000000E+00  0.00000000000E+00  0.29580952735E+02  0.29608202659E+02  0.12700000000E+01 0. -1.
         -4   -1    0    0    0  501 -0.00000000000E+00 -0.00000000000E+00 -0.13194685179E+03  0.13195296358E+03  0.12700000000E+01 0. -1.
         25    2    1    2    0    0  0.00000000000E+00  0.00000000000E+00 -0.10236589906E+03  0.16156116624E+03  0.12499293239E+03 0.  0.
    9000005    1    3    3    0    0 -0.33244067659E+02  0.26813512877E+02  0.77765418577E+01  0.43423577819E+02  0.10000000000E+01 0.  0.
    9000005    1    3    3    0    0  0.33244067659E+02 -0.26813512877E+02 -0.11014244092E+03  0.11813758842E+03  0.10000000000E+01 0.  0.
<mgrwt>
<rscale>  0 0.12499293E+03</rscale>
<asrwt>0</asrwt>
<pdfrwt beam="1">  1        4 0.45534822E-02 0.12499293E+03</pdfrwt>
<pdfrwt beam="2">  1       -4 0.20302082E-01 0.12499293E+03</pdfrwt>
<totfact> 0.97058061E+03</totfact>
</mgrwt>
</event>
<event>
 5    1  0.3293542E-002  0.1250003E+03  0.7818608E-02  0.1235069E+00
         -4   -1    0    0    0  501 -0.00000000000E+00  0.00000000000E+00  0.43870985700E+03  0.43871169523E+03  0.12700000000E+01 0. -1.
          4   -1    0    0  501    0  0.00000000000E+00 -0.00000000000E+00 -0.88568436686E+01  0.89474342562E+01  0.12700000000E+01 0. -1.
         25    2    1    2    0    0  0.00000000000E+00  0.00000000000E+00  0.42985301333E+03  0.44765912948E+03  0.12500033256E+03 0.  0.
    9000005    1    3    3    0    0 -0.46090982865E+02  0.21445915170E+02  0.84765199653E+02  0.98845561616E+02  0.10000000000E+01 0.  0.
    9000005    1    3    3    0    0  0.46090982865E+02 -0.21445915170E+02  0.34508781368E+03  0.34881356787E+03  0.10000000000E+01 0.  0.
<mgrwt>
<rscale>  0 0.12500033E+03</rscale>
<asrwt>0</asrwt>
<pdfrwt beam="2">  1        4 0.13697016E-02 0.12500033E+03</pdfrwt>
<pdfrwt beam="1">  1       -4 0.67500918E-01 0.12500033E+03</pdfrwt>
<totfact> 0.60166688E+03</totfact>
</mgrwt>
</event>
<event>
 5    1  0.3293542E-002  0.1250011E+03  0.7818608E-02  0.1235068E+00
         -4   -1    0    0    0  501 -0.00000000000E+00  0.00000000000E+00  0.22249616266E+03  0.22249978719E+03  0.12700000000E+01 0. -1.
          4   -1    0    0  501    0  0.00000000000E+00 -0.00000000000E+00 -0.17530060601E+02  0.17576004229E+02  0.12700000000E+01 0. -1.
         25    2    1    2    0    0  0.00000000000E+00  0.00000000000E+00  0.20496610206E+03  0.24007579142E+03  0.12500113052E+03 0.  0.
    9000005    1    3    3    0    0  0.16478525687E+02  0.38229780410E+02  0.12969125145E+02  0.43614861298E+02  0.10000000000E+01 0.  0.
    9000005    1    3    3    0    0 -0.16478525687E+02 -0.38229780410E+02  0.19199697692E+03  0.19646093012E+03  0.10000000000E+01 0.  0.
<mgrwt>
<rscale>  0 0.12500113E+03</rscale>
<asrwt>0</asrwt>
<pdfrwt beam="2">  1        4 0.27007453E-02 0.12500113E+03</pdfrwt>
<pdfrwt beam="1">  1       -4 0.34233992E-01 0.12500113E+03</pdfrwt>
<totfact> 0.83783968E+03</totfact>
</mgrwt>
</event>
<event>
 5    1  0.3293542E-002  0.1250027E+03  0.7818608E-02  0.1235065E+00
          4   -1    0    0  501    0  0.00000000000E+00  0.00000000000E+00  0.11679954319E+03  0.11680644755E+03  0.12700000000E+01 0.  1.
         -4   -1    0    0    0  501 -0.00000000000E+00 -0.00000000000E+00 -0.33425565125E+02  0.33449683166E+02  0.12700000000E+01 0.  1.
         25    2    1    2    0    0  0.00000000000E+00  0.00000000000E+00  0.83373978061E+02  0.15025613071E+03  0.12500273837E+03 0.  0.
    9000005    1    3    3    0    0 -0.25176514028E+02 -0.55424507060E+02  0.24701072213E+02  0.65702936083E+02  0.10000000000E+01 0.  0.
    9000005    1    3    3    0    0  0.25176514028E+02  0.55424507060E+02  0.58672905848E+02  0.84553194630E+02  0.10000000000E+01 0.  0.
<mgrwt>
<rscale>  0 0.12500274E+03</rscale>
<asrwt>0</asrwt>
<pdfrwt beam="1">  1        4 0.17971547E-01 0.12500274E+03</pdfrwt>
<pdfrwt beam="2">  1       -4 0.51447808E-02 0.12500274E+03</pdfrwt>
<totfact> 0.99246550E+03</totfact>
</mgrwt>
</event>
<event>
 5    1  0.3293542E-002  0.1250067E+03  0.7818608E-02  0.1235059E+00
          4   -1    0    0  501    0  0.00000000000E+00  0.00000000000E+00  0.10397503465E+02  0.10474778198E+02  0.12700000000E+01 0.  1.
         -4   -1    0    0    0  501 -0.00000000000E+00 -0.00000000000E+00 -0.37426193439E+03  0.37426408916E+03  0.12700000000E+01 0.  1.
         25    2    1    2    0    0  0.00000000000E+00  0.00000000000E+00 -0.36386443093E+03  0.38473886736E+03  0.12500668767E+03 0.  0.
    9000005    1    3    3    0    0  0.50408611869E+02 -0.30380702099E+02 -0.11725172586E+03  0.13119825619E+03  0.10000000000E+01 0.  0.
    9000005    1    3    3    0    0 -0.50408611869E+02  0.30380702099E+02 -0.24661270506E+03  0.25354061116E+03  0.10000000000E+01 0.  0.
<mgrwt>
<rscale>  0 0.12500669E+03</rscale>
<asrwt>0</asrwt>
<pdfrwt beam="1">  1        4 0.16057262E-02 0.12500669E+03</pdfrwt>
<pdfrwt beam="2">  1       -4 0.57584859E-01 0.12500669E+03</pdfrwt>
<totfact> 0.66054880E+03</totfact>
</mgrwt>
</event>
<event>
 5    1  0.3293542E-002  0.1249969E+03  0.7818608E-02  0.1235074E+00
         -4   -1    0    0    0  501 -0.00000000000E+00  0.00000000000E+00  0.25206401519E+03  0.25206721456E+03  0.12700000000E+01 0.  1.
          4   -1    0    0  501    0  0.00000000000E+00 -0.00000000000E+00 -0.15466963877E+02  0.15519016450E+02  0.12700000000E+01 0.  1.
         25    2    1    2    0    0  0.00000000000E+00  0.00000000000E+00  0.23659705132E+03  0.26758623101E+03  0.12499690530E+03 0.  0.
    9000005    1    3    3    0    0 -0.58749869220E+02 -0.18951160964E+02  0.97503222660E+02  0.11540611797E+03  0.10000000000E+01 0.  0.
    9000005    1    3    3    0    0  0.58749869220E+02  0.18951160964E+02  0.13909382866E+03  0.15218011304E+03  0.10000000000E+01 0.  0.
<mgrwt>
<rscale>  0 0.12499691E+03</rscale>
<asrwt>0</asrwt>
<pdfrwt beam="2">  1        4 0.23837833E-02 0.12499691E+03</pdfrwt>
<pdfrwt beam="1">  1       -4 0.38783325E-01 0.12499691E+03</pdfrwt>
<totfact> 0.79858590E+03</totfact>
</mgrwt>
</event>
<event>
 5    1  0.3293542E-002  0.1250110E+03  0.7818608E-02  0.1235052E+00
         -4   -1    0    0    0  501 -0.00000000000E+00  0.00000000000E+00  0.17039813081E+02  0.17087074935E+02  0.12700000000E+01 0. -1.
          4   -1    0    0  501    0  0.00000000000E+00 -0.00000000000E+00 -0.22891624957E+03  0.22891977245E+03  0.12700000000E+01 0. -1.
         25    2    1    2    0    0  0.00000000000E+00  0.00000000000E+00 -0.21187643649E+03  0.24600684738E+03  0.12501097800E+03 0.  0.
    9000005    1    3    3    0    0  0.17997296041E+02 -0.17465180316E+02 -0.21858980865E+03  0.22002599763E+03  0.10000000000E+01 0.  0.
    9000005    1    3    3    0    0 -0.17997296041E+02  0.17465180316E+02  0.67133721566E+01  0.25980849755E+02  0.10000000000E+01 0.  0.
<mgrwt>
<rscale>  0 0.12501098E+03</rscale>
<asrwt>0</asrwt>
<pdfrwt beam="2">  1        4 0.35221789E-01 0.12501098E+03</pdfrwt>
<pdfrwt beam="1">  1       -4 0.26254164E-02 0.12501098E+03</pdfrwt>
<totfact> 0.82890532E+03</totfact>
</mgrwt>
</event>
<event>
 5    1  0.3293542E-002  0.1249999E+03  0.7818608E-02  0.1235069E+00
         -4   -1    0    0    0  501 -0.00000000000E+00  0.00000000000E+00  0.47582572539E+01  0.49248260978E+01  0.12700000000E+01 0.  1.
          4   -1    0    0  501    0  0.00000000000E+00 -0.00000000000E+00 -0.80665131725E+03  0.80665231700E+03  0.12700000000E+01 0.  1.
         25    2    1    2    0    0  0.00000000000E+00  0.00000000000E+00 -0.80189306000E+03  0.81157714310E+03  0.12499991811E+03 0.  0.
    9000005    1    3    3    0    0  0.16406785433E+02  0.59948797200E+02 -0.44312558300E+03  0.44746432618E+03  0.10000000000E+01 0.  0.
    9000005    1    3    3    0    0 -0.16406785433E+02 -0.59948797200E+02 -0.35876747699E+03  0.36411281691E+03  0.10000000000E+01 0.  0.
<mgrwt>
<rscale>  0 0.12499992E+03</rscale>
<asrwt>0</asrwt>
<pdfrwt beam="2">  1        4 0.12411299E+00 0.12499992E+03</pdfrwt>
<pdfrwt beam="1">  1       -4 0.74493011E-03 0.12499992E+03</pdfrwt>
<totfact> 0.37753187E+03</totfact>
</mgrwt>
</event>
<event>
 5    1  0.3293542E-002  0.1250002E+03  0.7818608E-02  0.1235069E+00
         -4   -1    0    0    0  501 -0.00000000000E+00  0.00000000000E+00  0.31375447340E+02  0.31401140040E+02  0.12700000000E+01 0. -1.
          4   -1    0    0  501    0  0.00000000000E+00 -0.00000000000E+00 -0.12442080590E+03  0.12442728736E+03  0.12700000000E+01 0. -1.
         25    2    1    2    0    0  0.00000000000E+00  0.00000000000E+00 -0.93045358561E+02  0.15582842740E+03  0.12500024015E+03 0.  0.
    9000005    1    3    3    0    0 -0.17702878500E+02 -0.58786440783E+02 -0.61062169187E+02  0.86595762211E+02  0.10000000000E+01 0.  0.
    9000005    1    3    3    0    0  0.17702878500E+02  0.58786440783E+02 -0.31983189374E+02  0.69232665193E+02  0.10000000000E+01 0.  0.
<mgrwt>
<rscale>  0 0.12500024E+03</rscale>
<asrwt>0</asrwt>
<pdfrwt beam="2">  1        4 0.19144137E-01 0.12500024E+03</pdfrwt>
<pdfrwt beam="1">  1       -4 0.48294669E-02 0.12500024E+03</pdfrwt>
<totfact> 0.98152583E+03</totfact>
</mgrwt>
</event>
<event>
 5    1  0.3293542E-002  0.1250010E+03  0.7818608E-02  0.1235068E+00
          4   -1    0    0  501    0  0.00000000000E+00  0.00000000000E+00  0.37236250881E+02  0.37257902244E+02  0.12700000000E+01 0.  1.
         -4   -1    0    0    0  501 -0.00000000000E+00 -0.00000000000E+00 -0.10485023153E+03  0.10485792269E+03  0.12700000000E+01 0.  1.
         25    2    1    2    0    0  0.00000000000E+00  0.00000000000E+00 -0.67613980645E+02  0.14211582493E+03  0.12500102927E+03 0.  0.
    9000005    1    3    3    0    0  0.21083769894E+01  0.62348626204E+01 -0.10446066212E+03  0.10467257853E+03  0.10000000000E+01 0.  0.
    9000005    1    3    3    0    0 -0.21083769894E+01 -0.62348626204E+01  0.36846681477E+02  0.37443246404E+02  0.10000000000E+01 0.  0.
<mgrwt>
<rscale>  0 0.12500103E+03</rscale>
<asrwt>0</asrwt>
<pdfrwt beam="1">  1        4 0.57309111E-02 0.12500103E+03</pdfrwt>
<pdfrwt beam="2">  1       -4 0.16133062E-01 0.12500103E+03</pdfrwt>
<totfact> 0.10089687E+04</totfact>
</mgrwt>
</event>
<event>
 5    1  0.3293542E-002  0.1250216E+03  0.7818608E-02  0.1235035E+00
         -4   -1    0    0    0  501 -0.00000000000E+00  0.00000000000E+00  0.11165671358E+04  0.11165678580E+04  0.12700000000E+01 0.  1.
          4   -1    0    0  501    0  0.00000000000E+00 -0.00000000000E+00 -0.33836924331E+01  0.36141768748E+01  0.12700000000E+01 0.  1.
         25    2    1    2    0    0  0.00000000000E+00  0.00000000000E+00  0.11131834433E+04  0.11201820349E+04  0.12502164932E+03 0.  0.
    9000005    1    3    3    0    0 -0.22559538038E+02  0.30290471080E+02  0.10028055619E+04  0.10035170354E+04  0.10000000000E+01 0.  0.
    9000005    1    3    3    0    0  0.22559538038E+02 -0.30290471080E+02  0.11037788145E+03  0.11666499950E+03  0.10000000000E+01 0.  0.
<mgrwt>
<rscale>  0 0.12502165E+03</rscale>
<asrwt>0</asrwt>
<pdfrwt beam="2">  1        4 0.53835268E-03 0.12502165E+03</pdfrwt>
<pdfrwt beam="1">  1       -4 0.17179751E+00 0.12502165E+03</pdfrwt>
<totfact> 0.26887378E+03</totfact>
</mgrwt>
</event>
<event>
 5    1  0.3293542E-002  0.1249859E+03  0.7818608E-02  0.1235091E+00
         -4   -1    0    0    0  501 -0.00000000000E+00  0.00000000000E+00  0.97266051068E+02  0.97274341891E+02  0.12700000000E+01 0.  1.
          4   -1    0    0  501    0  0.00000000000E+00 -0.00000000000E+00 -0.40131332962E+02  0.40151423204E+02  0.12700000000E+01 0.  1.
         25    2    1    2    0    0  0.00000000000E+00  0.00000000000E+00  0.57134718105E+02  0.13742576509E+03  0.12498585880E+03 0.  0.
    9000005    1    3    3    0    0  0.22573465980E+02 -0.52887609331E+02  0.55448701961E+02  0.79888792307E+02  0.10000000000E+01 0.  0.
    9000005    1    3    3    0    0 -0.22573465980E+02  0.52887609331E+02  0.16860161440E+01  0.57536972788E+02  0.10000000000E+01 0.  0.
<mgrwt>
<rscale>  0 0.12498586E+03</rscale>
<asrwt>0</asrwt>
<pdfrwt beam="2">  1        4 0.61762344E-02 0.12498586E+03</pdfrwt>
<pdfrwt beam="1">  1       -4 0.14966191E-01 0.12498586E+03</pdfrwt>
<totfact> 0.10190440E+04</totfact>
</mgrwt>
</event>
<event>
 5    1  0.3293542E-002  0.1250021E+03  0.7818608E-02  0.1235066E+00
         -4   -1    0    0    0  501 -0.00000000000E+00  0.00000000000E+00  0.24114260130E+03  0.24114594557E+03  0.12700000000E+01 0.  1.
          4   -1    0    0  501    0  0.00000000000E+00 -0.00000000000E+00 -0.16171114819E+02  0.16220907943E+02  0.12700000000E+01 0.  1.
         25    2    1    2    0    0  0.00000000000E+00  0.00000000000E+00  0.22497148648E+03  0.25736685351E+03  0.12500211020E+03 0.  0.
    9000005    1    3    3    0    0 -0.46558427602E+02  0.41597164481E+02  0.10689606084E+03  0.12379733073E+03  0.10000000000E+01 0.  0.
    9000005    1    3    3    0    0  0.46558427602E+02 -0.41597164481E+02  0.11807542565E+03  0.13356952278E+03  0.10000000000E+01 0.  0.
<mgrwt>
<rscale>  0 0.12500211E+03</rscale>
<asrwt>0</asrwt>
<pdfrwt beam="2">  1        4 0.24919515E-02 0.12500211E+03</pdfrwt>
<pdfrwt beam="1">  1       -4 0.37102946E-01 0.12500211E+03</pdfrwt>
<totfact> 0.81273194E+03</totfact>
</mgrwt>
</event>
<event>
 5    1  0.3293542E-002  0.1249992E+03  0.7818608E-02  0.1235071E+00
          4   -1    0    0  501    0  0.00000000000E+00  0.00000000000E+00  0.69586665924E+03  0.69586781816E+03  0.12700000000E+01 0. -1.
         -4   -1    0    0    0  501 -0.00000000000E+00 -0.00000000000E+00 -0.55404212916E+01  0.56841154183E+01  0.12700000000E+01 0. -1.
         25    2    1    2    0    0  0.00000000000E+00  0.00000000000E+00  0.69032623795E+03  0.70155193358E+03  0.12499920279E+03 0.  0.
    9000005    1    3    3    0    0 -0.43547482585E+02 -0.32789468973E+02  0.51665704418E+03  0.51952577781E+03  0.10000000000E+01 0.  0.
    9000005    1    3    3    0    0  0.43547482585E+02  0.32789468973E+02  0.17366919378E+03  0.18202615576E+03  0.10000000000E+01 0.  0.
<mgrwt>
<rscale>  0 0.12499920E+03</rscale>
<asrwt>0</asrwt>
<pdfrwt beam="1">  1        4 0.10706753E+00 0.12499920E+03</pdfrwt>
<pdfrwt beam="2">  1       -4 0.86351524E-03 0.12499920E+03</pdfrwt>
<totfact> 0.43005651E+03</totfact>
</mgrwt>
</event>
<event>
 5    1  0.3293542E-002  0.1249952E+03  0.7818608E-02  0.1235077E+00
         -4   -1    0    0    0  501 -0.00000000000E+00  0.00000000000E+00  0.58220122888E+02  0.58233972981E+02  0.12700000000E+01 0.  1.
          4   -1    0    0  501    0  0.00000000000E+00 -0.00000000000E+00 -0.67061469705E+02  0.67073494161E+02  0.12700000000E+01 0.  1.
         25    2    1    2    0    0  0.00000000000E+00  0.00000000000E+00 -0.88413468163E+01  0.12530746714E+03  0.12499516754E+03 0.  0.
    9000005    1    3    3    0    0  0.49596733675E+02 -0.23447906823E+02  0.25575777730E+02  0.60537267299E+02  0.10000000000E+01 0.  0.
    9000005    1    3    3    0    0 -0.49596733675E+02  0.23447906823E+02 -0.34417124546E+02  0.64770199842E+02  0.10000000000E+01 0.  0.
<mgrwt>
<rscale>  0 0.12499517E+03</rscale>
<asrwt>0</asrwt>
<pdfrwt beam="2">  1        4 0.10319140E-01 0.12499517E+03</pdfrwt>
<pdfrwt beam="1">  1       -4 0.89589324E-02 0.12499517E+03</pdfrwt>
<totfact> 0.10447329E+04</totfact>
</mgrwt>
</event>
<event>
 5    1  0.3293542E-002  0.1250017E+03  0.7818608E-02  0.1235067E+00
         -4   -1    0    0    0  501 -0.00000000000E+00  0.00000000000E+00  0.12359329821E+02  0.12424408784E+02  0.12700000000E+01 0.  1.
          4   -1    0    0  501    0  0.00000000000E+00 -0.00000000000E+00 -0.31516929595E+03  0.31517185472E+03  0.12700000000E+01 0.  1.
         25    2    1    2    0    0  0.00000000000E+00  0.00000000000E+00 -0.30280996613E+03  0.32759626351E+03  0.12500174510E+03 0.  0.
    9000005    1    3    3    0    0 -0.43031964155E+02 -0.42155032683E+02 -0.10782175520E+03  0.12351245935E+03  0.10000000000E+01 0.  0.
    9000005    1    3    3    0    0  0.43031964155E+02  0.42155032683E+02 -0.19498821093E+03  0.20408380416E+03  0.10000000000E+01 0.  0.
<mgrwt>
<rscale>  0 0.12500175E+03</rscale>
<asrwt>0</asrwt>
<pdfrwt beam="2">  1        4 0.48492781E-01 0.12500175E+03</pdfrwt>
<pdfrwt beam="1">  1       -4 0.19066385E-02 0.12500175E+03</pdfrwt>
<totfact> 0.72258876E+03</totfact>
</mgrwt>
</event>
<event>
 5    1  0.3293542E-002  0.1250038E+03  0.7818608E-02  0.1235063E+00
          4   -1    0    0  501    0  0.00000000000E+00  0.00000000000E+00  0.26424604553E+03  0.26424909740E+03  0.12700000000E+01 0.  1.
         -4   -1    0    0    0  501 -0.00000000000E+00 -0.00000000000E+00 -0.14753099106E+02  0.14807661301E+02  0.12700000000E+01 0.  1.
         25    2    1    2    0    0  0.00000000000E+00  0.00000000000E+00  0.24949294642E+03  0.27905675870E+03  0.12500377699E+03 0.  0.
    9000005    1    3    3    0    0 -0.61188580239E+01  0.36627574607E+02  0.23695508134E+03  0.23984939070E+03  0.10000000000E+01 0.  0.
    9000005    1    3    3    0    0  0.61188580239E+01 -0.36627574607E+02  0.12537865084E+02  0.39207368006E+02  0.10000000000E+01 0.  0.
<mgrwt>
<rscale>  0 0.12500378E+03</rscale>
<asrwt>0</asrwt>
<pdfrwt beam="1">  1        4 0.40657667E-01 0.12500378E+03</pdfrwt>
<pdfrwt beam="2">  1       -4 0.22741396E-02 0.12500378E+03</pdfrwt>
<totfact> 0.78296765E+03</totfact>
</mgrwt>
</event>
<event>
 5    1  0.3293542E-002  0.1249996E+03  0.7818608E-02  0.1235070E+00
          4   -1    0    0  501    0  0.00000000000E+00  0.00000000000E+00  0.34304235825E+02  0.34327736534E+02  0.12700000000E+01 0. -1.
         -4   -1    0    0    0  501 -0.00000000000E+00 -0.00000000000E+00 -0.11380396118E+03  0.11381104727E+03  0.12700000000E+01 0. -1.
         25    2    1    2    0    0  0.00000000000E+00  0.00000000000E+00 -0.79499725359E+02  0.14813878381E+03  0.12499957174E+03 0.  0.
    9000005    1    3    3    0    0  0.61161350433E+02 -0.10512132037E+02 -0.48459245806E+02  0.78743343915E+02  0.10000000000E+01 0.  0.
    9000005    1    3    3    0    0 -0.61161350433E+02  0.10512132037E+02 -0.31040479553E+02  0.69395439891E+02  0.10000000000E+01 0.  0.
<mgrwt>
<rscale>  0 0.12499957E+03</rscale>
<asrwt>0</asrwt>
<pdfrwt beam="1">  1        4 0.52799276E-02 0.12499957E+03</pdfrwt>
<pdfrwt beam="2">  1       -4 0.17510654E-01 0.12499957E+03</pdfrwt>
<totfact> 0.99676966E+03</totfact>
</mgrwt>
</event>
<event>
 5    1  0.3293542E-002  0.1250014E+03  0.7818608E-02  0.1235067E+00
         -4   -1    0    0    0  501 -0.00000000000E+00  0.00000000000E+00  0.22567869731E+02  0.22603575916E+02  0.12700000000E+01 0. -1.
          4   -1    0    0  501    0  0.00000000000E+00 -0.00000000000E+00 -0.17291802428E+03  0.17292268799E+03  0.12700000000E+01 0. -1.
         25    2    1    2    0    0  0.00000000000E+00  0.00000000000E+00 -0.15035015455E+03  0.19552626390E+03  0.12500140360E+03 0.  0.
    9000005    1    3    3    0    0 -0.42037327116E+02 -0.45038558760E+02 -0.91560252133E+02  0.11036253176E+03  0.10000000000E+01 0.  0.
    9000005    1    3    3    0    0  0.42037327116E+02  0.45038558760E+02 -0.58789902418E+02  0.85163732143E+02  0.10000000000E+01 0.  0.
<mgrwt>
<rscale>  0 0.12500140E+03</rscale>
<asrwt>0</asrwt>
<pdfrwt beam="2">  1        4 0.26605877E-01 0.12500140E+03</pdfrwt>
<pdfrwt beam="1">  1       -4 0.34750855E-02 0.12500140E+03</pdfrwt>
<totfact> 0.90891699E+03</totfact>
</mgrwt>
</event>
<event>
 5    1  0.3293542E-002  0.1250064E+03  0.7818608E-02  0.1235059E+00
          4   -1    0    0  501    0  0.00000000000E+00  0.00000000000E+00  0.93217235541E+02  0.93225886437E+02  0.12700000000E+01 0. -1.
         -4   -1    0    0    0  501 -0.00000000000E+00 -0.00000000000E+00 -0.41888847328E+02  0.41908095047E+02  0.12700000000E+01 0. -1.
         25    2    1    2    0    0  0.00000000000E+00  0.00000000000E+00  0.51328388213E+02  0.13513398148E+03  0.12500635790E+03 0.  0.
    9000005    1    3    3    0    0 -0.38031560789E+02  0.13768667356E+02 -0.25836606296E+02  0.48005270978E+02  0.10000000000E+01 0.  0.
    9000005    1    3    3    0    0  0.38031560789E+02 -0.13768667356E+02  0.77164994509E+02  0.87128710506E+02  0.10000000000E+01 0.  0.
<mgrwt>
<rscale>  0 0.12500636E+03</rscale>
<asrwt>0</asrwt>
<pdfrwt beam="1">  1        4 0.14343259E-01 0.12500636E+03</pdfrwt>
<pdfrwt beam="2">  1       -4 0.64465841E-02 0.12500636E+03</pdfrwt>
<totfact> 0.10233780E+04</totfact>
</mgrwt>
</event>
<event>
 4    1  0.3293542E-002  0.1248442E+03  0.7818608E-02  0.1235313E+00
         -4   -1    0    0    0  501 -0.00000000000E+00  0.00000000000E+00  0.54558502034E+03  0.54558649847E+03  0.12700000000E+01 0.  1.
          4   -1    0    0  501    0  0.00000000000E+00 -0.00000000000E+00 -0.70839447431E+01  0.71968863492E+01  0.12700000000E+01 0.  1.
    9000005    1    1    2    0    0  0.40171059490E+01  0.21468329365E+02  0.52813374904E+03  0.52858611709E+03  0.10000000000E+01 0.  0.
    9000005    1    1    2    0    0 -0.40171059490E+01 -0.21468329365E+02  0.10367326558E+02  0.24197267736E+02  0.10000000000E+01 0.  0.
<mgrwt>
<rscale>  0 0.12484415E+03</rscale>
<asrwt>0</asrwt>
<pdfrwt beam="2">  1        4 0.10986391E-02 0.12484415E+03</pdfrwt>
<pdfrwt beam="1">  1       -4 0.83944966E-01 0.12484415E+03</pdfrwt>
<totfact> 0.52168760E+03</totfact>
</mgrwt>
</event>
<event>
 5    1  0.3293542E-002  0.1250003E+03  0.7818608E-02  0.1235069E+00
          4   -1    0    0  501    0  0.00000000000E+00  0.00000000000E+00  0.13855635026E+03  0.13856217051E+03  0.12700000000E+01 0. -1.
         -4   -1    0    0    0  501 -0.00000000000E+00 -0.00000000000E+00 -0.28171902927E+02  0.28200514437E+02  0.12700000000E+01 0. -1.
         25    2    1    2    0    0  0.00000000000E+00  0.00000000000E+00  0.11038444733E+03  0.16676268495E+03  0.12500026751E+03 0.  0.
    9000005    1    3    3    0    0 -0.43380837759E+02 -0.98206445520E+01  0.11375481617E+03  0.12214540657E+03  0.10000000000E+01 0.  0.
    9000005    1    3    3    0    0  0.43380837759E+02  0.98206445520E+01 -0.33703688357E+01  0.44617278382E+02  0.10000000000E+01 0.  0.
<mgrwt>
<rscale>  0 0.12500027E+03</rscale>
<asrwt>0</asrwt>
<pdfrwt beam="1">  1        4 0.21319010E-01 0.12500027E+03</pdfrwt>
<pdfrwt beam="2">  1       -4 0.43367875E-02 0.12500027E+03</pdfrwt>
<totfact> 0.96054028E+03</totfact>
</mgrwt>
</event>
<event>
 5    1  0.3293542E-002  0.1249981E+03  0.7818608E-02  0.1235072E+00
          4   -1    0    0  501    0  0.00000000000E+00  0.00000000000E+00  0.16202837247E+03  0.16203334961E+03  0.12700000000E+01 0.  1.
         -4   -1    0    0    0  501 -0.00000000000E+00 -0.00000000000E+00 -0.24085613000E+02  0.24119072403E+02  0.12700000000E+01 0.  1.
         25    2    1    2    0    0  0.00000000000E+00  0.00000000000E+00  0.13794275947E+03  0.18615242201E+03  0.12499807731E+03 0.  0.
    9000005    1    3    3    0    0  0.43770398205E+02 -0.42578156743E+02  0.88749876472E+02  0.10773248240E+03  0.10000000000E+01 0.  0.
    9000005    1    3    3    0    0 -0.43770398205E+02  0.42578156743E+02  0.49192882995E+02  0.78419939607E+02  0.10000000000E+01 0.  0.
<mgrwt>
<rscale>  0 0.12499808E+03</rscale>
<asrwt>0</asrwt>
<pdfrwt beam="1">  1        4 0.24930398E-01 0.12499808E+03</pdfrwt>
<pdfrwt beam="2">  1       -4 0.37084356E-02 0.12499808E+03</pdfrwt>
<totfact> 0.92525110E+03</totfact>
</mgrwt>
</event>
<event>
 5    1  0.3293542E-002  0.1249912E+03  0.7818608E-02  0.1235083E+00
         -4   -1    0    0    0  501 -0.00000000000E+00  0.00000000000E+00  0.24792773030E+03  0.24793098304E+03  0.12700000000E+01 0.  1.
          4   -1    0    0  501    0  0.00000000000E+00 -0.00000000000E+00 -0.15724435386E+02  0.15775638440E+02  0.12700000000E+01 0.  1.
         25    2    1    2    0    0  0.00000000000E+00  0.00000000000E+00  0.23220329491E+03  0.26370662148E+03  0.12499124787E+03 0.  0.
    9000005    1    3    3    0    0 -0.51690100039E+02 -0.27113804289E+02  0.16316856246E+03  0.17329744545E+03  0.10000000000E+01 0.  0.
    9000005    1    3    3    0    0  0.51690100039E+02  0.27113804289E+02  0.69034732454E+02  0.90409176028E+02  0.10000000000E+01 0.  0.
<mgrwt>
<rscale>  0 0.12499125E+03</rscale>
<asrwt>0</asrwt>
<pdfrwt beam="2">  1        4 0.24233330E-02 0.12499125E+03</pdfrwt>
<pdfrwt beam="1">  1       -4 0.38146914E-01 0.12499125E+03</pdfrwt>
<totfact> 0.80404347E+03</totfact>
</mgrwt>
</event>
<event>
 5    1  0.3293542E-002  0.1249937E+03  0.7818608E-02  0.1235079E+00
          4   -1    0    0  501    0  0.00000000000E+00  0.00000000000E+00  0.55788236217E+01  0.57215533731E+01  0.12700000000E+01 0.  1.
         -4   -1    0    0    0  501 -0.00000000000E+00 -0.00000000000E+00 -0.69113574197E+03  0.69113690881E+03  0.12700000000E+01 0.  1.
         25    2    1    2    0    0  0.00000000000E+00  0.00000000000E+00 -0.68555691835E+03  0.69685846219E+03  0.12499371196E+03 0.  0.
    9000005    1    3    3    0    0 -0.30842482915E+02  0.22025770794E+02 -0.61977209001E+03  0.62093062163E+03  0.10000000000E+01 0.  0.
    9000005    1    3    3    0    0  0.30842482915E+02 -0.22025770794E+02 -0.65784828338E+02  0.75927840552E+02  0.10000000000E+01 0.  0.
<mgrwt>
<rscale>  0 0.12499371E+03</rscale>
<asrwt>0</asrwt>
<pdfrwt beam="1">  1        4 0.86935007E-03 0.12499371E+03</pdfrwt>
<pdfrwt beam="2">  1       -4 0.10633958E+00 0.12499371E+03</pdfrwt>
<totfact> 0.43259019E+03</totfact>
</mgrwt>
</event>
<event>
 5    1  0.3293542E-002  0.1249977E+03  0.7818608E-02  0.1235073E+00
          4   -1    0    0  501    0  0.00000000000E+00  0.00000000000E+00  0.11231162935E+03  0.11231880959E+03  0.12700000000E+01 0.  1.
         -4   -1    0    0    0  501 -0.00000000000E+00 -0.00000000000E+00 -0.34759262258E+02  0.34782455531E+02  0.12700000000E+01 0.  1.
         25    2    1    2    0    0  0.00000000000E+00  0.00000000000E+00  0.77552367092E+02  0.14710126512E+03  0.12499765021E+03 0.  0.
    9000005    1    3    3    0    0  0.35244628181E+02  0.49814333502E+02  0.22923790117E+02  0.65193188227E+02  0.10000000000E+01 0.  0.
    9000005    1    3    3    0    0 -0.35244628181E+02 -0.49814333502E+02  0.54628576976E+02  0.81908076893E+02  0.10000000000E+01 0.  0.
<mgrwt>
<rscale>  0 0.12499765E+03</rscale>
<asrwt>0</asrwt>
<pdfrwt beam="1">  1        4 0.17281049E-01 0.12499765E+03</pdfrwt>
<pdfrwt beam="2">  1       -4 0.53499152E-02 0.12499765E+03</pdfrwt>
<totfact> 0.99889972E+03</totfact>
</mgrwt>
</event>
<event>
 5    1  0.3293542E-002  0.1249999E+03  0.7818608E-02  0.1235069E+00
          4   -1    0    0  501    0  0.00000000000E+00  0.00000000000E+00  0.12265594978E+03  0.12266252450E+03  0.12700000000E+01 0. -1.
         -4   -1    0    0    0  501 -0.00000000000E+00 -0.00000000000E+00 -0.31827091270E+02  0.31852419668E+02  0.12700000000E+01 0. -1.
         25    2    1    2    0    0  0.00000000000E+00  0.00000000000E+00  0.90828858510E+02  0.15451494417E+03  0.12499994573E+03 0.  0.
    9000005    1    3    3    0    0 -0.94594160064E+01 -0.11150759810E+02 -0.29688657031E+02  0.33109460156E+02  0.10000000000E+01 0.  0.
    9000005    1    3    3    0    0  0.94594160064E+01  0.11150759810E+02  0.12051751554E+03  0.12140548401E+03  0.10000000000E+01 0.  0.
<mgrwt>
<rscale>  0 0.12499995E+03</rscale>
<asrwt>0</asrwt>
<pdfrwt beam="1">  1        4 0.18872601E-01 0.12499995E+03</pdfrwt>
<pdfrwt beam="2">  1       -4 0.48989296E-02 0.12499995E+03</pdfrwt>
<totfact> 0.98410925E+03</totfact>
</mgrwt>
</event>
<event>
 5    1  0.3293542E-002  0.1250013E+03  0.7818608E-02  0.1235067E+00
          4   -1    0    0  501    0  0.00000000000E+00  0.00000000000E+00  0.32890168284E+03  0.32890413478E+03  0.12700000000E+01 0.  1.
         -4   -1    0    0    0  501 -0.00000000000E+00 -0.00000000000E+00 -0.11840447537E+02  0.11908362519E+02  0.12700000000E+01 0.  1.
         25    2    1    2    0    0  0.00000000000E+00  0.00000000000E+00  0.31706123530E+03  0.34081249729E+03  0.12500132552E+03 0.  0.
    9000005    1    3    3    0    0 -0.37728929497E+02 -0.35354782655E+02  0.62835752920E+02  0.81380370008E+02  0.10000000000E+01 0.  0.
    9000005    1    3    3    0    0  0.37728929497E+02  0.35354782655E+02  0.25422548238E+03  0.25943212729E+03  0.10000000000E+01 0.  0.
<mgrwt>
<rscale>  0 0.12500133E+03</rscale>
<asrwt>0</asrwt>
<pdfrwt beam="1">  1        4 0.50605671E-01 0.12500133E+03</pdfrwt>
<pdfrwt beam="2">  1       -4 0.18270202E-02 0.12500133E+03</pdfrwt>
<totfact> 0.70745184E+03</totfact>
</mgrwt>
</event>
<event>
 5    1  0.3293542E-002  0.1250022E+03  0.7818608E-02  0.1235066E+00
         -4   -1    0    0    0  501 -0.00000000000E+00  0.00000000000E+00  0.47800980864E+02  0.47817848881E+02  0.12700000000E+01 0. -1.
          4   -1    0    0  501    0  0.00000000000E+00 -0.00000000000E+00 -0.81685738438E+02  0.81695610434E+02  0.12700000000E+01 0. -1.
         25    2    1    2    0    0  0.00000000000E+00  0.00000000000E+00 -0.33884757574E+02  0.12951345932E+03  0.12500223737E+03 0.  0.
    9000005    1    3    3    0    0 -0.44916653062E+02 -0.96171900357E+01 -0.60843637695E+02  0.76242667282E+02  0.10000000000E+01 0.  0.
    9000005    1    3    3    0    0  0.44916653062E+02  0.96171900357E+01  0.26958880121E+02  0.53270792033E+02  0.10000000000E+01 0.  0.
<mgrwt>
<rscale>  0 0.12500224E+03</rscale>
<asrwt>0</asrwt>
<pdfrwt beam="2">  1        4 0.12569094E-01 0.12500224E+03</pdfrwt>
<pdfrwt beam="1">  1       -4 0.73560540E-02 0.12500224E+03</pdfrwt>
<totfact> 0.10354404E+04</totfact>
</mgrwt>
</event>
<event>
 5    1  0.3293542E-002  0.1249988E+03  0.7818608E-02  0.1235071E+00
         -4   -1    0    0    0  501 -0.00000000000E+00  0.00000000000E+00  0.22010053845E+03  0.22010420243E+03  0.12700000000E+01 0.  1.
          4   -1    0    0  501    0  0.00000000000E+00 -0.00000000000E+00 -0.17720684078E+02  0.17766134757E+02  0.12700000000E+01 0.  1.
         25    2    1    2    0    0  0.00000000000E+00  0.00000000000E+00  0.20237985438E+03  0.23787033719E+03  0.12499876742E+03 0.  0.
    9000005    1    3    3    0    0  0.90309763845E+01 -0.67730680796E+01  0.21815348998E+03  0.21844765546E+03  0.10000000000E+01 0.  0.
    9000005    1    3    3    0    0 -0.90309763845E+01  0.67730680796E+01 -0.15773635599E+02  0.19422681733E+02  0.10000000000E+01 0.  0.
<mgrwt>
<rscale>  0 0.12499877E+03</rscale>
<asrwt>0</asrwt>
<pdfrwt beam="2">  1        4 0.27300371E-02 0.12499877E+03</pdfrwt>
<pdfrwt beam="1">  1       -4 0.33865399E-01 0.12499877E+03</pdfrwt>
<totfact> 0.84117880E+03</totfact>
</mgrwt>
</event>
<event>
 5    1  0.3293542E-002  0.1250004E+03  0.7818608E-02  0.1235069E+00
         -4   -1    0    0    0  501 -0.00000000000E+00  0.00000000000E+00  0.93100980747E+01  0.93963198200E+01  0.12700000000E+01 0. -1.
          4   -1    0    0  501    0  0.00000000000E+00 -0.00000000000E+00 -0.41755317856E+03  0.41755510993E+03  0.12700000000E+01 0. -1.
         25    2    1    2    0    0  0.00000000000E+00  0.00000000000E+00 -0.40824308049E+03  0.42695142975E+03  0.12500044239E+03 0.  0.
    9000005    1    3    3    0    0 -0.38674141252E+02 -0.22260623393E+02 -0.54689435855E+02  0.70591493465E+02  0.10000000000E+01 0.  0.
    9000005    1    3    3    0    0  0.38674141252E+02  0.22260623393E+02 -0.35355364463E+03  0.35635993629E+03  0.10000000000E+01 0.  0.
<mgrwt>
<rscale>  0 0.12500044E+03</rscale>
<asrwt>0</asrwt>
<pdfrwt beam="2">  1        4 0.64245717E-01 0.12500044E+03</pdfrwt>
<pdfrwt beam="1">  1       -4 0.14391041E-02 0.12500044E+03</pdfrwt>
<totfact> 0.62012702E+03</totfact>
</mgrwt>
</event>
<event>
 5    1  0.3293542E-002  0.1250007E+03  0.7818608E-02  0.1235068E+00
         -4   -1    0    0    0  501 -0.00000000000E+00  0.00000000000E+00  0.75008216949E+03  0.75008324463E+03  0.12700000000E+01 0.  1.
          4   -1    0    0  501    0  0.00000000000E+00 -0.00000000000E+00 -0.51292955433E+01  0.52841813719E+01  0.12700000000E+01 0.  1.
         25    2    1    2    0    0  0.00000000000E+00  0.00000000000E+00  0.74495287394E+03  0.75536742601E+03  0.12500065550E+03 0.  0.
    9000005    1    3    3    0    0  0.36702507494E+02 -0.71250822563E+01  0.67507169161E+03  0.67610696614E+03  0.10000000000E+01 0.  0.
    9000005    1    3    3    0    0 -0.36702507494E+02  0.71250822563E+01  0.69881182331E+02  0.79260459862E+02  0.10000000000E+01 0.  0.
<mgrwt>
<rscale>  0 0.12500066E+03</rscale>
<asrwt>0</asrwt>
<pdfrwt beam="2">  1        4 0.80111933E-03 0.12500066E+03</pdfrwt>
<pdfrwt beam="1">  1       -4 0.11540926E+00 0.12500066E+03</pdfrwt>
<totfact> 0.40318138E+03</totfact>
</mgrwt>
</event>
<event>
 5    1  0.3293542E-002  0.1250031E+03  0.7818608E-02  0.1235064E+00
          4   -1    0    0  501    0  0.00000000000E+00  0.00000000000E+00  0.24343451305E+03  0.24343782582E+03  0.12700000000E+01 0. -1.
         -4   -1    0    0    0  501 -0.00000000000E+00 -0.00000000000E+00 -0.16018653481E+02  0.16068919047E+02  0.12700000000E+01 0. -1.
         25    2    1    2    0    0  0.00000000000E+00  0.00000000000E+00  0.22741585957E+03  0.25950674487E+03  0.12500310977E+03 0.  0.
    9000005    1    3    3    0    0  0.34771786217E+02 -0.30928669643E+02  0.27116366752E+02  0.53869815931E+02  0.10000000000E+01 0.  0.
    9000005    1    3    3    0    0 -0.34771786217E+02  0.30928669643E+02  0.20029949281E+03  0.20563692894E+03  0.10000000000E+01 0.  0.
<mgrwt>
<rscale>  0 0.12500311E+03</rscale>
<asrwt>0</asrwt>
<pdfrwt beam="1">  1        4 0.37455583E-01 0.12500311E+03</pdfrwt>
<pdfrwt beam="2">  1       -4 0.24685298E-02 0.12500311E+03</pdfrwt>
<totfact> 0.80969727E+03</totfact>
</mgrwt>
</event>
<event>
 5    1  0.3293542E-002  0.1250010E+03  0.7818608E-02  0.1235068E+00
          4   -1    0    0  501    0  0.00000000000E+00  0.00000000000E+00  0.37465293144E+02  0.37486812219E+02  0.12700000000E+01 0. -1.
         -4   -1    0    0    0  501 -0.00000000000E+00 -0.00000000000E+00 -0.10420951559E+03  0.10421725404E+03  0.12700000000E+01 0. -1.
         25    2    1    2    0    0  0.00000000000E+00  0.00000000000E+00 -0.66744222451E+02  0.14170406626E+03  0.12500100466E+03 0.  0.
    9000005    1    3    3    0    0  0.39093664249E+02 -0.83361235718E+01  0.21083212772E+02  0.45202957884E+02  0.10000000000E+01 0.  0.
    9000005    1    3    3    0    0 -0.39093664249E+02  0.83361235718E+01 -0.87827435222E+02  0.96501108379E+02  0.10000000000E+01 0.  0.
<mgrwt>
<rscale>  0 0.12500100E+03</rscale>
<asrwt>0</asrwt>
<pdfrwt beam="1">  1        4 0.57661419E-02 0.12500100E+03</pdfrwt>
<pdfrwt beam="2">  1       -4 0.16034484E-01 0.12500100E+03</pdfrwt>
<totfact> 0.10098161E+04</totfact>
</mgrwt>
</event>
<event>
 5    1  0.3293542E-002  0.1250038E+03  0.7818608E-02  0.1235063E+00
         -4   -1    0    0    0  501 -0.00000000000E+00  0.00000000000E+00  0.19188691700E+02  0.19230673133E+02  0.12700000000E+01 0.  1.
          4   -1    0    0  501    0  0.00000000000E+00 -0.00000000000E+00 -0.20331632413E+03  0.20332029057E+03  0.12700000000E+01 0.  1.
         25    2    1    2    0    0  0.00000000000E+00  0.00000000000E+00 -0.18412763243E+03  0.22255096370E+03  0.12500378563E+03 0.  0.
    9000005    1    3    3    0    0  0.28952642586E+02 -0.42909034906E+02 -0.15440279214E+03  0.16285165952E+03  0.10000000000E+01 0.  0.
    9000005    1    3    3    0    0 -0.28952642586E+02  0.42909034906E+02 -0.29724840292E+02  0.59699304180E+02  0.10000000000E+01 0.  0.
<mgrwt>
<rscale>  0 0.12500379E+03</rscale>
<asrwt>0</asrwt>
<pdfrwt beam="2">  1        4 0.31282967E-01 0.12500379E+03</pdfrwt>
<pdfrwt beam="1">  1       -4 0.29556410E-02 0.12500379E+03</pdfrwt>
<totfact> 0.86458987E+03</totfact>
</mgrwt>
</event>
<event>
 5    1  0.3293542E-002  0.1249997E+03  0.7818608E-02  0.1235070E+00
         -4   -1    0    0    0  501 -0.00000000000E+00  0.00000000000E+00  0.69442794185E+01  0.70594558319E+01  0.12700000000E+01 0. -1.
          4   -1    0    0  501    0  0.00000000000E+00 -0.00000000000E+00 -0.55776870103E+03  0.55777014688E+03  0.12700000000E+01 0. -1.
         25    2    1    2    0    0  0.00000000000E+00  0.00000000000E+00 -0.55082442161E+03  0.56482960271E+03  0.12499974662E+03 0.  0.
    9000005    1    3    3    0    0  0.26849374000E+02 -0.21180021691E+02 -0.39067070459E+02  0.51929935464E+02  0.10000000000E+01 0.  0.
    9000005    1    3    3    0    0 -0.26849374000E+02  0.21180021691E+02 -0.51175735115E+03  0.51289966725E+03  0.10000000000E+01 0.  0.
<mgrwt>
<rscale>  0 0.12499975E+03</rscale>
<asrwt>0</asrwt>
<pdfrwt beam="2">  1        4 0.85819505E-01 0.12499975E+03</pdfrwt>
<pdfrwt beam="1">  1       -4 0.10773221E-02 0.12499975E+03</pdfrwt>
<totfact> 0.51165988E+03</totfact>
</mgrwt>
</event>
<event>
 5    1  0.3293542E-002  0.1250025E+03  0.7818608E-02  0.1235065E+00
         -4   -1    0    0    0  501 -0.00000000000E+00  0.00000000000E+00  0.28098436390E+02  0.28127122632E+02  0.12700000000E+01 0. -1.
          4   -1    0    0  501    0  0.00000000000E+00 -0.00000000000E+00 -0.13892324415E+03  0.13892904903E+03  0.12700000000E+01 0. -1.
         25    2    1    2    0    0  0.00000000000E+00  0.00000000000E+00 -0.11082480776E+03  0.16705617166E+03  0.12500250588E+03 0.  0.
    9000005    1    3    3    0    0  0.45675929716E+02 -0.63671602798E+01  0.94875805888E+00  0.46138177547E+02  0.10000000000E+01 0.  0.
    9000005    1    3    3    0    0 -0.45675929716E+02  0.63671602798E+01 -0.11177356582E+03  0.12091799412E+03  0.10000000000E+01 0.  0.
<mgrwt>
<rscale>  0 0.12500251E+03</rscale>
<asrwt>0</asrwt>
<pdfrwt beam="2">  1        4 0.21375460E-01 0.12500251E+03</pdfrwt>
<pdfrwt beam="1">  1       -4 0.43254896E-02 0.12500251E+03</pdfrwt>
<totfact> 0.95993995E+03</totfact>
</mgrwt>
</event>
<event>
 5    1  0.3293542E-002  0.1249998E+03  0.7818608E-02  0.1235070E+00
          4   -1    0    0  501    0  0.00000000000E+00  0.00000000000E+00  0.67550410792E+01  0.68733892646E+01  0.12700000000E+01 0. -1.
         -4   -1    0    0    0  501 -0.00000000000E+00 -0.00000000000E+00 -0.57312950369E+03  0.57313091079E+03  0.12700000000E+01 0. -1.
         25    2    1    2    0    0  0.00000000000E+00  0.00000000000E+00 -0.56637446261E+03  0.58000430005E+03  0.12499982472E+03 0.  0.
    9000005    1    3    3    0    0  0.13472559516E+02 -0.61017325023E+02 -0.28682672865E+03  0.29355612084E+03  0.10000000000E+01 0.  0.
    9000005    1    3    3    0    0 -0.13472559516E+02  0.61017325023E+02 -0.27954773396E+03  0.28644817922E+03  0.10000000000E+01 0.  0.
<mgrwt>
<rscale>  0 0.12499982E+03</rscale>
<asrwt>0</asrwt>
<pdfrwt beam="1">  1        4 0.10484495E-02 0.12499982E+03</pdfrwt>
<pdfrwt beam="2">  1       -4 0.88182944E-01 0.12499982E+03</pdfrwt>
<totfact> 0.50154830E+03</totfact>
</mgrwt>
</event>
<event>
 5    1  0.3293542E-002  0.1249982E+03  0.7818608E-02  0.1235072E+00
         -4   -1    0    0    0  501 -0.00000000000E+00  0.00000000000E+00  0.22820634192E+02  0.22855945505E+02  0.12700000000E+01 0.  1.
          4   -1    0    0  501    0  0.00000000000E+00 -0.00000000000E+00 -0.17099701454E+03  0.17100173064E+03  0.12700000000E+01 0.  1.
         25    2    1    2    0    0  0.00000000000E+00  0.00000000000E+00 -0.14817638034E+03  0.19385767614E+03  0.12499823562E+03 0.  0.
    9000005    1    3    3    0    0  0.56893543139E+01 -0.61871520127E+02 -0.63720912723E+02  0.89004541870E+02  0.10000000000E+01 0.  0.
    9000005    1    3    3    0    0 -0.56893543139E+01  0.61871520127E+02 -0.84455467622E+02  0.10485313427E+03  0.10000000000E+01 0.  0.
<mgrwt>
<rscale>  0 0.12499824E+03</rscale>
<asrwt>0</asrwt>
<pdfrwt beam="2">  1        4 0.26310311E-01 0.12499824E+03</pdfrwt>
<pdfrwt beam="1">  1       -4 0.35139459E-02 0.12499824E+03</pdfrwt>
<totfact> 0.91183993E+03</totfact>
</mgrwt>
</event>
<event>
 5    1  0.3293542E-002  0.1249670E+03  0.7818608E-02  0.1235121E+00
         -4   -1    0    0    0  501 -0.00000000000E+00  0.00000000000E+00  0.16706069004E+04  0.16706073831E+04  0.12700000000E+01 0.  1.
          4   -1    0    0  501    0  0.00000000000E+00 -0.00000000000E+00 -0.21639301461E+01  0.25090822381E+01  0.12700000000E+01 0.  1.
         25    2    1    2    0    0  0.00000000000E+00  0.00000000000E+00  0.16684429703E+04  0.16731164654E+04  0.12496704242E+03 0.  0.
    9000005    1    3    3    0    0  0.29254021039E+02 -0.51269511918E+02  0.11082208027E+04  0.11097921914E+04  0.10000000000E+01 0.  0.
    9000005    1    3    3    0    0 -0.29254021039E+02  0.51269511918E+02  0.56022216757E+03  0.56332427396E+03  0.10000000000E+01 0.  0.
<mgrwt>
<rscale>  0 0.12496704E+03</rscale>
<asrwt>0</asrwt>
<pdfrwt beam="2">  1        4 0.35950073E-03 0.12496704E+03</pdfrwt>
<pdfrwt beam="1">  1       -4 0.25704224E+00 0.12496704E+03</pdfrwt>
<totfact> 0.14772152E+03</totfact>
</mgrwt>
</event>
<event>
 5    1  0.3293542E-002  0.1250121E+03  0.7818608E-02  0.1235050E+00
          4   -1    0    0  501    0  0.00000000000E+00  0.00000000000E+00  0.13905253851E+04  0.13905259651E+04  0.12700000000E+01 0.  1.
         -4   -1    0    0    0  501 -0.00000000000E+00 -0.00000000000E+00 -0.26656156744E+01  0.29526948579E+01  0.12700000000E+01 0.  1.
         25    2    1    2    0    0  0.00000000000E+00  0.00000000000E+00  0.13878597695E+04  0.13934786600E+04  0.12501214364E+03 0.  0.
    9000005    1    3    3    0    0  0.14203974566E+02  0.20407025945E+02  0.54781880448E+02  0.60168546823E+02  0.10000000000E+01 0.  0.
    9000005    1    3    3    0    0 -0.14203974566E+02 -0.20407025945E+02  0.13330778890E+04  0.13333101131E+04  0.10000000000E+01 0.  0.
<mgrwt>
<rscale>  0 0.12501214E+03</rscale>
<asrwt>0</asrwt>
<pdfrwt beam="1">  1        4 0.21394974E+00 0.12501214E+03</pdfrwt>
<pdfrwt beam="2">  1       -4 0.43222108E-03 0.12501214E+03</pdfrwt>
<totfact> 0.20115880E+03</totfact>
</mgrwt>
</event>
<event>
 4    1  0.3293542E-002  0.1246464E+03  0.7818608E-02  0.1235623E+00
          4   -1    0    0  501    0  0.00000000000E+00  0.00000000000E+00  0.50135815611E+02  0.50151898339E+02  0.12700000000E+01 0.  1.
         -4   -1    0    0    0  501 -0.00000000000E+00 -0.00000000000E+00 -0.77439523160E+02  0.77449936393E+02  0.12700000000E+01 0.  1.
    9000005    1    1    2    0    0 -0.48463198236E+02  0.37547774328E+02 -0.25082026467E+02  0.66246697970E+02  0.10000000000E+01 0.  0.
    9000005    1    1    2    0    0  0.48463198236E+02 -0.37547774328E+02 -0.22216810814E+01  0.61355136762E+02  0.10000000000E+01 0.  0.
<mgrwt>
<rscale>  0 0.12464644E+03</rscale>
<asrwt>0</asrwt>
<pdfrwt beam="1">  1        4 0.77152405E-02 0.12464644E+03</pdfrwt>
<pdfrwt beam="2">  1       -4 0.11915811E-01 0.12464644E+03</pdfrwt>
<totfact> 0.10479510E+04</totfact>
</mgrwt>
</event>
<event>
 5    1  0.3293542E-002  0.1249984E+03  0.7818608E-02  0.1235072E+00
         -4   -1    0    0    0  501 -0.00000000000E+00  0.00000000000E+00  0.89759239269E+03  0.89759329115E+03  0.12700000000E+01 0.  1.
          4   -1    0    0  501    0  0.00000000000E+00 -0.00000000000E+00 -0.42582346333E+01  0.44435866361E+01  0.12700000000E+01 0.  1.
         25    2    1    2    0    0  0.00000000000E+00  0.00000000000E+00  0.89333415806E+03  0.90203687779E+03  0.12499844372E+03 0.  0.
    9000005    1    3    3    0    0 -0.40356976460E+00 -0.22147128544E+01 -0.40009174685E+01  0.46984212425E+01  0.10000000000E+01 0.  0.
    9000005    1    3    3    0    0  0.40356976460E+00  0.22147128544E+01  0.89733507553E+03  0.89733845655E+03  0.10000000000E+01 0.  0.
<mgrwt>
<rscale>  0 0.12499844E+03</rscale>
<asrwt>0</asrwt>
<pdfrwt beam="2">  1        4 0.66943916E-03 0.12499844E+03</pdfrwt>
<pdfrwt beam="1">  1       -4 0.13810563E+00 0.12499844E+03</pdfrwt>
<totfact> 0.34083157E+03</totfact>
</mgrwt>
</event>
<event>
 5    1  0.3293542E-002  0.1250046E+03  0.7818608E-02  0.1235062E+00
         -4   -1    0    0    0  501 -0.00000000000E+00  0.00000000000E+00  0.65189558087E+03  0.65189681795E+03  0.12700000000E+01 0.  1.
          4   -1    0    0  501    0  0.00000000000E+00 -0.00000000000E+00 -0.59240397307E+01  0.60586423174E+01  0.12700000000E+01 0.  1.
         25    2    1    2    0    0  0.00000000000E+00  0.00000000000E+00  0.64597154114E+03  0.65795546027E+03  0.12500462287E+03 0.  0.
    9000005    1    3    3    0    0  0.29640542307E+02 -0.29930751454E+01  0.61214122138E+03  0.61286653944E+03  0.10000000000E+01 0.  0.
    9000005    1    3    3    0    0 -0.29640542307E+02  0.29930751454E+01  0.33830319759E+02  0.45088920835E+02  0.10000000000E+01 0.  0.
<mgrwt>
<rscale>  0 0.12500462E+03</rscale>
<asrwt>0</asrwt>
<pdfrwt beam="2">  1        4 0.92183970E-03 0.12500462E+03</pdfrwt>
<pdfrwt beam="1">  1       -4 0.10030210E+00 0.12500462E+03</pdfrwt>
<totfact> 0.45396208E+03</totfact>
</mgrwt>
</event>
<event>
 5    1  0.3293542E-002  0.1249997E+03  0.7818608E-02  0.1235070E+00
          4   -1    0    0  501    0  0.00000000000E+00  0.00000000000E+00  0.45492756069E+02  0.45510479615E+02  0.12700000000E+01 0.  1.
         -4   -1    0    0    0  501 -0.00000000000E+00 -0.00000000000E+00 -0.85825790412E+02  0.85835186257E+02  0.12700000000E+01 0.  1.
         25    2    1    2    0    0  0.00000000000E+00  0.00000000000E+00 -0.40333034342E+02  0.13134566587E+03  0.12499972114E+03 0.  0.
    9000005    1    3    3    0    0  0.45815998345E+01  0.10292165288E+02  0.44422051437E+02  0.45839266761E+02  0.10000000000E+01 0.  0.
    9000005    1    3    3    0    0 -0.45815998345E+01 -0.10292165288E+02 -0.84755085779E+02  0.85506399110E+02  0.10000000000E+01 0.  0.
<mgrwt>
<rscale>  0 0.12499972E+03</rscale>
<asrwt>0</asrwt>
<pdfrwt beam="1">  1        4 0.70009717E-02 0.12499972E+03</pdfrwt>
<pdfrwt beam="2">  1       -4 0.13206054E-01 0.12499972E+03</pdfrwt>
<totfact> 0.10315749E+04</totfact>
</mgrwt>
</event>
<event>
 5    1  0.3293542E-002  0.1250017E+03  0.7818608E-02  0.1235067E+00
         -4   -1    0    0    0  501 -0.00000000000E+00  0.00000000000E+00  0.31849659079E+02  0.31874969544E+02  0.12700000000E+01 0. -1.
          4   -1    0    0  501    0  0.00000000000E+00 -0.00000000000E+00 -0.12257252106E+03  0.12257910026E+03  0.12700000000E+01 0. -1.
         25    2    1    2    0    0  0.00000000000E+00  0.00000000000E+00 -0.90722861983E+02  0.15445406980E+03  0.12500168795E+03 0.  0.
    9000005    1    3    3    0    0 -0.59803387921E+02  0.53835398000E+01 -0.66760349881E+02  0.89796280680E+02  0.10000000000E+01 0.  0.
    9000005    1    3    3    0    0  0.59803387921E+02 -0.53835398000E+01 -0.23962512102E+02  0.64657789120E+02  0.10000000000E+01 0.  0.
<mgrwt>
<rscale>  0 0.12500169E+03</rscale>
<asrwt>0</asrwt>
<pdfrwt beam="2">  1        4 0.18859764E-01 0.12500169E+03</pdfrwt>
<pdfrwt beam="1">  1       -4 0.49024006E-02 0.12500169E+03</pdfrwt>
<totfact> 0.98419042E+03</totfact>
</mgrwt>
</event>
<event>
 5    1  0.3293542E-002  0.1249915E+03  0.7818608E-02  0.1235083E+00
          4   -1    0    0  501    0  0.00000000000E+00  0.00000000000E+00  0.10737095977E+02  0.10811943859E+02  0.12700000000E+01 0.  1.
         -4   -1    0    0    0  501 -0.00000000000E+00 -0.00000000000E+00 -0.36242001782E+03  0.36242224299E+03  0.12700000000E+01 0.  1.
         25    2    1    2    0    0  0.00000000000E+00  0.00000000000E+00 -0.35168292184E+03  0.37323418685E+03  0.12499152259E+03 0.  0.
    9000005    1    3    3    0    0 -0.39675508603E+02 -0.22651036024E+02 -0.30314446058E+03  0.30656937127E+03  0.10000000000E+01 0.  0.
    9000005    1    3    3    0    0  0.39675508603E+02  0.22651036024E+02 -0.48538461261E+02  0.66664815589E+02  0.10000000000E+01 0.  0.
<mgrwt>
<rscale>  0 0.12499152E+03</rscale>
<asrwt>0</asrwt>
<pdfrwt beam="1">  1        4 0.16577899E-02 0.12499152E+03</pdfrwt>
<pdfrwt beam="2">  1       -4 0.55762845E-01 0.12499152E+03</pdfrwt>
<totfact> 0.67254539E+03</totfact>
</mgrwt>
</event>
<event>
 5    1  0.3293542E-002  0.1249982E+03  0.7818608E-02  0.1235072E+00
          4   -1    0    0  501    0  0.00000000000E+00  0.00000000000E+00  0.16777260159E+03  0.16777740832E+03  0.12700000000E+01 0.  1.
         -4   -1    0    0    0  501 -0.00000000000E+00 -0.00000000000E+00 -0.23259882658E+02  0.23294528140E+02  0.12700000000E+01 0.  1.
         25    2    1    2    0    0  0.00000000000E+00  0.00000000000E+00  0.14451271893E+03  0.19107193646E+03  0.12499823587E+03 0.  0.
    9000005    1    3    3    0    0 -0.38674842562E+02 -0.35531555318E+02  0.12402380320E+03  0.13468904421E+03  0.10000000000E+01 0.  0.
    9000005    1    3    3    0    0  0.38674842562E+02  0.35531555318E+02  0.20488915725E+02  0.56382892247E+02  0.10000000000E+01 0.  0.
<mgrwt>
<rscale>  0 0.12499824E+03</rscale>
<asrwt>0</asrwt>
<pdfrwt beam="1">  1        4 0.25814204E-01 0.12499824E+03</pdfrwt>
<pdfrwt beam="2">  1       -4 0.35814783E-02 0.12499824E+03</pdfrwt>
<totfact> 0.91664757E+03</totfact>
</mgrwt>
</event>
<event>
 5    1  0.3293542E-002  0.1249983E+03  0.7818608E-02  0.1235072E+00
          4   -1    0    0  501    0  0.00000000000E+00  0.00000000000E+00  0.47974674634E+02  0.47991481600E+02  0.12700000000E+01 0. -1.
         -4   -1    0    0    0  501 -0.00000000000E+00 -0.00000000000E+00 -0.81384875095E+02  0.81394783581E+02  0.12700000000E+01 0. -1.
         25    2    1    2    0    0  0.00000000000E+00  0.00000000000E+00 -0.33410200461E+02  0.12938626518E+03  0.12499825648E+03 0.  0.
    9000005    1    3    3    0    0  0.24107651021E+02 -0.26681705784E+02  0.36197237311E+02  0.51032658663E+02  0.10000000000E+01 0.  0.
    9000005    1    3    3    0    0 -0.24107651021E+02  0.26681705784E+02 -0.69607437772E+02  0.78353606518E+02  0.10000000000E+01 0.  0.
<mgrwt>
<rscale>  0 0.12499826E+03</rscale>
<asrwt>0</asrwt>
<pdfrwt beam="1">  1        4 0.73827742E-02 0.12499826E+03</pdfrwt>
<pdfrwt beam="2">  1       -4 0.12522805E-01 0.12499826E+03</pdfrwt>
<totfact> 0.10358062E+04</totfact>
</mgrwt>
</event>
<event>
 5    1  0.3293542E-002  0.1250033E+03  0.7818608E-02  0.1235064E+00
          4   -1    0    0  501    0  0.00000000000E+00  0.00000000000E+00  0.11271900899E+03  0.11272616328E+03  0.12700000000E+01 0.  1.
         -4   -1    0    0    0  501 -0.00000000000E+00 -0.00000000000E+00 -0.34636687158E+02  0.34659962453E+02  0.12700000000E+01 0.  1.
         25    2    1    2    0    0  0.00000000000E+00  0.00000000000E+00  0.78082321831E+02  0.14738612573E+03  0.12500328426E+03 0.  0.
    9000005    1    3    3    0    0 -0.59469817273E+02 -0.15713990940E+02  0.26025161783E+02  0.66797438001E+02  0.10000000000E+01 0.  0.
    9000005    1    3    3    0    0  0.59469817273E+02  0.15713990940E+02  0.52057160048E+02  0.80588687730E+02  0.10000000000E+01 0.  0.
<mgrwt>
<rscale>  0 0.12500328E+03</rscale>
<asrwt>0</asrwt>
<pdfrwt beam="1">  1        4 0.17343726E-01 0.12500328E+03</pdfrwt>
<pdfrwt beam="2">  1       -4 0.53310620E-02 0.12500328E+03</pdfrwt>
<totfact> 0.99819930E+03</totfact>
</mgrwt>
</event>
<event>
 5    1  0.3293542E-002  0.1249428E+03  0.7818608E-02  0.1235159E+00
          4   -1    0    0  501    0  0.00000000000E+00  0.00000000000E+00  0.10437439856E+02  0.10514421085E+02  0.12700000000E+01 0. -1.
         -4   -1    0    0    0  501 -0.00000000000E+00 -0.00000000000E+00 -0.37245905111E+03  0.37246121630E+03  0.12700000000E+01 0. -1.
         25    2    1    2    0    0  0.00000000000E+00  0.00000000000E+00 -0.36202161125E+03  0.38297563739E+03  0.12494275418E+03 0.  0.
    9000005    1    3    3    0    0 -0.33572423650E+02 -0.15244026321E+02 -0.33555889748E+03  0.33758000777E+03  0.10000000000E+01 0.  0.
    9000005    1    3    3    0    0  0.33572423650E+02  0.15244026321E+02 -0.26462713766E+02  0.45395629614E+02  0.10000000000E+01 0.  0.
<mgrwt>
<rscale>  0 0.12494275E+03</rscale>
<asrwt>0</asrwt>
<pdfrwt beam="1">  1        4 0.16118485E-02 0.12494275E+03</pdfrwt>
<pdfrwt beam="2">  1       -4 0.57307470E-01 0.12494275E+03</pdfrwt>
<totfact> 0.66326795E+03</totfact>
</mgrwt>
</event>
<event>
 5    1  0.3293542E-002  0.1250014E+03  0.7818608E-02  0.1235067E+00
         -4   -1    0    0    0  501 -0.00000000000E+00  0.00000000000E+00  0.17948032685E+03  0.17948482005E+03  0.12700000000E+01 0. -1.
          4   -1    0    0  501    0  0.00000000000E+00 -0.00000000000E+00 -0.21741405582E+02  0.21778466812E+02  0.12700000000E+01 0. -1.
         25    2    1    2    0    0  0.00000000000E+00  0.00000000000E+00  0.15773892127E+03  0.20126328686E+03  0.12500137341E+03 0.  0.
    9000005    1    3    3    0    0 -0.11677704174E+02  0.54799949579E+02  0.12342944714E+03  0.13555527164E+03  0.10000000000E+01 0.  0.
    9000005    1    3    3    0    0  0.11677704174E+02 -0.54799949579E+02  0.34309474129E+02  0.65708015216E+02  0.10000000000E+01 0.  0.
<mgrwt>
<rscale>  0 0.12500137E+03</rscale>
<asrwt>0</asrwt>
<pdfrwt beam="2">  1        4 0.33480281E-02 0.12500137E+03</pdfrwt>
<pdfrwt beam="1">  1       -4 0.27615554E-01 0.12500137E+03</pdfrwt>
<totfact> 0.89920116E+03</totfact>
</mgrwt>
</event>
<event>
 5    1  0.3293542E-002  0.1249976E+03  0.7818608E-02  0.1235073E+00
          4   -1    0    0  501    0  0.00000000000E+00  0.00000000000E+00  0.53462447910E+03  0.53462598754E+03  0.12700000000E+01 0. -1.
         -4   -1    0    0    0  501 -0.00000000000E+00 -0.00000000000E+00 -0.72495307907E+01  0.73599318398E+01  0.12700000000E+01 0. -1.
         25    2    1    2    0    0  0.00000000000E+00  0.00000000000E+00  0.52737494831E+03  0.54198591938E+03  0.12499760278E+03 0.  0.
    9000005    1    3    3    0    0  0.68497709570E+00 -0.48429752436E+02  0.43490012387E+03  0.43759002258E+03  0.10000000000E+01 0.  0.
    9000005    1    3    3    0    0 -0.68497709570E+00  0.48429752436E+02  0.92474824439E+02  0.10439589680E+03  0.10000000000E+01 0.  0.
<mgrwt>
<rscale>  0 0.12499760E+03</rscale>
<asrwt>0</asrwt>
<pdfrwt beam="1">  1        4 0.82258511E-01 0.12499760E+03</pdfrwt>
<pdfrwt beam="2">  1       -4 0.11239211E-02 0.12499760E+03</pdfrwt>
<totfact> 0.52750629E+03</totfact>
</mgrwt>
</event>
<event>
 5    1  0.3293542E-002  0.1249945E+03  0.7818608E-02  0.1235078E+00
          4   -1    0    0  501    0  0.00000000000E+00  0.00000000000E+00  0.34509977878E+02  0.34533338575E+02  0.12700000000E+01 0. -1.
         -4   -1    0    0    0  501 -0.00000000000E+00 -0.00000000000E+00 -0.11311673952E+03  0.11312386866E+03  0.12700000000E+01 0. -1.
         25    2    1    2    0    0  0.00000000000E+00  0.00000000000E+00 -0.78606761646E+02  0.14765720724E+03  0.12499451137E+03 0.  0.
    9000005    1    3    3    0    0  0.14805843953E+02  0.13305928364E+02 -0.10927686467E+03  0.11107967364E+03  0.10000000000E+01 0.  0.
    9000005    1    3    3    0    0 -0.14805843953E+02 -0.13305928364E+02  0.30670103019E+02  0.36577533596E+02  0.10000000000E+01 0.  0.
<mgrwt>
<rscale>  0 0.12499451E+03</rscale>
<asrwt>0</asrwt>
<pdfrwt beam="1">  1        4 0.53115728E-02 0.12499451E+03</pdfrwt>
<pdfrwt beam="2">  1       -4 0.17404920E-01 0.12499451E+03</pdfrwt>
<totfact> 0.99785094E+03</totfact>
</mgrwt>
</event>
<event>
 5    1  0.3293542E-002  0.1250007E+03  0.7818608E-02  0.1235068E+00
         -4   -1    0    0    0  501 -0.00000000000E+00  0.00000000000E+00  0.65250892041E+01  0.66475325589E+01  0.12700000000E+01 0.  1.
          4   -1    0    0  501    0  0.00000000000E+00 -0.00000000000E+00 -0.59296956845E+03  0.59297092846E+03  0.12700000000E+01 0.  1.
         25    2    1    2    0    0  0.00000000000E+00  0.00000000000E+00 -0.58644447924E+03  0.59961846102E+03  0.12500068626E+03 0.  0.
    9000005    1    3    3    0    0 -0.22270553276E+02  0.22306826889E+02 -0.34378620049E+02  0.46652562475E+02  0.10000000000E+01 0.  0.
    9000005    1    3    3    0    0  0.22270553276E+02 -0.22306826889E+02 -0.55206585919E+03  0.55296589855E+03  0.10000000000E+01 0.  0.
<mgrwt>
<rscale>  0 0.12500069E+03</rscale>
<asrwt>0</asrwt>
<pdfrwt beam="2">  1        4 0.91235569E-01 0.12500069E+03</pdfrwt>
<pdfrwt beam="1">  1       -4 0.10133837E-02 0.12500069E+03</pdfrwt>
<totfact> 0.48890984E+03</totfact>
</mgrwt>
</event>
<event>
 5    1  0.3293542E-002  0.1249977E+03  0.7818608E-02  0.1235073E+00
         -4   -1    0    0    0  501 -0.00000000000E+00  0.00000000000E+00  0.22678810620E+03  0.22679166213E+03  0.12700000000E+01 0.  1.
          4   -1    0    0  501    0  0.00000000000E+00 -0.00000000000E+00 -0.17196481901E+02  0.17243314350E+02  0.12700000000E+01 0.  1.
         25    2    1    2    0    0  0.00000000000E+00  0.00000000000E+00  0.20959162430E+03  0.24403497648E+03  0.12499768306E+03 0.  0.
    9000005    1    3    3    0    0 -0.50364881912E+02  0.36055788596E+02  0.12094985229E+03  0.13589153024E+03  0.10000000000E+01 0.  0.
    9000005    1    3    3    0    0  0.50364881912E+02 -0.36055788596E+02  0.88641772008E+02  0.10814344625E+03  0.10000000000E+01 0.  0.
<mgrwt>
<rscale>  0 0.12499768E+03</rscale>
<asrwt>0</asrwt>
<pdfrwt beam="2">  1        4 0.26494888E-02 0.12499768E+03</pdfrwt>
<pdfrwt beam="1">  1       -4 0.34894352E-01 0.12499768E+03</pdfrwt>
<totfact> 0.83204373E+03</totfact>
</mgrwt>
</event>
<event>
 5    1  0.3293542E-002  0.1249963E+03  0.7818608E-02  0.1235075E+00
          4   -1    0    0  501    0  0.00000000000E+00  0.00000000000E+00  0.86521181844E+02  0.86530502181E+02  0.12700000000E+01 0.  1.
         -4   -1    0    0    0  501 -0.00000000000E+00 -0.00000000000E+00 -0.45124516575E+02  0.45142384697E+02  0.12700000000E+01 0.  1.
         25    2    1    2    0    0  0.00000000000E+00  0.00000000000E+00  0.41396665269E+02  0.13167288688E+03  0.12499626092E+03 0.  0.
    9000005    1    3    3    0    0  0.11895668367E+02 -0.60847299694E+02  0.12463115824E+02  0.63247371977E+02  0.10000000000E+01 0.  0.
    9000005    1    3    3    0    0 -0.11895668367E+02  0.60847299694E+02  0.28933549445E+02  0.68425514901E+02  0.10000000000E+01 0.  0.
<mgrwt>
<rscale>  0 0.12499626E+03</rscale>
<asrwt>0</asrwt>
<pdfrwt beam="1">  1        4 0.13313042E-01 0.12499626E+03</pdfrwt>
<pdfrwt beam="2">  1       -4 0.69443248E-02 0.12499626E+03</pdfrwt>
<totfact> 0.10309555E+04</totfact>
</mgrwt>
</event>
<event>
 5    1  0.3293542E-002  0.1249624E+03  0.7818608E-02  0.1235128E+00
         -4   -1    0    0    0  501 -0.00000000000E+00  0.00000000000E+00  0.24752873262E+04  0.24752876520E+04  0.12700000000E+01 0.  1.
          4   -1    0    0  501    0  0.00000000000E+00 -0.00000000000E+00 -0.13211054292E+01  0.18325445575E+01  0.12700000000E+01 0.  1.
         25    2    1    2    0    0  0.00000000000E+00  0.00000000000E+00  0.24739662208E+04  0.24771201965E+04  0.12496242107E+03 0.  0.
    9000005    1    3    3    0    0  0.48241150124E+02 -0.25234243952E+02  0.62957114801E+03  0.63192151889E+03  0.10000000000E+01 0.  0.
    9000005    1    3    3    0    0 -0.48241150124E+02  0.25234243952E+02  0.18443950727E+04  0.18451986776E+04  0.10000000000E+01 0.  0.
<mgrwt>
<rscale>  0 0.12496242E+03</rscale>
<asrwt>0</asrwt>
<pdfrwt beam="2">  1        4 0.24261293E-03 0.12496242E+03</pdfrwt>
<pdfrwt beam="1">  1       -4 0.38085372E+00 0.12496242E+03</pdfrwt>
<totfact> 0.48556079E+02</totfact>
</mgrwt>
</event>
<event>
 5    1  0.3293542E-002  0.1249985E+03  0.7818608E-02  0.1235072E+00
         -4   -1    0    0    0  501 -0.00000000000E+00  0.00000000000E+00  0.32009845146E+03  0.32010097083E+03  0.12700000000E+01 0.  1.
          4   -1    0    0  501    0  0.00000000000E+00 -0.00000000000E+00 -0.12167356733E+02  0.12233456988E+02  0.12700000000E+01 0.  1.
         25    2    1    2    0    0  0.00000000000E+00  0.00000000000E+00  0.30793109472E+03  0.33233442782E+03  0.12499845125E+03 0.  0.
    9000005    1    3    3    0    0  0.47420672688E+02  0.37184949041E+02  0.19795191230E+03  0.20692365795E+03  0.10000000000E+01 0.  0.
    9000005    1    3    3    0    0 -0.47420672688E+02 -0.37184949041E+02  0.10997918242E+03  0.12541076987E+03  0.10000000000E+01 0.  0.
<mgrwt>
<rscale>  0 0.12499845E+03</rscale>
<asrwt>0</asrwt>
<pdfrwt beam="2">  1        4 0.18771798E-02 0.12499845E+03</pdfrwt>
<pdfrwt beam="1">  1       -4 0.49251185E-01 0.12499845E+03</pdfrwt>
<totfact> 0.71715196E+03</totfact>
</mgrwt>
</event>
<event>
 5    1  0.3293542E-002  0.1249985E+03  0.7818608E-02  0.1235072E+00
         -4   -1    0    0    0  501 -0.00000000000E+00  0.00000000000E+00  0.74027946753E+02  0.74038839810E+02  0.12700000000E+01 0. -1.
          4   -1    0    0  501    0  0.00000000000E+00 -0.00000000000E+00 -0.52743551044E+02  0.52758838850E+02  0.12700000000E+01 0. -1.
         25    2    1    2    0    0  0.00000000000E+00  0.00000000000E+00  0.21284395709E+02  0.12679767866E+03  0.12499850324E+03 0.  0.
    9000005    1    3    3    0    0 -0.51860238536E+02 -0.88124924391E+01 -0.23577796055E+02  0.57654634079E+02  0.10000000000E+01 0.  0.
    9000005    1    3    3    0    0  0.51860238536E+02  0.88124924391E+01  0.44862191764E+02  0.69143044581E+02  0.10000000000E+01 0.  0.
<mgrwt>
<rscale>  0 0.12499850E+03</rscale>
<asrwt>0</asrwt>
<pdfrwt beam="2">  1        4 0.81164063E-02 0.12499850E+03</pdfrwt>
<pdfrwt beam="1">  1       -4 0.11390929E-01 0.12499850E+03</pdfrwt>
<totfact> 0.10413896E+04</totfact>
</mgrwt>
</event>
<event>
 5    1  0.3293542E-002  0.1249982E+03  0.7818608E-02  0.1235072E+00
         -4   -1    0    0    0  501 -0.00000000000E+00  0.00000000000E+00  0.11342546726E+04  0.11342553836E+04  0.12700000000E+01 0. -1.
          4   -1    0    0  501    0  0.00000000000E+00 -0.00000000000E+00 -0.33259666991E+01  0.35601902314E+01  0.12700000000E+01 0. -1.
         25    2    1    2    0    0  0.00000000000E+00  0.00000000000E+00  0.11309287059E+04  0.11378155738E+04  0.12499816883E+03 0.  0.
    9000005    1    3    3    0    0 -0.61030374625E+02  0.13421977267E+02  0.57027631315E+03  0.57369062171E+03  0.10000000000E+01 0.  0.
    9000005    1    3    3    0    0  0.61030374625E+02 -0.13421977267E+02  0.56065239273E+03  0.56412495209E+03  0.10000000000E+01 0.  0.
<mgrwt>
<rscale>  0 0.12499817E+03</rscale>
<asrwt>0</asrwt>
<pdfrwt beam="2">  1        4 0.52975954E-03 0.12499817E+03</pdfrwt>
<pdfrwt beam="1">  1       -4 0.17451864E+00 0.12499817E+03</pdfrwt>
<totfact> 0.26401820E+03</totfact>
</mgrwt>
</event>
<event>
 5    1  0.3293542E-002  0.1249995E+03  0.7818608E-02  0.1235070E+00
          4   -1    0    0  501    0  0.00000000000E+00  0.00000000000E+00  0.28965594593E+02  0.28993422877E+02  0.12700000000E+01 0.  1.
         -4   -1    0    0    0  501 -0.00000000000E+00 -0.00000000000E+00 -0.13476160020E+03  0.13476758434E+03  0.12700000000E+01 0.  1.
         25    2    1    2    0    0  0.00000000000E+00  0.00000000000E+00 -0.10579600561E+03  0.16376100722E+03  0.12499949073E+03 0.  0.
    9000005    1    3    3    0    0  0.25887198579E+01 -0.22090648428E+02 -0.12940700789E+03  0.13130830861E+03  0.10000000000E+01 0.  0.
    9000005    1    3    3    0    0 -0.25887198579E+01  0.22090648428E+02  0.23611002280E+02  0.32452698611E+02  0.10000000000E+01 0.  0.
<mgrwt>
<rscale>  0 0.12499949E+03</rscale>
<asrwt>0</asrwt>
<pdfrwt beam="1">  1        4 0.44588463E-02 0.12499949E+03</pdfrwt>
<pdfrwt beam="2">  1       -4 0.20735155E-01 0.12499949E+03</pdfrwt>
<totfact> 0.96623659E+03</totfact>
</mgrwt>
</event>
<event>
 5    1  0.3293542E-002  0.1249996E+03  0.7818608E-02  0.1235070E+00
         -4   -1    0    0    0  501 -0.00000000000E+00  0.00000000000E+00  0.21224782549E+03  0.21225162503E+03  0.12700000000E+01 0. -1.
          4   -1    0    0  501    0  0.00000000000E+00 -0.00000000000E+00 -0.18378205482E+02  0.18422034001E+02  0.12700000000E+01 0. -1.
         25    2    1    2    0    0  0.00000000000E+00  0.00000000000E+00  0.19386962001E+03  0.23067365903E+03  0.12499962963E+03 0.  0.
    9000005    1    3    3    0    0  0.46213476713E+02  0.34489622310E+01  0.19567945994E+02  0.50313867679E+02  0.10000000000E+01 0.  0.
    9000005    1    3    3    0    0 -0.46213476713E+02 -0.34489622310E+01  0.17430167402E+03  0.18035979135E+03  0.10000000000E+01 0.  0.
<mgrwt>
<rscale>  0 0.12499963E+03</rscale>
<asrwt>0</asrwt>
<pdfrwt beam="2">  1        4 0.28310801E-02 0.12499963E+03</pdfrwt>
<pdfrwt beam="1">  1       -4 0.32657173E-01 0.12499963E+03</pdfrwt>
<totfact> 0.85206968E+03</totfact>
</mgrwt>
</event>
<event>
 5    1  0.3293542E-002  0.1250098E+03  0.7818608E-02  0.1235054E+00
          4   -1    0    0  501    0  0.00000000000E+00  0.00000000000E+00  0.34951375690E+03  0.34951606424E+03  0.12700000000E+01 0. -1.
         -4   -1    0    0    0  501 -0.00000000000E+00 -0.00000000000E+00 -0.11139565099E+02  0.11211726477E+02  0.12700000000E+01 0. -1.
         25    2    1    2    0    0  0.00000000000E+00  0.00000000000E+00  0.33837419181E+03  0.36072779072E+03  0.12500978089E+03 0.  0.
    9000005    1    3    3    0    0  0.58901251692E+01  0.38072538794E+02  0.31118804747E+03  0.31356532441E+03  0.10000000000E+01 0.  0.
    9000005    1    3    3    0    0 -0.58901251692E+01 -0.38072538794E+02  0.27186144337E+02  0.47162466312E+02  0.10000000000E+01 0.  0.
<mgrwt>
<rscale>  0 0.12500978E+03</rscale>
<asrwt>0</asrwt>
<pdfrwt beam="1">  1        4 0.53777070E-01 0.12500978E+03</pdfrwt>
<pdfrwt beam="2">  1       -4 0.17195078E-02 0.12500978E+03</pdfrwt>
<totfact> 0.68545443E+03</totfact>
</mgrwt>
</event>
<event>
 5    1  0.3293542E-002  0.1250007E+03  0.7818608E-02  0.1235068E+00
          4   -1    0    0  501    0  0.00000000000E+00  0.00000000000E+00  0.41715944650E+02  0.41735272109E+02  0.12700000000E+01 0.  1.
         -4   -1    0    0    0  501 -0.00000000000E+00 -0.00000000000E+00 -0.93594937695E+02  0.93603553683E+02  0.12700000000E+01 0.  1.
         25    2    1    2    0    0  0.00000000000E+00  0.00000000000E+00 -0.51878993045E+02  0.13533882579E+03  0.12500067139E+03 0.  0.
    9000005    1    3    3    0    0 -0.41641161556E+02 -0.87362354776E+01  0.23616977073E+02  0.48673090637E+02  0.10000000000E+01 0.  0.
    9000005    1    3    3    0    0  0.41641161556E+02  0.87362354776E+01 -0.75495970118E+02  0.86665735156E+02  0.10000000000E+01 0.  0.
<mgrwt>
<rscale>  0 0.12500067E+03</rscale>
<asrwt>0</asrwt>
<pdfrwt beam="1">  1        4 0.64199871E-02 0.12500067E+03</pdfrwt>
<pdfrwt beam="2">  1       -4 0.14401371E-01 0.12500067E+03</pdfrwt>
<totfact> 0.10230779E+04</totfact>
</mgrwt>
</event>
<event>
 5    1  0.3293542E-002  0.1250037E+03  0.7818608E-02  0.1235064E+00
          4   -1    0    0  501    0  0.00000000000E+00  0.00000000000E+00  0.12991262044E+03  0.12991882793E+03  0.12700000000E+01 0.  1.
         -4   -1    0    0    0  501 -0.00000000000E+00 -0.00000000000E+00 -0.30049718859E+02  0.30076544075E+02  0.12700000000E+01 0.  1.
         25    2    1    2    0    0  0.00000000000E+00  0.00000000000E+00  0.99862901582E+02  0.15999537200E+03  0.12500367974E+03 0.  0.
    9000005    1    3    3    0    0  0.23353533166E+02  0.48074016591E+02  0.84772527587E+01  0.54123584479E+02  0.10000000000E+01 0.  0.
    9000005    1    3    3    0    0 -0.23353533166E+02 -0.48074016591E+02  0.91385648823E+02  0.10587178752E+03  0.10000000000E+01 0.  0.
<mgrwt>
<rscale>  0 0.12500368E+03</rscale>
<asrwt>0</asrwt>
<pdfrwt beam="1">  1        4 0.19989098E-01 0.12500368E+03</pdfrwt>
<pdfrwt beam="2">  1       -4 0.46255745E-02 0.12500368E+03</pdfrwt>
<totfact> 0.97335626E+03</totfact>
</mgrwt>
</event>
<event>
 5    1  0.3293542E-002  0.1249987E+03  0.7818608E-02  0.1235071E+00
         -4   -1    0    0    0  501 -0.00000000000E+00  0.00000000000E+00  0.90084186306E+02  0.90093138043E+02  0.12700000000E+01 0. -1.
          4   -1    0    0  501    0  0.00000000000E+00 -0.00000000000E+00 -0.43340939749E+02  0.43359542875E+02  0.12700000000E+01 0. -1.
         25    2    1    2    0    0  0.00000000000E+00  0.00000000000E+00  0.46743246557E+02  0.13345268092E+03  0.12499874778E+03 0.  0.
    9000005    1    3    3    0    0 -0.51968785376E+02 -0.10509135457E+02  0.58683871600E+02  0.79094837805E+02  0.10000000000E+01 0.  0.
    9000005    1    3    3    0    0  0.51968785376E+02  0.10509135457E+02 -0.11940625043E+02  0.54357843113E+02  0.10000000000E+01 0.  0.
<mgrwt>
<rscale>  0 0.12499875E+03</rscale>
<asrwt>0</asrwt>
<pdfrwt beam="2">  1        4 0.66699565E-02 0.12499875E+03</pdfrwt>
<pdfrwt beam="1">  1       -4 0.13861225E-01 0.12499875E+03</pdfrwt>
<totfact> 0.10271078E+04</totfact>
</mgrwt>
</event>
<event>
 5    1  0.3293542E-002  0.1250047E+03  0.7818608E-02  0.1235062E+00
          4   -1    0    0  501    0  0.00000000000E+00  0.00000000000E+00  0.14288523337E+02  0.14344852706E+02  0.12700000000E+01 0.  1.
         -4   -1    0    0    0  501 -0.00000000000E+00 -0.00000000000E+00 -0.27280855207E+03  0.27281150816E+03  0.12700000000E+01 0.  1.
         25    2    1    2    0    0  0.00000000000E+00  0.00000000000E+00 -0.25852002874E+03  0.28715636087E+03  0.12500468122E+03 0.  0.
    9000005    1    3    3    0    0  0.26311812183E+02 -0.18399218385E+02 -0.60946999971E+01  0.32695382940E+02  0.10000000000E+01 0.  0.
    9000005    1    3    3    0    0 -0.26311812183E+02  0.18399218385E+02 -0.25242532874E+03  0.25446097793E+03  0.10000000000E+01 0.  0.
<mgrwt>
<rscale>  0 0.12500468E+03</rscale>
<asrwt>0</asrwt>
<pdfrwt beam="1">  1        4 0.22027950E-02 0.12500468E+03</pdfrwt>
<pdfrwt beam="2">  1       -4 0.41975103E-01 0.12500468E+03</pdfrwt>
<totfact> 0.77230661E+03</totfact>
</mgrwt>
</event>
<event>
 5    1  0.3293542E-002  0.1249865E+03  0.7818608E-02  0.1235090E+00
         -4   -1    0    0    0  501 -0.00000000000E+00  0.00000000000E+00  0.44066419193E+03  0.44066602200E+03  0.12700000000E+01 0.  1.
          4   -1    0    0  501    0  0.00000000000E+00 -0.00000000000E+00 -0.88151905861E+01  0.89062048634E+01  0.12700000000E+01 0.  1.
         25    2    1    2    0    0  0.00000000000E+00  0.00000000000E+00  0.43184900134E+03  0.44957222687E+03  0.12498650811E+03 0.  0.
    9000005    1    3    3    0    0  0.17628015026E+02  0.38663455083E+02  0.51138023284E+02  0.66495917905E+02  0.10000000000E+01 0.  0.
    9000005    1    3    3    0    0 -0.17628015026E+02 -0.38663455083E+02  0.38071097806E+03  0.38307630896E+03  0.10000000000E+01 0.  0.
<mgrwt>
<rscale>  0 0.12498651E+03</rscale>
<asrwt>0</asrwt>
<pdfrwt beam="2">  1        4 0.13633246E-02 0.12498651E+03</pdfrwt>
<pdfrwt beam="1">  1       -4 0.67801653E-01 0.12498651E+03</pdfrwt>
<totfact> 0.60018693E+03</totfact>
</mgrwt>
</event>
<event>
 5    1  0.3293542E-002  0.1250035E+03  0.7818608E-02  0.1235064E+00
         -4   -1    0    0    0  501 -0.00000000000E+00  0.00000000000E+00  0.47360861228E+03  0.47361031505E+03  0.12700000000E+01 0. -1.
          4   -1    0    0  501    0  0.00000000000E+00 -0.00000000000E+00 -0.81976891567E+01  0.82954811500E+01  0.12700000000E+01 0. -1.
         25    2    1    2    0    0  0.00000000000E+00  0.00000000000E+00  0.46541092312E+03  0.48190579620E+03  0.12500347616E+03 0.  0.
    9000005    1    3    3    0    0  0.13564537852E+02 -0.54904845806E+02  0.33520639013E+03  0.33994538203E+03  0.10000000000E+01 0.  0.
    9000005    1    3    3    0    0 -0.13564537852E+02  0.54904845806E+02  0.13020453299E+03  0.14196041417E+03  0.10000000000E+01 0.  0.
<mgrwt>
<rscale>  0 0.12500348E+03</rscale>
<asrwt>0</asrwt>
<pdfrwt beam="2">  1        4 0.12688360E-02 0.12500348E+03</pdfrwt>
<pdfrwt beam="1">  1       -4 0.72870542E-01 0.12500348E+03</pdfrwt>
<totfact> 0.57291705E+03</totfact>
</mgrwt>
</event>
<event>
 5    1  0.3293542E-002  0.1250044E+03  0.7818608E-02  0.1235062E+00
          4   -1    0    0  501    0  0.00000000000E+00  0.00000000000E+00  0.13279566110E+03  0.13280173382E+03  0.12700000000E+01 0.  1.
         -4   -1    0    0    0  501 -0.00000000000E+00 -0.00000000000E+00 -0.29397131370E+02  0.29424551531E+02  0.12700000000E+01 0.  1.
         25    2    1    2    0    0  0.00000000000E+00  0.00000000000E+00  0.10339852973E+03  0.16222628535E+03  0.12500444676E+03 0.  0.
    9000005    1    3    3    0    0  0.41940507545E+02 -0.41271521146E+02  0.24378839717E+02  0.63699862298E+02  0.10000000000E+01 0.  0.
    9000005    1    3    3    0    0 -0.41940507545E+02  0.41271521146E+02  0.79019690010E+02  0.98526423056E+02  0.10000000000E+01 0.  0.
<mgrwt>
<rscale>  0 0.12500445E+03</rscale>
<asrwt>0</asrwt>
<pdfrwt beam="1">  1        4 0.20432678E-01 0.12500445E+03</pdfrwt>
<pdfrwt beam="2">  1       -4 0.45252120E-02 0.12500445E+03</pdfrwt>
<totfact> 0.96905600E+03</totfact>
</mgrwt>
</event>
<event>
 5    1  0.3293542E-002  0.1249993E+03  0.7818608E-02  0.1235070E+00
         -4   -1    0    0    0  501 -0.00000000000E+00  0.00000000000E+00  0.23514810387E+03  0.23515153339E+03  0.12700000000E+01 0.  1.
          4   -1    0    0  501    0  0.00000000000E+00 -0.00000000000E+00 -0.16583845957E+02  0.16632403517E+02  0.12700000000E+01 0.  1.
         25    2    1    2    0    0  0.00000000000E+00  0.00000000000E+00  0.21856425792E+03  0.25178393691E+03  0.12499926418E+03 0.  0.
    9000005    1    3    3    0    0 -0.41159159203E+02  0.30419609051E+02  0.37054550653E+02  0.63193897848E+02  0.10000000000E+01 0.  0.
    9000005    1    3    3    0    0  0.41159159203E+02 -0.30419609051E+02  0.18150970726E+03  0.18859003906E+03  0.10000000000E+01 0.  0.
<mgrwt>
<rscale>  0 0.12499926E+03</rscale>
<asrwt>0</asrwt>
<pdfrwt beam="2">  1        4 0.25553599E-02 0.12499926E+03</pdfrwt>
<pdfrwt beam="1">  1       -4 0.36180630E-01 0.12499926E+03</pdfrwt>
<totfact> 0.82074420E+03</totfact>
</mgrwt>
</event>
<event>
 5    1  0.3293542E-002  0.1249999E+03  0.7818608E-02  0.1235069E+00
          4   -1    0    0  501    0  0.00000000000E+00  0.00000000000E+00  0.63386800896E+02  0.63399522300E+02  0.12700000000E+01 0. -1.
         -4   -1    0    0    0  501 -0.00000000000E+00 -0.00000000000E+00 -0.61600054416E+02  0.61613144734E+02  0.12700000000E+01 0. -1.
         25    2    1    2    0    0  0.00000000000E+00  0.00000000000E+00  0.17867464803E+01  0.12501266703E+03  0.12499989782E+03 0.  0.
    9000005    1    3    3    0    0 -0.13502796811E+02  0.46314517758E+02 -0.38833266777E+02  0.61938539581E+02  0.10000000000E+01 0.  0.
    9000005    1    3    3    0    0  0.13502796811E+02 -0.46314517758E+02  0.40620013257E+02  0.63074127452E+02  0.10000000000E+01 0.  0.
<mgrwt>
<rscale>  0 0.12499990E+03</rscale>
<asrwt>0</asrwt>
<pdfrwt beam="1">  1        4 0.97538010E-02 0.12499990E+03</pdfrwt>
<pdfrwt beam="2">  1       -4 0.94789170E-02 0.12499990E+03</pdfrwt>
<totfact> 0.10452612E+04</totfact>
</mgrwt>
</event>
<event>
 5    1  0.3293542E-002  0.1250022E+03  0.7818608E-02  0.1235066E+00
         -4   -1    0    0    0  501 -0.00000000000E+00  0.00000000000E+00  0.19807110428E+03  0.19807517575E+03  0.12700000000E+01 0. -1.
          4   -1    0    0  501    0  0.00000000000E+00 -0.00000000000E+00 -0.19697410393E+02  0.19738309862E+02  0.12700000000E+01 0. -1.
         25    2    1    2    0    0  0.00000000000E+00  0.00000000000E+00  0.17837369389E+03  0.21781348562E+03  0.12500215936E+03 0.  0.
    9000005    1    3    3    0    0 -0.37181957490E+01 -0.52316563154E+02  0.14839359600E+03  0.15739284321E+03  0.10000000000E+01 0.  0.
    9000005    1    3    3    0    0  0.37181957490E+01  0.52316563154E+02  0.29980097890E+02  0.60420642411E+02  0.10000000000E+01 0.  0.
<mgrwt>
<rscale>  0 0.12500216E+03</rscale>
<asrwt>0</asrwt>
<pdfrwt beam="2">  1        4 0.30338303E-02 0.12500216E+03</pdfrwt>
<pdfrwt beam="1">  1       -4 0.30475935E-01 0.12500216E+03</pdfrwt>
<totfact> 0.87211317E+03</totfact>
</mgrwt>
</event>
<event>
 5    1  0.3293542E-002  0.1249995E+03  0.7818608E-02  0.1235070E+00
         -4   -1    0    0    0  501 -0.00000000000E+00  0.00000000000E+00  0.34523016780E+03  0.34523250377E+03  0.12700000000E+01 0. -1.
          4   -1    0    0  501    0  0.00000000000E+00 -0.00000000000E+00 -0.11276806452E+02  0.11348095160E+02  0.12700000000E+01 0. -1.
         25    2    1    2    0    0  0.00000000000E+00  0.00000000000E+00  0.33395336135E+03  0.35658059893E+03  0.12499950391E+03 0.  0.
    9000005    1    3    3    0    0  0.22198705542E+02 -0.31598565327E+01  0.57971219321E+00  0.22452244593E+02  0.10000000000E+01 0.  0.
    9000005    1    3    3    0    0 -0.22198705542E+02  0.31598565327E+01  0.33337364915E+03  0.33412835433E+03  0.10000000000E+01 0.  0.
<mgrwt>
<rscale>  0 0.12499950E+03</rscale>
<asrwt>0</asrwt>
<pdfrwt beam="2">  1        4 0.17405568E-02 0.12499950E+03</pdfrwt>
<pdfrwt beam="1">  1       -4 0.53117995E-01 0.12499950E+03</pdfrwt>
<totfact> 0.69007383E+03</totfact>
</mgrwt>
</event>
<event>
 5    1  0.3293542E-002  0.1249980E+03  0.7818608E-02  0.1235072E+00
         -4   -1    0    0    0  501 -0.00000000000E+00  0.00000000000E+00  0.19271182194E+03  0.19271600664E+03  0.12700000000E+01 0.  1.
          4   -1    0    0  501    0  0.00000000000E+00 -0.00000000000E+00 -0.20244966912E+02  0.20284762391E+02  0.12700000000E+01 0.  1.
         25    2    1    2    0    0  0.00000000000E+00  0.00000000000E+00  0.17246685503E+03  0.21300076903E+03  0.12499804608E+03 0.  0.
    9000005    1    3    3    0    0 -0.59910702454E+02 -0.17035078794E+02  0.77604608092E+02  0.99513624068E+02  0.10000000000E+01 0.  0.
    9000005    1    3    3    0    0  0.59910702454E+02  0.17035078794E+02  0.94862246938E+02  0.11348714496E+03  0.10000000000E+01 0.  0.
<mgrwt>
<rscale>  0 0.12499805E+03</rscale>
<asrwt>0</asrwt>
<pdfrwt beam="2">  1        4 0.31179933E-02 0.12499805E+03</pdfrwt>
<pdfrwt beam="1">  1       -4 0.29651356E-01 0.12499805E+03</pdfrwt>
<totfact> 0.87991990E+03</totfact>
</mgrwt>
</event>
<event>
 5    1  0.3293542E-002  0.1249964E+03  0.7818608E-02  0.1235075E+00
         -4   -1    0    0    0  501 -0.00000000000E+00  0.00000000000E+00  0.19915796864E+03  0.19916201790E+03  0.12700000000E+01 0.  1.
          4   -1    0    0  501    0  0.00000000000E+00 -0.00000000000E+00 -0.19587884057E+02  0.19629011738E+02  0.12700000000E+01 0.  1.
         25    2    1    2    0    0  0.00000000000E+00  0.00000000000E+00  0.17957008459E+03  0.21879102964E+03  0.12499639744E+03 0.  0.
    9000005    1    3    3    0    0 -0.13807525199E+02 -0.51548570052E+02  0.14669582712E+03  0.15610435138E+03  0.10000000000E+01 0.  0.
    9000005    1    3    3    0    0  0.13807525199E+02  0.51548570052E+02  0.32874257466E+02  0.62686678254E+02  0.10000000000E+01 0.  0.
<mgrwt>
<rscale>  0 0.12499640E+03</rscale>
<asrwt>0</asrwt>
<pdfrwt beam="2">  1        4 0.30169957E-02 0.12499640E+03</pdfrwt>
<pdfrwt beam="1">  1       -4 0.30643163E-01 0.12499640E+03</pdfrwt>
<totfact> 0.87067021E+03</totfact>
</mgrwt>
</event>
<event>
 5    1  0.3293542E-002  0.1250003E+03  0.7818608E-02  0.1235069E+00
          4   -1    0    0  501    0  0.00000000000E+00  0.00000000000E+00  0.63515755231E+01  0.64772997171E+01  0.12700000000E+01 0.  1.
         -4   -1    0    0    0  501 -0.00000000000E+00 -0.00000000000E+00 -0.60885472114E+03  0.60885604567E+03  0.12700000000E+01 0.  1.
         25    2    1    2    0    0  0.00000000000E+00  0.00000000000E+00 -0.60250314561E+03  0.61533334539E+03  0.12500034189E+03 0.  0.
    9000005    1    3    3    0    0  0.20187198018E+02  0.13210143351E+02 -0.17472649440E+02  0.29804770249E+02  0.10000000000E+01 0.  0.
    9000005    1    3    3    0    0 -0.20187198018E+02 -0.13210143351E+02 -0.58503049617E+03  0.58552857514E+03  0.10000000000E+01 0.  0.
<mgrwt>
<rscale>  0 0.12500034E+03</rscale>
<asrwt>0</asrwt>
<pdfrwt beam="1">  1        4 0.98693892E-03 0.12500034E+03</pdfrwt>
<pdfrwt beam="2">  1       -4 0.93679685E-01 0.12500034E+03</pdfrwt>
<totfact> 0.47913470E+03</totfact>
</mgrwt>
</event>
<event>
 5    1  0.3293542E-002  0.1250016E+03  0.7818608E-02  0.1235067E+00
         -4   -1    0    0    0  501 -0.00000000000E+00  0.00000000000E+00  0.44258164561E+02  0.44276382308E+02  0.12700000000E+01 0.  1.
          4   -1    0    0  501    0  0.00000000000E+00 -0.00000000000E+00 -0.88221873531E+02  0.88231014215E+02  0.12700000000E+01 0.  1.
         25    2    1    2    0    0  0.00000000000E+00  0.00000000000E+00 -0.43963708970E+02  0.13250739652E+03  0.12500160970E+03 0.  0.
    9000005    1    3    3    0    0  0.46300954628E+02 -0.12119386372E+02  0.20614207848E+02  0.52121046524E+02  0.10000000000E+01 0.  0.
    9000005    1    3    3    0    0 -0.46300954628E+02  0.12119386372E+02 -0.64577916818E+02  0.80386349999E+02  0.10000000000E+01 0.  0.
<mgrwt>
<rscale>  0 0.12500161E+03</rscale>
<asrwt>0</asrwt>
<pdfrwt beam="2">  1        4 0.13574700E-01 0.12500161E+03</pdfrwt>
<pdfrwt beam="1">  1       -4 0.68110529E-02 0.12500161E+03</pdfrwt>
<totfact> 0.10290507E+04</totfact>
</mgrwt>
</event>
<event>
 5    1  0.3293542E-002  0.1249980E+03  0.7818608E-02  0.1235072E+00
         -4   -1    0    0    0  501 -0.00000000000E+00  0.00000000000E+00  0.52022456280E+02  0.52037955930E+02  0.12700000000E+01 0.  1.
          4   -1    0    0  501    0  0.00000000000E+00 -0.00000000000E+00 -0.75053356469E+02  0.75064100722E+02  0.12700000000E+01 0.  1.
         25    2    1    2    0    0  0.00000000000E+00  0.00000000000E+00 -0.23030900189E+02  0.12710205665E+03  0.12499804175E+03 0.  0.
    9000005    1    3    3    0    0  0.56217874135E+01  0.16007044922E+02 -0.72671790672E+02  0.74632560859E+02  0.10000000000E+01 0.  0.
    9000005    1    3    3    0    0 -0.56217874135E+01 -0.16007044922E+02  0.49640890483E+02  0.52469495793E+02  0.10000000000E+01 0.  0.
<mgrwt>
<rscale>  0 0.12499804E+03</rscale>
<asrwt>0</asrwt>
<pdfrwt beam="2">  1        4 0.11548689E-01 0.12499804E+03</pdfrwt>
<pdfrwt beam="1">  1       -4 0.80054736E-02 0.12499804E+03</pdfrwt>
<totfact> 0.10407389E+04</totfact>
</mgrwt>
</event>
<event>
 5    1  0.3293542E-002  0.1250601E+03  0.7818608E-02  0.1234975E+00
         -4   -1    0    0    0  501 -0.00000000000E+00  0.00000000000E+00  0.79771143646E+01  0.80775772101E+01  0.12700000000E+01 0. -1.
          4   -1    0    0  501    0  0.00000000000E+00 -0.00000000000E+00 -0.48698458898E+03  0.48698624499E+03  0.12700000000E+01 0. -1.
         25    2    1    2    0    0  0.00000000000E+00  0.00000000000E+00 -0.47900747462E+03  0.49506382220E+03  0.12506009479E+03 0.  0.
    9000005    1    3    3    0    0 -0.45265999836E+02  0.33143416441E+02 -0.13026409946E+03  0.14183522976E+03  0.10000000000E+01 0.  0.
    9000005    1    3    3    0    0  0.45265999836E+02 -0.33143416441E+02 -0.34874337516E+03  0.35322859244E+03  0.10000000000E+01 0.  0.
<mgrwt>
<rscale>  0 0.12506009E+03</rscale>
<asrwt>0</asrwt>
<pdfrwt beam="2">  1        4 0.74928538E-01 0.12506009E+03</pdfrwt>
<pdfrwt beam="1">  1       -4 0.12351040E-02 0.12506009E+03</pdfrwt>
<totfact> 0.56175133E+03</totfact>
</mgrwt>
</event>
<event>
 5    1  0.3293542E-002  0.1249965E+03  0.7818608E-02  0.1235075E+00
          4   -1    0    0  501    0  0.00000000000E+00  0.00000000000E+00  0.28154329404E+03  0.28154615841E+03  0.12700000000E+01 0. -1.
         -4   -1    0    0    0  501 -0.00000000000E+00 -0.00000000000E+00 -0.13841646084E+02  0.13899786557E+02  0.12700000000E+01 0. -1.
         25    2    1    2    0    0  0.00000000000E+00  0.00000000000E+00  0.26770164795E+03  0.29544594497E+03  0.12499653628E+03 0.  0.
    9000005    1    3    3    0    0 -0.41517070423E+02  0.18314928445E+02  0.23540262806E+03  0.23973840125E+03  0.10000000000E+01 0.  0.
    9000005    1    3    3    0    0  0.41517070423E+02 -0.18314928445E+02  0.32299019896E+02  0.55707543714E+02  0.10000000000E+01 0.  0.
<mgrwt>
<rscale>  0 0.12499654E+03</rscale>
<asrwt>0</asrwt>
<pdfrwt beam="1">  1        4 0.43319042E-01 0.12499654E+03</pdfrwt>
<pdfrwt beam="2">  1       -4 0.21341769E-02 0.12499654E+03</pdfrwt>
<totfact> 0.76179525E+03</totfact>
</mgrwt>
</event>
<event>
 5    1  0.3293542E-002  0.1249974E+03  0.7818608E-02  0.1235073E+00
          4   -1    0    0  501    0  0.00000000000E+00  0.00000000000E+00  0.23779005923E+02  0.23812896142E+02  0.12700000000E+01 0. -1.
         -4   -1    0    0    0  501 -0.00000000000E+00 -0.00000000000E+00 -0.16411301754E+03  0.16411793146E+03  0.12700000000E+01 0. -1.
         25    2    1    2    0    0  0.00000000000E+00  0.00000000000E+00 -0.14033401162E+03  0.18793082760E+03  0.12499744456E+03 0.  0.
    9000005    1    3    3    0    0 -0.16986879772E+02 -0.58098638481E+02 -0.93511337990E+02  0.11139737973E+03  0.10000000000E+01 0.  0.
    9000005    1    3    3    0    0  0.16986879772E+02  0.58098638481E+02 -0.46822673631E+02  0.76533447875E+02  0.10000000000E+01 0.  0.
<mgrwt>
<rscale>  0 0.12499744E+03</rscale>
<asrwt>0</asrwt>
<pdfrwt beam="1">  1        4 0.36612936E-02 0.12499744E+03</pdfrwt>
<pdfrwt beam="2">  1       -4 0.25251141E-01 0.12499744E+03</pdfrwt>
<totfact> 0.92213875E+03</totfact>
</mgrwt>
</event>
<event>
 5    1  0.3293542E-002  0.1249933E+03  0.7818608E-02  0.1235080E+00
          4   -1    0    0  501    0  0.00000000000E+00  0.00000000000E+00  0.34344954172E+02  0.34368427038E+02  0.12700000000E+01 0. -1.
         -4   -1    0    0    0  501 -0.00000000000E+00 -0.00000000000E+00 -0.11365771234E+03  0.11366480755E+03  0.12700000000E+01 0. -1.
         25    2    1    2    0    0  0.00000000000E+00  0.00000000000E+00 -0.79312758172E+02  0.14803323459E+03  0.12499329955E+03 0.  0.
    9000005    1    3    3    0    0  0.44852428479E+02 -0.68581825048E+01  0.11229227771E+02  0.46753294686E+02  0.10000000000E+01 0.  0.
    9000005    1    3    3    0    0 -0.44852428479E+02  0.68581825048E+01 -0.90541985943E+02  0.10127993990E+03  0.10000000000E+01 0.  0.
<mgrwt>
<rscale>  0 0.12499330E+03</rscale>
<asrwt>0</asrwt>
<pdfrwt beam="1">  1        4 0.52861906E-02 0.12499330E+03</pdfrwt>
<pdfrwt beam="2">  1       -4 0.17488153E-01 0.12499330E+03</pdfrwt>
<totfact> 0.99712236E+03</totfact>
</mgrwt>
</event>
<event>
 5    1  0.3293542E-002  0.1250009E+03  0.7818608E-02  0.1235068E+00
          4   -1    0    0  501    0  0.00000000000E+00  0.00000000000E+00  0.11929796036E+02  0.11997205235E+02  0.12700000000E+01 0.  1.
         -4   -1    0    0    0  501 -0.00000000000E+00 -0.00000000000E+00 -0.32645020110E+03  0.32645267145E+03  0.12700000000E+01 0.  1.
         25    2    1    2    0    0  0.00000000000E+00  0.00000000000E+00 -0.31452040506E+03  0.33844987669E+03  0.12500093531E+03 0.  0.
    9000005    1    3    3    0    0  0.46203867484E+02  0.13009515106E+02 -0.26560611057E+03  0.26991044965E+03  0.10000000000E+01 0.  0.
    9000005    1    3    3    0    0 -0.46203867484E+02 -0.13009515106E+02 -0.48914294490E+02  0.68539427042E+02  0.10000000000E+01 0.  0.
<mgrwt>
<rscale>  0 0.12500094E+03</rscale>
<asrwt>0</asrwt>
<pdfrwt beam="1">  1        4 0.18407288E-02 0.12500094E+03</pdfrwt>
<pdfrwt beam="2">  1       -4 0.50228476E-01 0.12500094E+03</pdfrwt>
<totfact> 0.71012717E+03</totfact>
</mgrwt>
</event>
<event>
 5    1  0.3293542E-002  0.1250016E+03  0.7818608E-02  0.1235067E+00
         -4   -1    0    0    0  501 -0.00000000000E+00  0.00000000000E+00  0.14040926249E+02  0.14098244924E+02  0.12700000000E+01 0. -1.
          4   -1    0    0  501    0  0.00000000000E+00 -0.00000000000E+00 -0.27758605383E+03  0.27758895904E+03  0.12700000000E+01 0. -1.
         25    2    1    2    0    0  0.00000000000E+00  0.00000000000E+00 -0.26354512758E+03  0.29168720396E+03  0.12500156273E+03 0.  0.
    9000005    1    3    3    0    0 -0.31457220324E+00 -0.56430511308E+02 -0.69122255226E+02  0.89237815581E+02  0.10000000000E+01 0.  0.
    9000005    1    3    3    0    0  0.31457220324E+00  0.56430511308E+02 -0.19442287235E+03  0.20244938838E+03  0.10000000000E+01 0.  0.
<mgrwt>
<rscale>  0 0.12500156E+03</rscale>
<asrwt>0</asrwt>
<pdfrwt beam="2">  1        4 0.42710175E-01 0.12500156E+03</pdfrwt>
<pdfrwt beam="1">  1       -4 0.21647753E-02 0.12500156E+03</pdfrwt>
<totfact> 0.76650895E+03</totfact>
</mgrwt>
</event>
<event>
 5    1  0.3293542E-002  0.1250006E+03  0.7818608E-02  0.1235068E+00
          4   -1    0    0  501    0  0.00000000000E+00  0.00000000000E+00  0.56227963576E+02  0.56242304254E+02  0.12700000000E+01 0. -1.
         -4   -1    0    0    0  501 -0.00000000000E+00 -0.00000000000E+00 -0.69443315367E+02  0.69454927465E+02  0.12700000000E+01 0. -1.
         25    2    1    2    0    0  0.00000000000E+00  0.00000000000E+00 -0.13215351792E+02  0.12569723172E+03  0.12500059415E+03 0.  0.
    9000005    1    3    3    0    0 -0.15278680764E+01 -0.54222868672E+02 -0.37810160634E+02  0.66129132121E+02  0.10000000000E+01 0.  0.
    9000005    1    3    3    0    0  0.15278680764E+01  0.54222868672E+02  0.24594808842E+02  0.59568099599E+02  0.10000000000E+01 0.  0.
<mgrwt>
<rscale>  0 0.12500059E+03</rscale>
<asrwt>0</asrwt>
<pdfrwt beam="1">  1        4 0.86524523E-02 0.12500059E+03</pdfrwt>
<pdfrwt beam="2">  1       -4 0.10685583E-01 0.12500059E+03</pdfrwt>
<totfact> 0.10437465E+04</totfact>
</mgrwt>
</event>
<event>
 5    1  0.3293542E-002  0.1249982E+03  0.7818608E-02  0.1235072E+00
         -4   -1    0    0    0  501 -0.00000000000E+00  0.00000000000E+00  0.92290301878E+02  0.92299039652E+02  0.12700000000E+01 0.  1.
          4   -1    0    0  501    0  0.00000000000E+00 -0.00000000000E+00 -0.42304214786E+02  0.42323273605E+02  0.12700000000E+01 0.  1.
         25    2    1    2    0    0  0.00000000000E+00  0.00000000000E+00  0.49986087092E+02  0.13462231326E+03  0.12499823328E+03 0.  0.
    9000005    1    3    3    0    0 -0.36272771041E+02 -0.84148124725E+01 -0.29056770515E+02  0.47242130569E+02  0.10000000000E+01 0.  0.
    9000005    1    3    3    0    0  0.36272771041E+02  0.84148124725E+01  0.79042857607E+02  0.87380182688E+02  0.10000000000E+01 0.  0.
<mgrwt>
<rscale>  0 0.12499823E+03</rscale>
<asrwt>0</asrwt>
<pdfrwt beam="2">  1        4 0.65104789E-02 0.12499823E+03</pdfrwt>
<pdfrwt beam="1">  1       -4 0.14200646E-01 0.12499823E+03</pdfrwt>
<totfact> 0.10246446E+04</totfact>
</mgrwt>
</event>
<event>
 5    1  0.3293542E-002  0.1249918E+03  0.7818608E-02  0.1235082E+00
         -4   -1    0    0    0  501 -0.00000000000E+00  0.00000000000E+00  0.70798749062E+03  0.70798862969E+03  0.12700000000E+01 0.  1.
          4   -1    0    0  501    0  0.00000000000E+00 -0.00000000000E+00 -0.54424215675E+01  0.55886360159E+01  0.12700000000E+01 0.  1.
         25    2    1    2    0    0  0.00000000000E+00  0.00000000000E+00  0.70254506905E+03  0.71357726570E+03  0.12499176007E+03 0.  0.
    9000005    1    3    3    0    0  0.91977830223E+01 -0.55597109279E+02  0.50542566594E+03  0.50855849375E+03  0.10000000000E+01 0.  0.
    9000005    1    3    3    0    0 -0.91977830223E+01  0.55597109279E+02  0.19711940310E+03  0.20501877195E+03  0.10000000000E+01 0.  0.
<mgrwt>
<rscale>  0 0.12499176E+03</rscale>
<asrwt>0</asrwt>
<pdfrwt beam="2">  1        4 0.84863071E-03 0.12499176E+03</pdfrwt>
<pdfrwt beam="1">  1       -4 0.10893246E+00 0.12499176E+03</pdfrwt>
<totfact> 0.42387245E+03</totfact>
</mgrwt>
</event>
<event>
 5    1  0.3293542E-002  0.1250001E+03  0.7818608E-02  0.1235069E+00
         -4   -1    0    0    0  501 -0.00000000000E+00  0.00000000000E+00  0.98802212241E+01  0.99615094959E+01  0.12700000000E+01 0. -1.
          4   -1    0    0  501    0  0.00000000000E+00 -0.00000000000E+00 -0.39365947146E+03  0.39366152006E+03  0.12700000000E+01 0. -1.
         25    2    1    2    0    0  0.00000000000E+00  0.00000000000E+00 -0.38377925024E+03  0.40362302955E+03  0.12500014828E+03 0.  0.
    9000005    1    3    3    0    0 -0.95846263856E+01 -0.60973415248E+02 -0.22346714471E+03  0.23183655276E+03  0.10000000000E+01 0.  0.
    9000005    1    3    3    0    0  0.95846263856E+01  0.60973415248E+02 -0.16031210553E+03  0.17178647679E+03  0.10000000000E+01 0.  0.
<mgrwt>
<rscale>  0 0.12500015E+03</rscale>
<asrwt>0</asrwt>
<pdfrwt beam="2">  1        4 0.60569394E-01 0.12500015E+03</pdfrwt>
<pdfrwt beam="1">  1       -4 0.15264449E-02 0.12500015E+03</pdfrwt>
<totfact> 0.64201732E+03</totfact>
</mgrwt>
</event>
<event>
 5    1  0.3293542E-002  0.1249989E+03  0.7818608E-02  0.1235071E+00
          4   -1    0    0  501    0  0.00000000000E+00  0.00000000000E+00  0.78949173646E+01  0.79964129579E+01  0.12700000000E+01 0.  1.
         -4   -1    0    0    0  501 -0.00000000000E+00 -0.00000000000E+00 -0.49150967866E+03  0.49151131942E+03  0.12700000000E+01 0.  1.
         25    2    1    2    0    0  0.00000000000E+00  0.00000000000E+00 -0.48361476129E+03  0.49950773238E+03  0.12499894944E+03 0.  0.
    9000005    1    3    3    0    0  0.54373200917E+01  0.60940352083E+02 -0.29265263165E+03  0.29898136024E+03  0.10000000000E+01 0.  0.
    9000005    1    3    3    0    0 -0.54373200917E+01 -0.60940352083E+02 -0.19096212965E+03  0.20052637213E+03  0.10000000000E+01 0.  0.
<mgrwt>
<rscale>  0 0.12499895E+03</rscale>
<asrwt>0</asrwt>
<pdfrwt beam="1">  1        4 0.12225366E-02 0.12499895E+03</pdfrwt>
<pdfrwt beam="2">  1       -4 0.75624783E-01 0.12499895E+03</pdfrwt>
<totfact> 0.55903882E+03</totfact>
</mgrwt>
</event>
<event>
 5    1  0.3293542E-002  0.1250000E+03  0.7818608E-02  0.1235069E+00
         -4   -1    0    0    0  501 -0.00000000000E+00  0.00000000000E+00  0.27570648253E+03  0.27570940755E+03  0.12700000000E+01 0. -1.
          4   -1    0    0  501    0  0.00000000000E+00 -0.00000000000E+00 -0.14136676460E+02  0.14193608468E+02  0.12700000000E+01 0. -1.
         25    2    1    2    0    0  0.00000000000E+00  0.00000000000E+00  0.26156980607E+03  0.28990301601E+03  0.12499998099E+03 0.  0.
    9000005    1    3    3    0    0  0.22039699448E+02  0.57647060802E+02  0.10802376874E+03  0.12441489696E+03  0.10000000000E+01 0.  0.
    9000005    1    3    3    0    0 -0.22039699448E+02 -0.57647060802E+02  0.15354603733E+03  0.16548811906E+03  0.10000000000E+01 0.  0.
<mgrwt>
<rscale>  0 0.12499998E+03</rscale>
<asrwt>0</asrwt>
<pdfrwt beam="2">  1        4 0.21794777E-02 0.12499998E+03</pdfrwt>
<pdfrwt beam="1">  1       -4 0.42420986E-01 0.12499998E+03</pdfrwt>
<totfact> 0.76883128E+03</totfact>
</mgrwt>
</event>
<event>
 5    1  0.3293542E-002  0.1249992E+03  0.7818608E-02  0.1235071E+00
          4   -1    0    0  501    0  0.00000000000E+00  0.00000000000E+00  0.52203570136E+02  0.52219016028E+02  0.12700000000E+01 0.  1.
         -4   -1    0    0    0  501 -0.00000000000E+00 -0.00000000000E+00 -0.74794417073E+02  0.74805198518E+02  0.12700000000E+01 0.  1.
         25    2    1    2    0    0  0.00000000000E+00  0.00000000000E+00 -0.22590846937E+02  0.12702421455E+03  0.12499921886E+03 0.  0.
    9000005    1    3    3    0    0 -0.31347541231E+02  0.54022014546E+02 -0.92240741457E+01  0.63143724476E+02  0.10000000000E+01 0.  0.
    9000005    1    3    3    0    0  0.31347541231E+02 -0.54022014546E+02 -0.13366772791E+02  0.63880490071E+02  0.10000000000E+01 0.  0.
<mgrwt>
<rscale>  0 0.12499922E+03</rscale>
<asrwt>0</asrwt>
<pdfrwt beam="1">  1        4 0.80333360E-02 0.12499922E+03</pdfrwt>
<pdfrwt beam="2">  1       -4 0.11508851E-01 0.12499922E+03</pdfrwt>
<totfact> 0.10408803E+04</totfact>
</mgrwt>
</event>
<event>
 5    1  0.3293542E-002  0.1249990E+03  0.7818608E-02  0.1235071E+00
         -4   -1    0    0    0  501 -0.00000000000E+00  0.00000000000E+00  0.24539986309E+02  0.24572827026E+02  0.12700000000E+01 0. -1.
          4   -1    0    0  501    0  0.00000000000E+00 -0.00000000000E+00 -0.15903474056E+03  0.15903981139E+03  0.12700000000E+01 0. -1.
         25    2    1    2    0    0  0.00000000000E+00  0.00000000000E+00 -0.13449475425E+03  0.18361263841E+03  0.12499904825E+03 0.  0.
    9000005    1    3    3    0    0 -0.18289364419E+01 -0.39543052453E+02 -0.13827642571E+03  0.14383451572E+03  0.10000000000E+01 0.  0.
    9000005    1    3    3    0    0  0.18289364419E+01  0.39543052453E+02  0.37816714560E+01  0.39778122690E+02  0.10000000000E+01 0.  0.
<mgrwt>
<rscale>  0 0.12499905E+03</rscale>
<asrwt>0</asrwt>
<pdfrwt beam="2">  1        4 0.24469799E-01 0.12499905E+03</pdfrwt>
<pdfrwt beam="1">  1       -4 0.37782989E-02 0.12499905E+03</pdfrwt>
<totfact> 0.92972713E+03</totfact>
</mgrwt>
</event>
<event>
 5    1  0.3293542E-002  0.1249928E+03  0.7818608E-02  0.1235081E+00
         -4   -1    0    0    0  501 -0.00000000000E+00  0.00000000000E+00  0.57258540405E+02  0.57272623035E+02  0.12700000000E+01 0. -1.
          4   -1    0    0  501    0  0.00000000000E+00 -0.00000000000E+00 -0.68184981471E+02  0.68196807830E+02  0.12700000000E+01 0. -1.
         25    2    1    2    0    0  0.00000000000E+00  0.00000000000E+00 -0.10926441066E+02  0.12546943087E+03  0.12499276366E+03 0.  0.
    9000005    1    3    3    0    0 -0.51680486893E+02 -0.35080088399E+02 -0.36362759401E+01  0.62575616899E+02  0.10000000000E+01 0.  0.
    9000005    1    3    3    0    0  0.51680486893E+02  0.35080088399E+02 -0.72901651262E+01  0.62893813966E+02  0.10000000000E+01 0.  0.
<mgrwt>
<rscale>  0 0.12499276E+03</rscale>
<asrwt>0</asrwt>
<pdfrwt beam="2">  1        4 0.10491990E-01 0.12499276E+03</pdfrwt>
<pdfrwt beam="1">  1       -4 0.88109992E-02 0.12499276E+03</pdfrwt>
<totfact> 0.10444334E+04</totfact>
</mgrwt>
</event>
<event>
 5    1  0.3293542E-002  0.1249998E+03  0.7818608E-02  0.1235070E+00
          4   -1    0    0  501    0  0.00000000000E+00  0.00000000000E+00  0.14518802093E+03  0.14519357535E+03  0.12700000000E+01 0. -1.
         -4   -1    0    0    0  501 -0.00000000000E+00 -0.00000000000E+00 -0.26883613220E+02  0.26913594330E+02  0.12700000000E+01 0. -1.
         25    2    1    2    0    0  0.00000000000E+00  0.00000000000E+00  0.11830440771E+03  0.17210716968E+03  0.12499977988E+03 0.  0.
    9000005    1    3    3    0    0  0.29703790409E+02 -0.53285598729E+02  0.40497606010E+02  0.73230637640E+02  0.10000000000E+01 0.  0.
    9000005    1    3    3    0    0 -0.29703790409E+02  0.53285598729E+02  0.77806801703E+02  0.98876532038E+02  0.10000000000E+01 0.  0.
<mgrwt>
<rscale>  0 0.12499978E+03</rscale>
<asrwt>0</asrwt>
<pdfrwt beam="1">  1        4 0.22339352E-01 0.12499978E+03</pdfrwt>
<pdfrwt beam="2">  1       -4 0.41386741E-02 0.12499978E+03</pdfrwt>
<totfact> 0.95057811E+03</totfact>
</mgrwt>
</event>
<event>
 5    1  0.3293542E-002  0.1250003E+03  0.7818608E-02  0.1235069E+00
          4   -1    0    0  501    0  0.00000000000E+00  0.00000000000E+00  0.40848103283E+03  0.40848300709E+03  0.12700000000E+01 0.  1.
         -4   -1    0    0    0  501 -0.00000000000E+00 -0.00000000000E+00 -0.95187420893E+01  0.96030906985E+01  0.12700000000E+01 0.  1.
         25    2    1    2    0    0  0.00000000000E+00  0.00000000000E+00  0.39896229074E+03  0.41808609779E+03  0.12500030293E+03 0.  0.
    9000005    1    3    3    0    0 -0.40271927854E+02 -0.38244492426E+02  0.10365738309E+03  0.11760239132E+03  0.10000000000E+01 0.  0.
    9000005    1    3    3    0    0  0.40271927854E+02  0.38244492426E+02  0.29530490764E+03  0.30048370647E+03  0.10000000000E+01 0.  0.
<mgrwt>
<rscale>  0 0.12500030E+03</rscale>
<asrwt>0</asrwt>
<pdfrwt beam="1">  1        4 0.62849887E-01 0.12500030E+03</pdfrwt>
<pdfrwt beam="2">  1       -4 0.14710618E-02 0.12500030E+03</pdfrwt>
<totfact> 0.62830536E+03</totfact>
</mgrwt>
</event>
<event>
 5    1  0.3293542E-002  0.1249991E+03  0.7818608E-02  0.1235071E+00
         -4   -1    0    0    0  501 -0.00000000000E+00  0.00000000000E+00  0.27738316016E+03  0.27738606749E+03  0.12700000000E+01 0.  1.
          4   -1    0    0  501    0  0.00000000000E+00 -0.00000000000E+00 -0.14050678655E+02  0.14107957707E+02  0.12700000000E+01 0.  1.
         25    2    1    2    0    0  0.00000000000E+00  0.00000000000E+00  0.26333248150E+03  0.29149402520E+03  0.12499908365E+03 0.  0.
    9000005    1    3    3    0    0 -0.30584260431E+02  0.15875182350E+02  0.25323711059E+03  0.25557279311E+03  0.10000000000E+01 0.  0.
    9000005    1    3    3    0    0  0.30584260431E+02 -0.15875182350E+02  0.10095370917E+02  0.35921232088E+02  0.10000000000E+01 0.  0.
<mgrwt>
<rscale>  0 0.12499908E+03</rscale>
<asrwt>0</asrwt>
<pdfrwt beam="2">  1        4 0.21662728E-02 0.12499908E+03</pdfrwt>
<pdfrwt beam="1">  1       -4 0.42678959E-01 0.12499908E+03</pdfrwt>
<totfact> 0.76679914E+03</totfact>
</mgrwt>
</event>
<event>
 5    1  0.3293542E-002  0.1249997E+03  0.7818608E-02  0.1235070E+00
         -4   -1    0    0    0  501 -0.00000000000E+00  0.00000000000E+00  0.19531161137E+02  0.19572408011E+02  0.12700000000E+01 0. -1.
          4   -1    0    0  501    0  0.00000000000E+00 -0.00000000000E+00 -0.19974571820E+03  0.19974975554E+03  0.12700000000E+01 0. -1.
         25    2    1    2    0    0  0.00000000000E+00  0.00000000000E+00 -0.18021455706E+03  0.21932216355E+03  0.12499969939E+03 0.  0.
    9000005    1    3    3    0    0 -0.33272184494E+02 -0.74355681424E+01 -0.18199954385E+03  0.18516792351E+03  0.10000000000E+01 0.  0.
    9000005    1    3    3    0    0  0.33272184494E+02  0.74355681424E+01  0.17849867956E+01  0.34154240037E+02  0.10000000000E+01 0.  0.
<mgrwt>
<rscale>  0 0.12499970E+03</rscale>
<asrwt>0</asrwt>
<pdfrwt beam="2">  1        4 0.30733592E-01 0.12499970E+03</pdfrwt>
<pdfrwt beam="1">  1       -4 0.30082776E-02 0.12499970E+03</pdfrwt>
<totfact> 0.86976307E+03</totfact>
</mgrwt>
</event>
<event>
 5    1  0.3293542E-002  0.1250046E+03  0.7818608E-02  0.1235062E+00
          4   -1    0    0  501    0  0.00000000000E+00  0.00000000000E+00  0.20191051040E+02  0.20230952576E+02  0.12700000000E+01 0. -1.
         -4   -1    0    0    0  501 -0.00000000000E+00 -0.00000000000E+00 -0.19324556066E+03  0.19324973380E+03  0.12700000000E+01 0. -1.
         25    2    1    2    0    0  0.00000000000E+00  0.00000000000E+00 -0.17305450962E+03  0.21348068638E+03  0.12500456054E+03 0.  0.
    9000005    1    3    3    0    0 -0.16553422172E+02  0.51122802606E+02 -0.32039113380E+02  0.62570452436E+02  0.10000000000E+01 0.  0.
    9000005    1    3    3    0    0  0.16553422172E+02 -0.51122802606E+02 -0.14101539624E+03  0.15091023394E+03  0.10000000000E+01 0.  0.
<mgrwt>
<rscale>  0 0.12500456E+03</rscale>
<asrwt>0</asrwt>
<pdfrwt beam="1">  1        4 0.31097060E-02 0.12500456E+03</pdfrwt>
<pdfrwt beam="2">  1       -4 0.29733475E-01 0.12500456E+03</pdfrwt>
<totfact> 0.87901616E+03</totfact>
</mgrwt>
</event>
<event>
 5    1  0.3293542E-002  0.1250030E+03  0.7818608E-02  0.1235065E+00
         -4   -1    0    0    0  501 -0.00000000000E+00  0.00000000000E+00  0.10493263961E+03  0.10494032473E+03  0.12700000000E+01 0.  1.
          4   -1    0    0  501    0  0.00000000000E+00 -0.00000000000E+00 -0.37208155115E+02  0.37229822818E+02  0.12700000000E+01 0.  1.
         25    2    1    2    0    0  0.00000000000E+00  0.00000000000E+00  0.67724484491E+02  0.14217014755E+03  0.12500298018E+03 0.  0.
    9000005    1    3    3    0    0 -0.27824525698E+02  0.55483567404E+02  0.42126974407E+02  0.75022079783E+02  0.10000000000E+01 0.  0.
    9000005    1    3    3    0    0  0.27824525698E+02 -0.55483567404E+02  0.25597510084E+02  0.67148067766E+02  0.10000000000E+01 0.  0.
<mgrwt>
<rscale>  0 0.12500298E+03</rscale>
<asrwt>0</asrwt>
<pdfrwt beam="2">  1        4 0.57265896E-02 0.12500298E+03</pdfrwt>
<pdfrwt beam="1">  1       -4 0.16145741E-01 0.12500298E+03</pdfrwt>
<totfact> 0.10088128E+04</totfact>
</mgrwt>
</event>
<event>
 5    1  0.3293542E-002  0.1250009E+03  0.7818608E-02  0.1235068E+00
         -4   -1    0    0    0  501 -0.00000000000E+00  0.00000000000E+00  0.64190905881E+03  0.64191031514E+03  0.12700000000E+01 0.  1.
          4   -1    0    0  501    0  0.00000000000E+00 -0.00000000000E+00 -0.60179180487E+01  0.61504664572E+01  0.12700000000E+01 0.  1.
         25    2    1    2    0    0  0.00000000000E+00  0.00000000000E+00  0.63589114076E+03  0.64806078160E+03  0.12500093498E+03 0.  0.
    9000005    1    3    3    0    0 -0.12344522888E+02 -0.12062202532E+02  0.65581227470E+01  0.18490347461E+02  0.10000000000E+01 0.  0.
    9000005    1    3    3    0    0  0.12344522888E+02  0.12062202532E+02  0.62933301802E+03  0.62957043414E+03  0.10000000000E+01 0.  0.
<mgrwt>
<rscale>  0 0.12500093E+03</rscale>
<asrwt>0</asrwt>
<pdfrwt beam="2">  1        4 0.93612635E-03 0.12500093E+03</pdfrwt>
<pdfrwt beam="1">  1       -4 0.98765518E-01 0.12500093E+03</pdfrwt>
<totfact> 0.45966829E+03</totfact>
</mgrwt>
</event>
<event>
 5    1  0.3293542E-002  0.1249993E+03  0.7818608E-02  0.1235070E+00
         -4   -1    0    0    0  501 -0.00000000000E+00  0.00000000000E+00  0.15363748449E+02  0.15416149532E+02  0.12700000000E+01 0.  1.
          4   -1    0    0  501    0  0.00000000000E+00 -0.00000000000E+00 -0.25376133911E+03  0.25376451708E+03  0.12700000000E+01 0.  1.
         25    2    1    2    0    0  0.00000000000E+00  0.00000000000E+00 -0.23839759066E+03  0.26918066661E+03  0.12499928017E+03 0.  0.
    9000005    1    3    3    0    0 -0.15587878528E+01  0.33971390447E+02 -0.23210078340E+03  0.23458102831E+03  0.10000000000E+01 0.  0.
    9000005    1    3    3    0    0  0.15587878528E+01 -0.33971390447E+02 -0.62968072571E+01  0.34599638294E+02  0.10000000000E+01 0.  0.
<mgrwt>
<rscale>  0 0.12499928E+03</rscale>
<asrwt>0</asrwt>
<pdfrwt beam="2">  1        4 0.39044478E-01 0.12499928E+03</pdfrwt>
<pdfrwt beam="1">  1       -4 0.23679291E-02 0.12499928E+03</pdfrwt>
<totfact> 0.79635978E+03</totfact>
</mgrwt>
</event>
<event>
 5    1  0.3293542E-002  0.1249977E+03  0.7818608E-02  0.1235073E+00
          4   -1    0    0  501    0  0.00000000000E+00  0.00000000000E+00  0.16271029030E+02  0.16320517323E+02  0.12700000000E+01 0.  1.
         -4   -1    0    0    0  501 -0.00000000000E+00 -0.00000000000E+00 -0.23964943849E+03  0.23965280359E+03  0.12700000000E+01 0.  1.
         25    2    1    2    0    0  0.00000000000E+00  0.00000000000E+00 -0.22337840946E+03  0.25597332091E+03  0.12499770880E+03 0.  0.
    9000005    1    3    3    0    0 -0.47930800348E+02  0.38097564539E+01 -0.29949697435E+02  0.56655628517E+02  0.10000000000E+01 0.  0.
    9000005    1    3    3    0    0  0.47930800348E+02 -0.38097564539E+01 -0.19342871203E+03  0.19931769240E+03  0.10000000000E+01 0.  0.
<mgrwt>
<rscale>  0 0.12499771E+03</rscale>
<asrwt>0</asrwt>
<pdfrwt beam="1">  1        4 0.25073011E-02 0.12499771E+03</pdfrwt>
<pdfrwt beam="2">  1       -4 0.36873207E-01 0.12499771E+03</pdfrwt>
<totfact> 0.81478648E+03</totfact>
</mgrwt>
</event>
<event>
 5    1  0.3293542E-002  0.1250013E+03  0.7818608E-02  0.1235067E+00
          4   -1    0    0  501    0  0.00000000000E+00  0.00000000000E+00  0.21300268212E+03  0.21300646819E+03  0.12700000000E+01 0. -1.
         -4   -1    0    0    0  501 -0.00000000000E+00 -0.00000000000E+00 -0.18313423836E+02  0.18357407022E+02  0.12700000000E+01 0. -1.
         25    2    1    2    0    0  0.00000000000E+00  0.00000000000E+00  0.19468925829E+03  0.23136387521E+03  0.12500134184E+03 0.  0.
    9000005    1    3    3    0    0  0.42041689808E+02  0.46218779343E+02  0.99725467781E+02  0.11768537789E+03  0.10000000000E+01 0.  0.
    9000005    1    3    3    0    0 -0.42041689808E+02 -0.46218779343E+02  0.94963790506E+02  0.11367849732E+03  0.10000000000E+01 0.  0.
<mgrwt>
<rscale>  0 0.12500134E+03</rscale>
<asrwt>0</asrwt>
<pdfrwt beam="1">  1        4 0.32773315E-01 0.12500134E+03</pdfrwt>
<pdfrwt beam="2">  1       -4 0.28211246E-02 0.12500134E+03</pdfrwt>
<totfact> 0.85098066E+03</totfact>
</mgrwt>
</event>
<event>
 5    1  0.3293542E-002  0.1249929E+03  0.7818608E-02  0.1235080E+00
         -4   -1    0    0    0  501 -0.00000000000E+00  0.00000000000E+00  0.67450433604E+03  0.67450553166E+03  0.12700000000E+01 0. -1.
          4   -1    0    0  501    0  0.00000000000E+00 -0.00000000000E+00 -0.57197782446E+01  0.58590752826E+01  0.12700000000E+01 0. -1.
         25    2    1    2    0    0  0.00000000000E+00  0.00000000000E+00  0.66878455780E+03  0.68036460694E+03  0.12499285432E+03 0.  0.
    9000005    1    3    3    0    0 -0.30884034014E+02 -0.35233487299E+02  0.55945387641E+03  0.56141327203E+03  0.10000000000E+01 0.  0.
    9000005    1    3    3    0    0  0.30884034014E+02  0.35233487299E+02  0.10933068139E+03  0.11895133491E+03  0.10000000000E+01 0.  0.
<mgrwt>
<rscale>  0 0.12499285E+03</rscale>
<asrwt>0</asrwt>
<pdfrwt beam="2">  1        4 0.89077292E-03 0.12499285E+03</pdfrwt>
<pdfrwt beam="1">  1       -4 0.10378072E+00 0.12499285E+03</pdfrwt>
<totfact> 0.44150591E+03</totfact>
</mgrwt>
</event>
<event>
 5    1  0.3293542E-002  0.1250007E+03  0.7818608E-02  0.1235068E+00
          4   -1    0    0  501    0  0.00000000000E+00  0.00000000000E+00  0.29854333994E+03  0.29854604121E+03  0.12700000000E+01 0.  1.
         -4   -1    0    0    0  501 -0.00000000000E+00 -0.00000000000E+00 -0.13050929606E+02  0.13112576542E+02  0.12700000000E+01 0.  1.
         25    2    1    2    0    0  0.00000000000E+00  0.00000000000E+00  0.28549241033E+03  0.31165861775E+03  0.12500071064E+03 0.  0.
    9000005    1    3    3    0    0  0.53692997708E+02 -0.26305298520E+02  0.97427386378E+02  0.11431536358E+03  0.10000000000E+01 0.  0.
    9000005    1    3    3    0    0 -0.53692997708E+02  0.26305298520E+02  0.18806502395E+03  0.19734325417E+03  0.10000000000E+01 0.  0.
<mgrwt>
<rscale>  0 0.12500071E+03</rscale>
<asrwt>0</asrwt>
<pdfrwt beam="1">  1        4 0.45934691E-01 0.12500071E+03</pdfrwt>
<pdfrwt beam="2">  1       -4 0.20127853E-02 0.12500071E+03</pdfrwt>
<totfact> 0.74158126E+03</totfact>
</mgrwt>
</event>
<event>
 5    1  0.3293542E-002  0.1250244E+03  0.7818608E-02  0.1235031E+00
          4   -1    0    0  501    0  0.00000000000E+00  0.00000000000E+00  0.17982366089E+03  0.17982814551E+03  0.12700000000E+01 0. -1.
         -4   -1    0    0    0  501 -0.00000000000E+00 -0.00000000000E+00 -0.21707849424E+02  0.21744967845E+02  0.12700000000E+01 0. -1.
         25    2    1    2    0    0  0.00000000000E+00  0.00000000000E+00  0.15811581147E+03  0.20157311335E+03  0.12502443837E+03 0.  0.
    9000005    1    3    3    0    0 -0.11411634692E+02 -0.60790442685E+02  0.64540832119E+02  0.89399230080E+02  0.10000000000E+01 0.  0.
    9000005    1    3    3    0    0  0.11411634692E+02  0.60790442685E+02  0.93574979348E+02  0.11217388327E+03  0.10000000000E+01 0.  0.
<mgrwt>
<rscale>  0 0.12502444E+03</rscale>
<asrwt>0</asrwt>
<pdfrwt beam="1">  1        4 0.27668380E-01 0.12502444E+03</pdfrwt>
<pdfrwt beam="2">  1       -4 0.33428692E-02 0.12502444E+03</pdfrwt>
<totfact> 0.89821741E+03</totfact>
</mgrwt>
</event>
<event>
 5    1  0.3293542E-002  0.1250013E+03  0.7818608E-02  0.1235067E+00
          4   -1    0    0  501    0  0.00000000000E+00  0.00000000000E+00  0.66334271125E+03  0.66334392698E+03  0.12700000000E+01 0. -1.
         -4   -1    0    0    0  501 -0.00000000000E+00 -0.00000000000E+00 -0.58191551300E+01  0.59561284764E+01  0.12700000000E+01 0. -1.
         25    2    1    2    0    0  0.00000000000E+00  0.00000000000E+00  0.65752355612E+03  0.66930005546E+03  0.12500134955E+03 0.  0.
    9000005    1    3    3    0    0 -0.62003025570E+02  0.77993002628E+01  0.32683062828E+03  0.33275285701E+03  0.10000000000E+01 0.  0.
    9000005    1    3    3    0    0  0.62003025570E+02 -0.77993002628E+01  0.33069292783E+03  0.33654719845E+03  0.10000000000E+01 0.  0.
<mgrwt>
<rscale>  0 0.12500135E+03</rscale>
<asrwt>0</asrwt>
<pdfrwt beam="1">  1        4 0.10206324E+00 0.12500135E+03</pdfrwt>
<pdfrwt beam="2">  1       -4 0.90588561E-03 0.12500135E+03</pdfrwt>
<totfact> 0.44756299E+03</totfact>
</mgrwt>
</event>
<event>
 5    1  0.3293542E-002  0.1249957E+03  0.7818608E-02  0.1235076E+00
         -4   -1    0    0    0  501 -0.00000000000E+00  0.00000000000E+00  0.27601685477E+02  0.27630887448E+02  0.12700000000E+01 0. -1.
          4   -1    0    0  501    0  0.00000000000E+00 -0.00000000000E+00 -0.14140551938E+03  0.14141122237E+03  0.12700000000E+01 0. -1.
         25    2    1    2    0    0  0.00000000000E+00  0.00000000000E+00 -0.11380383390E+03  0.16904210981E+03  0.12499568904E+03 0.  0.
    9000005    1    3    3    0    0 -0.20360211232E+02 -0.35029099204E+02 -0.12124190331E+03  0.12783651712E+03  0.10000000000E+01 0.  0.
    9000005    1    3    3    0    0  0.20360211232E+02  0.35029099204E+02  0.74380694054E+01  0.41205592690E+02  0.10000000000E+01 0.  0.
<mgrwt>
<rscale>  0 0.12499569E+03</rscale>
<asrwt>0</asrwt>
<pdfrwt beam="2">  1        4 0.21757380E-01 0.12499569E+03</pdfrwt>
<pdfrwt beam="1">  1       -4 0.42490982E-02 0.12499569E+03</pdfrwt>
<totfact> 0.95636567E+03</totfact>
</mgrwt>
</event>
<event>
 5    1  0.3293542E-002  0.1249899E+03  0.7818608E-02  0.1235085E+00
         -4   -1    0    0    0  501 -0.00000000000E+00  0.00000000000E+00  0.40606293840E+02  0.40626149207E+02  0.12700000000E+01 0.  1.
          4   -1    0    0  501    0  0.00000000000E+00 -0.00000000000E+00 -0.96134982521E+02  0.96143370881E+02  0.12700000000E+01 0.  1.
         25    2    1    2    0    0  0.00000000000E+00  0.00000000000E+00 -0.55528688681E+02  0.13676952009E+03  0.12498986502E+03 0.  0.
    9000005    1    3    3    0    0 -0.91531902597E+01  0.26993130193E+02 -0.88612690225E+02  0.93089305715E+02  0.10000000000E+01 0.  0.
    9000005    1    3    3    0    0  0.91531902597E+01 -0.26993130193E+02  0.33084001544E+02  0.43680214373E+02  0.10000000000E+01 0.  0.
<mgrwt>
<rscale>  0 0.12498987E+03</rscale>
<asrwt>0</asrwt>
<pdfrwt beam="2">  1        4 0.14792170E-01 0.12498987E+03</pdfrwt>
<pdfrwt beam="1">  1       -4 0.62492948E-02 0.12498987E+03</pdfrwt>
<totfact> 0.10203239E+04</totfact>
</mgrwt>
</event>
<event>
 5    1  0.3293542E-002  0.1250017E+03  0.7818608E-02  0.1235067E+00
         -4   -1    0    0    0  501 -0.00000000000E+00  0.00000000000E+00  0.11986006302E+03  0.11986679109E+03  0.12700000000E+01 0. -1.
          4   -1    0    0  501    0  0.00000000000E+00 -0.00000000000E+00 -0.32570974160E+02  0.32595724531E+02  0.12700000000E+01 0. -1.
         25    2    1    2    0    0  0.00000000000E+00  0.00000000000E+00  0.87289088858E+02  0.15246251562E+03  0.12500173453E+03 0.  0.
    9000005    1    3    3    0    0 -0.20391456644E+01  0.62454691590E+02  0.42690542820E+02  0.75685064993E+02  0.10000000000E+01 0.  0.
    9000005    1    3    3    0    0  0.20391456644E+01 -0.62454691590E+02  0.44598546037E+02  0.76777450630E+02  0.10000000000E+01 0.  0.
<mgrwt>
<rscale>  0 0.12500173E+03</rscale>
<asrwt>0</asrwt>
<pdfrwt beam="2">  1        4 0.50133405E-02 0.12500173E+03</pdfrwt>
<pdfrwt beam="1">  1       -4 0.18442431E-01 0.12500173E+03</pdfrwt>
<totfact> 0.98811222E+03</totfact>
</mgrwt>
</event>
<event>
 5    1  0.3293542E-002  0.1250017E+03  0.7818608E-02  0.1235067E+00
          4   -1    0    0  501    0  0.00000000000E+00  0.00000000000E+00  0.14018974609E+03  0.14019549854E+03  0.12700000000E+01 0. -1.
         -4   -1    0    0    0  501 -0.00000000000E+00 -0.00000000000E+00 -0.27843973999E+02  0.27872922129E+02  0.12700000000E+01 0. -1.
         25    2    1    2    0    0  0.00000000000E+00  0.00000000000E+00  0.11234577210E+03  0.16806842067E+03  0.12500168606E+03 0.  0.
    9000005    1    3    3    0    0  0.48098819420E+01 -0.44868313060E+02 -0.19545647178E+01  0.45178764971E+02  0.10000000000E+01 0.  0.
    9000005    1    3    3    0    0 -0.48098819420E+01  0.44868313060E+02  0.11430033681E+03  0.12288965570E+03  0.10000000000E+01 0.  0.
<mgrwt>
<rscale>  0 0.12500169E+03</rscale>
<asrwt>0</asrwt>
<pdfrwt beam="1">  1        4 0.21570322E-01 0.12500169E+03</pdfrwt>
<pdfrwt beam="2">  1       -4 0.42863576E-02 0.12500169E+03</pdfrwt>
<totfact> 0.95805790E+03</totfact>
</mgrwt>
</event>
<event>
 5    1  0.3293542E-002  0.1249995E+03  0.7818608E-02  0.1235070E+00
          4   -1    0    0  501    0  0.00000000000E+00  0.00000000000E+00  0.23993713813E+03  0.23994049920E+03  0.12700000000E+01 0.  1.
         -4   -1    0    0    0  501 -0.00000000000E+00 -0.00000000000E+00 -0.16251922812E+02  0.16301469108E+02  0.12700000000E+01 0.  1.
         25    2    1    2    0    0  0.00000000000E+00  0.00000000000E+00  0.22368521532E+03  0.25624196831E+03  0.12499948307E+03 0.  0.
    9000005    1    3    3    0    0 -0.52699148902E+00 -0.48737432108E+02  0.31669011697E+02  0.58133822430E+02  0.10000000000E+01 0.  0.
    9000005    1    3    3    0    0  0.52699148902E+00  0.48737432108E+02  0.19201620362E+03  0.19810814588E+03  0.10000000000E+01 0.  0.
<mgrwt>
<rscale>  0 0.12499948E+03</rscale>
<asrwt>0</asrwt>
<pdfrwt beam="1">  1        4 0.36917476E-01 0.12499948E+03</pdfrwt>
<pdfrwt beam="2">  1       -4 0.25043656E-02 0.12499948E+03</pdfrwt>
<totfact> 0.81437293E+03</totfact>
</mgrwt>
</event>
<event>
 5    1  0.3293542E-002  0.1250375E+03  0.7818608E-02  0.1235011E+00
          4   -1    0    0  501    0  0.00000000000E+00  0.00000000000E+00  0.12298556036E+02  0.12363954892E+02  0.12700000000E+01 0. -1.
         -4   -1    0    0    0  501 -0.00000000000E+00 -0.00000000000E+00 -0.31689962352E+03  0.31690216832E+03  0.12700000000E+01 0. -1.
         25    2    1    2    0    0  0.00000000000E+00  0.00000000000E+00 -0.30460106749E+03  0.32926612321E+03  0.12503747272E+03 0.  0.
    9000005    1    3    3    0    0  0.39075031181E+02 -0.25934559456E+00 -0.23814419245E+02  0.45771736759E+02  0.10000000000E+01 0.  0.
    9000005    1    3    3    0    0 -0.39075031181E+02  0.25934559456E+00 -0.28078664824E+03  0.28349438646E+03  0.10000000000E+01 0.  0.
<mgrwt>
<rscale>  0 0.12503747E+03</rscale>
<asrwt>0</asrwt>
<pdfrwt beam="1">  1        4 0.18973122E-02 0.12503747E+03</pdfrwt>
<pdfrwt beam="2">  1       -4 0.48759008E-01 0.12503747E+03</pdfrwt>
<totfact> 0.72007633E+03</totfact>
</mgrwt>
</event>
<event>
 5    1  0.3293542E-002  0.1250068E+03  0.7818608E-02  0.1235059E+00
          4   -1    0    0  501    0  0.00000000000E+00  0.00000000000E+00  0.38661674896E+01  0.40694165500E+01  0.12700000000E+01 0.  1.
         -4   -1    0    0    0  501 -0.00000000000E+00 -0.00000000000E+00 -0.98439261004E+03  0.98439342927E+03  0.12700000000E+01 0.  1.
         25    2    1    2    0    0  0.00000000000E+00  0.00000000000E+00 -0.98052644255E+03  0.98846284582E+03  0.12500677197E+03 0.  0.
    9000005    1    3    3    0    0 -0.56303543320E+02  0.25716418463E+02 -0.55839901235E+03  0.56182014931E+03  0.10000000000E+01 0.  0.
    9000005    1    3    3    0    0  0.56303543320E+02 -0.25716418463E+02 -0.42212743019E+03  0.42664269651E+03  0.10000000000E+01 0.  0.
<mgrwt>
<rscale>  0 0.12500677E+03</rscale>
<asrwt>0</asrwt>
<pdfrwt beam="1">  1        4 0.61049334E-03 0.12500677E+03</pdfrwt>
<pdfrwt beam="2">  1       -4 0.15146052E+00 0.12500677E+03</pdfrwt>
<totfact> 0.30983969E+03</totfact>
</mgrwt>
</event>
<event>
 5    1  0.3293542E-002  0.1249994E+03  0.7818608E-02  0.1235070E+00
          4   -1    0    0  501    0  0.00000000000E+00  0.00000000000E+00  0.97188410458E+01  0.98014678122E+01  0.12700000000E+01 0.  1.
         -4   -1    0    0    0  501 -0.00000000000E+00 -0.00000000000E+00 -0.40013688402E+03  0.40013889945E+03  0.12700000000E+01 0.  1.
         25    2    1    2    0    0  0.00000000000E+00  0.00000000000E+00 -0.39041804297E+03  0.40994036726E+03  0.12499942572E+03 0.  0.
    9000005    1    3    3    0    0  0.61796726445E+02 -0.17448678947E+01 -0.16527092671E+03  0.17645781133E+03  0.10000000000E+01 0.  0.
    9000005    1    3    3    0    0 -0.61796726445E+02  0.17448678947E+01 -0.22514711626E+03  0.23348255593E+03  0.10000000000E+01 0.  0.
<mgrwt>
<rscale>  0 0.12499943E+03</rscale>
<asrwt>0</asrwt>
<pdfrwt beam="1">  1        4 0.15017176E-02 0.12499943E+03</pdfrwt>
<pdfrwt beam="2">  1       -4 0.61566019E-01 0.12499943E+03</pdfrwt>
<totfact> 0.63598160E+03</totfact>
</mgrwt>
</event>
<event>
 5    1  0.3293542E-002  0.1249892E+03  0.7818608E-02  0.1235086E+00
         -4   -1    0    0    0  501 -0.00000000000E+00  0.00000000000E+00  0.11224875500E+02  0.11296491933E+02  0.12700000000E+01 0. -1.
          4   -1    0    0  501    0  0.00000000000E+00 -0.00000000000E+00 -0.34676034477E+03  0.34676267044E+03  0.12700000000E+01 0. -1.
         25    2    1    2    0    0  0.00000000000E+00  0.00000000000E+00 -0.33553546927E+03  0.35805916237E+03  0.12498925000E+03 0.  0.
    9000005    1    3    3    0    0 -0.23434236916E+01  0.56462960759E+02 -0.24415539622E+03  0.25061208087E+03  0.10000000000E+01 0.  0.
    9000005    1    3    3    0    0  0.23434236916E+01 -0.56462960759E+02 -0.91380073053E+02  0.10744708150E+03  0.10000000000E+01 0.  0.
<mgrwt>
<rscale>  0 0.12498925E+03</rscale>
<asrwt>0</asrwt>
<pdfrwt beam="2">  1        4 0.53353425E-01 0.12498925E+03</pdfrwt>
<pdfrwt beam="1">  1       -4 0.17325920E-02 0.12498925E+03</pdfrwt>
<totfact> 0.68863334E+03</totfact>
</mgrwt>
</event>
<event>
 5    1  0.3293542E-002  0.1250063E+03  0.7818608E-02  0.1235059E+00
          4   -1    0    0  501    0  0.00000000000E+00  0.00000000000E+00  0.15240513376E+04  0.15240518667E+04  0.12700000000E+01 0. -1.
         -4   -1    0    0    0  501 -0.00000000000E+00 -0.00000000000E+00 -0.24054609027E+01  0.27201364220E+01  0.12700000000E+01 0. -1.
         25    2    1    2    0    0  0.00000000000E+00  0.00000000000E+00  0.15216458767E+04  0.15267720032E+04  0.12500630222E+03 0.  0.
    9000005    1    3    3    0    0 -0.11911115328E+02 -0.15952829349E+02  0.14843438217E+04  0.14844776686E+04  0.10000000000E+01 0.  0.
    9000005    1    3    3    0    0  0.11911115328E+02  0.15952829349E+02  0.37302054938E+02  0.42294334552E+02  0.10000000000E+01 0.  0.
<mgrwt>
<rscale>  0 0.12500630E+03</rscale>
<asrwt>0</asrwt>
<pdfrwt beam="1">  1        4 0.23449401E+00 0.12500630E+03</pdfrwt>
<pdfrwt beam="2">  1       -4 0.39431687E-03 0.12500630E+03</pdfrwt>
<totfact> 0.17407653E+03</totfact>
</mgrwt>
</event>
<event>
 5    1  0.3293542E-002  0.1250004E+03  0.7818608E-02  0.1235069E+00
         -4   -1    0    0    0  501 -0.00000000000E+00  0.00000000000E+00  0.66253901499E+02  0.66266072494E+02  0.12700000000E+01 0. -1.
          4   -1    0    0  501    0  0.00000000000E+00 -0.00000000000E+00 -0.58934785889E+02  0.58948468070E+02  0.12700000000E+01 0. -1.
         25    2    1    2    0    0  0.00000000000E+00  0.00000000000E+00  0.73191156099E+01  0.12521454056E+03  0.12500044686E+03 0.  0.
    9000005    1    3    3    0    0  0.13282421499E+01  0.33292445691E+02  0.56619067162E+02  0.65702891364E+02  0.10000000000E+01 0.  0.
    9000005    1    3    3    0    0 -0.13282421499E+01 -0.33292445691E+02 -0.49299951552E+02  0.59511649199E+02  0.10000000000E+01 0.  0.
<mgrwt>
<rscale>  0 0.12500045E+03</rscale>
<asrwt>0</asrwt>
<pdfrwt beam="2">  1        4 0.90688788E-02 0.12500045E+03</pdfrwt>
<pdfrwt beam="1">  1       -4 0.10194897E-01 0.12500045E+03</pdfrwt>
<totfact> 0.10448099E+04</totfact>
</mgrwt>
</event>
<event>
 5    1  0.3293542E-002  0.1249946E+03  0.7818608E-02  0.1235078E+00
         -4   -1    0    0    0  501 -0.00000000000E+00  0.00000000000E+00  0.58657859096E+02  0.58671605856E+02  0.12700000000E+01 0.  1.
          4   -1    0    0  501    0  0.00000000000E+00 -0.00000000000E+00 -0.66560392810E+02  0.66572507772E+02  0.12700000000E+01 0.  1.
         25    2    1    2    0    0  0.00000000000E+00  0.00000000000E+00 -0.79025337144E+01  0.12524411363E+03  0.12499455172E+03 0.  0.
    9000005    1    3    3    0    0 -0.58221897241E+02  0.20134736230E+02 -0.14446556565E+02  0.63284278601E+02  0.10000000000E+01 0.  0.
    9000005    1    3    3    0    0  0.58221897241E+02 -0.20134736230E+02  0.65440228511E+01  0.61959835027E+02  0.10000000000E+01 0.  0.
<mgrwt>
<rscale>  0 0.12499455E+03</rscale>
<asrwt>0</asrwt>
<pdfrwt beam="2">  1        4 0.10242050E-01 0.12499455E+03</pdfrwt>
<pdfrwt beam="1">  1       -4 0.90262754E-02 0.12499455E+03</pdfrwt>
<totfact> 0.10448849E+04</totfact>
</mgrwt>
</event>
<event>
 5    1  0.3293542E-002  0.1249993E+03  0.7818608E-02  0.1235070E+00
         -4   -1    0    0    0  501 -0.00000000000E+00  0.00000000000E+00  0.96140291034E+03  0.96140374917E+03  0.12700000000E+01 0.  1.
          4   -1    0    0  501    0  0.00000000000E+00 -0.00000000000E+00 -0.39629262008E+01  0.41614521592E+01  0.12700000000E+01 0.  1.
         25    2    1    2    0    0  0.00000000000E+00  0.00000000000E+00  0.95743998414E+03  0.96556520133E+03  0.12499933912E+03 0.  0.
    9000005    1    3    3    0    0 -0.43398224438E+02  0.35210033938E+02  0.69473946593E+03  0.69698427378E+03  0.10000000000E+01 0.  0.
    9000005    1    3    3    0    0  0.43398224438E+02 -0.35210033938E+02  0.26270051821E+03  0.26858092755E+03  0.10000000000E+01 0.  0.
<mgrwt>
<rscale>  0 0.12499934E+03</rscale>
<asrwt>0</asrwt>
<pdfrwt beam="2">  1        4 0.62501629E-03 0.12499934E+03</pdfrwt>
<pdfrwt beam="1">  1       -4 0.14792357E+00 0.12499934E+03</pdfrwt>
<totfact> 0.31770147E+03</totfact>
</mgrwt>
</event>
<event>
 5    1  0.3293542E-002  0.1249984E+03  0.7818608E-02  0.1235072E+00
          4   -1    0    0  501    0  0.00000000000E+00  0.00000000000E+00  0.28363411638E+02  0.28391830159E+02  0.12700000000E+01 0. -1.
         -4   -1    0    0    0  501 -0.00000000000E+00 -0.00000000000E+00 -0.13761756214E+03  0.13762342209E+03  0.12700000000E+01 0. -1.
         25    2    1    2    0    0  0.00000000000E+00  0.00000000000E+00 -0.10925415050E+03  0.16601525225E+03  0.12499837830E+03 0.  0.
    9000005    1    3    3    0    0 -0.21917392541E+02  0.32518492380E+02  0.99937470430E+01  0.40480852541E+02  0.10000000000E+01 0.  0.
    9000005    1    3    3    0    0  0.21917392541E+02 -0.32518492380E+02 -0.11924789754E+03  0.12553439971E+03  0.10000000000E+01 0.  0.
<mgrwt>
<rscale>  0 0.12499838E+03</rscale>
<asrwt>0</asrwt>
<pdfrwt beam="1">  1        4 0.43662387E-02 0.12499838E+03</pdfrwt>
<pdfrwt beam="2">  1       -4 0.21174569E-01 0.12499838E+03</pdfrwt>
<totfact> 0.96198969E+03</totfact>
</mgrwt>
</event>
<event>
 5    1  0.3293542E-002  0.1250046E+03  0.7818608E-02  0.1235062E+00
         -4   -1    0    0    0  501 -0.00000000000E+00  0.00000000000E+00  0.38975440413E+03  0.38975647325E+03  0.12700000000E+01 0. -1.
          4   -1    0    0  501    0  0.00000000000E+00 -0.00000000000E+00 -0.99807377978E+01  0.10061213992E+02  0.12700000000E+01 0. -1.
         25    2    1    2    0    0  0.00000000000E+00  0.00000000000E+00  0.37977366633E+03  0.39981768724E+03  0.12500458148E+03 0.  0.
    9000005    1    3    3    0    0 -0.49576738875E+02 -0.36707155623E+02  0.15785975448E+03  0.16948737533E+03  0.10000000000E+01 0.  0.
    9000005    1    3    3    0    0  0.49576738875E+02  0.36707155623E+02  0.22191391186E+03  0.23033031191E+03  0.10000000000E+01 0.  0.
<mgrwt>
<rscale>  0 0.12500458E+03</rscale>
<asrwt>0</asrwt>
<pdfrwt beam="2">  1        4 0.15418478E-02 0.12500458E+03</pdfrwt>
<pdfrwt beam="1">  1       -4 0.59968566E-01 0.12500458E+03</pdfrwt>
<totfact> 0.64563992E+03</totfact>
</mgrwt>
</event>
<event>
 5    1  0.3293542E-002  0.1250059E+03  0.7818608E-02  0.1235060E+00
          4   -1    0    0  501    0  0.00000000000E+00  0.00000000000E+00  0.41835572311E+03  0.41835765077E+03  0.12700000000E+01 0. -1.
         -4   -1    0    0    0  501 -0.00000000000E+00 -0.00000000000E+00 -0.92928954055E+01  0.93792752928E+01  0.12700000000E+01 0. -1.
         25    2    1    2    0    0  0.00000000000E+00  0.00000000000E+00  0.40906282770E+03  0.42773692606E+03  0.12500592350E+03 0.  0.
    9000005    1    3    3    0    0  0.10299603406E+02  0.57925709002E+02  0.13241879061E+03  0.14490412589E+03  0.10000000000E+01 0.  0.
    9000005    1    3    3    0    0 -0.10299603406E+02 -0.57925709002E+02  0.27664403709E+03  0.28283280017E+03  0.10000000000E+01 0.  0.
<mgrwt>
<rscale>  0 0.12500592E+03</rscale>
<asrwt>0</asrwt>
<pdfrwt beam="1">  1        4 0.64369206E-01 0.12500592E+03</pdfrwt>
<pdfrwt beam="2">  1       -4 0.14364692E-02 0.12500592E+03</pdfrwt>
<totfact> 0.61933573E+03</totfact>
</mgrwt>
</event>
<event>
 5    1  0.3293542E-002  0.1249988E+03  0.7818608E-02  0.1235071E+00
          4   -1    0    0  501    0  0.00000000000E+00  0.00000000000E+00  0.27149111445E+03  0.27149408488E+03  0.12700000000E+01 0.  1.
         -4   -1    0    0    0  501 -0.00000000000E+00 -0.00000000000E+00 -0.14356766435E+02  0.14412829093E+02  0.12700000000E+01 0.  1.
         25    2    1    2    0    0  0.00000000000E+00  0.00000000000E+00  0.25713434802E+03  0.28590691397E+03  0.12499876211E+03 0.  0.
    9000005    1    3    3    0    0  0.40896944729E+02 -0.47166409674E+02  0.12212113019E+03  0.13715611809E+03  0.10000000000E+01 0.  0.
    9000005    1    3    3    0    0 -0.40896944729E+02  0.47166409674E+02  0.13501321782E+03  0.14875079589E+03  0.10000000000E+01 0.  0.
<mgrwt>
<rscale>  0 0.12499876E+03</rscale>
<asrwt>0</asrwt>
<pdfrwt beam="1">  1        4 0.41772404E-01 0.12499876E+03</pdfrwt>
<pdfrwt beam="2">  1       -4 0.22132743E-02 0.12499876E+03</pdfrwt>
<totfact> 0.77403483E+03</totfact>
</mgrwt>
</event>
<event>
 5    1  0.3293542E-002  0.1250153E+03  0.7818608E-02  0.1235045E+00
         -4   -1    0    0    0  501 -0.00000000000E+00  0.00000000000E+00  0.23645997674E+03  0.23646338723E+03  0.12700000000E+01 0.  1.
          4   -1    0    0  501    0  0.00000000000E+00 -0.00000000000E+00 -0.16495808502E+02  0.16544624449E+02  0.12700000000E+01 0.  1.
         25    2    1    2    0    0  0.00000000000E+00  0.00000000000E+00  0.21996416824E+03  0.25300801168E+03  0.12501527373E+03 0.  0.
    9000005    1    3    3    0    0  0.38719752289E+02 -0.58809996061E+01  0.11407468916E+02  0.40803623868E+02  0.10000000000E+01 0.  0.
    9000005    1    3    3    0    0 -0.38719752289E+02  0.58809996061E+01  0.20855669933E+03  0.21220438781E+03  0.10000000000E+01 0.  0.
<mgrwt>
<rscale>  0 0.12501527E+03</rscale>
<asrwt>0</asrwt>
<pdfrwt beam="2">  1        4 0.25418342E-02 0.12501527E+03</pdfrwt>
<pdfrwt beam="1">  1       -4 0.36382474E-01 0.12501527E+03</pdfrwt>
<totfact> 0.81869559E+03</totfact>
</mgrwt>
</event>
<event>
 5    1  0.3293542E-002  0.1249997E+03  0.7818608E-02  0.1235070E+00
         -4   -1    0    0    0  501 -0.00000000000E+00  0.00000000000E+00  0.19658653028E+03  0.19659063251E+03  0.12700000000E+01 0.  1.
          4   -1    0    0  501    0  0.00000000000E+00 -0.00000000000E+00 -0.19845696645E+02  0.19886291141E+02  0.12700000000E+01 0.  1.
         25    2    1    2    0    0  0.00000000000E+00  0.00000000000E+00  0.17674083364E+03  0.21647692365E+03  0.12499974479E+03 0.  0.
    9000005    1    3    3    0    0  0.58935847111E+02  0.20022189528E+02  0.78741768222E+02  0.10037722954E+03  0.10000000000E+01 0.  0.
    9000005    1    3    3    0    0 -0.58935847111E+02 -0.20022189528E+02  0.97999065417E+02  0.11609969410E+03  0.10000000000E+01 0.  0.
<mgrwt>
<rscale>  0 0.12499974E+03</rscale>
<asrwt>0</asrwt>
<pdfrwt beam="2">  1        4 0.30566222E-02 0.12499974E+03</pdfrwt>
<pdfrwt beam="1">  1       -4 0.30247521E-01 0.12499974E+03</pdfrwt>
<totfact> 0.87429415E+03</totfact>
</mgrwt>
</event>
<event>
 5    1  0.3293542E-002  0.1250098E+03  0.7818608E-02  0.1235054E+00
         -4   -1    0    0    0  501 -0.00000000000E+00  0.00000000000E+00  0.13226067022E+03  0.13226676751E+03  0.12700000000E+01 0.  1.
          4   -1    0    0  501    0  0.00000000000E+00 -0.00000000000E+00 -0.29518686866E+02  0.29545994218E+02  0.12700000000E+01 0.  1.
         25    2    1    2    0    0  0.00000000000E+00  0.00000000000E+00  0.10274198336E+03  0.16181276173E+03  0.12500981847E+03 0.  0.
    9000005    1    3    3    0    0 -0.40555670293E+01 -0.55794804831E+02  0.15304902765E+02  0.58006447217E+02  0.10000000000E+01 0.  0.
    9000005    1    3    3    0    0  0.40555670293E+01  0.55794804831E+02  0.87437080592E+02  0.10380631451E+03  0.10000000000E+01 0.  0.
<mgrwt>
<rscale>  0 0.12500982E+03</rscale>
<asrwt>0</asrwt>
<pdfrwt beam="2">  1        4 0.45439060E-02 0.12500982E+03</pdfrwt>
<pdfrwt beam="1">  1       -4 0.20350365E-01 0.12500982E+03</pdfrwt>
<totfact> 0.96973034E+03</totfact>
</mgrwt>
</event>
<event>
 5    1  0.3293542E-002  0.1250030E+03  0.7818608E-02  0.1235065E+00
         -4   -1    0    0    0  501 -0.00000000000E+00  0.00000000000E+00  0.68303163739E+02  0.68314969638E+02  0.12700000000E+01 0. -1.
          4   -1    0    0  501    0  0.00000000000E+00 -0.00000000000E+00 -0.57168820606E+02  0.57182925332E+02  0.12700000000E+01 0. -1.
         25    2    1    2    0    0  0.00000000000E+00  0.00000000000E+00  0.11134343132E+02  0.12549789497E+03  0.12500299214E+03 0.  0.
    9000005    1    3    3    0    0  0.43931728025E+02  0.33689675047E+02  0.34672396525E+02  0.65331202444E+02  0.10000000000E+01 0.  0.
    9000005    1    3    3    0    0 -0.43931728025E+02 -0.33689675047E+02 -0.23538053393E+02  0.60166692526E+02  0.10000000000E+01 0.  0.
<mgrwt>
<rscale>  0 0.12500299E+03</rscale>
<asrwt>0</asrwt>
<pdfrwt beam="2">  1        4 0.87971963E-02 0.12500299E+03</pdfrwt>
<pdfrwt beam="1">  1       -4 0.10510172E-01 0.12500299E+03</pdfrwt>
<totfact> 0.10441296E+04</totfact>
</mgrwt>
</event>
<event>
 5    1  0.3293542E-002  0.1250012E+03  0.7818608E-02  0.1235067E+00
          4   -1    0    0  501    0  0.00000000000E+00  0.00000000000E+00  0.69152250359E+02  0.69163911324E+02  0.12700000000E+01 0.  1.
         -4   -1    0    0    0  501 -0.00000000000E+00 -0.00000000000E+00 -0.56465186871E+02  0.56479467317E+02  0.12700000000E+01 0.  1.
         25    2    1    2    0    0  0.00000000000E+00  0.00000000000E+00  0.12687063488E+02  0.12564337864E+03  0.12500118806E+03 0.  0.
    9000005    1    3    3    0    0  0.33579958878E+02  0.45669508537E+02  0.32784696712E+02  0.65491632952E+02  0.10000000000E+01 0.  0.
    9000005    1    3    3    0    0 -0.33579958878E+02 -0.45669508537E+02 -0.20097633224E+02  0.60151745689E+02  0.10000000000E+01 0.  0.
<mgrwt>
<rscale>  0 0.12500119E+03</rscale>
<asrwt>0</asrwt>
<pdfrwt beam="1">  1        4 0.10640803E-01 0.12500119E+03</pdfrwt>
<pdfrwt beam="2">  1       -4 0.86889473E-02 0.12500119E+03</pdfrwt>
<totfact> 0.10438511E+04</totfact>
</mgrwt>
</event>
<event>
 5    1  0.3293542E-002  0.1249994E+03  0.7818608E-02  0.1235070E+00
         -4   -1    0    0    0  501 -0.00000000000E+00  0.00000000000E+00  0.32029106620E+03  0.32029358406E+03  0.12700000000E+01 0.  1.
          4   -1    0    0  501    0  0.00000000000E+00 -0.00000000000E+00 -0.12160180620E+02  0.12226319671E+02  0.12700000000E+01 0.  1.
         25    2    1    2    0    0  0.00000000000E+00  0.00000000000E+00  0.30813088558E+03  0.33251990373E+03  0.12499937490E+03 0.  0.
    9000005    1    3    3    0    0  0.43681832924E+02 -0.15839668408E+01  0.27287124543E+03  0.27635181935E+03  0.10000000000E+01 0.  0.
    9000005    1    3    3    0    0 -0.43681832924E+02  0.15839668408E+01  0.35259640153E+02  0.56168084374E+02  0.10000000000E+01 0.  0.
<mgrwt>
<rscale>  0 0.12499937E+03</rscale>
<asrwt>0</asrwt>
<pdfrwt beam="2">  1        4 0.18760782E-02 0.12499937E+03</pdfrwt>
<pdfrwt beam="1">  1       -4 0.49280834E-01 0.12499937E+03</pdfrwt>
<totfact> 0.71692370E+03</totfact>
</mgrwt>
</event>
<event>
 5    1  0.3293542E-002  0.1250012E+03  0.7818608E-02  0.1235067E+00
         -4   -1    0    0    0  501 -0.00000000000E+00  0.00000000000E+00  0.18094968388E+03  0.18095414059E+03  0.12700000000E+01 0. -1.
          4   -1    0    0  501    0  0.00000000000E+00 -0.00000000000E+00 -0.21564493484E+02  0.21601858235E+02  0.12700000000E+01 0. -1.
         25    2    1    2    0    0  0.00000000000E+00  0.00000000000E+00  0.15938519040E+03  0.20255599882E+03  0.12500117496E+03 0.  0.
    9000005    1    3    3    0    0  0.55115501013E+02  0.17527331864E+01  0.12733808319E+03  0.13876879317E+03  0.10000000000E+01 0.  0.
    9000005    1    3    3    0    0 -0.55115501013E+02 -0.17527331864E+01  0.32047107203E+02  0.63787205658E+02  0.10000000000E+01 0.  0.
<mgrwt>
<rscale>  0 0.12500117E+03</rscale>
<asrwt>0</asrwt>
<pdfrwt beam="2">  1        4 0.33208314E-02 0.12500117E+03</pdfrwt>
<pdfrwt beam="1">  1       -4 0.27841630E-01 0.12500117E+03</pdfrwt>
<totfact> 0.89703842E+03</totfact>
</mgrwt>
</event>
<event>
 5    1  0.3293542E-002  0.1249961E+03  0.7818608E-02  0.1235075E+00
         -4   -1    0    0    0  501 -0.00000000000E+00  0.00000000000E+00  0.13553240038E+03  0.13553835049E+03  0.12700000000E+01 0.  1.
          4   -1    0    0  501    0  0.00000000000E+00 -0.00000000000E+00 -0.28799158419E+02  0.28827147373E+02  0.12700000000E+01 0.  1.
         25    2    1    2    0    0  0.00000000000E+00  0.00000000000E+00  0.10673324196E+03  0.16436549786E+03  0.12499612773E+03 0.  0.
    9000005    1    3    3    0    0  0.15703906507E+02 -0.20199441736E+02  0.12833550154E+03  0.13086493450E+03  0.10000000000E+01 0.  0.
    9000005    1    3    3    0    0 -0.15703906507E+02  0.20199441736E+02 -0.21602259584E+02  0.33500563356E+02  0.10000000000E+01 0.  0.
<mgrwt>
<rscale>  0 0.12499613E+03</rscale>
<asrwt>0</asrwt>
<pdfrwt beam="2">  1        4 0.44332506E-02 0.12499613E+03</pdfrwt>
<pdfrwt beam="1">  1       -4 0.20853749E-01 0.12499613E+03</pdfrwt>
<totfact> 0.96516089E+03</totfact>
</mgrwt>
</event>
<event>
 5    1  0.3293542E-002  0.1250048E+03  0.7818608E-02  0.1235062E+00
         -4   -1    0    0    0  501 -0.00000000000E+00  0.00000000000E+00  0.27143886835E+02  0.27173580782E+02  0.12700000000E+01 0. -1.
          4   -1    0    0  501    0  0.00000000000E+00 -0.00000000000E+00 -0.14380878109E+03  0.14381438878E+03  0.12700000000E+01 0. -1.
         25    2    1    2    0    0  0.00000000000E+00  0.00000000000E+00 -0.11666489426E+03  0.17098796956E+03  0.12500475264E+03 0.  0.
    9000005    1    3    3    0    0 -0.62442373474E+02 -0.20391098661E+01 -0.60424442746E+02  0.86921350975E+02  0.10000000000E+01 0.  0.
    9000005    1    3    3    0    0  0.62442373474E+02  0.20391098661E+01 -0.56240451514E+02  0.84066618586E+02  0.10000000000E+01 0.  0.
<mgrwt>
<rscale>  0 0.12500475E+03</rscale>
<asrwt>0</asrwt>
<pdfrwt beam="2">  1        4 0.22127143E-01 0.12500475E+03</pdfrwt>
<pdfrwt beam="1">  1       -4 0.41786982E-02 0.12500475E+03</pdfrwt>
<totfact> 0.95254652E+03</totfact>
</mgrwt>
</event>
<event>
 5    1  0.3293542E-002  0.1249950E+03  0.7818608E-02  0.1235077E+00
          4   -1    0    0  501    0  0.00000000000E+00  0.00000000000E+00  0.10278590924E+02  0.10356752936E+02  0.12700000000E+01 0. -1.
         -4   -1    0    0    0  501 -0.00000000000E+00 -0.00000000000E+00 -0.37848836413E+03  0.37849049484E+03  0.12700000000E+01 0. -1.
         25    2    1    2    0    0  0.00000000000E+00  0.00000000000E+00 -0.36820977321E+03  0.38884724777E+03  0.12499497996E+03 0.  0.
    9000005    1    3    3    0    0  0.26043772972E+02  0.46011299539E+02 -0.80477798594E+02  0.96296385510E+02  0.10000000000E+01 0.  0.
    9000005    1    3    3    0    0 -0.26043772972E+02 -0.46011299539E+02 -0.28773197461E+03  0.29255086226E+03  0.10000000000E+01 0.  0.
<mgrwt>
<rscale>  0 0.12499498E+03</rscale>
<asrwt>0</asrwt>
<pdfrwt beam="1">  1        4 0.15874983E-02 0.12499498E+03</pdfrwt>
<pdfrwt beam="2">  1       -4 0.58235145E-01 0.12499498E+03</pdfrwt>
<totfact> 0.65659426E+03</totfact>
</mgrwt>
</event>
<event>
 5    1  0.3293542E-002  0.1249993E+03  0.7818608E-02  0.1235070E+00
         -4   -1    0    0    0  501 -0.00000000000E+00  0.00000000000E+00  0.14162782367E+02  0.14219609853E+02  0.12700000000E+01 0.  1.
          4   -1    0    0  501    0  0.00000000000E+00 -0.00000000000E+00 -0.27519730029E+03  0.27520023072E+03  0.12700000000E+01 0.  1.
         25    2    1    2    0    0  0.00000000000E+00  0.00000000000E+00 -0.26103451792E+03  0.28941984057E+03  0.12499929827E+03 0.  0.
    9000005    1    3    3    0    0 -0.16947383690E+01 -0.42406265208E+02 -0.23672300086E+03  0.24049936092E+03  0.10000000000E+01 0.  0.
    9000005    1    3    3    0    0  0.16947383690E+01  0.42406265208E+02 -0.24311517060E+02  0.48920479646E+02  0.10000000000E+01 0.  0.
<mgrwt>
<rscale>  0 0.12499930E+03</rscale>
<asrwt>0</asrwt>
<pdfrwt beam="2">  1        4 0.42342639E-01 0.12499930E+03</pdfrwt>
<pdfrwt beam="1">  1       -4 0.21834865E-02 0.12499930E+03</pdfrwt>
<totfact> 0.76946655E+03</totfact>
</mgrwt>
</event>
<event>
 5    1  0.3293542E-002  0.1249981E+03  0.7818608E-02  0.1235072E+00
          4   -1    0    0  501    0  0.00000000000E+00  0.00000000000E+00  0.25671363027E+02  0.25702758211E+02  0.12700000000E+01 0.  1.
         -4   -1    0    0    0  501 -0.00000000000E+00 -0.00000000000E+00 -0.15203213469E+03  0.15203743907E+03  0.12700000000E+01 0.  1.
         25    2    1    2    0    0  0.00000000000E+00  0.00000000000E+00 -0.12636077166E+03  0.17774019728E+03  0.12499813244E+03 0.  0.
    9000005    1    3    3    0    0 -0.18916541432E+02  0.50929707419E+02 -0.10708740702E+03  0.12008490071E+03  0.10000000000E+01 0.  0.
    9000005    1    3    3    0    0  0.18916541432E+02 -0.50929707419E+02 -0.19273364647E+02  0.57655296568E+02  0.10000000000E+01 0.  0.
<mgrwt>
<rscale>  0 0.12499813E+03</rscale>
<asrwt>0</asrwt>
<pdfrwt beam="1">  1        4 0.39522636E-02 0.12499813E+03</pdfrwt>
<pdfrwt beam="2">  1       -4 0.23392382E-01 0.12499813E+03</pdfrwt>
<totfact> 0.94029302E+03</totfact>
</mgrwt>
</event>
<event>
 5    1  0.3293542E-002  0.1250034E+03  0.7818608E-02  0.1235064E+00
         -4   -1    0    0    0  501 -0.00000000000E+00  0.00000000000E+00  0.86765326152E+02  0.86774620265E+02  0.12700000000E+01 0.  1.
          4   -1    0    0  501    0  0.00000000000E+00 -0.00000000000E+00 -0.45002677255E+02  0.45020593734E+02  0.12700000000E+01 0.  1.
         25    2    1    2    0    0  0.00000000000E+00  0.00000000000E+00  0.41762648897E+02  0.13179521400E+03  0.12500343831E+03 0.  0.
    9000005    1    3    3    0    0  0.24162473395E+02  0.56469508416E+02  0.33032910143E+02  0.69748144447E+02  0.10000000000E+01 0.  0.
    9000005    1    3    3    0    0 -0.24162473395E+02 -0.56469508416E+02  0.87297387537E+01  0.62047069552E+02  0.10000000000E+01 0.  0.
<mgrwt>
<rscale>  0 0.12500344E+03</rscale>
<asrwt>0</asrwt>
<pdfrwt beam="2">  1        4 0.69255819E-02 0.12500344E+03</pdfrwt>
<pdfrwt beam="1">  1       -4 0.13350605E-01 0.12500344E+03</pdfrwt>
<totfact> 0.10305272E+04</totfact>
</mgrwt>
</event>
<event>
 5    1  0.3293542E-002  0.1250049E+03  0.7818608E-02  0.1235062E+00
          4   -1    0    0  501    0  0.00000000000E+00  0.00000000000E+00  0.78425232098E+02  0.78435514467E+02  0.12700000000E+01 0.  1.
         -4   -1    0    0    0  501 -0.00000000000E+00 -0.00000000000E+00 -0.49790851762E+02  0.49807045879E+02  0.12700000000E+01 0.  1.
         25    2    1    2    0    0  0.00000000000E+00  0.00000000000E+00  0.28634380336E+02  0.12824256035E+03  0.12500490609E+03 0.  0.
    9000005    1    3    3    0    0  0.40449182126E+02  0.12262827008E+01 -0.34538894021E+02  0.53212548371E+02  0.10000000000E+01 0.  0.
    9000005    1    3    3    0    0 -0.40449182126E+02 -0.12262827008E+01  0.63173274357E+02  0.75030011975E+02  0.10000000000E+01 0.  0.
<mgrwt>
<rscale>  0 0.12500491E+03</rscale>
<asrwt>0</asrwt>
<pdfrwt beam="1">  1        4 0.12067457E-01 0.12500491E+03</pdfrwt>
<pdfrwt beam="2">  1       -4 0.76621677E-02 0.12500491E+03</pdfrwt>
<totfact> 0.10381103E+04</totfact>
</mgrwt>
</event>
<event>
 5    1  0.3293542E-002  0.1249702E+03  0.7818608E-02  0.1235116E+00
         -4   -1    0    0    0  501 -0.00000000000E+00  0.00000000000E+00  0.23748409346E+03  0.23748748924E+03  0.12700000000E+01 0. -1.
          4   -1    0    0  501    0  0.00000000000E+00 -0.00000000000E+00 -0.16412572901E+02  0.16461635679E+02  0.12700000000E+01 0. -1.
         25    2    1    2    0    0  0.00000000000E+00  0.00000000000E+00  0.22107152056E+03  0.25394912492E+03  0.12497015982E+03 0.  0.
    9000005    1    3    3    0    0 -0.20803706128E+02 -0.27854190792E+02  0.21602263687E+03  0.21880454697E+03  0.10000000000E+01 0.  0.
    9000005    1    3    3    0    0  0.20803706128E+02  0.27854190792E+02  0.50488836937E+01  0.35144577959E+02  0.10000000000E+01 0.  0.
<mgrwt>
<rscale>  0 0.12497016E+03</rscale>
<asrwt>0</asrwt>
<pdfrwt beam="2">  1        4 0.25290466E-02 0.12497016E+03</pdfrwt>
<pdfrwt beam="1">  1       -4 0.36540048E-01 0.12497016E+03</pdfrwt>
<totfact> 0.81817144E+03</totfact>
</mgrwt>
</event>
<event>
 5    1  0.3293542E-002  0.1249981E+03  0.7818608E-02  0.1235072E+00
         -4   -1    0    0    0  501 -0.00000000000E+00  0.00000000000E+00  0.99584499454E+02  0.99592597273E+02  0.12700000000E+01 0.  1.
          4   -1    0    0  501    0  0.00000000000E+00 -0.00000000000E+00 -0.39204322511E+02  0.39224887553E+02  0.12700000000E+01 0.  1.
         25    2    1    2    0    0  0.00000000000E+00  0.00000000000E+00  0.60380176943E+02  0.13881748483E+03  0.12499811329E+03 0.  0.
    9000005    1    3    3    0    0 -0.17615447992E+02 -0.18787639076E+02 -0.33041974617E+02  0.41905267886E+02  0.10000000000E+01 0.  0.
    9000005    1    3    3    0    0  0.17615447992E+02  0.18787639076E+02  0.93422151560E+02  0.96912216940E+02  0.10000000000E+01 0.  0.
<mgrwt>
<rscale>  0 0.12499811E+03</rscale>
<asrwt>0</asrwt>
<pdfrwt beam="2">  1        4 0.60336390E-02 0.12499811E+03</pdfrwt>
<pdfrwt beam="1">  1       -4 0.15322897E-01 0.12499811E+03</pdfrwt>
<totfact> 0.10158585E+04</totfact>
</mgrwt>
</event>
<event>
 5    1  0.3293542E-002  0.1249986E+03  0.7818608E-02  0.1235071E+00
          4   -1    0    0  501    0  0.00000000000E+00  0.00000000000E+00  0.52655709169E+02  0.52671022470E+02  0.12700000000E+01 0.  1.
         -4   -1    0    0    0  501 -0.00000000000E+00 -0.00000000000E+00 -0.74151520709E+02  0.74162395616E+02  0.12700000000E+01 0.  1.
         25    2    1    2    0    0  0.00000000000E+00  0.00000000000E+00 -0.21495811541E+02  0.12683341809E+03  0.12499858411E+03 0.  0.
    9000005    1    3    3    0    0 -0.15742333289E+02  0.41519435500E+02 -0.55364673001E+02  0.70978388247E+02  0.10000000000E+01 0.  0.
    9000005    1    3    3    0    0  0.15742333289E+02 -0.41519435500E+02  0.33868861461E+02  0.55855029839E+02  0.10000000000E+01 0.  0.
<mgrwt>
<rscale>  0 0.12499858E+03</rscale>
<asrwt>0</asrwt>
<pdfrwt beam="1">  1        4 0.81028928E-02 0.12499858E+03</pdfrwt>
<pdfrwt beam="2">  1       -4 0.11409941E-01 0.12499858E+03</pdfrwt>
<totfact> 0.10413100E+04</totfact>
</mgrwt>
</event>
<event>
 5    1  0.3293542E-002  0.1249961E+03  0.7818608E-02  0.1235075E+00
          4   -1    0    0  501    0  0.00000000000E+00  0.00000000000E+00  0.29175807057E+02  0.29203435027E+02  0.12700000000E+01 0. -1.
         -4   -1    0    0    0  501 -0.00000000000E+00 -0.00000000000E+00 -0.13378422523E+03  0.13379025308E+03  0.12700000000E+01 0. -1.
         25    2    1    2    0    0  0.00000000000E+00  0.00000000000E+00 -0.10460841817E+03  0.16299368811E+03  0.12499608478E+03 0.  0.
    9000005    1    3    3    0    0 -0.47103427338E+02 -0.12061869580E+02 -0.10348950518E+03  0.11434727477E+03  0.10000000000E+01 0.  0.
    9000005    1    3    3    0    0  0.47103427338E+02  0.12061869580E+02 -0.11189129936E+01  0.48646413342E+02  0.10000000000E+01 0.  0.
<mgrwt>
<rscale>  0 0.12499608E+03</rscale>
<asrwt>0</asrwt>
<pdfrwt beam="1">  1        4 0.44911747E-02 0.12499608E+03</pdfrwt>
<pdfrwt beam="2">  1       -4 0.20584777E-01 0.12499608E+03</pdfrwt>
<totfact> 0.96777224E+03</totfact>
</mgrwt>
</event>
<event>
 5    1  0.3293542E-002  0.1249992E+03  0.7818608E-02  0.1235070E+00
         -4   -1    0    0    0  501 -0.00000000000E+00  0.00000000000E+00  0.23859149319E+03  0.23859487321E+03  0.12700000000E+01 0. -1.
          4   -1    0    0  501    0  0.00000000000E+00 -0.00000000000E+00 -0.16343794785E+02  0.16393063411E+02  0.12700000000E+01 0. -1.
         25    2    1    2    0    0  0.00000000000E+00  0.00000000000E+00  0.22224769841E+03  0.25498793662E+03  0.12499923350E+03 0.  0.
    9000005    1    3    3    0    0  0.35542951414E+02  0.51347165886E+02  0.11585067146E+03  0.13161387054E+03  0.10000000000E+01 0.  0.
    9000005    1    3    3    0    0 -0.35542951414E+02 -0.51347165886E+02  0.10639702694E+03  0.12337406608E+03  0.10000000000E+01 0.  0.
<mgrwt>
<rscale>  0 0.12499923E+03</rscale>
<asrwt>0</asrwt>
<pdfrwt beam="2">  1        4 0.25184800E-02 0.12499923E+03</pdfrwt>
<pdfrwt beam="1">  1       -4 0.36710432E-01 0.12499923E+03</pdfrwt>
<totfact> 0.81616012E+03</totfact>
</mgrwt>
</event>
<event>
 5    1  0.3293542E-002  0.1249992E+03  0.7818608E-02  0.1235071E+00
         -4   -1    0    0    0  501 -0.00000000000E+00  0.00000000000E+00  0.29362902606E+03  0.29363177254E+03  0.12700000000E+01 0.  1.
          4   -1    0    0  501    0  0.00000000000E+00 -0.00000000000E+00 -0.13270055687E+02  0.13330689327E+02  0.12700000000E+01 0.  1.
         25    2    1    2    0    0  0.00000000000E+00  0.00000000000E+00  0.28035897038E+03  0.30696246187E+03  0.12499920290E+03 0.  0.
    9000005    1    3    3    0    0 -0.15406444702E+02 -0.27877112131E+02  0.81471946620E+01  0.32891772527E+02  0.10000000000E+01 0.  0.
    9000005    1    3    3    0    0  0.15406444702E+02  0.27877112131E+02  0.27221177571E+03  0.27407068934E+03  0.10000000000E+01 0.  0.
<mgrwt>
<rscale>  0 0.12499920E+03</rscale>
<asrwt>0</asrwt>
<pdfrwt beam="2">  1        4 0.20464224E-02 0.12499920E+03</pdfrwt>
<pdfrwt beam="1">  1       -4 0.45178572E-01 0.12499920E+03</pdfrwt>
<totfact> 0.74735018E+03</totfact>
</mgrwt>
</event>
<event>
 5    1  0.3293542E-002  0.1249992E+03  0.7818608E-02  0.1235070E+00
          4   -1    0    0  501    0  0.00000000000E+00  0.00000000000E+00  0.21168816848E+03  0.21169197806E+03  0.12700000000E+01 0.  1.
         -4   -1    0    0    0  501 -0.00000000000E+00 -0.00000000000E+00 -0.18426790882E+02  0.18470504114E+02  0.12700000000E+01 0.  1.
         25    2    1    2    0    0  0.00000000000E+00  0.00000000000E+00  0.19326137760E+03  0.23016248217E+03  0.12499923251E+03 0.  0.
    9000005    1    3    3    0    0  0.12412430282E+02 -0.41090507316E+02  0.13003861212E+02  0.44861995312E+02  0.10000000000E+01 0.  0.
    9000005    1    3    3    0    0 -0.12412430282E+02  0.41090507316E+02  0.18025751638E+03  0.18530048686E+03  0.10000000000E+01 0.  0.
<mgrwt>
<rscale>  0 0.12499923E+03</rscale>
<asrwt>0</asrwt>
<pdfrwt beam="1">  1        4 0.32571065E-01 0.12499923E+03</pdfrwt>
<pdfrwt beam="2">  1       -4 0.28385466E-02 0.12499923E+03</pdfrwt>
<totfact> 0.85286115E+03</totfact>
</mgrwt>
</event>
<event>
 5    1  0.3293542E-002  0.1249987E+03  0.7818608E-02  0.1235071E+00
         -4   -1    0    0    0  501 -0.00000000000E+00  0.00000000000E+00  0.11634488574E+04  0.11634495505E+04  0.12700000000E+01 0. -1.
          4   -1    0    0  501    0  0.00000000000E+00 -0.00000000000E+00 -0.32365870051E+01  0.34768369880E+01  0.12700000000E+01 0. -1.
         25    2    1    2    0    0  0.00000000000E+00  0.00000000000E+00  0.11602122704E+04  0.11669263875E+04  0.12499872626E+03 0.  0.
    9000005    1    3    3    0    0 -0.26282601352E+02 -0.27525801760E+02  0.11738835325E+03  0.12340774034E+03  0.10000000000E+01 0.  0.
    9000005    1    3    3    0    0  0.26282601352E+02  0.27525801760E+02  0.10428239171E+04  0.10435186472E+04  0.10000000000E+01 0.  0.
<mgrwt>
<rscale>  0 0.12499873E+03</rscale>
<asrwt>0</asrwt>
<pdfrwt beam="2">  1        4 0.51646966E-03 0.12499873E+03</pdfrwt>
<pdfrwt beam="1">  1       -4 0.17901098E+00 0.12499873E+03</pdfrwt>
<totfact> 0.25595885E+03</totfact>
</mgrwt>
</event>
<event>
 5    1  0.3293542E-002  0.1250024E+03  0.7818608E-02  0.1235066E+00
         -4   -1    0    0    0  501 -0.00000000000E+00  0.00000000000E+00  0.31578949003E+03  0.31579204378E+03  0.12700000000E+01 0. -1.
          4   -1    0    0  501    0  0.00000000000E+00 -0.00000000000E+00 -0.12335060430E+02  0.12400266763E+02  0.12700000000E+01 0. -1.
         25    2    1    2    0    0  0.00000000000E+00  0.00000000000E+00  0.30345442960E+03  0.32819231054E+03  0.12500240739E+03 0.  0.
    9000005    1    3    3    0    0  0.32808537075E+02  0.46845870071E+02  0.85594889086E+02  0.10294863129E+03  0.10000000000E+01 0.  0.
    9000005    1    3    3    0    0 -0.32808537075E+02 -0.46845870071E+02  0.21785954051E+03  0.22524367925E+03  0.10000000000E+01 0.  0.
<mgrwt>
<rscale>  0 0.12500241E+03</rscale>
<asrwt>0</asrwt>
<pdfrwt beam="2">  1        4 0.19029143E-02 0.12500241E+03</pdfrwt>
<pdfrwt beam="1">  1       -4 0.48588202E-01 0.12500241E+03</pdfrwt>
<totfact> 0.72188391E+03</totfact>
</mgrwt>
</event>
<event>
 5    1  0.3293542E-002  0.1249979E+03  0.7818608E-02  0.1235073E+00
          4   -1    0    0  501    0  0.00000000000E+00  0.00000000000E+00  0.12914343028E+03  0.12914967474E+03  0.12700000000E+01 0. -1.
         -4   -1    0    0    0  501 -0.00000000000E+00 -0.00000000000E+00 -0.30226056690E+02  0.30252725547E+02  0.12700000000E+01 0. -1.
         25    2    1    2    0    0  0.00000000000E+00  0.00000000000E+00  0.98917373592E+02  0.15940240029E+03  0.12499791366E+03 0.  0.
    9000005    1    3    3    0    0  0.48363369760E+02  0.13587966071E+02  0.20603592566E+01  0.50288104327E+02  0.10000000000E+01 0.  0.
    9000005    1    3    3    0    0 -0.48363369760E+02 -0.13587966071E+02  0.96857014336E+02  0.10911429596E+03  0.10000000000E+01 0.  0.
<mgrwt>
<rscale>  0 0.12499791E+03</rscale>
<asrwt>0</asrwt>
<pdfrwt beam="1">  1        4 0.19870751E-01 0.12499791E+03</pdfrwt>
<pdfrwt beam="2">  1       -4 0.46526945E-02 0.12499791E+03</pdfrwt>
<totfact> 0.97462692E+03</totfact>
</mgrwt>
</event>
<event>
 5    1  0.3293542E-002  0.1250004E+03  0.7818608E-02  0.1235069E+00
         -4   -1    0    0    0  501 -0.00000000000E+00  0.00000000000E+00  0.62947241122E+03  0.62947369237E+03  0.12700000000E+01 0.  1.
          4   -1    0    0  501    0  0.00000000000E+00 -0.00000000000E+00 -0.61393559285E+01  0.62693373826E+01  0.12700000000E+01 0.  1.
         25    2    1    2    0    0  0.00000000000E+00  0.00000000000E+00  0.62333305529E+03  0.63574302975E+03  0.12500040824E+03 0.  0.
    9000005    1    3    3    0    0 -0.56412004533E+02 -0.24660513970E+02  0.36616439838E+03  0.37130556399E+03  0.10000000000E+01 0.  0.
    9000005    1    3    3    0    0  0.56412004533E+02  0.24660513970E+02  0.25716865691E+03  0.26443746576E+03  0.10000000000E+01 0.  0.
<mgrwt>
<rscale>  0 0.12500041E+03</rscale>
<asrwt>0</asrwt>
<pdfrwt beam="2">  1        4 0.95461363E-03 0.12500041E+03</pdfrwt>
<pdfrwt beam="1">  1       -4 0.96851985E-01 0.12500041E+03</pdfrwt>
<totfact> 0.46686027E+03</totfact>
</mgrwt>
</event>
<event>
 5    1  0.3293542E-002  0.1250022E+03  0.7818608E-02  0.1235066E+00
         -4   -1    0    0    0  501 -0.00000000000E+00  0.00000000000E+00  0.27107382405E+02  0.27137116296E+02  0.12700000000E+01 0. -1.
          4   -1    0    0  501    0  0.00000000000E+00 -0.00000000000E+00 -0.14399626944E+03  0.14400186982E+03  0.12700000000E+01 0. -1.
         25    2    1    2    0    0  0.00000000000E+00  0.00000000000E+00 -0.11688888703E+03  0.17113898612E+03  0.12500216261E+03 0.  0.
    9000005    1    3    3    0    0  0.55635562766E+02 -0.24642265758E+02 -0.38946202029E+02  0.72252084803E+02  0.10000000000E+01 0.  0.
    9000005    1    3    3    0    0 -0.55635562766E+02  0.24642265758E+02 -0.77942685001E+02  0.98886901312E+02  0.10000000000E+01 0.  0.
<mgrwt>
<rscale>  0 0.12500216E+03</rscale>
<asrwt>0</asrwt>
<pdfrwt beam="2">  1        4 0.22155990E-01 0.12500216E+03</pdfrwt>
<pdfrwt beam="1">  1       -4 0.41730846E-02 0.12500216E+03</pdfrwt>
<totfact> 0.95232148E+03</totfact>
</mgrwt>
</event>
<event>
 5    1  0.3293542E-002  0.1249992E+03  0.7818608E-02  0.1235071E+00
          4   -1    0    0  501    0  0.00000000000E+00  0.00000000000E+00  0.29528031430E+02  0.29555330148E+02  0.12700000000E+01 0.  1.
         -4   -1    0    0    0  501 -0.00000000000E+00 -0.00000000000E+00 -0.13219640684E+03  0.13220250709E+03  0.12700000000E+01 0.  1.
         25    2    1    2    0    0  0.00000000000E+00  0.00000000000E+00 -0.10266837540E+03  0.16175783724E+03  0.12499921039E+03 0.  0.
    9000005    1    3    3    0    0  0.57386140526E+02  0.24733131117E+02 -0.50620979207E+02  0.80426242204E+02  0.10000000000E+01 0.  0.
    9000005    1    3    3    0    0 -0.57386140526E+02 -0.24733131117E+02 -0.52047396198E+02  0.81331595031E+02  0.10000000000E+01 0.  0.
<mgrwt>
<rscale>  0 0.12499921E+03</rscale>
<asrwt>0</asrwt>
<pdfrwt beam="1">  1        4 0.45453433E-02 0.12499921E+03</pdfrwt>
<pdfrwt beam="2">  1       -4 0.20340478E-01 0.12499921E+03</pdfrwt>
<totfact> 0.97006676E+03</totfact>
</mgrwt>
</event>
<event>
 5    1  0.3293542E-002  0.1249995E+03  0.7818608E-02  0.1235070E+00
          4   -1    0    0  501    0  0.00000000000E+00  0.00000000000E+00  0.11523551168E+02  0.11593322713E+02  0.12700000000E+01 0.  1.
         -4   -1    0    0    0  501 -0.00000000000E+00 -0.00000000000E+00 -0.33788309398E+03  0.33788548074E+03  0.12700000000E+01 0.  1.
         25    2    1    2    0    0  0.00000000000E+00  0.00000000000E+00 -0.32635954281E+03  0.34947880345E+03  0.12499953152E+03 0.  0.
    9000005    1    3    3    0    0 -0.15156613729E+02 -0.59360478670E+02 -0.12872945737E+03  0.14256809798E+03  0.10000000000E+01 0.  0.
    9000005    1    3    3    0    0  0.15156613729E+02  0.59360478670E+02 -0.19763008544E+03  0.20691070547E+03  0.10000000000E+01 0.  0.
<mgrwt>
<rscale>  0 0.12499953E+03</rscale>
<asrwt>0</asrwt>
<pdfrwt beam="1">  1        4 0.17784049E-02 0.12499953E+03</pdfrwt>
<pdfrwt beam="2">  1       -4 0.51987558E-01 0.12499953E+03</pdfrwt>
<totfact> 0.69782659E+03</totfact>
</mgrwt>
</event>
<event>
 5    1  0.3293542E-002  0.1250008E+03  0.7818608E-02  0.1235068E+00
         -4   -1    0    0    0  501 -0.00000000000E+00  0.00000000000E+00  0.14345707929E+02  0.14401813636E+02  0.12700000000E+01 0.  1.
          4   -1    0    0  501    0  0.00000000000E+00 -0.00000000000E+00 -0.27170858988E+03  0.27171155794E+03  0.12700000000E+01 0.  1.
         25    2    1    2    0    0  0.00000000000E+00  0.00000000000E+00 -0.25736288195E+03  0.28611337157E+03  0.12500083354E+03 0.  0.
    9000005    1    3    3    0    0  0.18376263683E+02 -0.94064936041E+01  0.63269483110E+01  0.21614797334E+02  0.10000000000E+01 0.  0.
    9000005    1    3    3    0    0 -0.18376263683E+02  0.94064936041E+01 -0.26368983026E+03  0.26449857424E+03  0.10000000000E+01 0.  0.
<mgrwt>
<rscale>  0 0.12500083E+03</rscale>
<asrwt>0</asrwt>
<pdfrwt beam="2">  1        4 0.41805862E-01 0.12500083E+03</pdfrwt>
<pdfrwt beam="1">  1       -4 0.22115763E-02 0.12500083E+03</pdfrwt>
<totfact> 0.77373006E+03</totfact>
</mgrwt>
</event>
<event>
 5    1  0.3293542E-002  0.1249979E+03  0.7818608E-02  0.1235073E+00
          4   -1    0    0  501    0  0.00000000000E+00  0.00000000000E+00  0.76586056360E+03  0.76586161660E+03  0.12700000000E+01 0.  1.
         -4   -1    0    0    0  501 -0.00000000000E+00 -0.00000000000E+00 -0.50201675750E+01  0.51783184994E+01  0.12700000000E+01 0.  1.
         25    2    1    2    0    0  0.00000000000E+00  0.00000000000E+00  0.76084039603E+03  0.77103993510E+03  0.12499789315E+03 0.  0.
    9000005    1    3    3    0    0  0.53488348527E+02  0.26972967875E+02  0.49017201826E+03  0.49381995900E+03  0.10000000000E+01 0.  0.
    9000005    1    3    3    0    0 -0.53488348527E+02 -0.26972967875E+02  0.27066837777E+03  0.27721997610E+03  0.10000000000E+01 0.  0.
<mgrwt>
<rscale>  0 0.12499789E+03</rscale>
<asrwt>0</asrwt>
<pdfrwt beam="1">  1        4 0.11783688E+00 0.12499789E+03</pdfrwt>
<pdfrwt beam="2">  1       -4 0.78458035E-03 0.12499789E+03</pdfrwt>
<totfact> 0.39589273E+03</totfact>
</mgrwt>
</event>
<event>
 5    1  0.3293542E-002  0.1250148E+03  0.7818608E-02  0.1235046E+00
         -4   -1    0    0    0  501 -0.00000000000E+00  0.00000000000E+00  0.25003414404E+02  0.25035647222E+02  0.12700000000E+01 0.  1.
          4   -1    0    0  501    0  0.00000000000E+00 -0.00000000000E+00 -0.15613026548E+03  0.15613543063E+03  0.12700000000E+01 0.  1.
         25    2    1    2    0    0  0.00000000000E+00  0.00000000000E+00 -0.13112685108E+03  0.18117107785E+03  0.12501483263E+03 0.  0.
    9000005    1    3    3    0    0 -0.13404428809E+02  0.59459462037E+02 -0.45531419776E+02  0.76086901135E+02  0.10000000000E+01 0.  0.
    9000005    1    3    3    0    0  0.13404428809E+02 -0.59459462037E+02 -0.85595431300E+02  0.10508417672E+03  0.10000000000E+01 0.  0.
<mgrwt>
<rscale>  0 0.12501483E+03</rscale>
<asrwt>0</asrwt>
<pdfrwt beam="2">  1        4 0.24022917E-01 0.12501483E+03</pdfrwt>
<pdfrwt beam="1">  1       -4 0.38495560E-02 0.12501483E+03</pdfrwt>
<totfact> 0.93375575E+03</totfact>
</mgrwt>
</event>
<event>
 5    1  0.3293542E-002  0.1249902E+03  0.7818608E-02  0.1235085E+00
         -4   -1    0    0    0  501 -0.00000000000E+00  0.00000000000E+00  0.67263464722E+01  0.68451907836E+01  0.12700000000E+01 0. -1.
          4   -1    0    0  501    0  0.00000000000E+00 -0.00000000000E+00 -0.57544362047E+03  0.57544502191E+03  0.12700000000E+01 0. -1.
         25    2    1    2    0    0  0.00000000000E+00  0.00000000000E+00 -0.56871727400E+03  0.58229021270E+03  0.12499021583E+03 0.  0.
    9000005    1    3    3    0    0 -0.30873903046E+02 -0.34759495476E+02 -0.89849800728E+02  0.10117018882E+03  0.10000000000E+01 0.  0.
    9000005    1    3    3    0    0  0.30873903046E+02  0.34759495476E+02 -0.47886747327E+03  0.48112002388E+03  0.10000000000E+01 0.  0.
<mgrwt>
<rscale>  0 0.12499022E+03</rscale>
<asrwt>0</asrwt>
<pdfrwt beam="2">  1        4 0.88538999E-01 0.12499022E+03</pdfrwt>
<pdfrwt beam="1">  1       -4 0.10440727E-02 0.12499022E+03</pdfrwt>
<totfact> 0.50015681E+03</totfact>
</mgrwt>
</event>
<event>
 5    1  0.3293542E-002  0.1250007E+03  0.7818608E-02  0.1235068E+00
         -4   -1    0    0    0  501 -0.00000000000E+00  0.00000000000E+00  0.29218220694E+02  0.29245808597E+02  0.12700000000E+01 0.  1.
          4   -1    0    0  501    0  0.00000000000E+00 -0.00000000000E+00 -0.13360006013E+03  0.13360609629E+03  0.12700000000E+01 0.  1.
         25    2    1    2    0    0  0.00000000000E+00  0.00000000000E+00 -0.10438183943E+03  0.16285190489E+03  0.12500069809E+03 0.  0.
    9000005    1    3    3    0    0 -0.18713322222E+01 -0.62397441245E+02 -0.48426036346E+02  0.79012806268E+02  0.10000000000E+01 0.  0.
    9000005    1    3    3    0    0  0.18713322222E+01  0.62397441245E+02 -0.55955803088E+02  0.83839098620E+02  0.10000000000E+01 0.  0.
<mgrwt>
<rscale>  0 0.12500070E+03</rscale>
<asrwt>0</asrwt>
<pdfrwt beam="2">  1        4 0.20556442E-01 0.12500070E+03</pdfrwt>
<pdfrwt beam="1">  1       -4 0.44976974E-02 0.12500070E+03</pdfrwt>
<totfact> 0.96794243E+03</totfact>
</mgrwt>
</event>
<event>
 5    1  0.3293542E-002  0.1250010E+03  0.7818608E-02  0.1235068E+00
         -4   -1    0    0    0  501 -0.00000000000E+00  0.00000000000E+00  0.41768234837E+03  0.41768427914E+03  0.12700000000E+01 0. -1.
          4   -1    0    0  501    0  0.00000000000E+00 -0.00000000000E+00 -0.93072755471E+01  0.93935232001E+01  0.12700000000E+01 0. -1.
         25    2    1    2    0    0  0.00000000000E+00  0.00000000000E+00  0.40837507282E+03  0.42707780234E+03  0.12500099659E+03 0.  0.
    9000005    1    3    3    0    0  0.17722268497E+02  0.45122870219E+02  0.33892273665E+03  0.34237373386E+03  0.10000000000E+01 0.  0.
    9000005    1    3    3    0    0 -0.17722268497E+02 -0.45122870219E+02  0.69452336175E+02  0.84704068483E+02  0.10000000000E+01 0.  0.
<mgrwt>
<rscale>  0 0.12500100E+03</rscale>
<asrwt>0</asrwt>
<pdfrwt beam="2">  1        4 0.14386716E-02 0.12500100E+03</pdfrwt>
<pdfrwt beam="1">  1       -4 0.64265602E-01 0.12500100E+03</pdfrwt>
<totfact> 0.62000405E+03</totfact>
</mgrwt>
</event>
<event>
 5    1  0.3293542E-002  0.1250552E+03  0.7818608E-02  0.1234983E+00
          4   -1    0    0  501    0  0.00000000000E+00  0.00000000000E+00  0.12560896412E+03  0.12561538428E+03  0.12700000000E+01 0. -1.
         -4   -1    0    0    0  501 -0.00000000000E+00 -0.00000000000E+00 -0.31105812375E+02  0.31131727603E+02  0.12700000000E+01 0. -1.
         25    2    1    2    0    0  0.00000000000E+00  0.00000000000E+00  0.94503151744E+02  0.15674711188E+03  0.12505523337E+03 0.  0.
    9000005    1    3    3    0    0 -0.60120561772E+02  0.14507760243E+02  0.35781159658E+02  0.71458018735E+02  0.10000000000E+01 0.  0.
    9000005    1    3    3    0    0  0.60120561772E+02 -0.14507760243E+02  0.58721992086E+02  0.85289093145E+02  0.10000000000E+01 0.  0.
<mgrwt>
<rscale>  0 0.12505523E+03</rscale>
<asrwt>0</asrwt>
<pdfrwt beam="1">  1        4 0.19326943E-01 0.12505523E+03</pdfrwt>
<pdfrwt beam="2">  1       -4 0.47879970E-02 0.12505523E+03</pdfrwt>
<totfact> 0.97852028E+03</totfact>
</mgrwt>
</event>
<event>
 5    1  0.3293542E-002  0.1250033E+03  0.7818608E-02  0.1235064E+00
          4   -1    0    0  501    0  0.00000000000E+00  0.00000000000E+00  0.34713965057E+03  0.34714197369E+03  0.12700000000E+01 0. -1.
         -4   -1    0    0    0  501 -0.00000000000E+00 -0.00000000000E+00 -0.11215060863E+02  0.11286739572E+02  0.12700000000E+01 0. -1.
         25    2    1    2    0    0  0.00000000000E+00  0.00000000000E+00  0.33592458971E+03  0.35842871326E+03  0.12500325004E+03 0.  0.
    9000005    1    3    3    0    0 -0.15967698523E+02  0.51483275506E+02  0.25863412567E+03  0.26419331182E+03  0.10000000000E+01 0.  0.
    9000005    1    3    3    0    0  0.15967698523E+02 -0.51483275506E+02  0.77290464043E+02  0.94235401442E+02  0.10000000000E+01 0.  0.
<mgrwt>
<rscale>  0 0.12500325E+03</rscale>
<asrwt>0</asrwt>
<pdfrwt beam="1">  1        4 0.53411787E-01 0.12500325E+03</pdfrwt>
<pdfrwt beam="2">  1       -4 0.17310866E-02 0.12500325E+03</pdfrwt>
<totfact> 0.68802196E+03</totfact>
</mgrwt>
</event>
<event>
 5    1  0.3293542E-002  0.1249995E+03  0.7818608E-02  0.1235070E+00
         -4   -1    0    0    0  501 -0.00000000000E+00  0.00000000000E+00  0.96878999187E+02  0.96887323131E+02  0.12700000000E+01 0.  1.
          4   -1    0    0  501    0  0.00000000000E+00 -0.00000000000E+00 -0.40300521239E+02  0.40320527180E+02  0.12700000000E+01 0.  1.
         25    2    1    2    0    0  0.00000000000E+00  0.00000000000E+00  0.56578477949E+02  0.13720785031E+03  0.12499948008E+03 0.  0.
    9000005    1    3    3    0    0  0.48368885758E+02  0.31538006482E+02  0.20592939533E+01  0.57787850401E+02  0.10000000000E+01 0.  0.
    9000005    1    3    3    0    0 -0.48368885758E+02 -0.31538006482E+02  0.54519183995E+02  0.79419999911E+02  0.10000000000E+01 0.  0.
<mgrwt>
<rscale>  0 0.12499948E+03</rscale>
<asrwt>0</asrwt>
<pdfrwt beam="2">  1        4 0.62022594E-02 0.12499948E+03</pdfrwt>
<pdfrwt beam="1">  1       -4 0.14906641E-01 0.12499948E+03</pdfrwt>
<totfact> 0.10191861E+04</totfact>
</mgrwt>
</event>
<event>
 4    1  0.3293542E-002  0.1248627E+03  0.7818608E-02  0.1235284E+00
          4   -1    0    0  501    0  0.00000000000E+00  0.00000000000E+00  0.65357532334E+02  0.65369870221E+02  0.12700000000E+01 0. -1.
         -4   -1    0    0    0  501 -0.00000000000E+00 -0.00000000000E+00 -0.59611401086E+02  0.59624928003E+02  0.12700000000E+01 0. -1.
    9000005    1    1    2    0    0  0.42503957632E+02 -0.65340460383E+01 -0.42422918647E+02  0.60415099094E+02  0.10000000000E+01 0.  0.
    9000005    1    1    2    0    0 -0.42503957632E+02  0.65340460383E+01  0.48169049895E+02  0.64579699131E+02  0.10000000000E+01 0.  0.
<mgrwt>
<rscale>  0 0.12486265E+03</rscale>
<asrwt>0</asrwt>
<pdfrwt beam="1">  1        4 0.10056995E-01 0.12486265E+03</pdfrwt>
<pdfrwt beam="2">  1       -4 0.91729744E-02 0.12486265E+03</pdfrwt>
<totfact> 0.10485490E+04</totfact>
</mgrwt>
</event>
<event>
 5    1  0.3293542E-002  0.1249967E+03  0.7818608E-02  0.1235074E+00
          4   -1    0    0  501    0  0.00000000000E+00  0.00000000000E+00  0.82029254973E+01  0.83006558003E+01  0.12700000000E+01 0.  1.
         -4   -1    0    0    0  501 -0.00000000000E+00 -0.00000000000E+00 -0.47325875793E+03  0.47326046197E+03  0.12700000000E+01 0.  1.
         25    2    1    2    0    0  0.00000000000E+00  0.00000000000E+00 -0.46505583244E+03  0.48156111777E+03  0.12499673140E+03 0.  0.
    9000005    1    3    3    0    0 -0.34845387230E+02  0.58062631062E+01 -0.43111880667E+03  0.43256483811E+03  0.10000000000E+01 0.  0.
    9000005    1    3    3    0    0  0.34845387230E+02 -0.58062631062E+01 -0.33937025761E+02  0.48996279654E+02  0.10000000000E+01 0.  0.
<mgrwt>
<rscale>  0 0.12499673E+03</rscale>
<asrwt>0</asrwt>
<pdfrwt beam="1">  1        4 0.12696377E-02 0.12499673E+03</pdfrwt>
<pdfrwt beam="2">  1       -4 0.72816668E-01 0.12499673E+03</pdfrwt>
<totfact> 0.57328058E+03</totfact>
</mgrwt>
</event>
<event>
 5    1  0.3293542E-002  0.1250058E+03  0.7818608E-02  0.1235060E+00
         -4   -1    0    0    0  501 -0.00000000000E+00  0.00000000000E+00  0.69479004282E+02  0.69490610416E+02  0.12700000000E+01 0. -1.
          4   -1    0    0  501    0  0.00000000000E+00 -0.00000000000E+00 -0.56203721740E+02  0.56218068603E+02  0.12700000000E+01 0. -1.
         25    2    1    2    0    0  0.00000000000E+00  0.00000000000E+00  0.13275282542E+02  0.12570867902E+03  0.12500575528E+03 0.  0.
    9000005    1    3    3    0    0 -0.51050129981E+02 -0.31352369634E+02 -0.11253489719E+02  0.60964972596E+02  0.10000000000E+01 0.  0.
    9000005    1    3    3    0    0  0.51050129981E+02  0.31352369634E+02  0.24528772260E+02  0.64743706423E+02  0.10000000000E+01 0.  0.
<mgrwt>
<rscale>  0 0.12500576E+03</rscale>
<asrwt>0</asrwt>
<pdfrwt beam="2">  1        4 0.86487228E-02 0.12500576E+03</pdfrwt>
<pdfrwt beam="1">  1       -4 0.10691074E-01 0.12500576E+03</pdfrwt>
<totfact> 0.10435998E+04</totfact>
</mgrwt>
</event>
<event>
 5    1  0.3293542E-002  0.1250112E+03  0.7818608E-02  0.1235052E+00
         -4   -1    0    0    0  501 -0.00000000000E+00  0.00000000000E+00  0.38029711015E+02  0.38050910895E+02  0.12700000000E+01 0.  1.
          4   -1    0    0  501    0  0.00000000000E+00 -0.00000000000E+00 -0.10268035448E+03  0.10268820817E+03  0.12700000000E+01 0.  1.
         25    2    1    2    0    0  0.00000000000E+00  0.00000000000E+00 -0.64650643466E+02  0.14073911906E+03  0.12501117523E+03 0.  0.
    9000005    1    3    3    0    0 -0.47993738262E+02  0.38208025628E+02 -0.45773777550E+02  0.76547311161E+02  0.10000000000E+01 0.  0.
    9000005    1    3    3    0    0  0.47993738262E+02 -0.38208025628E+02 -0.18876865916E+02  0.64191807900E+02  0.10000000000E+01 0.  0.
<mgrwt>
<rscale>  0 0.12501118E+03</rscale>
<asrwt>0</asrwt>
<pdfrwt beam="2">  1        4 0.15799212E-01 0.12501118E+03</pdfrwt>
<pdfrwt beam="1">  1       -4 0.58529597E-02 0.12501118E+03</pdfrwt>
<totfact> 0.10115743E+04</totfact>
</mgrwt>
</event>
<event>
 5    1  0.3293542E-002  0.1250088E+03  0.7818608E-02  0.1235056E+00
          4   -1    0    0  501    0  0.00000000000E+00  0.00000000000E+00  0.12969405673E+02  0.13031438275E+02  0.12700000000E+01 0.  1.
         -4   -1    0    0    0  501 -0.00000000000E+00 -0.00000000000E+00 -0.30044992337E+03  0.30045260750E+03  0.12700000000E+01 0.  1.
         25    2    1    2    0    0  0.00000000000E+00  0.00000000000E+00 -0.28748051770E+03  0.31348404578E+03  0.12500879529E+03 0.  0.
    9000005    1    3    3    0    0 -0.36506957587E+02 -0.32021490034E+02 -0.45086534127E+02  0.66271632965E+02  0.10000000000E+01 0.  0.
    9000005    1    3    3    0    0  0.36506957587E+02  0.32021490034E+02 -0.24239398357E+03  0.24721241281E+03  0.10000000000E+01 0.  0.
<mgrwt>
<rscale>  0 0.12500880E+03</rscale>
<asrwt>0</asrwt>
<pdfrwt beam="1">  1        4 0.20002716E-02 0.12500880E+03</pdfrwt>
<pdfrwt beam="2">  1       -4 0.46228038E-01 0.12500880E+03</pdfrwt>
<totfact> 0.73923456E+03</totfact>
</mgrwt>
</event>
<event>
 5    1  0.3293542E-002  0.1249989E+03  0.7818608E-02  0.1235071E+00
          4   -1    0    0  501    0  0.00000000000E+00  0.00000000000E+00  0.25427838845E+01  0.28422965861E+01  0.12700000000E+01 0.  1.
         -4   -1    0    0    0  501 -0.00000000000E+00 -0.00000000000E+00 -0.14504429341E+04  0.14504434901E+04  0.12700000000E+01 0.  1.
         25    2    1    2    0    0  0.00000000000E+00  0.00000000000E+00 -0.14479001503E+04  0.14532857867E+04  0.12499893119E+03 0.  0.
    9000005    1    3    3    0    0  0.61164059466E+02  0.11817284310E+02 -0.66641083445E+03  0.66931688358E+03  0.10000000000E+01 0.  0.
    9000005    1    3    3    0    0 -0.61164059466E+02 -0.11817284310E+02 -0.78148931580E+03  0.78396890314E+03  0.10000000000E+01 0.  0.
<mgrwt>
<rscale>  0 0.12499893E+03</rscale>
<asrwt>0</asrwt>
<pdfrwt beam="1">  1        4 0.41428089E-03 0.12499893E+03</pdfrwt>
<pdfrwt beam="2">  1       -4 0.22316753E+00 0.12499893E+03</pdfrwt>
<totfact> 0.18866056E+03</totfact>
</mgrwt>
</event>
<event>
 5    1  0.3293542E-002  0.1250053E+03  0.7818608E-02  0.1235061E+00
         -4   -1    0    0    0  501 -0.00000000000E+00  0.00000000000E+00  0.10897958684E+03  0.10898698660E+03  0.12700000000E+01 0. -1.
          4   -1    0    0  501    0  0.00000000000E+00 -0.00000000000E+00 -0.35827015232E+02  0.35849517716E+02  0.12700000000E+01 0. -1.
         25    2    1    2    0    0  0.00000000000E+00  0.00000000000E+00  0.73152571606E+02  0.14483650431E+03  0.12500525688E+03 0.  0.
    9000005    1    3    3    0    0  0.17459070392E+02 -0.29803042502E+02  0.96920783892E+02  0.10289644713E+03  0.10000000000E+01 0.  0.
    9000005    1    3    3    0    0 -0.17459070392E+02  0.29803042502E+02 -0.23768212286E+02  0.41940057184E+02  0.10000000000E+01 0.  0.
<mgrwt>
<rscale>  0 0.12500526E+03</rscale>
<asrwt>0</asrwt>
<pdfrwt beam="2">  1        4 0.55141486E-02 0.12500526E+03</pdfrwt>
<pdfrwt beam="1">  1       -4 0.16768391E-01 0.12500526E+03</pdfrwt>
<totfact> 0.10033124E+04</totfact>
</mgrwt>
</event>
<event>
 5    1  0.3293542E-002  0.1250005E+03  0.7818608E-02  0.1235069E+00
          4   -1    0    0  501    0  0.00000000000E+00  0.00000000000E+00  0.60657809853E+02  0.60671103469E+02  0.12700000000E+01 0. -1.
         -4   -1    0    0    0  501 -0.00000000000E+00 -0.00000000000E+00 -0.64372016922E+02  0.64384543662E+02  0.12700000000E+01 0. -1.
         25    2    1    2    0    0  0.00000000000E+00  0.00000000000E+00 -0.37142070690E+01  0.12505564713E+03  0.12500047818E+03 0.  0.
    9000005    1    3    3    0    0 -0.29576153209E+02 -0.35174003870E+02 -0.44223408689E+02  0.63786121241E+02  0.10000000000E+01 0.  0.
    9000005    1    3    3    0    0  0.29576153209E+02  0.35174003870E+02  0.40509201620E+02  0.61269525890E+02  0.10000000000E+01 0.  0.
<mgrwt>
<rscale>  0 0.12500048E+03</rscale>
<asrwt>0</asrwt>
<pdfrwt beam="1">  1        4 0.93339569E-02 0.12500048E+03</pdfrwt>
<pdfrwt beam="2">  1       -4 0.99053734E-02 0.12500048E+03</pdfrwt>
<totfact> 0.10451541E+04</totfact>
</mgrwt>
</event>
<event>
 5    1  0.3293542E-002  0.1250084E+03  0.7818608E-02  0.1235056E+00
         -4   -1    0    0    0  501 -0.00000000000E+00  0.00000000000E+00  0.19589528588E+02  0.19630652824E+02  0.12700000000E+01 0.  1.
          4   -1    0    0  501    0  0.00000000000E+00 -0.00000000000E+00 -0.19917942261E+03  0.19918347143E+03  0.12700000000E+01 0.  1.
         25    2    1    2    0    0  0.00000000000E+00  0.00000000000E+00 -0.17958989402E+03  0.21881412425E+03  0.12500836347E+03 0.  0.
    9000005    1    3    3    0    0 -0.51277734034E+02  0.14333956447E+02 -0.32513808997E+02  0.62394038903E+02  0.10000000000E+01 0.  0.
    9000005    1    3    3    0    0  0.51277734034E+02 -0.14333956447E+02 -0.14707608502E+03  0.15642008535E+03  0.10000000000E+01 0.  0.
<mgrwt>
<rscale>  0 0.12500836E+03</rscale>
<asrwt>0</asrwt>
<pdfrwt beam="2">  1        4 0.30646461E-01 0.12500836E+03</pdfrwt>
<pdfrwt beam="1">  1       -4 0.30172486E-02 0.12500836E+03</pdfrwt>
<totfact> 0.87040085E+03</totfact>
</mgrwt>
</event>
<event>
 5    1  0.3293542E-002  0.1249982E+03  0.7818608E-02  0.1235072E+00
          4   -1    0    0  501    0  0.00000000000E+00  0.00000000000E+00  0.32989780002E+03  0.32990024456E+03  0.12700000000E+01 0. -1.
         -4   -1    0    0    0  501 -0.00000000000E+00 -0.00000000000E+00 -0.11803890606E+02  0.11872014717E+02  0.12700000000E+01 0. -1.
         25    2    1    2    0    0  0.00000000000E+00  0.00000000000E+00  0.31809390941E+03  0.34177225927E+03  0.12499816800E+03 0.  0.
    9000005    1    3    3    0    0  0.57571988189E+02 -0.19156155533E+02  0.11815751245E+03  0.13282955194E+03  0.10000000000E+01 0.  0.
    9000005    1    3    3    0    0 -0.57571988189E+02  0.19156155533E+02  0.19993639696E+03  0.20894270734E+03  0.10000000000E+01 0.  0.
<mgrwt>
<rscale>  0 0.12499817E+03</rscale>
<asrwt>0</asrwt>
<pdfrwt beam="1">  1        4 0.50758935E-01 0.12499817E+03</pdfrwt>
<pdfrwt beam="2">  1       -4 0.18214116E-02 0.12499817E+03</pdfrwt>
<totfact> 0.70642158E+03</totfact>
</mgrwt>
</event>
<event>
 5    1  0.3293542E-002  0.1250006E+03  0.7818608E-02  0.1235068E+00
          4   -1    0    0  501    0  0.00000000000E+00  0.00000000000E+00  0.51477983353E+03  0.51478140012E+03  0.12700000000E+01 0.  1.
         -4   -1    0    0    0  501 -0.00000000000E+00 -0.00000000000E+00 -0.75335408397E+01  0.76398388454E+01  0.12700000000E+01 0.  1.
         25    2    1    2    0    0  0.00000000000E+00  0.00000000000E+00  0.50724629269E+03  0.52242123897E+03  0.12500059789E+03 0.  0.
    9000005    1    3    3    0    0 -0.11490477339E+02  0.58184426907E+02  0.33592862460E+03  0.34112534270E+03  0.10000000000E+01 0.  0.
    9000005    1    3    3    0    0  0.11490477339E+02 -0.58184426907E+02  0.17131766809E+03  0.18129589627E+03  0.10000000000E+01 0.  0.
<mgrwt>
<rscale>  0 0.12500060E+03</rscale>
<asrwt>0</asrwt>
<pdfrwt beam="1">  1        4 0.79205199E-01 0.12500060E+03</pdfrwt>
<pdfrwt beam="2">  1       -4 0.11673035E-02 0.12500060E+03</pdfrwt>
<totfact> 0.54165058E+03</totfact>
</mgrwt>
</event>
<event>
 5    1  0.3293542E-002  0.1250058E+03  0.7818608E-02  0.1235060E+00
         -4   -1    0    0    0  501 -0.00000000000E+00  0.00000000000E+00  0.41669147792E+02  0.41688496947E+02  0.12700000000E+01 0. -1.
          4   -1    0    0  501    0  0.00000000000E+00 -0.00000000000E+00 -0.93707773768E+02  0.93716379382E+02  0.12700000000E+01 0. -1.
         25    2    1    2    0    0  0.00000000000E+00  0.00000000000E+00 -0.52038625976E+02  0.13540487633E+03  0.12500584762E+03 0.  0.
    9000005    1    3    3    0    0 -0.61603816234E+02  0.93697148257E+01 -0.20847867998E+02  0.65714955151E+02  0.10000000000E+01 0.  0.
    9000005    1    3    3    0    0  0.61603816234E+02 -0.93697148257E+01 -0.31190757979E+02  0.69689921178E+02  0.10000000000E+01 0.  0.
<mgrwt>
<rscale>  0 0.12500585E+03</rscale>
<asrwt>0</asrwt>
<pdfrwt beam="2">  1        4 0.14418731E-01 0.12500585E+03</pdfrwt>
<pdfrwt beam="1">  1       -4 0.64127885E-02 0.12500585E+03</pdfrwt>
<totfact> 0.10228195E+04</totfact>
</mgrwt>
</event>
<event>
 5    1  0.3293542E-002  0.1249994E+03  0.7818608E-02  0.1235070E+00
         -4   -1    0    0    0  501 -0.00000000000E+00  0.00000000000E+00  0.60719668259E+03  0.60719801074E+03  0.12700000000E+01 0. -1.
          4   -1    0    0  501    0  0.00000000000E+00 -0.00000000000E+00 -0.63691629894E+01  0.64945467267E+01  0.12700000000E+01 0. -1.
         25    2    1    2    0    0  0.00000000000E+00  0.00000000000E+00  0.60082751960E+03  0.61369255747E+03  0.12499938713E+03 0.  0.
    9000005    1    3    3    0    0  0.11646534606E+02  0.60149162853E+02  0.36087283641E+03  0.36603793194E+03  0.10000000000E+01 0.  0.
    9000005    1    3    3    0    0 -0.11646534606E+02 -0.60149162853E+02  0.23995468319E+03  0.24765462552E+03  0.10000000000E+01 0.  0.
<mgrwt>
<rscale>  0 0.12499939E+03</rscale>
<asrwt>0</asrwt>
<pdfrwt beam="2">  1        4 0.98961850E-03 0.12499939E+03</pdfrwt>
<pdfrwt beam="1">  1       -4 0.93424602E-01 0.12499939E+03</pdfrwt>
<totfact> 0.48015200E+03</totfact>
</mgrwt>
</event>
<event>
 5    1  0.3293542E-002  0.1250010E+03  0.7818608E-02  0.1235068E+00
          4   -1    0    0  501    0  0.00000000000E+00  0.00000000000E+00  0.23429973148E+02  0.23464367490E+02  0.12700000000E+01 0. -1.
         -4   -1    0    0    0  501 -0.00000000000E+00 -0.00000000000E+00 -0.16656366154E+03  0.16656850316E+03  0.12700000000E+01 0. -1.
         25    2    1    2    0    0  0.00000000000E+00  0.00000000000E+00 -0.14313368839E+03  0.19003287065E+03  0.12500095670E+03 0.  0.
    9000005    1    3    3    0    0 -0.50356433630E+02  0.35343348655E+02 -0.54886486725E+02  0.82452708428E+02  0.10000000000E+01 0.  0.
    9000005    1    3    3    0    0  0.50356433630E+02 -0.35343348655E+02 -0.88247201664E+02  0.10758016222E+03  0.10000000000E+01 0.  0.
<mgrwt>
<rscale>  0 0.12500096E+03</rscale>
<asrwt>0</asrwt>
<pdfrwt beam="1">  1        4 0.36076295E-02 0.12500096E+03</pdfrwt>
<pdfrwt beam="2">  1       -4 0.25628196E-01 0.12500096E+03</pdfrwt>
<totfact> 0.91839628E+03</totfact>
</mgrwt>
</event>
<event>
 5    1  0.3293542E-002  0.1250013E+03  0.7818608E-02  0.1235067E+00
          4   -1    0    0  501    0  0.00000000000E+00  0.00000000000E+00  0.41798389409E+02  0.41817678764E+02  0.12700000000E+01 0. -1.
         -4   -1    0    0    0  501 -0.00000000000E+00 -0.00000000000E+00 -0.93411407229E+02  0.93420040144E+02  0.12700000000E+01 0. -1.
         25    2    1    2    0    0  0.00000000000E+00  0.00000000000E+00 -0.51613017820E+02  0.13523771891E+03  0.12500134802E+03 0.  0.
    9000005    1    3    3    0    0  0.14360248076E+02  0.49620272355E+02  0.12243829868E+02  0.53097076410E+02  0.10000000000E+01 0.  0.
    9000005    1    3    3    0    0 -0.14360248076E+02 -0.49620272355E+02 -0.63856847688E+02  0.82140642499E+02  0.10000000000E+01 0.  0.
<mgrwt>
<rscale>  0 0.12500135E+03</rscale>
<asrwt>0</asrwt>
<pdfrwt beam="1">  1        4 0.64326693E-02 0.12500135E+03</pdfrwt>
<pdfrwt beam="2">  1       -4 0.14373134E-01 0.12500135E+03</pdfrwt>
<totfact> 0.10232752E+04</totfact>
</mgrwt>
</event>
<event>
 5    1  0.3293542E-002  0.1250006E+03  0.7818608E-02  0.1235068E+00
          4   -1    0    0  501    0  0.00000000000E+00  0.00000000000E+00  0.14467053285E+02  0.14522690203E+02  0.12700000000E+01 0.  1.
         -4   -1    0    0    0  501 -0.00000000000E+00 -0.00000000000E+00 -0.26943726650E+03  0.26944025958E+03  0.12700000000E+01 0.  1.
         25    2    1    2    0    0  0.00000000000E+00  0.00000000000E+00 -0.25497021322E+03  0.28396294978E+03  0.12500058887E+03 0.  0.
    9000005    1    3    3    0    0 -0.40606457701E+02  0.86039502868E+01 -0.23360926349E+03  0.23727031074E+03  0.10000000000E+01 0.  0.
    9000005    1    3    3    0    0  0.40606457701E+02 -0.86039502868E+01 -0.21360949726E+02  0.46692639043E+02  0.10000000000E+01 0.  0.
<mgrwt>
<rscale>  0 0.12500059E+03</rscale>
<asrwt>0</asrwt>
<pdfrwt beam="1">  1        4 0.22302107E-02 0.12500059E+03</pdfrwt>
<pdfrwt beam="2">  1       -4 0.41456393E-01 0.12500059E+03</pdfrwt>
<totfact> 0.77654550E+03</totfact>
</mgrwt>
</event>
<event>
 5    1  0.3293542E-002  0.1250008E+03  0.7818608E-02  0.1235068E+00
          4   -1    0    0  501    0  0.00000000000E+00  0.00000000000E+00  0.32061323933E+03  0.32061575466E+03  0.12700000000E+01 0. -1.
         -4   -1    0    0    0  501 -0.00000000000E+00 -0.00000000000E+00 -0.12148178410E+02  0.12214382452E+02  0.12700000000E+01 0. -1.
         25    2    1    2    0    0  0.00000000000E+00  0.00000000000E+00  0.30846506092E+03  0.33283013711E+03  0.12500082543E+03 0.  0.
    9000005    1    3    3    0    0  0.72032138085E+01 -0.14532004546E+02  0.31492436651E+03  0.31534333998E+03  0.10000000000E+01 0.  0.
    9000005    1    3    3    0    0 -0.72032138085E+01  0.14532004546E+02 -0.64593055890E+01  0.17486797134E+02  0.10000000000E+01 0.  0.
<mgrwt>
<rscale>  0 0.12500083E+03</rscale>
<asrwt>0</asrwt>
<pdfrwt beam="1">  1        4 0.49330400E-01 0.12500083E+03</pdfrwt>
<pdfrwt beam="2">  1       -4 0.18742366E-02 0.12500083E+03</pdfrwt>
<totfact> 0.71654382E+03</totfact>
</mgrwt>
</event>
<event>
 5    1  0.3293542E-002  0.1250016E+03  0.7818608E-02  0.1235067E+00
         -4   -1    0    0    0  501 -0.00000000000E+00  0.00000000000E+00  0.14320465513E+02  0.14376669730E+02  0.12700000000E+01 0.  1.
          4   -1    0    0  501    0  0.00000000000E+00 -0.00000000000E+00 -0.27218885817E+03  0.27219182099E+03  0.12700000000E+01 0.  1.
         25    2    1    2    0    0  0.00000000000E+00  0.00000000000E+00 -0.25786839266E+03  0.28656849072E+03  0.12500156775E+03 0.  0.
    9000005    1    3    3    0    0 -0.38590340394E+02 -0.48318677196E+02 -0.14962271133E+03  0.16190078655E+03  0.10000000000E+01 0.  0.
    9000005    1    3    3    0    0  0.38590340394E+02  0.48318677196E+02 -0.10824568133E+03  0.12466770417E+03  0.10000000000E+01 0.  0.
<mgrwt>
<rscale>  0 0.12500157E+03</rscale>
<asrwt>0</asrwt>
<pdfrwt beam="2">  1        4 0.41879756E-01 0.12500157E+03</pdfrwt>
<pdfrwt beam="1">  1       -4 0.22077001E-02 0.12500157E+03</pdfrwt>
<totfact> 0.77312464E+03</totfact>
</mgrwt>
</event>
<event>
 5    1  0.3293542E-002  0.1249999E+03  0.7818608E-02  0.1235069E+00
          4   -1    0    0  501    0  0.00000000000E+00  0.00000000000E+00  0.10260531923E+03  0.10261317865E+03  0.12700000000E+01 0. -1.
         -4   -1    0    0    0  501 -0.00000000000E+00 -0.00000000000E+00 -0.38050675550E+02  0.38071863755E+02  0.12700000000E+01 0. -1.
         25    2    1    2    0    0  0.00000000000E+00  0.00000000000E+00  0.64554643677E+02  0.14068504241E+03  0.12499991655E+03 0.  0.
    9000005    1    3    3    0    0  0.35070640579E+02  0.50201923126E+02  0.18262399071E+02  0.63911643196E+02  0.10000000000E+01 0.  0.
    9000005    1    3    3    0    0 -0.35070640579E+02 -0.50201923126E+02  0.46292244606E+02  0.76773399214E+02  0.10000000000E+01 0.  0.
<mgrwt>
<rscale>  0 0.12499992E+03</rscale>
<asrwt>0</asrwt>
<pdfrwt beam="1">  1        4 0.15787668E-01 0.12499992E+03</pdfrwt>
<pdfrwt beam="2">  1       -4 0.58561845E-02 0.12499992E+03</pdfrwt>
<totfact> 0.10119427E+04</totfact>
</mgrwt>
</event>
<event>
 5    1  0.3293542E-002  0.1250005E+03  0.7818608E-02  0.1235069E+00
         -4   -1    0    0    0  501 -0.00000000000E+00  0.00000000000E+00  0.90026523506E+01  0.90917902167E+01  0.12700000000E+01 0. -1.
          4   -1    0    0  501    0  0.00000000000E+00 -0.00000000000E+00 -0.43167570495E+03  0.43167757313E+03  0.12700000000E+01 0. -1.
         25    2    1    2    0    0  0.00000000000E+00  0.00000000000E+00 -0.42267305259E+03  0.44076936334E+03  0.12500048909E+03 0.  0.
    9000005    1    3    3    0    0  0.36232427319E+02 -0.42788501080E+02 -0.11402295597E+03  0.12706643578E+03  0.10000000000E+01 0.  0.
    9000005    1    3    3    0    0 -0.36232427319E+02  0.42788501080E+02 -0.30865009662E+03  0.31370292756E+03  0.10000000000E+01 0.  0.
<mgrwt>
<rscale>  0 0.12500049E+03</rscale>
<asrwt>0</asrwt>
<pdfrwt beam="2">  1        4 0.66418631E-01 0.12500049E+03</pdfrwt>
<pdfrwt beam="1">  1       -4 0.13920242E-02 0.12500049E+03</pdfrwt>
<totfact> 0.60771151E+03</totfact>
</mgrwt>
</event>
<event>
 5    1  0.3293542E-002  0.1250010E+03  0.7818608E-02  0.1235068E+00
         -4   -1    0    0    0  501 -0.00000000000E+00  0.00000000000E+00  0.48561127311E+02  0.48577731377E+02  0.12700000000E+01 0. -1.
          4   -1    0    0  501    0  0.00000000000E+00 -0.00000000000E+00 -0.80405754230E+02  0.80415783359E+02  0.12700000000E+01 0. -1.
         25    2    1    2    0    0  0.00000000000E+00  0.00000000000E+00 -0.31844626919E+02  0.12899351474E+03  0.12500098632E+03 0.  0.
    9000005    1    3    3    0    0 -0.21857452976E+02  0.50927001927E+02  0.13879210232E+02  0.57139655691E+02  0.10000000000E+01 0.  0.
    9000005    1    3    3    0    0  0.21857452976E+02 -0.50927001927E+02 -0.45723837151E+02  0.71853859045E+02  0.10000000000E+01 0.  0.
<mgrwt>
<rscale>  0 0.12500099E+03</rscale>
<asrwt>0</asrwt>
<pdfrwt beam="2">  1        4 0.12372165E-01 0.12500099E+03</pdfrwt>
<pdfrwt beam="1">  1       -4 0.74729914E-02 0.12500099E+03</pdfrwt>
<totfact> 0.10365855E+04</totfact>
</mgrwt>
</event>
<event>
 5    1  0.3293542E-002  0.1249999E+03  0.7818608E-02  0.1235069E+00
         -4   -1    0    0    0  501 -0.00000000000E+00  0.00000000000E+00  0.28263917575E+03  0.28264202902E+03  0.12700000000E+01 0.  1.
          4   -1    0    0  501    0  0.00000000000E+00 -0.00000000000E+00 -0.13788497051E+02  0.13846860688E+02  0.12700000000E+01 0.  1.
         25    2    1    2    0    0  0.00000000000E+00  0.00000000000E+00  0.26885067869E+03  0.29648888970E+03  0.12499989713E+03 0.  0.
    9000005    1    3    3    0    0 -0.20295548006E+02  0.57693930796E+02  0.16486952977E+03  0.17585067747E+03  0.10000000000E+01 0.  0.
    9000005    1    3    3    0    0  0.20295548006E+02 -0.57693930796E+02  0.10398114893E+03  0.12063821224E+03  0.10000000000E+01 0.  0.
<mgrwt>
<rscale>  0 0.12499990E+03</rscale>
<asrwt>0</asrwt>
<pdfrwt beam="2">  1        4 0.21260161E-02 0.12499990E+03</pdfrwt>
<pdfrwt beam="1">  1       -4 0.43487661E-01 0.12499990E+03</pdfrwt>
<totfact> 0.76041558E+03</totfact>
</mgrwt>
</event>
<event>
 5    1  0.3293542E-002  0.1250051E+03  0.7818608E-02  0.1235061E+00
         -4   -1    0    0    0  501 -0.00000000000E+00  0.00000000000E+00  0.39512447605E+01  0.41503295240E+01  0.12700000000E+01 0.  1.
          4   -1    0    0  501    0  0.00000000000E+00 -0.00000000000E+00 -0.96419818242E+03  0.96419901882E+03  0.12700000000E+01 0.  1.
         25    2    1    2    0    0  0.00000000000E+00  0.00000000000E+00 -0.96024693766E+03  0.96834934834E+03  0.12500511647E+03 0.  0.
    9000005    1    3    3    0    0  0.49618368083E+02  0.13987440867E+02 -0.75377691713E+03  0.75553839860E+03  0.10000000000E+01 0.  0.
    9000005    1    3    3    0    0 -0.49618368083E+02 -0.13987440867E+02 -0.20647002053E+03  0.21281094974E+03  0.10000000000E+01 0.  0.
<mgrwt>
<rscale>  0 0.12500512E+03</rscale>
<asrwt>0</asrwt>
<pdfrwt beam="2">  1        4 0.14835338E+00 0.12500512E+03</pdfrwt>
<pdfrwt beam="1">  1       -4 0.62326313E-03 0.12500512E+03</pdfrwt>
<totfact> 0.31669830E+03</totfact>
</mgrwt>
</event>
<event>
 5    1  0.3293542E-002  0.1250094E+03  0.7818608E-02  0.1235055E+00
         -4   -1    0    0    0  501 -0.00000000000E+00  0.00000000000E+00  0.14500158292E+03  0.14500714448E+03  0.12700000000E+01 0. -1.
          4   -1    0    0  501    0  0.00000000000E+00 -0.00000000000E+00 -0.26922355527E+02  0.26952293541E+02  0.12700000000E+01 0. -1.
         25    2    1    2    0    0  0.00000000000E+00  0.00000000000E+00  0.11807922739E+03  0.17195943802E+03  0.12500937717E+03 0.  0.
    9000005    1    3    3    0    0  0.44901580777E+02 -0.43005722163E+02  0.67760351642E+02  0.91967980024E+02  0.10000000000E+01 0.  0.
    9000005    1    3    3    0    0 -0.44901580777E+02  0.43005722163E+02  0.50318875749E+02  0.79991457992E+02  0.10000000000E+01 0.  0.
<mgrwt>
<rscale>  0 0.12500938E+03</rscale>
<asrwt>0</asrwt>
<pdfrwt beam="2">  1        4 0.41446316E-02 0.12500938E+03</pdfrwt>
<pdfrwt beam="1">  1       -4 0.22310667E-01 0.12500938E+03</pdfrwt>
<totfact> 0.95064675E+03</totfact>
</mgrwt>
</event>
<event>
 5    1  0.3293542E-002  0.1250024E+03  0.7818608E-02  0.1235065E+00
         -4   -1    0    0    0  501 -0.00000000000E+00  0.00000000000E+00  0.44051272860E+02  0.44069576134E+02  0.12700000000E+01 0.  1.
          4   -1    0    0  501    0  0.00000000000E+00 -0.00000000000E+00 -0.88637264245E+02  0.88646362096E+02  0.12700000000E+01 0.  1.
         25    2    1    2    0    0  0.00000000000E+00  0.00000000000E+00 -0.44585991385E+02  0.13271593823E+03  0.12500243851E+03 0.  0.
    9000005    1    3    3    0    0  0.54036163764E+01  0.56231380578E+02 -0.50667299488E+02  0.75890331855E+02  0.10000000000E+01 0.  0.
    9000005    1    3    3    0    0 -0.54036163764E+01 -0.56231380578E+02  0.60813081034E+01  0.56825606375E+02  0.10000000000E+01 0.  0.
<mgrwt>
<rscale>  0 0.12500244E+03</rscale>
<asrwt>0</asrwt>
<pdfrwt beam="2">  1        4 0.13638610E-01 0.12500244E+03</pdfrwt>
<pdfrwt beam="1">  1       -4 0.67792267E-02 0.12500244E+03</pdfrwt>
<totfact> 0.10285875E+04</totfact>
</mgrwt>
</event>
<event>
 5    1  0.3293542E-002  0.1250017E+03  0.7818608E-02  0.1235067E+00
         -4   -1    0    0    0  501 -0.00000000000E+00  0.00000000000E+00  0.34466135176E+03  0.34466369158E+03  0.12700000000E+01 0.  1.
          4   -1    0    0  501    0  0.00000000000E+00 -0.00000000000E+00 -0.11295936404E+02  0.11367105139E+02  0.12700000000E+01 0.  1.
         25    2    1    2    0    0  0.00000000000E+00  0.00000000000E+00  0.33336541536E+03  0.35603079672E+03  0.12500171223E+03 0.  0.
    9000005    1    3    3    0    0 -0.14440726384E+00  0.36504759537E+02  0.22215445208E+02  0.42745108821E+02  0.10000000000E+01 0.  0.
    9000005    1    3    3    0    0  0.14440726384E+00 -0.36504759537E+02  0.31114997015E+03  0.31328568790E+03  0.10000000000E+01 0.  0.
<mgrwt>
<rscale>  0 0.12500171E+03</rscale>
<asrwt>0</asrwt>
<pdfrwt beam="2">  1        4 0.17434910E-02 0.12500171E+03</pdfrwt>
<pdfrwt beam="1">  1       -4 0.53030473E-01 0.12500171E+03</pdfrwt>
<totfact> 0.69063536E+03</totfact>
</mgrwt>
</event>
<event>
 5    1  0.3293542E-002  0.1250014E+03  0.7818608E-02  0.1235067E+00
          4   -1    0    0  501    0  0.00000000000E+00  0.00000000000E+00  0.18361181598E+03  0.18361620808E+03  0.12700000000E+01 0.  1.
         -4   -1    0    0    0  501 -0.00000000000E+00 -0.00000000000E+00 -0.21251375557E+02  0.21289289868E+02  0.12700000000E+01 0.  1.
         25    2    1    2    0    0  0.00000000000E+00  0.00000000000E+00  0.16236044043E+03  0.20490549795E+03  0.12500140188E+03 0.  0.
    9000005    1    3    3    0    0 -0.29198079679E+02  0.44423709104E+02  0.27326137316E+02  0.59780528336E+02  0.10000000000E+01 0.  0.
    9000005    1    3    3    0    0  0.29198079679E+02 -0.44423709104E+02  0.13503430311E+03  0.14512496961E+03  0.10000000000E+01 0.  0.
<mgrwt>
<rscale>  0 0.12500140E+03</rscale>
<asrwt>0</asrwt>
<pdfrwt beam="1">  1        4 0.28251225E-01 0.12500140E+03</pdfrwt>
<pdfrwt beam="2">  1       -4 0.32726969E-02 0.12500140E+03</pdfrwt>
<totfact> 0.89311898E+03</totfact>
</mgrwt>
</event>
<event>
 5    1  0.3293542E-002  0.1250011E+03  0.7818608E-02  0.1235068E+00
         -4   -1    0    0    0  501 -0.00000000000E+00  0.00000000000E+00  0.13408747835E+02  0.13468757126E+02  0.12700000000E+01 0.  1.
          4   -1    0    0  501    0  0.00000000000E+00 -0.00000000000E+00 -0.29061408050E+03  0.29061685548E+03  0.12700000000E+01 0.  1.
         25    2    1    2    0    0  0.00000000000E+00  0.00000000000E+00 -0.27720533267E+03  0.30408561260E+03  0.12500105332E+03 0.  0.
    9000005    1    3    3    0    0  0.29004694827E+02  0.16084988929E+02 -0.26744932007E+03  0.26949979220E+03  0.10000000000E+01 0.  0.
    9000005    1    3    3    0    0 -0.29004694827E+02 -0.16084988929E+02 -0.97560125965E+01  0.34585820398E+02  0.10000000000E+01 0.  0.
<mgrwt>
<rscale>  0 0.12500105E+03</rscale>
<asrwt>0</asrwt>
<pdfrwt beam="2">  1        4 0.44714684E-01 0.12500105E+03</pdfrwt>
<pdfrwt beam="1">  1       -4 0.20677140E-02 0.12500105E+03</pdfrwt>
<totfact> 0.75087435E+03</totfact>
</mgrwt>
</event>
<event>
 5    1  0.3293542E-002  0.1250024E+03  0.7818608E-02  0.1235066E+00
         -4   -1    0    0    0  501 -0.00000000000E+00  0.00000000000E+00  0.30075661723E+03  0.30075929863E+03  0.12700000000E+01 0. -1.
          4   -1    0    0  501    0  0.00000000000E+00 -0.00000000000E+00 -0.12954774450E+02  0.13016876778E+02  0.12700000000E+01 0. -1.
         25    2    1    2    0    0  0.00000000000E+00  0.00000000000E+00  0.28780184278E+03  0.31377617540E+03  0.12500235014E+03 0.  0.
    9000005    1    3    3    0    0  0.52174243902E+02  0.12174353596E+02  0.22465757478E+03  0.23095972055E+03  0.10000000000E+01 0.  0.
    9000005    1    3    3    0    0 -0.52174243902E+02 -0.12174353596E+02  0.63144268008E+02  0.82816454854E+02  0.10000000000E+01 0.  0.
<mgrwt>
<rscale>  0 0.12500235E+03</rscale>
<asrwt>0</asrwt>
<pdfrwt beam="2">  1        4 0.19980259E-02 0.12500235E+03</pdfrwt>
<pdfrwt beam="1">  1       -4 0.46275224E-01 0.12500235E+03</pdfrwt>
<totfact> 0.73898686E+03</totfact>
</mgrwt>
</event>
<event>
 5    1  0.3293542E-002  0.1249995E+03  0.7818608E-02  0.1235070E+00
         -4   -1    0    0    0  501 -0.00000000000E+00  0.00000000000E+00  0.46803452856E+01  0.48495909098E+01  0.12700000000E+01 0. -1.
          4   -1    0    0  501    0  0.00000000000E+00 -0.00000000000E+00 -0.81960832523E+03  0.81960930917E+03  0.12700000000E+01 0. -1.
         25    2    1    2    0    0  0.00000000000E+00  0.00000000000E+00 -0.81492797994E+03  0.82445890008E+03  0.12499946173E+03 0.  0.
    9000005    1    3    3    0    0 -0.62390681082E+02  0.89796004742E+00 -0.38479459819E+03  0.38982212125E+03  0.10000000000E+01 0.  0.
    9000005    1    3    3    0    0  0.62390681082E+02 -0.89796004742E+00 -0.43013338175E+03  0.43463677883E+03  0.10000000000E+01 0.  0.
<mgrwt>
<rscale>  0 0.12499946E+03</rscale>
<asrwt>0</asrwt>
<pdfrwt beam="2">  1        4 0.12610657E+00 0.12499946E+03</pdfrwt>
<pdfrwt beam="1">  1       -4 0.73314835E-03 0.12499946E+03</pdfrwt>
<totfact> 0.37196328E+03</totfact>
</mgrwt>
</event>
<event>
 5    1  0.3293542E-002  0.1249999E+03  0.7818608E-02  0.1235069E+00
          4   -1    0    0  501    0  0.00000000000E+00  0.00000000000E+00  0.39899820323E+03  0.39900022441E+03  0.12700000000E+01 0. -1.
         -4   -1    0    0    0  501 -0.00000000000E+00 -0.00000000000E+00 -0.97468813960E+01  0.98292724526E+01  0.12700000000E+01 0. -1.
         25    2    1    2    0    0  0.00000000000E+00  0.00000000000E+00  0.38925132183E+03  0.40882949686E+03  0.12499986383E+03 0.  0.
    9000005    1    3    3    0    0  0.54634856277E+02  0.13328150054E+02  0.28375490216E+03  0.28927573629E+03  0.10000000000E+01 0.  0.
    9000005    1    3    3    0    0 -0.54634856277E+02 -0.13328150054E+02  0.10549641967E+03  0.11955376057E+03  0.10000000000E+01 0.  0.
<mgrwt>
<rscale>  0 0.12499986E+03</rscale>
<asrwt>0</asrwt>
<pdfrwt beam="1">  1        4 0.61390827E-01 0.12499986E+03</pdfrwt>
<pdfrwt beam="2">  1       -4 0.15060136E-02 0.12499986E+03</pdfrwt>
<totfact> 0.63703200E+03</totfact>
</mgrwt>
</event>
<event>
 5    1  0.3293542E-002  0.1250010E+03  0.7818608E-02  0.1235068E+00
         -4   -1    0    0    0  501 -0.00000000000E+00  0.00000000000E+00  0.77163334509E+01  0.78201471806E+01  0.12700000000E+01 0.  1.
          4   -1    0    0  501    0  0.00000000000E+00 -0.00000000000E+00 -0.50275205217E+03  0.50275365623E+03  0.12700000000E+01 0.  1.
         25    2    1    2    0    0  0.00000000000E+00  0.00000000000E+00 -0.49503571872E+03  0.51057380342E+03  0.12500098372E+03 0.  0.
    9000005    1    3    3    0    0 -0.48070377275E+02  0.96135352775E+01 -0.40582441271E+03  0.40877577617E+03  0.10000000000E+01 0.  0.
    9000005    1    3    3    0    0  0.48070377275E+02 -0.96135352775E+01 -0.89211306007E+02  0.10179802725E+03  0.10000000000E+01 0.  0.
<mgrwt>
<rscale>  0 0.12500098E+03</rscale>
<asrwt>0</asrwt>
<pdfrwt beam="2">  1        4 0.77354553E-01 0.12500098E+03</pdfrwt>
<pdfrwt beam="1">  1       -4 0.11952377E-02 0.12500098E+03</pdfrwt>
<totfact> 0.55052023E+03</totfact>
</mgrwt>
</event>
<event>
 5    1  0.3293542E-002  0.1250000E+03  0.7818608E-02  0.1235069E+00
          4   -1    0    0  501    0  0.00000000000E+00  0.00000000000E+00  0.31718192155E+02  0.31743607444E+02  0.12700000000E+01 0. -1.
         -4   -1    0    0    0  501 -0.00000000000E+00 -0.00000000000E+00 -0.12307690375E+03  0.12308345598E+03  0.12700000000E+01 0. -1.
         25    2    1    2    0    0  0.00000000000E+00  0.00000000000E+00 -0.91358711593E+02  0.15482706342E+03  0.12500002154E+03 0.  0.
    9000005    1    3    3    0    0  0.53832949679E+02 -0.30517973161E+02 -0.34887162651E+02  0.71045388836E+02  0.10000000000E+01 0.  0.
    9000005    1    3    3    0    0 -0.53832949679E+02  0.30517973161E+02 -0.56471548942E+02  0.83781674589E+02  0.10000000000E+01 0.  0.
<mgrwt>
<rscale>  0 0.12500002E+03</rscale>
<asrwt>0</asrwt>
<pdfrwt beam="1">  1        4 0.48821810E-02 0.12500002E+03</pdfrwt>
<pdfrwt beam="2">  1       -4 0.18937367E-01 0.12500002E+03</pdfrwt>
<totfact> 0.98349412E+03</totfact>
</mgrwt>
</event>
<event>
 5    1  0.3293542E-002  0.1250004E+03  0.7818608E-02  0.1235069E+00
          4   -1    0    0  501    0  0.00000000000E+00  0.00000000000E+00  0.11863345443E+02  0.11931130084E+02  0.12700000000E+01 0.  1.
         -4   -1    0    0    0  501 -0.00000000000E+00 -0.00000000000E+00 -0.32826542705E+03  0.32826788375E+03  0.12700000000E+01 0.  1.
         25    2    1    2    0    0  0.00000000000E+00  0.00000000000E+00 -0.31640208161E+03  0.34019901383E+03  0.12500036705E+03 0.  0.
    9000005    1    3    3    0    0  0.47645845546E+02 -0.39467958021E+02 -0.13425316772E+03  0.14782678834E+03  0.10000000000E+01 0.  0.
    9000005    1    3    3    0    0 -0.47645845546E+02  0.39467958021E+02 -0.18214891389E+03  0.19237222549E+03  0.10000000000E+01 0.  0.
<mgrwt>
<rscale>  0 0.12500037E+03</rscale>
<asrwt>0</asrwt>
<pdfrwt beam="1">  1        4 0.18305335E-02 0.12500037E+03</pdfrwt>
<pdfrwt beam="2">  1       -4 0.50507770E-01 0.12500037E+03</pdfrwt>
<totfact> 0.70815842E+03</totfact>
</mgrwt>
</event>
<event>
 5    1  0.3293542E-002  0.1249480E+03  0.7818608E-02  0.1235151E+00
         -4   -1    0    0    0  501 -0.00000000000E+00  0.00000000000E+00  0.23682110014E+02  0.23716138697E+02  0.12700000000E+01 0.  1.
          4   -1    0    0  501    0  0.00000000000E+00 -0.00000000000E+00 -0.16465308453E+03  0.16465798233E+03  0.12700000000E+01 0.  1.
         25    2    1    2    0    0  0.00000000000E+00  0.00000000000E+00 -0.14097097452E+03  0.18837412103E+03  0.12494796444E+03 0.  0.
    9000005    1    3    3    0    0  0.48428275198E+02 -0.28231318897E+02 -0.11203932954E+03  0.12528414333E+03  0.10000000000E+01 0.  0.
    9000005    1    3    3    0    0 -0.48428275198E+02  0.28231318897E+02 -0.28931644975E+02  0.63089977701E+02  0.10000000000E+01 0.  0.
<mgrwt>
<rscale>  0 0.12494796E+03</rscale>
<asrwt>0</asrwt>
<pdfrwt beam="2">  1        4 0.25334237E-01 0.12494796E+03</pdfrwt>
<pdfrwt beam="1">  1       -4 0.36463960E-02 0.12494796E+03</pdfrwt>
<totfact> 0.92238470E+03</totfact>
</mgrwt>
</event>
<event>
 5    1  0.3293542E-002  0.1249998E+03  0.7818608E-02  0.1235070E+00
         -4   -1    0    0    0  501 -0.00000000000E+00  0.00000000000E+00  0.22231681494E+01  0.25603469727E+01  0.12700000000E+01 0. -1.
          4   -1    0    0  501    0  0.00000000000E+00 -0.00000000000E+00 -0.16328704523E+04  0.16328709462E+04  0.12700000000E+01 0. -1.
         25    2    1    2    0    0  0.00000000000E+00  0.00000000000E+00 -0.16306472842E+04  0.16354312932E+04  0.12499979733E+03 0.  0.
    9000005    1    3    3    0    0  0.34683684379E+02 -0.51132894062E+02 -0.69279463239E+03  0.69554506216E+03  0.10000000000E+01 0.  0.
    9000005    1    3    3    0    0 -0.34683684379E+02  0.51132894062E+02 -0.93785265177E+03  0.93988623101E+03  0.10000000000E+01 0.  0.
<mgrwt>
<rscale>  0 0.12499980E+03</rscale>
<asrwt>0</asrwt>
<pdfrwt beam="2">  1        4 0.25123592E+00 0.12499980E+03</pdfrwt>
<pdfrwt beam="1">  1       -4 0.36800200E-03 0.12499980E+03</pdfrwt>
<totfact> 0.15414313E+03</totfact>
</mgrwt>
</event>
<event>
 5    1  0.3293542E-002  0.1250018E+03  0.7818608E-02  0.1235066E+00
         -4   -1    0    0    0  501 -0.00000000000E+00  0.00000000000E+00  0.22594900279E+03  0.22595257193E+03  0.12700000000E+01 0.  1.
          4   -1    0    0  501    0  0.00000000000E+00 -0.00000000000E+00 -0.17261660827E+02  0.17308316917E+02  0.12700000000E+01 0.  1.
         25    2    1    2    0    0  0.00000000000E+00  0.00000000000E+00  0.20868734196E+03  0.24326088885E+03  0.12500181338E+03 0.  0.
    9000005    1    3    3    0    0  0.32805049514E+02 -0.37399126393E+02  0.30739993503E+02  0.58487717764E+02  0.10000000000E+01 0.  0.
    9000005    1    3    3    0    0 -0.32805049514E+02  0.37399126393E+02  0.17794734846E+03  0.18477317109E+03  0.10000000000E+01 0.  0.
<mgrwt>
<rscale>  0 0.12500181E+03</rscale>
<asrwt>0</asrwt>
<pdfrwt beam="2">  1        4 0.26595035E-02 0.12500181E+03</pdfrwt>
<pdfrwt beam="1">  1       -4 0.34765249E-01 0.12500181E+03</pdfrwt>
<totfact> 0.83310731E+03</totfact>
</mgrwt>
</event>
<event>
 4    1  0.3293542E-002  0.1249027E+03  0.7818608E-02  0.1235221E+00
          4   -1    0    0  501    0  0.00000000000E+00  0.00000000000E+00  0.60109529052E+03  0.60109663215E+03  0.12700000000E+01 0.  1.
         -4   -1    0    0    0  501 -0.00000000000E+00 -0.00000000000E+00 -0.64249292851E+01  0.65492454770E+01  0.12700000000E+01 0.  1.
    9000005    1    1    2    0    0 -0.35624087127E+02 -0.13703657585E+02  0.53775962392E+03  0.53911341936E+03  0.10000000000E+01 0.  0.
    9000005    1    1    2    0    0  0.35624087127E+02  0.13703657585E+02  0.56910737315E+02  0.68532458270E+02  0.10000000000E+01 0.  0.
<mgrwt>
<rscale>  0 0.12490266E+03</rscale>
<asrwt>0</asrwt>
<pdfrwt beam="1">  1        4 0.92485894E-01 0.12490266E+03</pdfrwt>
<pdfrwt beam="2">  1       -4 0.99811633E-03 0.12490266E+03</pdfrwt>
<totfact> 0.48491907E+03</totfact>
</mgrwt>
</event>
<event>
 5    1  0.3293542E-002  0.1249986E+03  0.7818608E-02  0.1235071E+00
         -4   -1    0    0    0  501 -0.00000000000E+00  0.00000000000E+00  0.28071579116E+02  0.28100292775E+02  0.12700000000E+01 0.  1.
          4   -1    0    0  501    0  0.00000000000E+00 -0.00000000000E+00 -0.13904742993E+03  0.13905322963E+03  0.12700000000E+01 0.  1.
         25    2    1    2    0    0  0.00000000000E+00  0.00000000000E+00 -0.11097585082E+03  0.16715352241E+03  0.12499864235E+03 0.  0.
    9000005    1    3    3    0    0 -0.48411982994E+02 -0.39351259816E+02 -0.50680654013E+02  0.80385138164E+02  0.10000000000E+01 0.  0.
    9000005    1    3    3    0    0  0.48411982994E+02  0.39351259816E+02 -0.60295196805E+02  0.86768384243E+02  0.10000000000E+01 0.  0.
<mgrwt>
<rscale>  0 0.12499864E+03</rscale>
<asrwt>0</asrwt>
<pdfrwt beam="2">  1        4 0.21394567E-01 0.12499864E+03</pdfrwt>
<pdfrwt beam="1">  1       -4 0.43213594E-02 0.12499864E+03</pdfrwt>
<totfact> 0.95984024E+03</totfact>
</mgrwt>
</event>
<event>
 5    1  0.3293542E-002  0.1249968E+03  0.7818608E-02  0.1235074E+00
          4   -1    0    0  501    0  0.00000000000E+00  0.00000000000E+00  0.45768829610E+01  0.47498165900E+01  0.12700000000E+01 0.  1.
         -4   -1    0    0    0  501 -0.00000000000E+00 -0.00000000000E+00 -0.83743303613E+03  0.83743399913E+03  0.12700000000E+01 0.  1.
         25    2    1    2    0    0  0.00000000000E+00  0.00000000000E+00 -0.83285615317E+03  0.84218381572E+03  0.12499683033E+03 0.  0.
    9000005    1    3    3    0    0 -0.60947810677E+02 -0.92420750035E+01 -0.34738769147E+03  0.35281618409E+03  0.10000000000E+01 0.  0.
    9000005    1    3    3    0    0  0.60947810677E+02  0.92420750035E+01 -0.48546846170E+03  0.48936763163E+03  0.10000000000E+01 0.  0.
<mgrwt>
<rscale>  0 0.12499683E+03</rscale>
<asrwt>0</asrwt>
<pdfrwt beam="1">  1        4 0.71751317E-03 0.12499683E+03</pdfrwt>
<pdfrwt beam="2">  1       -4 0.12884911E+00 0.12499683E+03</pdfrwt>
<totfact> 0.36451876E+03</totfact>
</mgrwt>
</event>
<event>
 5    1  0.3293542E-002  0.1250010E+03  0.7818608E-02  0.1235068E+00
          4   -1    0    0  501    0  0.00000000000E+00  0.00000000000E+00  0.20196074522E+03  0.20196473828E+03  0.12700000000E+01 0.  1.
         -4   -1    0    0    0  501 -0.00000000000E+00 -0.00000000000E+00 -0.19316893198E+02  0.19358596613E+02  0.12700000000E+01 0.  1.
         25    2    1    2    0    0  0.00000000000E+00  0.00000000000E+00  0.18264385202E+03  0.22132333489E+03  0.12500096755E+03 0.  0.
    9000005    1    3    3    0    0 -0.28290485905E+02  0.36065633159E+02  0.16652916732E+03  0.17272534573E+03  0.10000000000E+01 0.  0.
    9000005    1    3    3    0    0  0.28290485905E+02 -0.36065633159E+02  0.16114684695E+02  0.48597989163E+02  0.10000000000E+01 0.  0.
<mgrwt>
<rscale>  0 0.12500097E+03</rscale>
<asrwt>0</asrwt>
<pdfrwt beam="1">  1        4 0.31074399E-01 0.12500097E+03</pdfrwt>
<pdfrwt beam="2">  1       -4 0.29753448E-02 0.12500097E+03</pdfrwt>
<totfact> 0.86657508E+03</totfact>
</mgrwt>
</event>
<event>
 5    1  0.3293542E-002  0.1250002E+03  0.7818608E-02  0.1235069E+00
         -4   -1    0    0    0  501 -0.00000000000E+00  0.00000000000E+00  0.20629930186E+02  0.20668984481E+02  0.12700000000E+01 0.  1.
          4   -1    0    0  501    0  0.00000000000E+00 -0.00000000000E+00 -0.18912915129E+03  0.18913341526E+03  0.12700000000E+01 0.  1.
         25    2    1    2    0    0  0.00000000000E+00  0.00000000000E+00 -0.16849922110E+03  0.20980239974E+03  0.12500023770E+03 0.  0.
    9000005    1    3    3    0    0  0.22284355460E+02  0.43353189896E+02 -0.14988347313E+03  0.15761391782E+03  0.10000000000E+01 0.  0.
    9000005    1    3    3    0    0 -0.22284355460E+02 -0.43353189896E+02 -0.18615747969E+02  0.52188481918E+02  0.10000000000E+01 0.  0.
<mgrwt>
<rscale>  0 0.12500024E+03</rscale>
<asrwt>0</asrwt>
<pdfrwt beam="2">  1        4 0.29100123E-01 0.12500024E+03</pdfrwt>
<pdfrwt beam="1">  1       -4 0.31771677E-02 0.12500024E+03</pdfrwt>
<totfact> 0.88507692E+03</totfact>
</mgrwt>
</event>
<event>
 5    1  0.3293542E-002  0.1249883E+03  0.7818608E-02  0.1235088E+00
          4   -1    0    0  501    0  0.00000000000E+00  0.00000000000E+00  0.53317132951E+01  0.54808819237E+01  0.12700000000E+01 0.  1.
         -4   -1    0    0    0  501 -0.00000000000E+00 -0.00000000000E+00 -0.72225186128E+03  0.72225297786E+03  0.12700000000E+01 0.  1.
         25    2    1    2    0    0  0.00000000000E+00  0.00000000000E+00 -0.71692014799E+03  0.72773385978E+03  0.12498828779E+03 0.  0.
    9000005    1    3    3    0    0 -0.35449213794E+02  0.30719787701E+02 -0.59881841602E+03  0.60065368348E+03  0.10000000000E+01 0.  0.
    9000005    1    3    3    0    0  0.35449213794E+02 -0.30719787701E+02 -0.11810173197E+03  0.12708017630E+03  0.10000000000E+01 0.  0.
<mgrwt>
<rscale>  0 0.12498829E+03</rscale>
<asrwt>0</asrwt>
<pdfrwt beam="1">  1        4 0.83182455E-03 0.12498829E+03</pdfrwt>
<pdfrwt beam="2">  1       -4 0.11112716E+00 0.12498829E+03</pdfrwt>
<totfact> 0.41673129E+03</totfact>
</mgrwt>
</event>
<event>
 5    1  0.3293542E-002  0.1250017E+03  0.7818608E-02  0.1235067E+00
         -4   -1    0    0    0  501 -0.00000000000E+00  0.00000000000E+00  0.19254912736E+03  0.19255331560E+03  0.12700000000E+01 0. -1.
          4   -1    0    0  501    0  0.00000000000E+00 -0.00000000000E+00 -0.20263282354E+02  0.20303041934E+02  0.12700000000E+01 0. -1.
         25    2    1    2    0    0  0.00000000000E+00  0.00000000000E+00  0.17228584501E+03  0.21285635753E+03  0.12500166620E+03 0.  0.
    9000005    1    3    3    0    0 -0.40170295739E+02  0.28664581753E+02  0.15143130024E+03  0.15927256386E+03  0.10000000000E+01 0.  0.
    9000005    1    3    3    0    0  0.40170295739E+02 -0.28664581753E+02  0.20854544773E+02  0.53583793674E+02  0.10000000000E+01 0.  0.
<mgrwt>
<rscale>  0 0.12500167E+03</rscale>
<asrwt>0</asrwt>
<pdfrwt beam="2">  1        4 0.31208088E-02 0.12500167E+03</pdfrwt>
<pdfrwt beam="1">  1       -4 0.29626322E-01 0.12500167E+03</pdfrwt>
<totfact> 0.88008237E+03</totfact>
</mgrwt>
</event>
<event>
 5    1  0.3293542E-002  0.1250004E+03  0.7818608E-02  0.1235069E+00
         -4   -1    0    0    0  501 -0.00000000000E+00  0.00000000000E+00  0.10632548254E+03  0.10633306700E+03  0.12700000000E+01 0. -1.
          4   -1    0    0  501    0  0.00000000000E+00 -0.00000000000E+00 -0.36718957612E+02  0.36740913817E+02  0.12700000000E+01 0. -1.
         25    2    1    2    0    0  0.00000000000E+00  0.00000000000E+00  0.69606524930E+02  0.14307398082E+03  0.12500038270E+03 0.  0.
    9000005    1    3    3    0    0 -0.14261033798E+02  0.60578686879E+02  0.41290113227E+02  0.74692890152E+02  0.10000000000E+01 0.  0.
    9000005    1    3    3    0    0  0.14261033798E+02 -0.60578686879E+02  0.28316411703E+02  0.68381090666E+02  0.10000000000E+01 0.  0.
<mgrwt>
<rscale>  0 0.12500038E+03</rscale>
<asrwt>0</asrwt>
<pdfrwt beam="2">  1        4 0.56513428E-02 0.12500038E+03</pdfrwt>
<pdfrwt beam="1">  1       -4 0.16360039E-01 0.12500038E+03</pdfrwt>
<totfact> 0.10070182E+04</totfact>
</mgrwt>
</event>
<event>
 5    1  0.3293542E-002  0.1249978E+03  0.7818608E-02  0.1235073E+00
         -4   -1    0    0    0  501 -0.00000000000E+00  0.00000000000E+00  0.36386128396E+03  0.36386350032E+03  0.12700000000E+01 0. -1.
          4   -1    0    0  501    0  0.00000000000E+00 -0.00000000000E+00 -0.10695356723E+02  0.10770494670E+02  0.12700000000E+01 0. -1.
         25    2    1    2    0    0  0.00000000000E+00  0.00000000000E+00  0.35316592723E+03  0.37463399499E+03  0.12499783215E+03 0.  0.
    9000005    1    3    3    0    0 -0.56015130887E+02 -0.15683807432E+02  0.24502232691E+03  0.25183450397E+03  0.10000000000E+01 0.  0.
    9000005    1    3    3    0    0  0.56015130887E+02  0.15683807432E+02  0.10814360032E+03  0.12279949102E+03  0.10000000000E+01 0.  0.
<mgrwt>
<rscale>  0 0.12499783E+03</rscale>
<asrwt>0</asrwt>
<pdfrwt beam="2">  1        4 0.16513900E-02 0.12499783E+03</pdfrwt>
<pdfrwt beam="1">  1       -4 0.55984602E-01 0.12499783E+03</pdfrwt>
<totfact> 0.67100123E+03</totfact>
</mgrwt>
</event>
<event>
 4    1  0.3293542E-002  0.1248284E+03  0.7818608E-02  0.1235338E+00
         -4   -1    0    0    0  501 -0.00000000000E+00  0.00000000000E+00  0.37984182686E+01  0.40051069079E+01  0.12700000000E+01 0. -1.
          4   -1    0    0  501    0  0.00000000000E+00 -0.00000000000E+00 -0.99819584839E+03  0.99819665630E+03  0.12700000000E+01 0. -1.
    9000005    1    1    2    0    0 -0.47641880218E+02 -0.19332252167E+01 -0.17394808696E+03  0.18036746677E+03  0.10000000000E+01 0.  0.
    9000005    1    1    2    0    0  0.47641880218E+02  0.19332252167E+01 -0.82044934316E+03  0.82183429644E+03  0.10000000000E+01 0.  0.
<mgrwt>
<rscale>  0 0.12482838E+03</rscale>
<asrwt>0</asrwt>
<pdfrwt beam="2">  1        4 0.15358435E+00 0.12482838E+03</pdfrwt>
<pdfrwt beam="1">  1       -4 0.60033411E-03 0.12482838E+03</pdfrwt>
<totfact> 0.30646521E+03</totfact>
</mgrwt>
</event>
<event>
 5    1  0.3293542E-002  0.1249962E+03  0.7818608E-02  0.1235075E+00
         -4   -1    0    0    0  501 -0.00000000000E+00  0.00000000000E+00  0.29988668431E+02  0.30015548208E+02  0.12700000000E+01 0. -1.
          4   -1    0    0  501    0  0.00000000000E+00 -0.00000000000E+00 -0.13016133073E+03  0.13016752636E+03  0.12700000000E+01 0. -1.
         25    2    1    2    0    0  0.00000000000E+00  0.00000000000E+00 -0.10017266230E+03  0.16018307457E+03  0.12499622036E+03 0.  0.
    9000005    1    3    3    0    0 -0.46175026838E+02  0.15880023572E+02 -0.10006012329E+03  0.11134332726E+03  0.10000000000E+01 0.  0.
    9000005    1    3    3    0    0  0.46175026838E+02 -0.15880023572E+02 -0.11253901180E+00  0.48839747308E+02  0.10000000000E+01 0.  0.
<mgrwt>
<rscale>  0 0.12499622E+03</rscale>
<asrwt>0</asrwt>
<pdfrwt beam="2">  1        4 0.20027364E-01 0.12499622E+03</pdfrwt>
<pdfrwt beam="1">  1       -4 0.46161856E-02 0.12499622E+03</pdfrwt>
<totfact> 0.97315769E+03</totfact>
</mgrwt>
</event>
<event>
 5    1  0.3293542E-002  0.1249969E+03  0.7818608E-02  0.1235074E+00
          4   -1    0    0  501    0  0.00000000000E+00  0.00000000000E+00  0.60394816903E+03  0.60394950433E+03  0.12700000000E+01 0. -1.
         -4   -1    0    0    0  501 -0.00000000000E+00 -0.00000000000E+00 -0.64038392785E+01  0.65285570767E+01  0.12700000000E+01 0. -1.
         25    2    1    2    0    0  0.00000000000E+00  0.00000000000E+00  0.59754432975E+03  0.61047806140E+03  0.12499694970E+03 0.  0.
    9000005    1    3    3    0    0 -0.96662821832E-01  0.30978826060E+02  0.56382961271E+03  0.56468090917E+03  0.10000000000E+01 0.  0.
    9000005    1    3    3    0    0  0.96662821832E-01 -0.30978826060E+02  0.33714717043E+02  0.45797152237E+02  0.10000000000E+01 0.  0.
<mgrwt>
<rscale>  0 0.12499695E+03</rscale>
<asrwt>0</asrwt>
<pdfrwt beam="1">  1        4 0.92924785E-01 0.12499695E+03</pdfrwt>
<pdfrwt beam="2">  1       -4 0.99490259E-03 0.12499695E+03</pdfrwt>
<totfact> 0.48216044E+03</totfact>
</mgrwt>
</event>
<event>
 5    1  0.3293542E-002  0.1250006E+03  0.7818608E-02  0.1235068E+00
         -4   -1    0    0    0  501 -0.00000000000E+00  0.00000000000E+00  0.50258244421E+02  0.50274287984E+02  0.12700000000E+01 0. -1.
          4   -1    0    0  501    0  0.00000000000E+00 -0.00000000000E+00 -0.77690702267E+02  0.77701081837E+02  0.12700000000E+01 0. -1.
         25    2    1    2    0    0  0.00000000000E+00  0.00000000000E+00 -0.27432457845E+02  0.12797536982E+03  0.12500062215E+03 0.  0.
    9000005    1    3    3    0    0 -0.47585255102E+02 -0.39642745300E+02 -0.51882246321E+01  0.62159644730E+02  0.10000000000E+01 0.  0.
    9000005    1    3    3    0    0  0.47585255102E+02  0.39642745300E+02 -0.22244233213E+02  0.65815725092E+02  0.10000000000E+01 0.  0.
<mgrwt>
<rscale>  0 0.12500062E+03</rscale>
<asrwt>0</asrwt>
<pdfrwt beam="2">  1        4 0.11954448E-01 0.12500062E+03</pdfrwt>
<pdfrwt beam="1">  1       -4 0.77340702E-02 0.12500062E+03</pdfrwt>
<totfact> 0.10387874E+04</totfact>
</mgrwt>
</event>
<event>
 5    1  0.3293542E-002  0.1249949E+03  0.7818608E-02  0.1235077E+00
         -4   -1    0    0    0  501 -0.00000000000E+00  0.00000000000E+00  0.81712179333E+02  0.81722048134E+02  0.12700000000E+01 0. -1.
          4   -1    0    0  501    0  0.00000000000E+00 -0.00000000000E+00 -0.47779860668E+02  0.47796736138E+02  0.12700000000E+01 0. -1.
         25    2    1    2    0    0  0.00000000000E+00  0.00000000000E+00  0.33932318665E+02  0.12951878427E+03  0.12499485281E+03 0.  0.
    9000005    1    3    3    0    0 -0.18255833054E+02 -0.38183780466E+02 -0.30672260692E+02  0.52278715623E+02  0.10000000000E+01 0.  0.
    9000005    1    3    3    0    0  0.18255833054E+02  0.38183780466E+02  0.64604579357E+02  0.77240068650E+02  0.10000000000E+01 0.  0.
<mgrwt>
<rscale>  0 0.12499485E+03</rscale>
<asrwt>0</asrwt>
<pdfrwt beam="2">  1        4 0.73528051E-02 0.12499485E+03</pdfrwt>
<pdfrwt beam="1">  1       -4 0.12573162E-01 0.12499485E+03</pdfrwt>
<totfact> 0.10356016E+04</totfact>
</mgrwt>
</event>
<event>
 5    1  0.3293542E-002  0.1249968E+03  0.7818608E-02  0.1235074E+00
         -4   -1    0    0    0  501 -0.00000000000E+00  0.00000000000E+00  0.11485253632E+04  0.11485260653E+04  0.12700000000E+01 0. -1.
          4   -1    0    0  501    0  0.00000000000E+00 -0.00000000000E+00 -0.32816356267E+01  0.35188112178E+01  0.12700000000E+01 0. -1.
         25    2    1    2    0    0  0.00000000000E+00  0.00000000000E+00  0.11452437275E+04  0.11520448765E+04  0.12499680838E+03 0.  0.
    9000005    1    3    3    0    0  0.24687171266E+02  0.54881918215E+02  0.41741891559E+03  0.42173573771E+03  0.10000000000E+01 0.  0.
    9000005    1    3    3    0    0 -0.24687171266E+02 -0.54881918215E+02  0.72782481193E+03  0.73030913881E+03  0.10000000000E+01 0.  0.
<mgrwt>
<rscale>  0 0.12499681E+03</rscale>
<asrwt>0</asrwt>
<pdfrwt beam="2">  1        4 0.52316577E-03 0.12499681E+03</pdfrwt>
<pdfrwt beam="1">  1       -4 0.17671435E+00 0.12499681E+03</pdfrwt>
<totfact> 0.26005400E+03</totfact>
</mgrwt>
</event>
<event>
 5    1  0.3293542E-002  0.1249991E+03  0.7818608E-02  0.1235071E+00
          4   -1    0    0  501    0  0.00000000000E+00  0.00000000000E+00  0.80754754587E+03  0.80754854451E+03  0.12700000000E+01 0. -1.
         -4   -1    0    0    0  501 -0.00000000000E+00 -0.00000000000E+00 -0.47527259064E+01  0.49194820400E+01  0.12700000000E+01 0. -1.
         25    2    1    2    0    0  0.00000000000E+00  0.00000000000E+00  0.80279481997E+03  0.81246802655E+03  0.12499908482E+03 0.  0.
    9000005    1    3    3    0    0 -0.21889457996E+02 -0.55993621657E+02  0.51222958412E+03  0.51574662469E+03  0.10000000000E+01 0.  0.
    9000005    1    3    3    0    0  0.21889457996E+02  0.55993621657E+02  0.29056523585E+03  0.29672140186E+03  0.10000000000E+01 0.  0.
<mgrwt>
<rscale>  0 0.12499908E+03</rscale>
<asrwt>0</asrwt>
<pdfrwt beam="1">  1        4 0.12425101E+00 0.12499908E+03</pdfrwt>
<pdfrwt beam="2">  1       -4 0.74409265E-03 0.12499908E+03</pdfrwt>
<totfact> 0.37714892E+03</totfact>
</mgrwt>
</event>
<event>
 5    1  0.3293542E-002  0.1249995E+03  0.7818608E-02  0.1235070E+00
         -4   -1    0    0    0  501 -0.00000000000E+00  0.00000000000E+00  0.52576074250E+02  0.52591410739E+02  0.12700000000E+01 0. -1.
          4   -1    0    0  501    0  0.00000000000E+00 -0.00000000000E+00 -0.74264857338E+02  0.74275715651E+02  0.12700000000E+01 0. -1.
         25    2    1    2    0    0  0.00000000000E+00  0.00000000000E+00 -0.21688783088E+02  0.12686712639E+03  0.12499945779E+03 0.  0.
    9000005    1    3    3    0    0  0.22528884484E+02 -0.51049707324E+02 -0.39400032146E+02  0.68315340788E+02  0.10000000000E+01 0.  0.
    9000005    1    3    3    0    0 -0.22528884484E+02  0.51049707324E+02  0.17711249058E+02  0.58551785602E+02  0.10000000000E+01 0.  0.
<mgrwt>
<rscale>  0 0.12499946E+03</rscale>
<asrwt>0</asrwt>
<pdfrwt beam="2">  1        4 0.11427378E-01 0.12499946E+03</pdfrwt>
<pdfrwt beam="1">  1       -4 0.80906418E-02 0.12499946E+03</pdfrwt>
<totfact> 0.10412161E+04</totfact>
</mgrwt>
</event>
<event>
 5    1  0.3293542E-002  0.1249978E+03  0.7818608E-02  0.1235073E+00
          4   -1    0    0  501    0  0.00000000000E+00  0.00000000000E+00  0.12292417598E+03  0.12293073636E+03  0.12700000000E+01 0.  1.
         -4   -1    0    0    0  501 -0.00000000000E+00 -0.00000000000E+00 -0.31756503253E+02  0.31781887906E+02  0.12700000000E+01 0.  1.
         25    2    1    2    0    0  0.00000000000E+00  0.00000000000E+00  0.91167672729E+02  0.15471262426E+03  0.12499780620E+03 0.  0.
    9000005    1    3    3    0    0  0.45201008052E+01  0.79613508754E+01  0.12209571086E+03  0.12244254583E+03  0.10000000000E+01 0.  0.
    9000005    1    3    3    0    0 -0.45201008052E+01 -0.79613508754E+01 -0.30928038133E+02  0.32270078429E+02  0.10000000000E+01 0.  0.
<mgrwt>
<rscale>  0 0.12499781E+03</rscale>
<asrwt>0</asrwt>
<pdfrwt beam="1">  1        4 0.18913869E-01 0.12499781E+03</pdfrwt>
<pdfrwt beam="2">  1       -4 0.48880732E-02 0.12499781E+03</pdfrwt>
<totfact> 0.98376797E+03</totfact>
</mgrwt>
</event>
<event>
 5    1  0.3293542E-002  0.1250008E+03  0.7818608E-02  0.1235068E+00
         -4   -1    0    0    0  501 -0.00000000000E+00  0.00000000000E+00  0.34437269695E+02  0.34460679680E+02  0.12700000000E+01 0. -1.
          4   -1    0    0  501    0  0.00000000000E+00 -0.00000000000E+00 -0.11336675105E+03  0.11337386446E+03  0.12700000000E+01 0. -1.
         25    2    1    2    0    0  0.00000000000E+00  0.00000000000E+00 -0.78929481355E+02  0.14783454414E+03  0.12500075766E+03 0.  0.
    9000005    1    3    3    0    0 -0.24287111670E+02 -0.41326904598E+01  0.28457490235E+02  0.37653308941E+02  0.10000000000E+01 0.  0.
    9000005    1    3    3    0    0  0.24287111670E+02  0.41326904598E+01 -0.10738697159E+03  0.11018123520E+03  0.10000000000E+01 0.  0.
<mgrwt>
<rscale>  0 0.12500076E+03</rscale>
<asrwt>0</asrwt>
<pdfrwt beam="2">  1        4 0.17443386E-01 0.12500076E+03</pdfrwt>
<pdfrwt beam="1">  1       -4 0.53003895E-02 0.12500076E+03</pdfrwt>
<totfact> 0.99735412E+03</totfact>
</mgrwt>
</event>
<event>
 5    1  0.3293542E-002  0.1249982E+03  0.7818608E-02  0.1235072E+00
         -4   -1    0    0    0  501 -0.00000000000E+00  0.00000000000E+00  0.28536871602E+02  0.28565117554E+02  0.12700000000E+01 0. -1.
          4   -1    0    0  501    0  0.00000000000E+00 -0.00000000000E+00 -0.13678147351E+03  0.13678736928E+03  0.12700000000E+01 0. -1.
         25    2    1    2    0    0  0.00000000000E+00  0.00000000000E+00 -0.10824460190E+03  0.16535248683E+03  0.12499820423E+03 0.  0.
    9000005    1    3    3    0    0  0.10058082636E+02  0.61080063019E+02 -0.65440008424E+02  0.90085147651E+02  0.10000000000E+01 0.  0.
    9000005    1    3    3    0    0 -0.10058082636E+02 -0.61080063019E+02 -0.42804593480E+02  0.75267339183E+02  0.10000000000E+01 0.  0.
<mgrwt>
<rscale>  0 0.12499820E+03</rscale>
<asrwt>0</asrwt>
<pdfrwt beam="2">  1        4 0.21045930E-01 0.12499820E+03</pdfrwt>
<pdfrwt beam="1">  1       -4 0.43929143E-02 0.12499820E+03</pdfrwt>
<totfact> 0.96324564E+03</totfact>
</mgrwt>
</event>
<event>
 5    1  0.3293542E-002  0.1249926E+03  0.7818608E-02  0.1235081E+00
          4   -1    0    0  501    0  0.00000000000E+00  0.00000000000E+00  0.47860055137E+02  0.47876902341E+02  0.12700000000E+01 0. -1.
         -4   -1    0    0    0  501 -0.00000000000E+00 -0.00000000000E+00 -0.81572311282E+02  0.81582197004E+02  0.12700000000E+01 0. -1.
         25    2    1    2    0    0  0.00000000000E+00  0.00000000000E+00 -0.33712256145E+02  0.12945909934E+03  0.12499256853E+03 0.  0.
    9000005    1    3    3    0    0 -0.60309281324E+02 -0.15458764606E+02 -0.11316863180E+02  0.63287077742E+02  0.10000000000E+01 0.  0.
    9000005    1    3    3    0    0  0.60309281324E+02  0.15458764606E+02 -0.22395392965E+02  0.66172021603E+02  0.10000000000E+01 0.  0.
<mgrwt>
<rscale>  0 0.12499257E+03</rscale>
<asrwt>0</asrwt>
<pdfrwt beam="1">  1        4 0.73651418E-02 0.12499257E+03</pdfrwt>
<pdfrwt beam="2">  1       -4 0.12551643E-01 0.12499257E+03</pdfrwt>
<totfact> 0.10357830E+04</totfact>
</mgrwt>
</event>
<event>
 5    1  0.3293542E-002  0.1250002E+03  0.7818608E-02  0.1235069E+00
         -4   -1    0    0    0  501 -0.00000000000E+00  0.00000000000E+00  0.62609834972E+02  0.62622714212E+02  0.12700000000E+01 0. -1.
          4   -1    0    0  501    0  0.00000000000E+00 -0.00000000000E+00 -0.62364763406E+02  0.62377693246E+02  0.12700000000E+01 0. -1.
         25    2    1    2    0    0  0.00000000000E+00  0.00000000000E+00  0.24507156595E+00  0.12500040746E+03  0.12500016722E+03 0.  0.
    9000005    1    3    3    0    0  0.25195529611E+02 -0.48173787433E+02 -0.30695244697E+02  0.62439783432E+02  0.10000000000E+01 0.  0.
    9000005    1    3    3    0    0 -0.25195529611E+02  0.48173787433E+02  0.30940316263E+02  0.62560624026E+02  0.10000000000E+01 0.  0.
<mgrwt>
<rscale>  0 0.12500017E+03</rscale>
<asrwt>0</asrwt>
<pdfrwt beam="2">  1        4 0.95965643E-02 0.12500017E+03</pdfrwt>
<pdfrwt beam="1">  1       -4 0.96342676E-02 0.12500017E+03</pdfrwt>
<totfact> 0.10452814E+04</totfact>
</mgrwt>
</event>
<event>
 5    1  0.3293542E-002  0.1249941E+03  0.7818608E-02  0.1235079E+00
          4   -1    0    0  501    0  0.00000000000E+00  0.00000000000E+00  0.42676911786E+03  0.42677100752E+03  0.12700000000E+01 0. -1.
         -4   -1    0    0    0  501 -0.00000000000E+00 -0.00000000000E+00 -0.91062323087E+01  0.91943660391E+01  0.12700000000E+01 0. -1.
         25    2    1    2    0    0  0.00000000000E+00  0.00000000000E+00  0.41766288555E+03  0.43596537356E+03  0.12499408376E+03 0.  0.
    9000005    1    3    3    0    0 -0.32308754934E+02 -0.39828375774E+02  0.84302355480E+02  0.98681519555E+02  0.10000000000E+01 0.  0.
    9000005    1    3    3    0    0  0.32308754934E+02  0.39828375774E+02  0.33336053007E+03  0.33728385401E+03  0.10000000000E+01 0.  0.
<mgrwt>
<rscale>  0 0.12499408E+03</rscale>
<asrwt>0</asrwt>
<pdfrwt beam="1">  1        4 0.65663705E-01 0.12499408E+03</pdfrwt>
<pdfrwt beam="2">  1       -4 0.14078839E-02 0.12499408E+03</pdfrwt>
<totfact> 0.61206948E+03</totfact>
</mgrwt>
</event>
<event>
 5    1  0.3293542E-002  0.1250001E+03  0.7818608E-02  0.1235069E+00
          4   -1    0    0  501    0  0.00000000000E+00  0.00000000000E+00  0.65638168808E+01  0.66855509904E+01  0.12700000000E+01 0. -1.
         -4   -1    0    0    0  501 -0.00000000000E+00 -0.00000000000E+00 -0.58952914444E+03  0.58953051240E+03  0.12700000000E+01 0. -1.
         25    2    1    2    0    0  0.00000000000E+00  0.00000000000E+00 -0.58296532756E+03  0.59621606339E+03  0.12500008441E+03 0.  0.
    9000005    1    3    3    0    0  0.50674021316E+02  0.34541935307E+02 -0.34876973411E+03  0.35412191285E+03  0.10000000000E+01 0.  0.
    9000005    1    3    3    0    0 -0.50674021316E+02 -0.34541935307E+02 -0.23419559346E+03  0.24209415054E+03  0.10000000000E+01 0.  0.
<mgrwt>
<rscale>  0 0.12500008E+03</rscale>
<asrwt>0</asrwt>
<pdfrwt beam="1">  1        4 0.10192878E-02 0.12500008E+03</pdfrwt>
<pdfrwt beam="2">  1       -4 0.90706220E-01 0.12500008E+03</pdfrwt>
<totfact> 0.49107263E+03</totfact>
</mgrwt>
</event>
<event>
 5    1  0.3293542E-002  0.1249892E+03  0.7818608E-02  0.1235086E+00
         -4   -1    0    0    0  501 -0.00000000000E+00  0.00000000000E+00  0.23418816466E+02  0.23453227170E+02  0.12700000000E+01 0.  1.
          4   -1    0    0  501    0  0.00000000000E+00 -0.00000000000E+00 -0.16661145029E+03  0.16661629052E+03  0.12700000000E+01 0.  1.
         25    2    1    2    0    0  0.00000000000E+00  0.00000000000E+00 -0.14319263382E+03  0.19006951769E+03  0.12498916423E+03 0.  0.
    9000005    1    3    3    0    0 -0.85797042310E+01  0.13502307872E+02 -0.16345202741E+03  0.16423607675E+03  0.10000000000E+01 0.  0.
    9000005    1    3    3    0    0  0.85797042310E+01 -0.13502307872E+02  0.20259393584E+02  0.25833440943E+02  0.10000000000E+01 0.  0.
<mgrwt>
<rscale>  0 0.12498916E+03</rscale>
<asrwt>0</asrwt>
<pdfrwt beam="2">  1        4 0.25635549E-01 0.12498916E+03</pdfrwt>
<pdfrwt beam="1">  1       -4 0.36059143E-02 0.12498916E+03</pdfrwt>
<totfact> 0.91857514E+03</totfact>
</mgrwt>
</event>
<event>
 5    1  0.3293542E-002  0.1249927E+03  0.7818608E-02  0.1235081E+00
          4   -1    0    0  501    0  0.00000000000E+00  0.00000000000E+00  0.49410046928E+03  0.49410210143E+03  0.12700000000E+01 0.  1.
         -4   -1    0    0    0  501 -0.00000000000E+00 -0.00000000000E+00 -0.78521894846E+01  0.79542303023E+01  0.12700000000E+01 0.  1.
         25    2    1    2    0    0  0.00000000000E+00  0.00000000000E+00  0.48624827979E+03  0.50205633173E+03  0.12499268232E+03 0.  0.
    9000005    1    3    3    0    0  0.50420883212E+02 -0.29007813604E+02  0.15143507590E+03  0.16222607968E+03  0.10000000000E+01 0.  0.
    9000005    1    3    3    0    0 -0.50420883212E+02  0.29007813604E+02  0.33481320389E+03  0.33983025206E+03  0.10000000000E+01 0.  0.
<mgrwt>
<rscale>  0 0.12499268E+03</rscale>
<asrwt>0</asrwt>
<pdfrwt beam="1">  1        4 0.76023447E-01 0.12499268E+03</pdfrwt>
<pdfrwt beam="2">  1       -4 0.12160038E-02 0.12499268E+03</pdfrwt>
<totfact> 0.55714127E+03</totfact>
</mgrwt>
</event>
<event>
 5    1  0.3293542E-002  0.1250021E+03  0.7818608E-02  0.1235066E+00
          4   -1    0    0  501    0  0.00000000000E+00  0.00000000000E+00  0.14475894126E+02  0.14531497195E+02  0.12700000000E+01 0. -1.
         -4   -1    0    0    0  501 -0.00000000000E+00 -0.00000000000E+00 -0.26927998640E+03  0.26928298123E+03  0.12700000000E+01 0. -1.
         25    2    1    2    0    0  0.00000000000E+00  0.00000000000E+00 -0.25480409228E+03  0.28381447842E+03  0.12500213086E+03 0.  0.
    9000005    1    3    3    0    0 -0.30271080221E+02 -0.30407937551E+02 -0.24241344182E+02  0.49291213533E+02  0.10000000000E+01 0.  0.
    9000005    1    3    3    0    0  0.30271080221E+02  0.30407937551E+02 -0.23056274810E+03  0.23452326489E+03  0.10000000000E+01 0.  0.
<mgrwt>
<rscale>  0 0.12500213E+03</rscale>
<asrwt>0</asrwt>
<pdfrwt beam="1">  1        4 0.22315684E-02 0.12500213E+03</pdfrwt>
<pdfrwt beam="2">  1       -4 0.41432194E-01 0.12500213E+03</pdfrwt>
<totfact> 0.77671360E+03</totfact>
</mgrwt>
</event>
<event>
 5    1  0.3293542E-002  0.1250001E+03  0.7818608E-02  0.1235069E+00
          4   -1    0    0  501    0  0.00000000000E+00  0.00000000000E+00  0.41176664270E+02  0.41196244737E+02  0.12700000000E+01 0.  1.
         -4   -1    0    0    0  501 -0.00000000000E+00 -0.00000000000E+00 -0.94819413764E+02  0.94827918498E+02  0.12700000000E+01 0.  1.
         25    2    1    2    0    0  0.00000000000E+00  0.00000000000E+00 -0.53642749494E+02  0.13602416323E+03  0.12500011364E+03 0.  0.
    9000005    1    3    3    0    0  0.14348700650E+02 -0.29664187602E+02 -0.84602315528E+02  0.90798684072E+02  0.10000000000E+01 0.  0.
    9000005    1    3    3    0    0 -0.14348700650E+02  0.29664187602E+02  0.30959566034E+02  0.45225479163E+02  0.10000000000E+01 0.  0.
<mgrwt>
<rscale>  0 0.12500011E+03</rscale>
<asrwt>0</asrwt>
<pdfrwt beam="1">  1        4 0.63370319E-02 0.12500011E+03</pdfrwt>
<pdfrwt beam="2">  1       -4 0.14589762E-01 0.12500011E+03</pdfrwt>
<totfact> 0.10216503E+04</totfact>
</mgrwt>
</event>
<event>
 5    1  0.3293542E-002  0.1250002E+03  0.7818608E-02  0.1235069E+00
         -4   -1    0    0    0  501 -0.00000000000E+00  0.00000000000E+00  0.51154399435E+02  0.51170162023E+02  0.12700000000E+01 0. -1.
          4   -1    0    0  501    0  0.00000000000E+00 -0.00000000000E+00 -0.76329363666E+02  0.76339928331E+02  0.12700000000E+01 0. -1.
         25    2    1    2    0    0  0.00000000000E+00  0.00000000000E+00 -0.25174964231E+02  0.12751009035E+03  0.12500017727E+03 0.  0.
    9000005    1    3    3    0    0  0.41867871565E+02 -0.21181539175E+02  0.29517021337E+02  0.55442139387E+02  0.10000000000E+01 0.  0.
    9000005    1    3    3    0    0 -0.41867871565E+02  0.21181539175E+02 -0.54691985569E+02  0.72067950967E+02  0.10000000000E+01 0.  0.
<mgrwt>
<rscale>  0 0.12500018E+03</rscale>
<asrwt>0</asrwt>
<pdfrwt beam="2">  1        4 0.11745004E-01 0.12500018E+03</pdfrwt>
<pdfrwt beam="1">  1       -4 0.78719328E-02 0.12500018E+03</pdfrwt>
<totfact> 0.10398040E+04</totfact>
</mgrwt>
</event>
<event>
 5    1  0.3293542E-002  0.1250012E+03  0.7818608E-02  0.1235067E+00
          4   -1    0    0  501    0  0.00000000000E+00  0.00000000000E+00  0.90107309737E+03  0.90107399236E+03  0.12700000000E+01 0.  1.
         -4   -1    0    0    0  501 -0.00000000000E+00 -0.00000000000E+00 -0.42412625998E+01  0.44273252016E+01  0.12700000000E+01 0.  1.
         25    2    1    2    0    0  0.00000000000E+00  0.00000000000E+00  0.89683183477E+03  0.90550131756E+03  0.12500118497E+03 0.  0.
    9000005    1    3    3    0    0  0.55377319852E+02  0.15474326962E+01  0.23893169423E+03  0.24527208690E+03  0.10000000000E+01 0.  0.
    9000005    1    3    3    0    0 -0.55377319852E+02 -0.15474326962E+01  0.65790014054E+03  0.66022923066E+03  0.10000000000E+01 0.  0.
<mgrwt>
<rscale>  0 0.12500118E+03</rscale>
<asrwt>0</asrwt>
<pdfrwt beam="1">  1        4 0.13864111E+00 0.12500118E+03</pdfrwt>
<pdfrwt beam="2">  1       -4 0.66688282E-03 0.12500118E+03</pdfrwt>
<totfact> 0.33949237E+03</totfact>
</mgrwt>
</event>
<event>
 5    1  0.3293542E-002  0.1250036E+03  0.7818608E-02  0.1235064E+00
         -4   -1    0    0    0  501 -0.00000000000E+00  0.00000000000E+00  0.16328931015E+03  0.16329424886E+03  0.12700000000E+01 0. -1.
          4   -1    0    0  501    0  0.00000000000E+00 -0.00000000000E+00 -0.23901490144E+02  0.23935206936E+02  0.12700000000E+01 0. -1.
         25    2    1    2    0    0  0.00000000000E+00  0.00000000000E+00  0.13938782001E+03  0.18722945580E+03  0.12500361895E+03 0.  0.
    9000005    1    3    3    0    0 -0.86451157827E+01  0.53474737735E+02  0.11637100511E+03  0.12836470088E+03  0.10000000000E+01 0.  0.
    9000005    1    3    3    0    0  0.86451157827E+01 -0.53474737735E+02  0.23016814901E+02  0.58864754912E+02  0.10000000000E+01 0.  0.
<mgrwt>
<rscale>  0 0.12500362E+03</rscale>
<asrwt>0</asrwt>
<pdfrwt beam="2">  1        4 0.36801258E-02 0.12500362E+03</pdfrwt>
<pdfrwt beam="1">  1       -4 0.25124406E-01 0.12500362E+03</pdfrwt>
<totfact> 0.92324140E+03</totfact>
</mgrwt>
</event>
<event>
 5    1  0.3293542E-002  0.1250037E+03  0.7818608E-02  0.1235063E+00
          4   -1    0    0  501    0  0.00000000000E+00  0.00000000000E+00  0.58156358754E+02  0.58170224029E+02  0.12700000000E+01 0.  1.
         -4   -1    0    0    0  501 -0.00000000000E+00 -0.00000000000E+00 -0.67144205263E+02  0.67156214905E+02  0.12700000000E+01 0.  1.
         25    2    1    2    0    0  0.00000000000E+00  0.00000000000E+00 -0.89878465083E+01  0.12532643893E+03  0.12500373959E+03 0.  0.
    9000005    1    3    3    0    0 -0.58894075986E+01  0.36316692399E+02  0.46152784402E+02  0.59031066200E+02  0.10000000000E+01 0.  0.
    9000005    1    3    3    0    0  0.58894075986E+01 -0.36316692399E+02 -0.55140630910E+02  0.66295372733E+02  0.10000000000E+01 0.  0.
<mgrwt>
<rscale>  0 0.12500374E+03</rscale>
<asrwt>0</asrwt>
<pdfrwt beam="1">  1        4 0.89491225E-02 0.12500374E+03</pdfrwt>
<pdfrwt beam="2">  1       -4 0.10331868E-01 0.12500374E+03</pdfrwt>
<totfact> 0.10444894E+04</totfact>
</mgrwt>
</event>
<event>
 5    1  0.3293542E-002  0.1250050E+03  0.7818608E-02  0.1235061E+00
         -4   -1    0    0    0  501 -0.00000000000E+00  0.00000000000E+00  0.44182504061E+02  0.44200752992E+02  0.12700000000E+01 0.  1.
          4   -1    0    0  501    0  0.00000000000E+00 -0.00000000000E+00 -0.88377749583E+02  0.88386874146E+02  0.12700000000E+01 0.  1.
         25    2    1    2    0    0  0.00000000000E+00  0.00000000000E+00 -0.44195245522E+02  0.13258762714E+03  0.12500503647E+03 0.  0.
    9000005    1    3    3    0    0 -0.53751736947E+02  0.28117569514E+02 -0.61623891213E+01  0.60982144763E+02  0.10000000000E+01 0.  0.
    9000005    1    3    3    0    0  0.53751736947E+02 -0.28117569514E+02 -0.38032856401E+02  0.71605482375E+02  0.10000000000E+01 0.  0.
<mgrwt>
<rscale>  0 0.12500504E+03</rscale>
<asrwt>0</asrwt>
<pdfrwt beam="2">  1        4 0.13598682E-01 0.12500504E+03</pdfrwt>
<pdfrwt beam="1">  1       -4 0.67994140E-02 0.12500504E+03</pdfrwt>
<totfact> 0.10288003E+04</totfact>
</mgrwt>
</event>
<event>
 5    1  0.3293542E-002  0.1249992E+03  0.7818608E-02  0.1235071E+00
         -4   -1    0    0    0  501 -0.00000000000E+00  0.00000000000E+00  0.11522004323E+03  0.11522704223E+03  0.12700000000E+01 0.  1.
          4   -1    0    0  501    0  0.00000000000E+00 -0.00000000000E+00 -0.33882165579E+02  0.33905958832E+02  0.12700000000E+01 0.  1.
         25    2    1    2    0    0  0.00000000000E+00  0.00000000000E+00  0.81337877650E+02  0.14913300106E+03  0.12499920666E+03 0.  0.
    9000005    1    3    3    0    0 -0.47179104573E+02  0.75468519290E+01 -0.73864906221E+01  0.48356831224E+02  0.10000000000E+01 0.  0.
    9000005    1    3    3    0    0  0.47179104573E+02 -0.75468519290E+01  0.88724368272E+02  0.10077616984E+03  0.10000000000E+01 0.  0.
<mgrwt>
<rscale>  0 0.12499921E+03</rscale>
<asrwt>0</asrwt>
<pdfrwt beam="2">  1        4 0.52150094E-02 0.12499921E+03</pdfrwt>
<pdfrwt beam="1">  1       -4 0.17728529E-01 0.12499921E+03</pdfrwt>
<totfact> 0.99478578E+03</totfact>
</mgrwt>
</event>
<event>
 5    1  0.3293542E-002  0.1250006E+03  0.7818608E-02  0.1235068E+00
          4   -1    0    0  501    0  0.00000000000E+00  0.00000000000E+00  0.64743223529E+02  0.64755678461E+02  0.12700000000E+01 0. -1.
         -4   -1    0    0    0  501 -0.00000000000E+00 -0.00000000000E+00 -0.60310108271E+02  0.60323478511E+02  0.12700000000E+01 0. -1.
         25    2    1    2    0    0  0.00000000000E+00  0.00000000000E+00  0.44331152582E+01  0.12507915697E+03  0.12500057199E+03 0.  0.
    9000005    1    3    3    0    0 -0.59680394209E+02  0.16849293778E+02  0.99439507728E+01  0.62813456447E+02  0.10000000000E+01 0.  0.
    9000005    1    3    3    0    0  0.59680394209E+02 -0.16849293778E+02 -0.55108355146E+01  0.62265700525E+02  0.10000000000E+01 0.  0.
<mgrwt>
<rscale>  0 0.12500057E+03</rscale>
<asrwt>0</asrwt>
<pdfrwt beam="1">  1        4 0.99624825E-02 0.12500057E+03</pdfrwt>
<pdfrwt beam="2">  1       -4 0.92804648E-02 0.12500057E+03</pdfrwt>
<totfact> 0.10451008E+04</totfact>
</mgrwt>
</event>
<event>
 5    1  0.3293542E-002  0.1249990E+03  0.7818608E-02  0.1235071E+00
          4   -1    0    0  501    0  0.00000000000E+00  0.00000000000E+00  0.37117757987E+01  0.39230319371E+01  0.12700000000E+01 0.  1.
         -4   -1    0    0    0  501 -0.00000000000E+00 -0.00000000000E+00 -0.10230453766E+04  0.10230461649E+04  0.12700000000E+01 0.  1.
         25    2    1    2    0    0  0.00000000000E+00  0.00000000000E+00 -0.10193336008E+04  0.10269691968E+04  0.12499896598E+03 0.  0.
    9000005    1    3    3    0    0 -0.60507382982E+02 -0.24868861315E+01 -0.38295726201E+03  0.38771715531E+03  0.10000000000E+01 0.  0.
    9000005    1    3    3    0    0  0.60507382982E+02  0.24868861315E+01 -0.63637633880E+03  0.63925204152E+03  0.10000000000E+01 0.  0.
<mgrwt>
<rscale>  0 0.12499897E+03</rscale>
<asrwt>0</asrwt>
<pdfrwt beam="1">  1        4 0.58735436E-03 0.12499897E+03</pdfrwt>
<pdfrwt beam="2">  1       -4 0.15740769E+00 0.12499897E+03</pdfrwt>
<totfact> 0.29725626E+03</totfact>
</mgrwt>
</event>
<event>
 5    1  0.3293542E-002  0.1249980E+03  0.7818608E-02  0.1235072E+00
          4   -1    0    0  501    0  0.00000000000E+00  0.00000000000E+00  0.60991988693E+03  0.60992120915E+03  0.12700000000E+01 0.  1.
         -4   -1    0    0    0  501 -0.00000000000E+00 -0.00000000000E+00 -0.63400214783E+01  0.64659703329E+01  0.12700000000E+01 0.  1.
         25    2    1    2    0    0  0.00000000000E+00  0.00000000000E+00  0.60357986545E+03  0.61638717948E+03  0.12499800420E+03 0.  0.
    9000005    1    3    3    0    0 -0.43421246378E+02 -0.78413685630E+01  0.83575855769E+02  0.94513572388E+02  0.10000000000E+01 0.  0.
    9000005    1    3    3    0    0  0.43421246378E+02  0.78413685630E+01  0.52000400968E+03  0.52187360709E+03  0.10000000000E+01 0.  0.
<mgrwt>
<rscale>  0 0.12499800E+03</rscale>
<asrwt>0</asrwt>
<pdfrwt beam="1">  1        4 0.93843659E-01 0.12499800E+03</pdfrwt>
<pdfrwt beam="2">  1       -4 0.98517759E-03 0.12499800E+03</pdfrwt>
<totfact> 0.47851354E+03</totfact>
</mgrwt>
</event>
<event>
 5    1  0.3293542E-002  0.1250002E+03  0.7818608E-02  0.1235069E+00
          4   -1    0    0  501    0  0.00000000000E+00  0.00000000000E+00  0.37651890784E+02  0.37673303274E+02  0.12700000000E+01 0.  1.
         -4   -1    0    0    0  501 -0.00000000000E+00 -0.00000000000E+00 -0.10369192982E+03  0.10369970689E+03  0.12700000000E+01 0.  1.
         25    2    1    2    0    0  0.00000000000E+00  0.00000000000E+00 -0.66040039033E+02  0.14137301016E+03  0.12500016499E+03 0.  0.
    9000005    1    3    3    0    0 -0.36673134821E+02 -0.45714778770E+02 -0.57552189311E+02  0.82146298213E+02  0.10000000000E+01 0.  0.
    9000005    1    3    3    0    0  0.36673134821E+02  0.45714778770E+02 -0.84878497214E+01  0.59226711951E+02  0.10000000000E+01 0.  0.
<mgrwt>
<rscale>  0 0.12500016E+03</rscale>
<asrwt>0</asrwt>
<pdfrwt beam="1">  1        4 0.57948440E-02 0.12500016E+03</pdfrwt>
<pdfrwt beam="2">  1       -4 0.15954850E-01 0.12500016E+03</pdfrwt>
<totfact> 0.10105171E+04</totfact>
</mgrwt>
</event>
<event>
 5    1  0.3293542E-002  0.1249999E+03  0.7818608E-02  0.1235069E+00
         -4   -1    0    0    0  501 -0.00000000000E+00  0.00000000000E+00  0.17599189655E+02  0.17644953287E+02  0.12700000000E+01 0.  1.
          4   -1    0    0  501    0  0.00000000000E+00 -0.00000000000E+00 -0.22162003785E+03  0.22162367671E+03  0.12700000000E+01 0.  1.
         25    2    1    2    0    0  0.00000000000E+00  0.00000000000E+00 -0.20402084820E+03  0.23926863000E+03  0.12499988320E+03 0.  0.
    9000005    1    3    3    0    0 -0.10892541125E+02 -0.19365801513E+02  0.97923874166E+01  0.24301698947E+02  0.10000000000E+01 0.  0.
    9000005    1    3    3    0    0  0.10892541125E+02  0.19365801513E+02 -0.21381323561E+03  0.21496693105E+03  0.10000000000E+01 0.  0.
<mgrwt>
<rscale>  0 0.12499988E+03</rscale>
<asrwt>0</asrwt>
<pdfrwt beam="2">  1        4 0.34099189E-01 0.12499988E+03</pdfrwt>
<pdfrwt beam="1">  1       -4 0.27113680E-02 0.12499988E+03</pdfrwt>
<totfact> 0.83906632E+03</totfact>
</mgrwt>
</event>
<event>
 5    1  0.3293542E-002  0.1249995E+03  0.7818608E-02  0.1235070E+00
          4   -1    0    0  501    0  0.00000000000E+00  0.00000000000E+00  0.53203696077E+02  0.53218851699E+02  0.12700000000E+01 0.  1.
         -4   -1    0    0    0  501 -0.00000000000E+00 -0.00000000000E+00 -0.73388947192E+02  0.73399935082E+02  0.12700000000E+01 0.  1.
         25    2    1    2    0    0  0.00000000000E+00  0.00000000000E+00 -0.20185251116E+02  0.12661878678E+03  0.12499949121E+03 0.  0.
    9000005    1    3    3    0    0  0.31489804136E+01  0.31194665685E-01  0.53128237775E+02  0.53230881074E+02  0.10000000000E+01 0.  0.
    9000005    1    3    3    0    0 -0.31489804136E+01 -0.31194665685E-01 -0.73313488891E+02  0.73387905708E+02  0.10000000000E+01 0.  0.
<mgrwt>
<rscale>  0 0.12499949E+03</rscale>
<asrwt>0</asrwt>
<pdfrwt beam="1">  1        4 0.81871951E-02 0.12499949E+03</pdfrwt>
<pdfrwt beam="2">  1       -4 0.11292618E-01 0.12499949E+03</pdfrwt>
<totfact> 0.10417559E+04</totfact>
</mgrwt>
</event>
<event>
 5    1  0.3293542E-002  0.1250024E+03  0.7818608E-02  0.1235066E+00
         -4   -1    0    0    0  501 -0.00000000000E+00  0.00000000000E+00  0.71361107509E+03  0.71361220519E+03  0.12700000000E+01 0.  1.
          4   -1    0    0  501    0  0.00000000000E+00 -0.00000000000E+00 -0.53993218180E+01  0.55466725246E+01  0.12700000000E+01 0.  1.
         25    2    1    2    0    0  0.00000000000E+00  0.00000000000E+00  0.70821175328E+03  0.71915887771E+03  0.12500241565E+03 0.  0.
    9000005    1    3    3    0    0 -0.51743925141E+02 -0.29367748398E+02  0.46409548171E+03  0.46789476870E+03  0.10000000000E+01 0.  0.
    9000005    1    3    3    0    0  0.51743925141E+02  0.29367748398E+02  0.24411627157E+03  0.25126410902E+03  0.10000000000E+01 0.  0.
<mgrwt>
<rscale>  0 0.12500242E+03</rscale>
<asrwt>0</asrwt>
<pdfrwt beam="2">  1        4 0.84208598E-03 0.12500242E+03</pdfrwt>
<pdfrwt beam="1">  1       -4 0.10979781E+00 0.12500242E+03</pdfrwt>
<totfact> 0.42092176E+03</totfact>
</mgrwt>
</event>
<event>
 5    1  0.3293542E-002  0.1249995E+03  0.7818608E-02  0.1235070E+00
         -4   -1    0    0    0  501 -0.00000000000E+00  0.00000000000E+00  0.11155985288E+04  0.11155992517E+04  0.12700000000E+01 0.  1.
          4   -1    0    0  501    0  0.00000000000E+00 -0.00000000000E+00 -0.33855471329E+01  0.36159133548E+01  0.12700000000E+01 0.  1.
         25    2    1    2    0    0  0.00000000000E+00  0.00000000000E+00  0.11122129817E+04  0.11192151651E+04  0.12499947627E+03 0.  0.
    9000005    1    3    3    0    0  0.54745906432E+02  0.23484340832E+02  0.72518530772E+03  0.72762858593E+03  0.10000000000E+01 0.  0.
    9000005    1    3    3    0    0 -0.54745906432E+02 -0.23484340832E+02  0.38702767399E+03  0.39158657915E+03  0.10000000000E+01 0.  0.
<mgrwt>
<rscale>  0 0.12499948E+03</rscale>
<asrwt>0</asrwt>
<pdfrwt beam="2">  1        4 0.53862945E-03 0.12499948E+03</pdfrwt>
<pdfrwt beam="1">  1       -4 0.17164833E+00 0.12499948E+03</pdfrwt>
<totfact> 0.26928026E+03</totfact>
</mgrwt>
</event>
<event>
 5    1  0.3293542E-002  0.1250020E+03  0.7818608E-02  0.1235066E+00
         -4   -1    0    0    0  501 -0.00000000000E+00  0.00000000000E+00  0.15263476213E+02  0.15316220360E+02  0.12700000000E+01 0. -1.
          4   -1    0    0  501    0  0.00000000000E+00 -0.00000000000E+00 -0.25543391194E+03  0.25543706910E+03  0.12700000000E+01 0. -1.
         25    2    1    2    0    0  0.00000000000E+00  0.00000000000E+00 -0.24017043573E+03  0.27075328946E+03  0.12500202220E+03 0.  0.
    9000005    1    3    3    0    0 -0.10734131271E+02  0.40503601398E+02 -0.22050906431E+03  0.22445714679E+03  0.10000000000E+01 0.  0.
    9000005    1    3    3    0    0  0.10734131271E+02 -0.40503601398E+02 -0.19661371420E+02  0.46296142674E+02  0.10000000000E+01 0.  0.
<mgrwt>
<rscale>  0 0.12500202E+03</rscale>
<asrwt>0</asrwt>
<pdfrwt beam="2">  1        4 0.39301822E-01 0.12500202E+03</pdfrwt>
<pdfrwt beam="1">  1       -4 0.23525274E-02 0.12500202E+03</pdfrwt>
<totfact> 0.79416708E+03</totfact>
</mgrwt>
</event>
<event>
 5    1  0.3293542E-002  0.1250018E+03  0.7818608E-02  0.1235066E+00
          4   -1    0    0  501    0  0.00000000000E+00  0.00000000000E+00  0.31381408067E+03  0.31381665049E+03  0.12700000000E+01 0.  1.
         -4   -1    0    0    0  501 -0.00000000000E+00 -0.00000000000E+00 -0.12413001722E+02  0.12477800758E+02  0.12700000000E+01 0.  1.
         25    2    1    2    0    0  0.00000000000E+00  0.00000000000E+00  0.30140107895E+03  0.32629445125E+03  0.12500183409E+03 0.  0.
    9000005    1    3    3    0    0  0.34826893367E+02 -0.44698091161E+02  0.21949281513E+03  0.22669126086E+03  0.10000000000E+01 0.  0.
    9000005    1    3    3    0    0 -0.34826893367E+02  0.44698091161E+02  0.81908263815E+02  0.99603190391E+02  0.10000000000E+01 0.  0.
<mgrwt>
<rscale>  0 0.12500183E+03</rscale>
<asrwt>0</asrwt>
<pdfrwt beam="1">  1        4 0.48284268E-01 0.12500183E+03</pdfrwt>
<pdfrwt beam="2">  1       -4 0.19148749E-02 0.12500183E+03</pdfrwt>
<totfact> 0.72410744E+03</totfact>
</mgrwt>
</event>
<event>
 5    1  0.3293542E-002  0.1250000E+03  0.7818608E-02  0.1235069E+00
          4   -1    0    0  501    0  0.00000000000E+00  0.00000000000E+00  0.16265529630E+04  0.16265534588E+04  0.12700000000E+01 0.  1.
         -4   -1    0    0    0  501 -0.00000000000E+00 -0.00000000000E+00 -0.22331198265E+01  0.25689928298E+01  0.12700000000E+01 0.  1.
         25    2    1    2    0    0  0.00000000000E+00  0.00000000000E+00  0.16243198432E+04  0.16291224517E+04  0.12500003795E+03 0.  0.
    9000005    1    3    3    0    0  0.22586711954E+02 -0.56358455301E+02  0.61936994867E+03  0.62233959247E+03  0.10000000000E+01 0.  0.
    9000005    1    3    3    0    0 -0.22586711954E+02  0.56358455301E+02  0.10049498945E+04  0.10067828592E+04  0.10000000000E+01 0.  0.
<mgrwt>
<rscale>  0 0.12500004E+03</rscale>
<asrwt>0</asrwt>
<pdfrwt beam="1">  1        4 0.25026521E+00 0.12500004E+03</pdfrwt>
<pdfrwt beam="2">  1       -4 0.36943080E-03 0.12500004E+03</pdfrwt>
<totfact> 0.15525339E+03</totfact>
</mgrwt>
</event>
<event>
 5    1  0.3293542E-002  0.1249949E+03  0.7818608E-02  0.1235077E+00
         -4   -1    0    0    0  501 -0.00000000000E+00  0.00000000000E+00  0.11522791742E+03  0.11523491595E+03  0.12700000000E+01 0. -1.
          4   -1    0    0  501    0  0.00000000000E+00 -0.00000000000E+00 -0.33877488389E+02  0.33901284925E+02  0.12700000000E+01 0. -1.
         25    2    1    2    0    0  0.00000000000E+00  0.00000000000E+00  0.81350429031E+02  0.14913620087E+03  0.12499485632E+03 0.  0.
    9000005    1    3    3    0    0 -0.54703119456E+02 -0.29929357048E+02  0.45555550735E+02  0.77230213610E+02  0.10000000000E+01 0.  0.
    9000005    1    3    3    0    0  0.54703119456E+02  0.29929357048E+02  0.35794878296E+02  0.71905987260E+02  0.10000000000E+01 0.  0.
<mgrwt>
<rscale>  0 0.12499486E+03</rscale>
<asrwt>0</asrwt>
<pdfrwt beam="2">  1        4 0.52142903E-02 0.12499486E+03</pdfrwt>
<pdfrwt beam="1">  1       -4 0.17729740E-01 0.12499486E+03</pdfrwt>
<totfact> 0.99487680E+03</totfact>
</mgrwt>
</event>
<event>
 5    1  0.3293542E-002  0.1250008E+03  0.7818608E-02  0.1235068E+00
          4   -1    0    0  501    0  0.00000000000E+00  0.00000000000E+00  0.10971336393E+02  0.11044596971E+02  0.12700000000E+01 0. -1.
         -4   -1    0    0    0  501 -0.00000000000E+00 -0.00000000000E+00 -0.35478696500E+03  0.35478923804E+03  0.12700000000E+01 0. -1.
         25    2    1    2    0    0  0.00000000000E+00  0.00000000000E+00 -0.34381562860E+03  0.36583383501E+03  0.12500083347E+03 0.  0.
    9000005    1    3    3    0    0  0.40735711425E+02 -0.24664623200E+02 -0.29033996265E+03  0.29422106610E+03  0.10000000000E+01 0.  0.
    9000005    1    3    3    0    0 -0.40735711425E+02  0.24664623200E+02 -0.53475665952E+02  0.71612768917E+02  0.10000000000E+01 0.  0.
<mgrwt>
<rscale>  0 0.12500083E+03</rscale>
<asrwt>0</asrwt>
<pdfrwt beam="1">  1        4 0.16937085E-02 0.12500083E+03</pdfrwt>
<pdfrwt beam="2">  1       -4 0.54588411E-01 0.12500083E+03</pdfrwt>
<totfact> 0.68015810E+03</totfact>
</mgrwt>
</event>
<event>
 5    1  0.3293542E-002  0.1250002E+03  0.7818608E-02  0.1235069E+00
         -4   -1    0    0    0  501 -0.00000000000E+00  0.00000000000E+00  0.47310933901E+03  0.47311104358E+03  0.12700000000E+01 0. -1.
          4   -1    0    0  501    0  0.00000000000E+00 -0.00000000000E+00 -0.82060141211E+01  0.83037080727E+01  0.12700000000E+01 0. -1.
         25    2    1    2    0    0  0.00000000000E+00  0.00000000000E+00  0.46490332489E+03  0.48141475165E+03  0.12500024647E+03 0.  0.
    9000005    1    3    3    0    0 -0.47450872993E+02 -0.30542449070E+02  0.12904997634E+03  0.14085213146E+03  0.10000000000E+01 0.  0.
    9000005    1    3    3    0    0  0.47450872993E+02  0.30542449070E+02  0.33585334855E+03  0.34056262019E+03  0.10000000000E+01 0.  0.
<mgrwt>
<rscale>  0 0.12500025E+03</rscale>
<asrwt>0</asrwt>
<pdfrwt beam="2">  1        4 0.12701094E-02 0.12500025E+03</pdfrwt>
<pdfrwt beam="1">  1       -4 0.72793717E-01 0.12500025E+03</pdfrwt>
<totfact> 0.57335425E+03</totfact>
</mgrwt>
</event>
<event>
 5    1  0.3293542E-002  0.1250448E+03  0.7818608E-02  0.1234999E+00
          4   -1    0    0  501    0  0.00000000000E+00  0.00000000000E+00  0.17662595673E+03  0.17663052253E+03  0.12700000000E+01 0. -1.
         -4   -1    0    0    0  501 -0.00000000000E+00 -0.00000000000E+00 -0.22108741231E+02  0.22145187712E+02  0.12700000000E+01 0. -1.
         25    2    1    2    0    0  0.00000000000E+00  0.00000000000E+00  0.15451721550E+03  0.19877571024E+03  0.12504484435E+03 0.  0.
    9000005    1    3    3    0    0  0.37081358936E+02  0.40457122515E+02  0.12484814277E+03  0.13638132092E+03  0.10000000000E+01 0.  0.
    9000005    1    3    3    0    0 -0.37081358936E+02 -0.40457122515E+02  0.29669072729E+02  0.62394389326E+02  0.10000000000E+01 0.  0.
<mgrwt>
<rscale>  0 0.12504484E+03</rscale>
<asrwt>0</asrwt>
<pdfrwt beam="1">  1        4 0.27176379E-01 0.12504484E+03</pdfrwt>
<pdfrwt beam="2">  1       -4 0.34044995E-02 0.12504484E+03</pdfrwt>
<totfact> 0.90251778E+03</totfact>
</mgrwt>
</event>
<event>
 5    1  0.3293542E-002  0.1249909E+03  0.7818608E-02  0.1235084E+00
          4   -1    0    0  501    0  0.00000000000E+00  0.00000000000E+00  0.46492224564E+02  0.46509567241E+02  0.12700000000E+01 0. -1.
         -4   -1    0    0    0  501 -0.00000000000E+00 -0.00000000000E+00 -0.83969321677E+02  0.83978925231E+02  0.12700000000E+01 0. -1.
         25    2    1    2    0    0  0.00000000000E+00  0.00000000000E+00 -0.37477097113E+02  0.13048849247E+03  0.12499085510E+03 0.  0.
    9000005    1    3    3    0    0 -0.23960059957E+01 -0.75820126968E+00  0.46444564644E+02  0.46523255463E+02  0.10000000000E+01 0.  0.
    9000005    1    3    3    0    0  0.23960059957E+01  0.75820126968E+00 -0.83921661757E+02  0.83965237009E+02  0.10000000000E+01 0.  0.
<mgrwt>
<rscale>  0 0.12499086E+03</rscale>
<asrwt>0</asrwt>
<pdfrwt beam="1">  1        4 0.71547227E-02 0.12499086E+03</pdfrwt>
<pdfrwt beam="2">  1       -4 0.12920430E-01 0.12499086E+03</pdfrwt>
<totfact> 0.10336200E+04</totfact>
</mgrwt>
</event>
<event>
 5    1  0.3293542E-002  0.1250010E+03  0.7818608E-02  0.1235068E+00
          4   -1    0    0  501    0  0.00000000000E+00  0.00000000000E+00  0.32425005790E+02  0.32449867495E+02  0.12700000000E+01 0. -1.
         -4   -1    0    0    0  501 -0.00000000000E+00 -0.00000000000E+00 -0.12039783813E+03  0.12040453615E+03  0.12700000000E+01 0. -1.
         25    2    1    2    0    0  0.00000000000E+00  0.00000000000E+00 -0.87972832341E+02  0.15285440365E+03  0.12500099794E+03 0.  0.
    9000005    1    3    3    0    0  0.49385170543E+02 -0.51617609938E+01  0.24128985621E+01  0.49722841085E+02  0.10000000000E+01 0.  0.
    9000005    1    3    3    0    0 -0.49385170543E+02  0.51617609938E+01 -0.90385730903E+02  0.10313156256E+03  0.10000000000E+01 0.  0.
<mgrwt>
<rscale>  0 0.12500100E+03</rscale>
<asrwt>0</asrwt>
<pdfrwt beam="1">  1        4 0.49908901E-02 0.12500100E+03</pdfrwt>
<pdfrwt beam="2">  1       -4 0.18525172E-01 0.12500100E+03</pdfrwt>
<totfact> 0.98735512E+03</totfact>
</mgrwt>
</event>
<event>
 5    1  0.3293542E-002  0.1250023E+03  0.7818608E-02  0.1235066E+00
         -4   -1    0    0    0  501 -0.00000000000E+00  0.00000000000E+00  0.17314526330E+03  0.17314992089E+03  0.12700000000E+01 0.  1.
          4   -1    0    0  501    0  0.00000000000E+00 -0.00000000000E+00 -0.22538524069E+02  0.22574276671E+02  0.12700000000E+01 0.  1.
         25    2    1    2    0    0  0.00000000000E+00  0.00000000000E+00  0.15060673923E+03  0.19572419756E+03  0.12500228641E+03 0.  0.
    9000005    1    3    3    0    0 -0.15469655990E+02  0.29314483561E+02  0.15825557612E+03  0.16169253717E+03  0.10000000000E+01 0.  0.
    9000005    1    3    3    0    0  0.15469655990E+02 -0.29314483561E+02 -0.76488368922E+01  0.34031660387E+02  0.10000000000E+01 0.  0.
<mgrwt>
<rscale>  0 0.12500229E+03</rscale>
<asrwt>0</asrwt>
<pdfrwt beam="2">  1        4 0.34705738E-02 0.12500229E+03</pdfrwt>
<pdfrwt beam="1">  1       -4 0.26640840E-01 0.12500229E+03</pdfrwt>
<totfact> 0.90856102E+03</totfact>
</mgrwt>
</event>
<event>
 5    1  0.3293542E-002  0.1249997E+03  0.7818608E-02  0.1235070E+00
          4   -1    0    0  501    0  0.00000000000E+00  0.00000000000E+00  0.10625571994E+02  0.10701199942E+02  0.12700000000E+01 0. -1.
         -4   -1    0    0    0  501 -0.00000000000E+00 -0.00000000000E+00 -0.36624520902E+03  0.36624741096E+03  0.12700000000E+01 0. -1.
         25    2    1    2    0    0  0.00000000000E+00  0.00000000000E+00 -0.35561963703E+03  0.37694861090E+03  0.12499971607E+03 0.  0.
    9000005    1    3    3    0    0  0.49511617540E+02 -0.20734680317E+02 -0.27430440643E+03  0.27950891690E+03  0.10000000000E+01 0.  0.
    9000005    1    3    3    0    0 -0.49511617540E+02  0.20734680317E+02 -0.81315230603E+02  0.97439694002E+02  0.10000000000E+01 0.  0.
<mgrwt>
<rscale>  0 0.12499972E+03</rscale>
<asrwt>0</asrwt>
<pdfrwt beam="1">  1        4 0.16406906E-02 0.12499972E+03</pdfrwt>
<pdfrwt beam="2">  1       -4 0.56351394E-01 0.12499972E+03</pdfrwt>
<totfact> 0.66858618E+03</totfact>
</mgrwt>
</event>
<event>
 5    1  0.3293542E-002  0.1250035E+03  0.7818608E-02  0.1235064E+00
          4   -1    0    0  501    0  0.00000000000E+00  0.00000000000E+00  0.22606340633E+02  0.22641986150E+02  0.12700000000E+01 0. -1.
         -4   -1    0    0    0  501 -0.00000000000E+00 -0.00000000000E+00 -0.17263013758E+03  0.17263480906E+03  0.12700000000E+01 0. -1.
         25    2    1    2    0    0  0.00000000000E+00  0.00000000000E+00 -0.15002379695E+03  0.19527679521E+03  0.12500354835E+03 0.  0.
    9000005    1    3    3    0    0  0.40378160110E+02 -0.36548322422E+02 -0.12288918792E+03  0.13442071341E+03  0.10000000000E+01 0.  0.
    9000005    1    3    3    0    0 -0.40378160110E+02  0.36548322422E+02 -0.27134609026E+02  0.60856081806E+02  0.10000000000E+01 0.  0.
<mgrwt>
<rscale>  0 0.12500355E+03</rscale>
<asrwt>0</asrwt>
<pdfrwt beam="1">  1        4 0.34810000E-02 0.12500355E+03</pdfrwt>
<pdfrwt beam="2">  1       -4 0.26561583E-01 0.12500355E+03</pdfrwt>
<totfact> 0.90929966E+03</totfact>
</mgrwt>
</event>
<event>
 5    1  0.3293542E-002  0.1249983E+03  0.7818608E-02  0.1235072E+00
         -4   -1    0    0    0  501 -0.00000000000E+00  0.00000000000E+00  0.19416812984E+02  0.19458302250E+02  0.12700000000E+01 0.  1.
          4   -1    0    0  501    0  0.00000000000E+00 -0.00000000000E+00 -0.20091499168E+03  0.20091900553E+03  0.12700000000E+01 0.  1.
         25    2    1    2    0    0  0.00000000000E+00  0.00000000000E+00 -0.18149817870E+03  0.22037730778E+03  0.12499827564E+03 0.  0.
    9000005    1    3    3    0    0  0.46552007901E+02 -0.19753632479E+02 -0.26022441456E+02  0.56881129516E+02  0.10000000000E+01 0.  0.
    9000005    1    3    3    0    0 -0.46552007901E+02  0.19753632479E+02 -0.15547573724E+03  0.16349617826E+03  0.10000000000E+01 0.  0.
<mgrwt>
<rscale>  0 0.12499828E+03</rscale>
<asrwt>0</asrwt>
<pdfrwt beam="2">  1        4 0.30913498E-01 0.12499828E+03</pdfrwt>
<pdfrwt beam="1">  1       -4 0.29907024E-02 0.12499828E+03</pdfrwt>
<totfact> 0.86812025E+03</totfact>
</mgrwt>
</event>
<event>
 5    1  0.3293542E-002  0.1249991E+03  0.7818608E-02  0.1235071E+00
          4   -1    0    0  501    0  0.00000000000E+00  0.00000000000E+00  0.14111068125E+03  0.14111639615E+03  0.12700000000E+01 0. -1.
         -4   -1    0    0    0  501 -0.00000000000E+00 -0.00000000000E+00 -0.27660918998E+02  0.27690058501E+02  0.12700000000E+01 0. -1.
         25    2    1    2    0    0  0.00000000000E+00  0.00000000000E+00  0.11344976225E+03  0.16880645465E+03  0.12499908231E+03 0.  0.
    9000005    1    3    3    0    0 -0.32505986219E+02 -0.25897394073E+02  0.11974787734E+03  0.12675909548E+03  0.10000000000E+01 0.  0.
    9000005    1    3    3    0    0  0.32505986219E+02  0.25897394073E+02 -0.62981150855E+01  0.42047359173E+02  0.10000000000E+01 0.  0.
<mgrwt>
<rscale>  0 0.12499908E+03</rscale>
<asrwt>0</asrwt>
<pdfrwt beam="1">  1        4 0.21712017E-01 0.12499908E+03</pdfrwt>
<pdfrwt beam="2">  1       -4 0.42582071E-02 0.12499908E+03</pdfrwt>
<totfact> 0.95673299E+03</totfact>
</mgrwt>
</event>
<event>
 5    1  0.3293542E-002  0.1249950E+03  0.7818608E-02  0.1235077E+00
         -4   -1    0    0    0  501 -0.00000000000E+00  0.00000000000E+00  0.43754704497E+03  0.43754888808E+03  0.12700000000E+01 0. -1.
          4   -1    0    0  501    0  0.00000000000E+00 -0.00000000000E+00 -0.88798596352E+01  0.89702177867E+01  0.12700000000E+01 0. -1.
         25    2    1    2    0    0  0.00000000000E+00  0.00000000000E+00  0.42866718533E+03  0.44651910587E+03  0.12499502439E+03 0.  0.
    9000005    1    3    3    0    0  0.45825428997E+02 -0.24191638046E+02  0.89572307766E+02  0.10348624842E+03  0.10000000000E+01 0.  0.
    9000005    1    3    3    0    0 -0.45825428997E+02  0.24191638046E+02  0.33909487757E+03  0.34303285744E+03  0.10000000000E+01 0.  0.
<mgrwt>
<rscale>  0 0.12499502E+03</rscale>
<asrwt>0</asrwt>
<pdfrwt beam="2">  1        4 0.13732247E-02 0.12499502E+03</pdfrwt>
<pdfrwt beam="1">  1       -4 0.67322021E-01 0.12499502E+03</pdfrwt>
<totfact> 0.60273140E+03</totfact>
</mgrwt>
</event>
<event>
 5    1  0.3293542E-002  0.1250041E+03  0.7818608E-02  0.1235063E+00
          4   -1    0    0  501    0  0.00000000000E+00  0.00000000000E+00  0.48680749139E+03  0.48680914799E+03  0.12700000000E+01 0. -1.
         -4   -1    0    0    0  501 -0.00000000000E+00 -0.00000000000E+00 -0.79728138319E+01  0.80733301926E+01  0.12700000000E+01 0. -1.
         25    2    1    2    0    0  0.00000000000E+00  0.00000000000E+00  0.47883467755E+03  0.49488247819E+03  0.12500407508E+03 0.  0.
    9000005    1    3    3    0    0 -0.81079522121E+01  0.36261008091E+02  0.43834740910E+03  0.43992050493E+03  0.10000000000E+01 0.  0.
    9000005    1    3    3    0    0  0.81079522121E+01 -0.36261008091E+02  0.40487268455E+02  0.54961973252E+02  0.10000000000E+01 0.  0.
<mgrwt>
<rscale>  0 0.12500408E+03</rscale>
<asrwt>0</asrwt>
<pdfrwt beam="1">  1        4 0.74901334E-01 0.12500408E+03</pdfrwt>
<pdfrwt beam="2">  1       -4 0.12344460E-02 0.12500408E+03</pdfrwt>
<totfact> 0.56258570E+03</totfact>
</mgrwt>
</event>
<event>
 5    1  0.3293542E-002  0.1250019E+03  0.7818608E-02  0.1235066E+00
         -4   -1    0    0    0  501 -0.00000000000E+00  0.00000000000E+00  0.65594207457E+01  0.66812349546E+01  0.12700000000E+01 0. -1.
          4   -1    0    0  501    0  0.00000000000E+00 -0.00000000000E+00 -0.58993442708E+03  0.58993579410E+03  0.12700000000E+01 0. -1.
         25    2    1    2    0    0  0.00000000000E+00  0.00000000000E+00 -0.58337500634E+03  0.59661702905E+03  0.12500192533E+03 0.  0.
    9000005    1    3    3    0    0 -0.24309871063E+01 -0.18634126045E+02 -0.72220830588E+01  0.20156855793E+02  0.10000000000E+01 0.  0.
    9000005    1    3    3    0    0  0.24309871063E+01  0.18634126045E+02 -0.57615292328E+03  0.57646017326E+03  0.10000000000E+01 0.  0.
<mgrwt>
<rscale>  0 0.12500193E+03</rscale>
<asrwt>0</asrwt>
<pdfrwt beam="2">  1        4 0.90768577E-01 0.12500193E+03</pdfrwt>
<pdfrwt beam="1">  1       -4 0.10186176E-02 0.12500193E+03</pdfrwt>
<totfact> 0.49079796E+03</totfact>
</mgrwt>
</event>
<event>
 5    1  0.3293542E-002  0.1249997E+03  0.7818608E-02  0.1235070E+00
         -4   -1    0    0    0  501 -0.00000000000E+00  0.00000000000E+00  0.46261634695E+02  0.46279063784E+02  0.12700000000E+01 0.  1.
          4   -1    0    0  501    0  0.00000000000E+00 -0.00000000000E+00 -0.84399759026E+02  0.84409313607E+02  0.12700000000E+01 0.  1.
         25    2    1    2    0    0  0.00000000000E+00  0.00000000000E+00 -0.38138124331E+02  0.13068837739E+03  0.12499974183E+03 0.  0.
    9000005    1    3    3    0    0 -0.15784756832E+01 -0.48232563755E+02 -0.60579358945E+02  0.77457927432E+02  0.10000000000E+01 0.  0.
    9000005    1    3    3    0    0  0.15784756832E+01  0.48232563755E+02  0.22441234614E+02  0.53230449959E+02  0.10000000000E+01 0.  0.
<mgrwt>
<rscale>  0 0.12499974E+03</rscale>
<asrwt>0</asrwt>
<pdfrwt beam="2">  1        4 0.12986654E-01 0.12499974E+03</pdfrwt>
<pdfrwt beam="1">  1       -4 0.71192502E-02 0.12499974E+03</pdfrwt>
<totfact> 0.10329835E+04</totfact>
</mgrwt>
</event>
<event>
 5    1  0.3293542E-002  0.1249910E+03  0.7818608E-02  0.1235083E+00
          4   -1    0    0  501    0  0.00000000000E+00  0.00000000000E+00  0.25226685571E+03  0.25227005250E+03  0.12700000000E+01 0. -1.
         -4   -1    0    0    0  501 -0.00000000000E+00 -0.00000000000E+00 -0.15453012971E+02  0.15505112379E+02  0.12700000000E+01 0. -1.
         25    2    1    2    0    0  0.00000000000E+00  0.00000000000E+00  0.23681384274E+03  0.26777516488E+03  0.12499097093E+03 0.  0.
    9000005    1    3    3    0    0  0.29475922283E+02 -0.50750456490E+02  0.16436766831E+03  0.17453414913E+03  0.10000000000E+01 0.  0.
    9000005    1    3    3    0    0 -0.29475922283E+02  0.50750456490E+02  0.72446174431E+02  0.93241015750E+02  0.10000000000E+01 0.  0.
<mgrwt>
<rscale>  0 0.12499097E+03</rscale>
<asrwt>0</asrwt>
<pdfrwt beam="1">  1        4 0.38814537E-01 0.12499097E+03</pdfrwt>
<pdfrwt beam="2">  1       -4 0.23816403E-02 0.12499097E+03</pdfrwt>
<totfact> 0.79843197E+03</totfact>
</mgrwt>
</event>
<event>
 5    1  0.3293542E-002  0.1249989E+03  0.7818608E-02  0.1235071E+00
          4   -1    0    0  501    0  0.00000000000E+00  0.00000000000E+00  0.87243495110E+03  0.87243587547E+03  0.12700000000E+01 0. -1.
         -4   -1    0    0    0  501 -0.00000000000E+00 -0.00000000000E+00 -0.43863284455E+01  0.45664841214E+01  0.12700000000E+01 0. -1.
         25    2    1    2    0    0  0.00000000000E+00  0.00000000000E+00  0.86804862266E+03  0.87700235959E+03  0.12499890972E+03 0.  0.
    9000005    1    3    3    0    0 -0.51798096381E+02 -0.14435237331E+02  0.21063481270E+03  0.21739237150E+03  0.10000000000E+01 0.  0.
    9000005    1    3    3    0    0  0.51798096381E+02  0.14435237331E+02  0.65741380996E+03  0.65960998809E+03  0.10000000000E+01 0.  0.
<mgrwt>
<rscale>  0 0.12499891E+03</rscale>
<asrwt>0</asrwt>
<pdfrwt beam="1">  1        4 0.13423470E+00 0.12499891E+03</pdfrwt>
<pdfrwt beam="2">  1       -4 0.68874897E-03 0.12499891E+03</pdfrwt>
<totfact> 0.35047947E+03</totfact>
</mgrwt>
</event>
<event>
 5    1  0.3293542E-002  0.1250015E+03  0.7818608E-02  0.1235067E+00
         -4   -1    0    0    0  501 -0.00000000000E+00  0.00000000000E+00  0.31109355801E+03  0.31109615030E+03  0.12700000000E+01 0.  1.
          4   -1    0    0  501    0  0.00000000000E+00 -0.00000000000E+00 -0.12522048278E+02  0.12586285913E+02  0.12700000000E+01 0.  1.
         25    2    1    2    0    0  0.00000000000E+00  0.00000000000E+00  0.29857150973E+03  0.32368243622E+03  0.12500149236E+03 0.  0.
    9000005    1    3    3    0    0  0.34818515224E+02 -0.34456124395E+02  0.48804255644E+02  0.69154962799E+02  0.10000000000E+01 0.  0.
    9000005    1    3    3    0    0 -0.34818515224E+02  0.34456124395E+02  0.24976725409E+03  0.25452747342E+03  0.10000000000E+01 0.  0.
<mgrwt>
<rscale>  0 0.12500149E+03</rscale>
<asrwt>0</asrwt>
<pdfrwt beam="2">  1        4 0.19316101E-02 0.12500149E+03</pdfrwt>
<pdfrwt beam="1">  1       -4 0.47865679E-01 0.12500149E+03</pdfrwt>
<totfact> 0.72717878E+03</totfact>
</mgrwt>
</event>
<event>
 5    1  0.3293542E-002  0.1250032E+03  0.7818608E-02  0.1235064E+00
         -4   -1    0    0    0  501 -0.00000000000E+00  0.00000000000E+00  0.33528879902E+02  0.33552923680E+02  0.12700000000E+01 0. -1.
          4   -1    0    0  501    0  0.00000000000E+00 -0.00000000000E+00 -0.11644068169E+03  0.11644760733E+03  0.12700000000E+01 0. -1.
         25    2    1    2    0    0  0.00000000000E+00  0.00000000000E+00 -0.82911801786E+02  0.15000053101E+03  0.12500316967E+03 0.  0.
    9000005    1    3    3    0    0  0.32730149949E+02  0.53075278580E+02 -0.46432566396E+02  0.77751084456E+02  0.10000000000E+01 0.  0.
    9000005    1    3    3    0    0 -0.32730149949E+02 -0.53075278580E+02 -0.36479235390E+02  0.72249446549E+02  0.10000000000E+01 0.  0.
<mgrwt>
<rscale>  0 0.12500317E+03</rscale>
<asrwt>0</asrwt>
<pdfrwt beam="2">  1        4 0.17916333E-01 0.12500317E+03</pdfrwt>
<pdfrwt beam="1">  1       -4 0.51606715E-02 0.12500317E+03</pdfrwt>
<totfact> 0.99296509E+03</totfact>
</mgrwt>
</event>
<event>
 5    1  0.3293542E-002  0.1249950E+03  0.7818608E-02  0.1235077E+00
          4   -1    0    0  501    0  0.00000000000E+00  0.00000000000E+00  0.10730549487E+01  0.16626325279E+01  0.12700000000E+01 0.  1.
         -4   -1    0    0    0  501 -0.00000000000E+00 -0.00000000000E+00 -0.28549550793E+04  0.28549553618E+04  0.12700000000E+01 0.  1.
         25    2    1    2    0    0  0.00000000000E+00  0.00000000000E+00 -0.28538820243E+04  0.28566179943E+04  0.12499502571E+03 0.  0.
    9000005    1    3    3    0    0  0.24099160469E+02  0.12295628768E+02 -0.27142819790E+04  0.27144169933E+04  0.10000000000E+01 0.  0.
    9000005    1    3    3    0    0 -0.24099160469E+02 -0.12295628768E+02 -0.13960004534E+03  0.14220100098E+03  0.10000000000E+01 0.  0.
<mgrwt>
<rscale>  0 0.12499503E+03</rscale>
<asrwt>0</asrwt>
<pdfrwt beam="1">  1        4 0.21046151E-03 0.12499503E+03</pdfrwt>
<pdfrwt beam="2">  1       -4 0.43926446E+00 0.12499503E+03</pdfrwt>
<totfact> 0.24338854E+02</totfact>
</mgrwt>
</event>
<event>
 5    1  0.3293542E-002  0.1249867E+03  0.7818608E-02  0.1235090E+00
          4   -1    0    0  501    0  0.00000000000E+00  0.00000000000E+00  0.12121211641E+03  0.12121876944E+03  0.12700000000E+01 0. -1.
         -4   -1    0    0    0  501 -0.00000000000E+00 -0.00000000000E+00 -0.32199639313E+02  0.32224674892E+02  0.12700000000E+01 0. -1.
         25    2    1    2    0    0  0.00000000000E+00  0.00000000000E+00  0.89012477097E+02  0.15344344433E+03  0.12498667741E+03 0.  0.
    9000005    1    3    3    0    0  0.35160666678E+01 -0.24393039016E+02 -0.25986819065E+02  0.35828729288E+02  0.10000000000E+01 0.  0.
    9000005    1    3    3    0    0 -0.35160666678E+01  0.24393039016E+02  0.11499929616E+03  0.11761471504E+03  0.10000000000E+01 0.  0.
<mgrwt>
<rscale>  0 0.12498668E+03</rscale>
<asrwt>0</asrwt>
<pdfrwt beam="1">  1        4 0.18650456E-01 0.12498668E+03</pdfrwt>
<pdfrwt beam="2">  1       -4 0.49562282E-02 0.12498668E+03</pdfrwt>
<totfact> 0.98651239E+03</totfact>
</mgrwt>
</event>
<event>
 5    1  0.3293542E-002  0.1249947E+03  0.7818608E-02  0.1235078E+00
         -4   -1    0    0    0  501 -0.00000000000E+00  0.00000000000E+00  0.76583435135E+02  0.76593964756E+02  0.12700000000E+01 0.  1.
          4   -1    0    0  501    0  0.00000000000E+00 -0.00000000000E+00 -0.50980169104E+02  0.50995985547E+02  0.12700000000E+01 0.  1.
         25    2    1    2    0    0  0.00000000000E+00  0.00000000000E+00  0.25603266031E+02  0.12758995030E+03  0.12499467263E+03 0.  0.
    9000005    1    3    3    0    0 -0.48765641415E+02  0.23637054607E+02 -0.18959012251E+02  0.57421618565E+02  0.10000000000E+01 0.  0.
    9000005    1    3    3    0    0  0.48765641415E+02 -0.23637054607E+02  0.44562278282E+02  0.70168331737E+02  0.10000000000E+01 0.  0.
<mgrwt>
<rscale>  0 0.12499467E+03</rscale>
<asrwt>0</asrwt>
<pdfrwt beam="2">  1        4 0.78451296E-02 0.12499467E+03</pdfrwt>
<pdfrwt beam="1">  1       -4 0.11784093E-01 0.12499467E+03</pdfrwt>
<totfact> 0.10397603E+04</totfact>
</mgrwt>
</event>
<event>
 5    1  0.3293542E-002  0.1249985E+03  0.7818608E-02  0.1235072E+00
         -4   -1    0    0    0  501 -0.00000000000E+00  0.00000000000E+00  0.20896165552E+02  0.20934723184E+02  0.12700000000E+01 0. -1.
          4   -1    0    0  501    0  0.00000000000E+00 -0.00000000000E+00 -0.18671868645E+03  0.18672300546E+03  0.12700000000E+01 0. -1.
         25    2    1    2    0    0  0.00000000000E+00  0.00000000000E+00 -0.16582252089E+03  0.20765772864E+03  0.12499849531E+03 0.  0.
    9000005    1    3    3    0    0 -0.18218693461E+02 -0.39706566179E+02 -0.86792141400E+01  0.44551778273E+02  0.10000000000E+01 0.  0.
    9000005    1    3    3    0    0  0.18218693461E+02  0.39706566179E+02 -0.15714330675E+03  0.16310595037E+03  0.10000000000E+01 0.  0.
<mgrwt>
<rscale>  0 0.12499850E+03</rscale>
<asrwt>0</asrwt>
<pdfrwt beam="2">  1        4 0.28729249E-01 0.12499850E+03</pdfrwt>
<pdfrwt beam="1">  1       -4 0.32180930E-02 0.12499850E+03</pdfrwt>
<totfact> 0.88862829E+03</totfact>
</mgrwt>
</event>
<event>
 5    1  0.3293542E-002  0.1250011E+03  0.7818608E-02  0.1235068E+00
         -4   -1    0    0    0  501 -0.00000000000E+00  0.00000000000E+00  0.42566872922E+02  0.42585814191E+02  0.12700000000E+01 0. -1.
          4   -1    0    0  501    0  0.00000000000E+00 -0.00000000000E+00 -0.91725268029E+02  0.91734059624E+02  0.12700000000E+01 0. -1.
         25    2    1    2    0    0  0.00000000000E+00  0.00000000000E+00 -0.49158395108E+02  0.13431987382E+03  0.12500112276E+03 0.  0.
    9000005    1    3    3    0    0  0.39235972073E-01  0.15613756802E+02  0.40442396765E+02  0.43363330097E+02  0.10000000000E+01 0.  0.
    9000005    1    3    3    0    0 -0.39235972073E-01 -0.15613756802E+02 -0.89600791873E+02  0.90956543718E+02  0.10000000000E+01 0.  0.
<mgrwt>
<rscale>  0 0.12500112E+03</rscale>
<asrwt>0</asrwt>
<pdfrwt beam="2">  1        4 0.14113713E-01 0.12500112E+03</pdfrwt>
<pdfrwt beam="1">  1       -4 0.65508830E-02 0.12500112E+03</pdfrwt>
<totfact> 0.10252167E+04</totfact>
</mgrwt>
</event>
<event>
 5    1  0.3293542E-002  0.1250014E+03  0.7818608E-02  0.1235067E+00
         -4   -1    0    0    0  501 -0.00000000000E+00  0.00000000000E+00  0.24019632273E+03  0.24019968016E+03  0.12700000000E+01 0.  1.
          4   -1    0    0  501    0  0.00000000000E+00 -0.00000000000E+00 -0.16234820474E+02  0.16284418805E+02  0.12700000000E+01 0.  1.
         25    2    1    2    0    0  0.00000000000E+00  0.00000000000E+00  0.22396150225E+03  0.25648409897E+03  0.12500135413E+03 0.  0.
    9000005    1    3    3    0    0 -0.42718309634E+02  0.37458145854E+02  0.16538281656E+03  0.17487264704E+03  0.10000000000E+01 0.  0.
    9000005    1    3    3    0    0  0.42718309634E+02 -0.37458145854E+02  0.58578685687E+02  0.81611451927E+02  0.10000000000E+01 0.  0.
<mgrwt>
<rscale>  0 0.12500135E+03</rscale>
<asrwt>0</asrwt>
<pdfrwt beam="2">  1        4 0.25017385E-02 0.12500135E+03</pdfrwt>
<pdfrwt beam="1">  1       -4 0.36957350E-01 0.12500135E+03</pdfrwt>
<totfact> 0.81399561E+03</totfact>
</mgrwt>
</event>
<event>
 5    1  0.3293542E-002  0.1250076E+03  0.7818608E-02  0.1235057E+00
         -4   -1    0    0    0  501 -0.00000000000E+00  0.00000000000E+00  0.58090463879E+02  0.58104344877E+02  0.12700000000E+01 0. -1.
          4   -1    0    0  501    0  0.00000000000E+00 -0.00000000000E+00 -0.67224491267E+02  0.67236486569E+02  0.12700000000E+01 0. -1.
         25    2    1    2    0    0  0.00000000000E+00  0.00000000000E+00 -0.91340273884E+01  0.12534083145E+03  0.12500757406E+03 0.  0.
    9000005    1    3    3    0    0 -0.11828096117E+02 -0.20282118291E+02 -0.62639075143E+02  0.66902331162E+02  0.10000000000E+01 0.  0.
    9000005    1    3    3    0    0  0.11828096117E+02  0.20282118291E+02  0.53505047755E+02  0.58438500284E+02  0.10000000000E+01 0.  0.
<mgrwt>
<rscale>  0 0.12500757E+03</rscale>
<asrwt>0</asrwt>
<pdfrwt beam="2">  1        4 0.10344220E-01 0.12500757E+03</pdfrwt>
<pdfrwt beam="1">  1       -4 0.89389849E-02 0.12500757E+03</pdfrwt>
<totfact> 0.10443676E+04</totfact>
</mgrwt>
</event>
<event>
 5    1  0.3293542E-002  0.1249970E+03  0.7818608E-02  0.1235074E+00
          4   -1    0    0  501    0  0.00000000000E+00  0.00000000000E+00  0.45081905875E+03  0.45082084760E+03  0.12700000000E+01 0.  1.
         -4   -1    0    0    0  501 -0.00000000000E+00 -0.00000000000E+00 -0.86160117497E+01  0.87091077884E+01  0.12700000000E+01 0.  1.
         25    2    1    2    0    0  0.00000000000E+00  0.00000000000E+00  0.44220304700E+03  0.45952995539E+03  0.12499698046E+03 0.  0.
    9000005    1    3    3    0    0  0.47288815853E+01 -0.80761246754E+01 -0.60430759554E+01  0.11185029183E+02  0.10000000000E+01 0.  0.
    9000005    1    3    3    0    0 -0.47288815853E+01  0.80761246754E+01  0.44824612296E+03  0.44834492621E+03  0.10000000000E+01 0.  0.
<mgrwt>
<rscale>  0 0.12499698E+03</rscale>
<asrwt>0</asrwt>
<pdfrwt beam="1">  1        4 0.69364059E-01 0.12499698E+03</pdfrwt>
<pdfrwt beam="2">  1       -4 0.13328395E-02 0.12499698E+03</pdfrwt>
<totfact> 0.59150957E+03</totfact>
</mgrwt>
</event>
<event>
 5    1  0.3293542E-002  0.1250008E+03  0.7818608E-02  0.1235068E+00
          4   -1    0    0  501    0  0.00000000000E+00  0.00000000000E+00  0.10109347116E+03  0.10110144811E+03  0.12700000000E+01 0.  1.
         -4   -1    0    0    0  501 -0.00000000000E+00 -0.00000000000E+00 -0.38620539990E+02  0.38641415724E+02  0.12700000000E+01 0.  1.
         25    2    1    2    0    0  0.00000000000E+00  0.00000000000E+00  0.62472931168E+02  0.13974286384E+03  0.12500080346E+03 0.  0.
    9000005    1    3    3    0    0 -0.32959022492E+02 -0.26954150615E+02  0.82374868702E+02  0.92733178489E+02  0.10000000000E+01 0.  0.
    9000005    1    3    3    0    0  0.32959022492E+02  0.26954150615E+02 -0.19901937534E+02  0.47009685349E+02  0.10000000000E+01 0.  0.
<mgrwt>
<rscale>  0 0.12500080E+03</rscale>
<asrwt>0</asrwt>
<pdfrwt beam="1">  1        4 0.15555061E-01 0.12500080E+03</pdfrwt>
<pdfrwt beam="2">  1       -4 0.59438410E-02 0.12500080E+03</pdfrwt>
<totfact> 0.10138734E+04</totfact>
</mgrwt>
</event>
<event>
 5    1  0.3293542E-002  0.1249859E+03  0.7818608E-02  0.1235091E+00
          4   -1    0    0  501    0  0.00000000000E+00  0.00000000000E+00  0.72333918216E+02  0.72345066345E+02  0.12700000000E+01 0. -1.
         -4   -1    0    0    0  501 -0.00000000000E+00 -0.00000000000E+00 -0.53968024765E+02  0.53982965804E+02  0.12700000000E+01 0. -1.
         25    2    1    2    0    0  0.00000000000E+00  0.00000000000E+00  0.18365893451E+02  0.12632803215E+03  0.12498586186E+03 0.  0.
    9000005    1    3    3    0    0 -0.81099666764E+01 -0.58963118587E+01 -0.53154541323E+02  0.54101232114E+02  0.10000000000E+01 0.  0.
    9000005    1    3    3    0    0  0.81099666764E+01  0.58963118587E+01  0.71520434774E+02  0.72226800035E+02  0.10000000000E+01 0.  0.
<mgrwt>
<rscale>  0 0.12498586E+03</rscale>
<asrwt>0</asrwt>
<pdfrwt beam="1">  1        4 0.11130302E-01 0.12498586E+03</pdfrwt>
<pdfrwt beam="2">  1       -4 0.83047799E-02 0.12498586E+03</pdfrwt>
<totfact> 0.10427108E+04</totfact>
</mgrwt>
</event>
<event>
 5    1  0.3293542E-002  0.1250132E+03  0.7818608E-02  0.1235049E+00
         -4   -1    0    0    0  501 -0.00000000000E+00  0.00000000000E+00  0.13591311414E+02  0.13650518157E+02  0.12700000000E+01 0.  1.
          4   -1    0    0  501    0  0.00000000000E+00 -0.00000000000E+00 -0.28678338485E+03  0.28678619689E+03  0.12700000000E+01 0.  1.
         25    2    1    2    0    0  0.00000000000E+00  0.00000000000E+00 -0.27319207344E+03  0.30043671505E+03  0.12501324233E+03 0.  0.
    9000005    1    3    3    0    0 -0.23995589670E-01 -0.29276024253E+01  0.13438207956E+02  0.13789737663E+02  0.10000000000E+01 0.  0.
    9000005    1    3    3    0    0  0.23995589670E-01  0.29276024253E+01 -0.28663028140E+03  0.28664697739E+03  0.10000000000E+01 0.  0.
<mgrwt>
<rscale>  0 0.12501324E+03</rscale>
<asrwt>0</asrwt>
<pdfrwt beam="2">  1        4 0.44125287E-01 0.12501324E+03</pdfrwt>
<pdfrwt beam="1">  1       -4 0.20957419E-02 0.12501324E+03</pdfrwt>
<totfact> 0.75521890E+03</totfact>
</mgrwt>
</event>
<event>
 5    1  0.3293542E-002  0.1250016E+03  0.7818608E-02  0.1235067E+00
          4   -1    0    0  501    0  0.00000000000E+00  0.00000000000E+00  0.33391177228E+03  0.33391418743E+03  0.12700000000E+01 0.  1.
         -4   -1    0    0    0  501 -0.00000000000E+00 -0.00000000000E+00 -0.11661814868E+02  0.11730764085E+02  0.12700000000E+01 0.  1.
         25    2    1    2    0    0  0.00000000000E+00  0.00000000000E+00  0.32224995741E+03  0.34564495152E+03  0.12500158981E+03 0.  0.
    9000005    1    3    3    0    0 -0.12030412566E+02  0.87919832639E+01  0.32894137143E+03  0.32928020838E+03  0.10000000000E+01 0.  0.
    9000005    1    3    3    0    0  0.12030412566E+02 -0.87919832639E+01 -0.66914140166E+01  0.16364743131E+02  0.10000000000E+01 0.  0.
<mgrwt>
<rscale>  0 0.12500159E+03</rscale>
<asrwt>0</asrwt>
<pdfrwt beam="1">  1        4 0.51376527E-01 0.12500159E+03</pdfrwt>
<pdfrwt beam="2">  1       -4 0.17996151E-02 0.12500159E+03</pdfrwt>
<totfact> 0.70203867E+03</totfact>
</mgrwt>
</event>
<event>
 5    1  0.3293542E-002  0.1250040E+03  0.7818608E-02  0.1235063E+00
          4   -1    0    0  501    0  0.00000000000E+00  0.00000000000E+00  0.14493181033E+02  0.14548718035E+02  0.12700000000E+01 0.  1.
         -4   -1    0    0    0  501 -0.00000000000E+00 -0.00000000000E+00 -0.26896814294E+03  0.26897114124E+03  0.12700000000E+01 0.  1.
         25    2    1    2    0    0  0.00000000000E+00  0.00000000000E+00 -0.25447496191E+03  0.28351985927E+03  0.12500401739E+03 0.  0.
    9000005    1    3    3    0    0  0.19745400937E+02  0.16435890238E+02  0.19734035239E+01  0.25785919948E+02  0.10000000000E+01 0.  0.
    9000005    1    3    3    0    0 -0.19745400937E+02 -0.16435890238E+02 -0.25644836543E+03  0.25773393932E+03  0.10000000000E+01 0.  0.
<mgrwt>
<rscale>  0 0.12500402E+03</rscale>
<asrwt>0</asrwt>
<pdfrwt beam="1">  1        4 0.22342231E-02 0.12500402E+03</pdfrwt>
<pdfrwt beam="2">  1       -4 0.41384213E-01 0.12500402E+03</pdfrwt>
<totfact> 0.77706765E+03</totfact>
</mgrwt>
</event>
<event>
 5    1  0.3293542E-002  0.1249980E+03  0.7818608E-02  0.1235072E+00
          4   -1    0    0  501    0  0.00000000000E+00  0.00000000000E+00  0.39375119873E+02  0.39395595757E+02  0.12700000000E+01 0. -1.
         -4   -1    0    0    0  501 -0.00000000000E+00 -0.00000000000E+00 -0.99152564399E+02  0.99160697491E+02  0.12700000000E+01 0. -1.
         25    2    1    2    0    0  0.00000000000E+00  0.00000000000E+00 -0.59777444526E+02  0.13855629325E+03  0.12499801408E+03 0.  0.
    9000005    1    3    3    0    0 -0.10527765816E+02  0.70185023816E+01  0.37945827595E+02  0.40012236386E+02  0.10000000000E+01 0.  0.
    9000005    1    3    3    0    0  0.10527765816E+02 -0.70185023816E+01 -0.97723272121E+02  0.98544056862E+02  0.10000000000E+01 0.  0.
<mgrwt>
<rscale>  0 0.12499801E+03</rscale>
<asrwt>0</asrwt>
<pdfrwt beam="1">  1        4 0.60599115E-02 0.12499801E+03</pdfrwt>
<pdfrwt beam="2">  1       -4 0.15256441E-01 0.12499801E+03</pdfrwt>
<totfact> 0.10164050E+04</totfact>
</mgrwt>
</event>
<event>
 5    1  0.3293542E-002  0.1250004E+03  0.7818608E-02  0.1235069E+00
          4   -1    0    0  501    0  0.00000000000E+00  0.00000000000E+00  0.10275311417E+02  0.10353498187E+02  0.12700000000E+01 0.  1.
         -4   -1    0    0    0  501 -0.00000000000E+00 -0.00000000000E+00 -0.37864132497E+03  0.37864345482E+03  0.12700000000E+01 0.  1.
         25    2    1    2    0    0  0.00000000000E+00  0.00000000000E+00 -0.36836601356E+03  0.38899695301E+03  0.12500043802E+03 0.  0.
    9000005    1    3    3    0    0 -0.47943183270E+01  0.45788839758E+02 -0.52679977471E+02  0.69969874667E+02  0.10000000000E+01 0.  0.
    9000005    1    3    3    0    0  0.47943183270E+01 -0.45788839758E+02 -0.31568603609E+03  0.31902707834E+03  0.10000000000E+01 0.  0.
<mgrwt>
<rscale>  0 0.12500044E+03</rscale>
<asrwt>0</asrwt>
<pdfrwt beam="1">  1        4 0.15869956E-02 0.12500044E+03</pdfrwt>
<pdfrwt beam="2">  1       -4 0.58258679E-01 0.12500044E+03</pdfrwt>
<totfact> 0.65636557E+03</totfact>
</mgrwt>
</event>
<event>
 5    1  0.3293542E-002  0.1250003E+03  0.7818608E-02  0.1235069E+00
         -4   -1    0    0    0  501 -0.00000000000E+00  0.00000000000E+00  0.14302404512E+02  0.14358679425E+02  0.12700000000E+01 0.  1.
          4   -1    0    0  501    0  0.00000000000E+00 -0.00000000000E+00 -0.27252567686E+03  0.27252863601E+03  0.12700000000E+01 0.  1.
         25    2    1    2    0    0  0.00000000000E+00  0.00000000000E+00 -0.25822327234E+03  0.28688731544E+03  0.12500029351E+03 0.  0.
    9000005    1    3    3    0    0  0.40710707128E+02 -0.26330793892E+02 -0.21960340587E+03  0.22489403783E+03  0.10000000000E+01 0.  0.
    9000005    1    3    3    0    0 -0.40710707128E+02  0.26330793892E+02 -0.38619866472E+02  0.61993277604E+02  0.10000000000E+01 0.  0.
<mgrwt>
<rscale>  0 0.12500029E+03</rscale>
<asrwt>0</asrwt>
<pdfrwt beam="2">  1        4 0.41931580E-01 0.12500029E+03</pdfrwt>
<pdfrwt beam="1">  1       -4 0.22049266E-02 0.12500029E+03</pdfrwt>
<totfact> 0.77273169E+03</totfact>
</mgrwt>
</event>
<event>
 5    1  0.3293542E-002  0.1250001E+03  0.7818608E-02  0.1235069E+00
         -4   -1    0    0    0  501 -0.00000000000E+00  0.00000000000E+00  0.42168890709E+03  0.42169081952E+03  0.12700000000E+01 0.  1.
          4   -1    0    0  501    0  0.00000000000E+00 -0.00000000000E+00 -0.92178944752E+01  0.93049706370E+01  0.12700000000E+01 0.  1.
         25    2    1    2    0    0  0.00000000000E+00  0.00000000000E+00  0.41247101262E+03  0.43099579016E+03  0.12500013952E+03 0.  0.
    9000005    1    3    3    0    0 -0.24598755280E+02 -0.31329977177E+02  0.40210027010E+02  0.56608413715E+02  0.10000000000E+01 0.  0.
    9000005    1    3    3    0    0  0.24598755280E+02  0.31329977177E+02  0.37226098561E+03  0.37438737644E+03  0.10000000000E+01 0.  0.
<mgrwt>
<rscale>  0 0.12500014E+03</rscale>
<asrwt>0</asrwt>
<pdfrwt beam="2">  1        4 0.14249828E-02 0.12500014E+03</pdfrwt>
<pdfrwt beam="1">  1       -4 0.64882067E-01 0.12500014E+03</pdfrwt>
<totfact> 0.61645638E+03</totfact>
</mgrwt>
</event>
<event>
 5    1  0.3293542E-002  0.1250018E+03  0.7818608E-02  0.1235066E+00
         -4   -1    0    0    0  501 -0.00000000000E+00  0.00000000000E+00  0.26310733789E+04  0.26310736854E+04  0.12700000000E+01 0.  1.
          4   -1    0    0  501    0  0.00000000000E+00 -0.00000000000E+00 -0.12127550620E+01  0.17560395327E+01  0.12700000000E+01 0.  1.
         25    2    1    2    0    0  0.00000000000E+00  0.00000000000E+00  0.26298606239E+04  0.26328297250E+04  0.12500183890E+03 0.  0.
    9000005    1    3    3    0    0 -0.44004123579E+02 -0.20687099062E+02  0.21417563942E+04  0.21423085144E+04  0.10000000000E+01 0.  0.
    9000005    1    3    3    0    0  0.44004123579E+02  0.20687099062E+02  0.48810422972E+03  0.49052121059E+03  0.10000000000E+01 0.  0.
<mgrwt>
<rscale>  0 0.12500184E+03</rscale>
<asrwt>0</asrwt>
<pdfrwt beam="2">  1        4 0.22839367E-03 0.12500184E+03</pdfrwt>
<pdfrwt beam="1">  1       -4 0.40482007E+00 0.12500184E+03</pdfrwt>
<totfact> 0.37077824E+02</totfact>
</mgrwt>
</event>
<event>
 5    1  0.3293542E-002  0.1250010E+03  0.7818608E-02  0.1235068E+00
         -4   -1    0    0    0  501 -0.00000000000E+00  0.00000000000E+00  0.71257700045E+03  0.71257813218E+03  0.12700000000E+01 0.  1.
          4   -1    0    0  501    0  0.00000000000E+00 -0.00000000000E+00 -0.54072425601E+01  0.55543831434E+01  0.12700000000E+01 0.  1.
         25    2    1    2    0    0  0.00000000000E+00  0.00000000000E+00  0.70716975789E+03  0.71813251533E+03  0.12500097240E+03 0.  0.
    9000005    1    3    3    0    0 -0.27971218670E+02  0.31123517807E+02  0.62023334095E+03  0.62164415839E+03  0.10000000000E+01 0.  0.
    9000005    1    3    3    0    0  0.27971218670E+02 -0.31123517807E+02  0.86936416940E+02  0.96488356940E+02  0.10000000000E+01 0.  0.
<mgrwt>
<rscale>  0 0.12500097E+03</rscale>
<asrwt>0</asrwt>
<pdfrwt beam="2">  1        4 0.84328983E-03 0.12500097E+03</pdfrwt>
<pdfrwt beam="1">  1       -4 0.10963853E+00 0.12500097E+03</pdfrwt>
<totfact> 0.42145761E+03</totfact>
</mgrwt>
</event>
<event>
 5    1  0.3293542E-002  0.1250097E+03  0.7818608E-02  0.1235054E+00
          4   -1    0    0  501    0  0.00000000000E+00  0.00000000000E+00  0.25136568223E+03  0.25136889048E+03  0.12700000000E+01 0. -1.
         -4   -1    0    0    0  501 -0.00000000000E+00 -0.00000000000E+00 -0.15513270496E+02  0.15565168212E+02  0.12700000000E+01 0. -1.
         25    2    1    2    0    0  0.00000000000E+00  0.00000000000E+00  0.23585241173E+03  0.26693405869E+03  0.12500972591E+03 0.  0.
    9000005    1    3    3    0    0  0.20975541292E+02  0.58251850137E+02  0.13612103517E+03  0.14954326328E+03  0.10000000000E+01 0.  0.
    9000005    1    3    3    0    0 -0.20975541292E+02 -0.58251850137E+02  0.99731376566E+02  0.11739079542E+03  0.10000000000E+01 0.  0.
<mgrwt>
<rscale>  0 0.12500973E+03</rscale>
<asrwt>0</asrwt>
<pdfrwt beam="1">  1        4 0.38675879E-01 0.12500973E+03</pdfrwt>
<pdfrwt beam="2">  1       -4 0.23908961E-02 0.12500973E+03</pdfrwt>
<totfact> 0.79925411E+03</totfact>
</mgrwt>
</event>
<event>
 5    1  0.3293542E-002  0.1250017E+03  0.7818608E-02  0.1235067E+00
         -4   -1    0    0    0  501 -0.00000000000E+00  0.00000000000E+00  0.41175193364E+02  0.41194774530E+02  0.12700000000E+01 0.  1.
          4   -1    0    0  501    0  0.00000000000E+00 -0.00000000000E+00 -0.94825239764E+02  0.94833743974E+02  0.12700000000E+01 0.  1.
         25    2    1    2    0    0  0.00000000000E+00  0.00000000000E+00 -0.53650046400E+02  0.13602851850E+03  0.12500172146E+03 0.  0.
    9000005    1    3    3    0    0 -0.62260765089E+02  0.53662103928E+01 -0.26391771542E+02  0.67843383528E+02  0.10000000000E+01 0.  0.
    9000005    1    3    3    0    0  0.62260765089E+02 -0.53662103928E+01 -0.27258274857E+02  0.68185134976E+02  0.10000000000E+01 0.  0.
<mgrwt>
<rscale>  0 0.12500172E+03</rscale>
<asrwt>0</asrwt>
<pdfrwt beam="2">  1        4 0.14590659E-01 0.12500172E+03</pdfrwt>
<pdfrwt beam="1">  1       -4 0.63368056E-02 0.12500172E+03</pdfrwt>
<totfact> 0.10216041E+04</totfact>
</mgrwt>
</event>
<event>
 5    1  0.3293542E-002  0.1250054E+03  0.7818608E-02  0.1235061E+00
          4   -1    0    0  501    0  0.00000000000E+00  0.00000000000E+00  0.11797174879E+02  0.11865337548E+02  0.12700000000E+01 0.  1.
         -4   -1    0    0    0  501 -0.00000000000E+00 -0.00000000000E+00 -0.33012268792E+03  0.33012513079E+03  0.12700000000E+01 0.  1.
         25    2    1    2    0    0  0.00000000000E+00  0.00000000000E+00 -0.31832551304E+03  0.34199046834E+03  0.12500539261E+03 0.  0.
    9000005    1    3    3    0    0 -0.34124252986E+02 -0.51419267638E+02 -0.13219302343E+03  0.14589174469E+03  0.10000000000E+01 0.  0.
    9000005    1    3    3    0    0  0.34124252986E+02  0.51419267638E+02 -0.18613248961E+03  0.19609872364E+03  0.10000000000E+01 0.  0.
<mgrwt>
<rscale>  0 0.12500539E+03</rscale>
<asrwt>0</asrwt>
<pdfrwt beam="1">  1        4 0.18203814E-02 0.12500539E+03</pdfrwt>
<pdfrwt beam="2">  1       -4 0.50793530E-01 0.12500539E+03</pdfrwt>
<totfact> 0.70606357E+03</totfact>
</mgrwt>
</event>
<event>
 5    1  0.3293542E-002  0.1249992E+03  0.7818608E-02  0.1235071E+00
          4   -1    0    0  501    0  0.00000000000E+00  0.00000000000E+00  0.58847372107E+03  0.58847509148E+03  0.12700000000E+01 0.  1.
         -4   -1    0    0    0  501 -0.00000000000E+00 -0.00000000000E+00 -0.65757122832E+01  0.66972301760E+01  0.12700000000E+01 0.  1.
         25    2    1    2    0    0  0.00000000000E+00  0.00000000000E+00  0.58189800879E+03  0.59517232166E+03  0.12499919933E+03 0.  0.
    9000005    1    3    3    0    0  0.17752667682E+02 -0.56796269874E+02  0.38181915577E+03  0.38642960704E+03  0.10000000000E+01 0.  0.
    9000005    1    3    3    0    0 -0.17752667682E+02  0.56796269874E+02  0.20007885302E+03  0.20874271462E+03  0.10000000000E+01 0.  0.
<mgrwt>
<rscale>  0 0.12499920E+03</rscale>
<asrwt>0</asrwt>
<pdfrwt beam="1">  1        4 0.90543903E-01 0.12499920E+03</pdfrwt>
<pdfrwt beam="2">  1       -4 0.10211006E-02 0.12499920E+03</pdfrwt>
<totfact> 0.49174622E+03</totfact>
</mgrwt>
</event>
<event>
 5    1  0.3293542E-002  0.1249989E+03  0.7818608E-02  0.1235071E+00
         -4   -1    0    0    0  501 -0.00000000000E+00  0.00000000000E+00  0.17410438880E+02  0.17456697339E+02  0.12700000000E+01 0.  1.
          4   -1    0    0  501    0  0.00000000000E+00 -0.00000000000E+00 -0.22401286038E+03  0.22401646037E+03  0.12700000000E+01 0.  1.
         25    2    1    2    0    0  0.00000000000E+00  0.00000000000E+00 -0.20660242150E+03  0.24147315771E+03  0.12499890129E+03 0.  0.
    9000005    1    3    3    0    0 -0.57906653348E+02 -0.13917650411E+02 -0.66734493779E+02  0.89450400529E+02  0.10000000000E+01 0.  0.
    9000005    1    3    3    0    0  0.57906653348E+02  0.13917650411E+02 -0.13986792773E+03  0.15202275718E+03  0.10000000000E+01 0.  0.
<mgrwt>
<rscale>  0 0.12499890E+03</rscale>
<asrwt>0</asrwt>
<pdfrwt beam="2">  1        4 0.34467350E-01 0.12499890E+03</pdfrwt>
<pdfrwt beam="1">  1       -4 0.26823645E-02 0.12499890E+03</pdfrwt>
<totfact> 0.83580503E+03</totfact>
</mgrwt>
</event>
<event>
 5    1  0.3293542E-002  0.1249989E+03  0.7818608E-02  0.1235071E+00
         -4   -1    0    0    0  501 -0.00000000000E+00  0.00000000000E+00  0.33181337901E+03  0.33181580943E+03  0.12700000000E+01 0.  1.
          4   -1    0    0  501    0  0.00000000000E+00 -0.00000000000E+00 -0.11735496926E+02  0.11804015761E+02  0.12700000000E+01 0.  1.
         25    2    1    2    0    0  0.00000000000E+00  0.00000000000E+00  0.32007788208E+03  0.34361982519E+03  0.12499893466E+03 0.  0.
    9000005    1    3    3    0    0 -0.53062684046E+02  0.13586860933E+02  0.24273406816E+03  0.24883946446E+03  0.10000000000E+01 0.  0.
    9000005    1    3    3    0    0  0.53062684046E+02 -0.13586860933E+02  0.77343813923E+02  0.94780360731E+02  0.10000000000E+01 0.  0.
<mgrwt>
<rscale>  0 0.12499893E+03</rscale>
<asrwt>0</asrwt>
<pdfrwt beam="2">  1        4 0.18109190E-02 0.12499893E+03</pdfrwt>
<pdfrwt beam="1">  1       -4 0.51053663E-01 0.12499893E+03</pdfrwt>
<totfact> 0.70433868E+03</totfact>
</mgrwt>
</event>
<event>
 4    1  0.3293542E-002  0.1249111E+03  0.7818608E-02  0.1235208E+00
         -4   -1    0    0    0  501 -0.00000000000E+00  0.00000000000E+00  0.18431227592E+02  0.18474930326E+02  0.12700000000E+01 0. -1.
          4   -1    0    0  501    0  0.00000000000E+00 -0.00000000000E+00 -0.21133882252E+03  0.21134263840E+03  0.12700000000E+01 0. -1.
    9000005    1    1    2    0    0 -0.35740430827E+02  0.15525464074E+02 -0.66722460237E+01  0.39546647107E+02  0.10000000000E+01 0.  0.
    9000005    1    1    2    0    0  0.35740430827E+02 -0.15525464074E+02 -0.18623534890E+03  0.19027092161E+03  0.10000000000E+01 0.  0.
<mgrwt>
<rscale>  0 0.12491107E+03</rscale>
<asrwt>0</asrwt>
<pdfrwt beam="2">  1        4 0.32517319E-01 0.12491107E+03</pdfrwt>
<pdfrwt beam="1">  1       -4 0.28392289E-02 0.12491107E+03</pdfrwt>
<totfact> 0.85507172E+03</totfact>
</mgrwt>
</event>
<event>
 5    1  0.3293542E-002  0.1249997E+03  0.7818608E-02  0.1235070E+00
          4   -1    0    0  501    0  0.00000000000E+00  0.00000000000E+00  0.10851436898E+03  0.10852180046E+03  0.12700000000E+01 0. -1.
         -4   -1    0    0    0  501 -0.00000000000E+00 -0.00000000000E+00 -0.35977517973E+02  0.35999926382E+02  0.12700000000E+01 0. -1.
         25    2    1    2    0    0  0.00000000000E+00  0.00000000000E+00  0.72536851004E+02  0.14452172684E+03  0.12499973910E+03 0.  0.
    9000005    1    3    3    0    0 -0.37829306733E+02  0.48850706785E+02  0.47101105280E+02  0.77697890060E+02  0.10000000000E+01 0.  0.
    9000005    1    3    3    0    0  0.37829306733E+02 -0.48850706785E+02  0.25435745724E+02  0.66823836778E+02  0.10000000000E+01 0.  0.
<mgrwt>
<rscale>  0 0.12499974E+03</rscale>
<asrwt>0</asrwt>
<pdfrwt beam="1">  1        4 0.16696813E-01 0.12499974E+03</pdfrwt>
<pdfrwt beam="2">  1       -4 0.55372982E-02 0.12499974E+03</pdfrwt>
<totfact> 0.10040774E+04</totfact>
</mgrwt>
</event>
<event>
 5    1  0.3293542E-002  0.1249991E+03  0.7818608E-02  0.1235071E+00
          4   -1    0    0  501    0  0.00000000000E+00  0.00000000000E+00  0.13942054567E+02  0.13999778054E+02  0.12700000000E+01 0.  1.
         -4   -1    0    0    0  501 -0.00000000000E+00 -0.00000000000E+00 -0.27953561495E+03  0.27953849990E+03  0.12700000000E+01 0.  1.
         25    2    1    2    0    0  0.00000000000E+00  0.00000000000E+00 -0.26559356039E+03  0.29353827795E+03  0.12499912522E+03 0.  0.
    9000005    1    3    3    0    0 -0.22502041625E+01 -0.19243912940E+02  0.67221208584E+01  0.20532377185E+02  0.10000000000E+01 0.  0.
    9000005    1    3    3    0    0  0.22502041625E+01  0.19243912940E+02 -0.27231568124E+03  0.27300590077E+03  0.10000000000E+01 0.  0.
<mgrwt>
<rscale>  0 0.12499913E+03</rscale>
<asrwt>0</asrwt>
<pdfrwt beam="1">  1        4 0.21495939E-02 0.12499913E+03</pdfrwt>
<pdfrwt beam="2">  1       -4 0.43010137E-01 0.12499913E+03</pdfrwt>
<totfact> 0.76418087E+03</totfact>
</mgrwt>
</event>
<event>
 5    1  0.3293542E-002  0.1250013E+03  0.7818608E-02  0.1235067E+00
          4   -1    0    0  501    0  0.00000000000E+00  0.00000000000E+00  0.26018987494E+03  0.26019297439E+03  0.12700000000E+01 0.  1.
         -4   -1    0    0    0  501 -0.00000000000E+00 -0.00000000000E+00 -0.14983338246E+02  0.15037065039E+02  0.12700000000E+01 0.  1.
         25    2    1    2    0    0  0.00000000000E+00  0.00000000000E+00  0.24520653669E+03  0.27523003943E+03  0.12500131586E+03 0.  0.
    9000005    1    3    3    0    0 -0.15400694511E+02  0.37763564393E+02  0.22686027595E+03  0.23049913880E+03  0.10000000000E+01 0.  0.
    9000005    1    3    3    0    0  0.15400694511E+02 -0.37763564393E+02  0.18346260745E+02  0.44730900622E+02  0.10000000000E+01 0.  0.
<mgrwt>
<rscale>  0 0.12500132E+03</rscale>
<asrwt>0</asrwt>
<pdfrwt beam="1">  1        4 0.40033582E-01 0.12500132E+03</pdfrwt>
<pdfrwt beam="2">  1       -4 0.23095002E-02 0.12500132E+03</pdfrwt>
<totfact> 0.78812541E+03</totfact>
</mgrwt>
</event>
<event>
 5    1  0.3293542E-002  0.1249984E+03  0.7818608E-02  0.1235072E+00
          4   -1    0    0  501    0  0.00000000000E+00  0.00000000000E+00  0.61285981223E+03  0.61286112811E+03  0.12700000000E+01 0. -1.
         -4   -1    0    0    0  501 -0.00000000000E+00 -0.00000000000E+00 -0.63090462599E+01  0.64356013480E+01  0.12700000000E+01 0. -1.
         25    2    1    2    0    0  0.00000000000E+00  0.00000000000E+00  0.60655076597E+03  0.61929672946E+03  0.12499842966E+03 0.  0.
    9000005    1    3    3    0    0 -0.45339094467E+02 -0.42842626768E+02  0.28471925135E+03  0.29147414336E+03  0.10000000000E+01 0.  0.
    9000005    1    3    3    0    0  0.45339094467E+02  0.42842626768E+02  0.32183151462E+03  0.32782258610E+03  0.10000000000E+01 0.  0.
<mgrwt>
<rscale>  0 0.12499843E+03</rscale>
<asrwt>0</asrwt>
<pdfrwt beam="1">  1        4 0.94295949E-01 0.12499843E+03</pdfrwt>
<pdfrwt beam="2">  1       -4 0.98045886E-03 0.12499843E+03</pdfrwt>
<totfact> 0.47673413E+03</totfact>
</mgrwt>
</event>
<event>
 5    1  0.3293542E-002  0.1250034E+03  0.7818608E-02  0.1235064E+00
         -4   -1    0    0    0  501 -0.00000000000E+00  0.00000000000E+00  0.19134095977E+01  0.22965270059E+01  0.12700000000E+01 0. -1.
          4   -1    0    0  501    0  0.00000000000E+00 -0.00000000000E+00 -0.18554461945E+04  0.18554466291E+04  0.12700000000E+01 0. -1.
         25    2    1    2    0    0  0.00000000000E+00  0.00000000000E+00 -0.18535327849E+04  0.18577431561E+04  0.12500339794E+03 0.  0.
    9000005    1    3    3    0    0 -0.29109838496E+02 -0.43426893742E+01 -0.10746258584E+03  0.11142463373E+03  0.10000000000E+01 0.  0.
    9000005    1    3    3    0    0  0.29109838496E+02  0.43426893742E+01 -0.17460701990E+04  0.17463185224E+04  0.10000000000E+01 0.  0.
<mgrwt>
<rscale>  0 0.12500340E+03</rscale>
<asrwt>0</asrwt>
<pdfrwt beam="2">  1        4 0.28548146E+00 0.12500340E+03</pdfrwt>
<pdfrwt beam="1">  1       -4 0.32387620E-03 0.12500340E+03</pdfrwt>
<totfact> 0.11833656E+03</totfact>
</mgrwt>
</event>
<event>
 5    1  0.3293542E-002  0.1250004E+03  0.7818608E-02  0.1235069E+00
         -4   -1    0    0    0  501 -0.00000000000E+00  0.00000000000E+00  0.23204983195E+02  0.23239710521E+02  0.12700000000E+01 0. -1.
          4   -1    0    0  501    0  0.00000000000E+00 -0.00000000000E+00 -0.16817463607E+03  0.16817943131E+03  0.12700000000E+01 0. -1.
         25    2    1    2    0    0  0.00000000000E+00  0.00000000000E+00 -0.14496965287E+03  0.19141914183E+03  0.12500035043E+03 0.  0.
    9000005    1    3    3    0    0  0.15509018823E+02  0.40796106260E+02 -0.14097601818E+03  0.14758079026E+03  0.10000000000E+01 0.  0.
    9000005    1    3    3    0    0 -0.15509018823E+02 -0.40796106260E+02 -0.39936346909E+01  0.43838351575E+02  0.10000000000E+01 0.  0.
<mgrwt>
<rscale>  0 0.12500035E+03</rscale>
<asrwt>0</asrwt>
<pdfrwt beam="2">  1        4 0.25876060E-01 0.12500035E+03</pdfrwt>
<pdfrwt beam="1">  1       -4 0.35730377E-02 0.12500035E+03</pdfrwt>
<totfact> 0.91600255E+03</totfact>
</mgrwt>
</event>
<event>
 5    1  0.3293542E-002  0.1250039E+03  0.7818608E-02  0.1235063E+00
         -4   -1    0    0    0  501 -0.00000000000E+00  0.00000000000E+00  0.41915767858E+03  0.41915960255E+03  0.12700000000E+01 0. -1.
          4   -1    0    0  501    0  0.00000000000E+00 -0.00000000000E+00 -0.92746407013E+01  0.93611890344E+01  0.12700000000E+01 0. -1.
         25    2    1    2    0    0  0.00000000000E+00  0.00000000000E+00  0.40988303787E+03  0.42852079158E+03  0.12500385627E+03 0.  0.
    9000005    1    3    3    0    0 -0.47911886051E+01  0.61627968327E+01 -0.76135925090E+01  0.10949992874E+02  0.10000000000E+01 0.  0.
    9000005    1    3    3    0    0  0.47911886051E+01 -0.61627968327E+01  0.41749663038E+03  0.41757079871E+03  0.10000000000E+01 0.  0.
<mgrwt>
<rscale>  0 0.12500386E+03</rscale>
<asrwt>0</asrwt>
<pdfrwt beam="2">  1        4 0.14336732E-02 0.12500386E+03</pdfrwt>
<pdfrwt beam="1">  1       -4 0.64492608E-01 0.12500386E+03</pdfrwt>
<totfact> 0.61865036E+03</totfact>
</mgrwt>
</event>
<event>
 5    1  0.3293542E-002  0.1249981E+03  0.7818608E-02  0.1235072E+00
         -4   -1    0    0    0  501 -0.00000000000E+00  0.00000000000E+00  0.68419778994E+02  0.68431564775E+02  0.12700000000E+01 0. -1.
          4   -1    0    0  501    0  0.00000000000E+00 -0.00000000000E+00 -0.57066901446E+02  0.57081031356E+02  0.12700000000E+01 0. -1.
         25    2    1    2    0    0  0.00000000000E+00  0.00000000000E+00  0.11352877547E+02  0.12551259613E+03  0.12499809582E+03 0.  0.
    9000005    1    3    3    0    0 -0.53655872131E+01  0.89251610405E+00 -0.56833676638E+02  0.57102127029E+02  0.10000000000E+01 0.  0.
    9000005    1    3    3    0    0  0.53655872131E+01 -0.89251610405E+00  0.68186554185E+02  0.68410469102E+02  0.10000000000E+01 0.  0.
<mgrwt>
<rscale>  0 0.12499810E+03</rscale>
<asrwt>0</asrwt>
<pdfrwt beam="2">  1        4 0.87815169E-02 0.12499810E+03</pdfrwt>
<pdfrwt beam="1">  1       -4 0.10528113E-01 0.12499810E+03</pdfrwt>
<totfact> 0.10442124E+04</totfact>
</mgrwt>
</event>
<event>
 5    1  0.3293542E-002  0.1249989E+03  0.7818608E-02  0.1235071E+00
         -4   -1    0    0    0  501 -0.00000000000E+00  0.00000000000E+00  0.16979671681E+02  0.17027100469E+02  0.12700000000E+01 0. -1.
          4   -1    0    0  501    0  0.00000000000E+00 -0.00000000000E+00 -0.22968025381E+03  0.22968376497E+03  0.12700000000E+01 0. -1.
         25    2    1    2    0    0  0.00000000000E+00  0.00000000000E+00 -0.21270058213E+03  0.24671086544E+03  0.12499885394E+03 0.  0.
    9000005    1    3    3    0    0  0.22628342840E+02 -0.39325003681E+02 -0.19116635886E+03  0.19647919628E+03  0.10000000000E+01 0.  0.
    9000005    1    3    3    0    0 -0.22628342840E+02  0.39325003681E+02 -0.21534223277E+02  0.50231669157E+02  0.10000000000E+01 0.  0.
<mgrwt>
<rscale>  0 0.12499885E+03</rscale>
<asrwt>0</asrwt>
<pdfrwt beam="2">  1        4 0.35339340E-01 0.12499885E+03</pdfrwt>
<pdfrwt beam="1">  1       -4 0.26161758E-02 0.12499885E+03</pdfrwt>
<totfact> 0.82810062E+03</totfact>
</mgrwt>
</event>
<event>
 5    1  0.3293542E-002  0.1249988E+03  0.7818608E-02  0.1235071E+00
          4   -1    0    0  501    0  0.00000000000E+00  0.00000000000E+00  0.10419269822E+03  0.10420043792E+03  0.12700000000E+01 0. -1.
         -4   -1    0    0    0  501 -0.00000000000E+00 -0.00000000000E+00 -0.37470007762E+02  0.37491524131E+02  0.12700000000E+01 0. -1.
         25    2    1    2    0    0  0.00000000000E+00  0.00000000000E+00  0.66722690457E+02  0.14169196205E+03  0.12499877874E+03 0.  0.
    9000005    1    3    3    0    0  0.12700358788E+02 -0.28237893890E+02  0.94892117411E+02  0.99820797990E+02  0.10000000000E+01 0.  0.
    9000005    1    3    3    0    0 -0.12700358788E+02  0.28237893890E+02 -0.28169426953E+02  0.41871164058E+02  0.10000000000E+01 0.  0.
<mgrwt>
<rscale>  0 0.12499878E+03</rscale>
<asrwt>0</asrwt>
<pdfrwt beam="1">  1        4 0.16031896E-01 0.12499878E+03</pdfrwt>
<pdfrwt beam="2">  1       -4 0.57668670E-02 0.12499878E+03</pdfrwt>
<totfact> 0.10098916E+04</totfact>
</mgrwt>
</event>
<event>
 5    1  0.3293542E-002  0.1250020E+03  0.7818608E-02  0.1235066E+00
          4   -1    0    0  501    0  0.00000000000E+00  0.00000000000E+00  0.15112240147E+02  0.15165510286E+02  0.12700000000E+01 0.  1.
         -4   -1    0    0    0  501 -0.00000000000E+00 -0.00000000000E+00 -0.25798122641E+03  0.25798435240E+03  0.12700000000E+01 0.  1.
         25    2    1    2    0    0  0.00000000000E+00  0.00000000000E+00 -0.24286898627E+03  0.27314986268E+03  0.12500201196E+03 0.  0.
    9000005    1    3    3    0    0 -0.18141156069E+02  0.14644932571E+02  0.52635565749E+01  0.23922387451E+02  0.10000000000E+01 0.  0.
    9000005    1    3    3    0    0  0.18141156069E+02 -0.14644932571E+02 -0.24813254284E+03  0.24922747523E+03  0.10000000000E+01 0.  0.
<mgrwt>
<rscale>  0 0.12500201E+03</rscale>
<asrwt>0</asrwt>
<pdfrwt beam="1">  1        4 0.23292984E-02 0.12500201E+03</pdfrwt>
<pdfrwt beam="2">  1       -4 0.39693754E-01 0.12500201E+03</pdfrwt>
<totfact> 0.79091702E+03</totfact>
</mgrwt>
</event>
<event>
 5    1  0.3293542E-002  0.1250106E+03  0.7818608E-02  0.1235053E+00
          4   -1    0    0  501    0  0.00000000000E+00  0.00000000000E+00  0.23472777247E+02  0.23507108961E+02  0.12700000000E+01 0. -1.
         -4   -1    0    0    0  501 -0.00000000000E+00 -0.00000000000E+00 -0.16628613898E+03  0.16629098868E+03  0.12700000000E+01 0. -1.
         25    2    1    2    0    0  0.00000000000E+00  0.00000000000E+00 -0.14281336173E+03  0.18979809764E+03  0.12501064587E+03 0.  0.
    9000005    1    3    3    0    0  0.61505028286E+02 -0.11592366396E+00 -0.88247238233E+02  0.10757070697E+03  0.10000000000E+01 0.  0.
    9000005    1    3    3    0    0 -0.61505028286E+02  0.11592366396E+00 -0.54566123499E+02  0.82227390671E+02  0.10000000000E+01 0.  0.
<mgrwt>
<rscale>  0 0.12501065E+03</rscale>
<asrwt>0</asrwt>
<pdfrwt beam="1">  1        4 0.36142106E-02 0.12501065E+03</pdfrwt>
<pdfrwt beam="2">  1       -4 0.25585496E-01 0.12501065E+03</pdfrwt>
<totfact> 0.91860549E+03</totfact>
</mgrwt>
</event>
<event>
 5    1  0.3293542E-002  0.1250002E+03  0.7818608E-02  0.1235069E+00
         -4   -1    0    0    0  501 -0.00000000000E+00  0.00000000000E+00  0.22032926359E+02  0.22069498045E+02  0.12700000000E+01 0. -1.
          4   -1    0    0  501    0  0.00000000000E+00 -0.00000000000E+00 -0.17710614979E+03  0.17711070322E+03  0.12700000000E+01 0. -1.
         25    2    1    2    0    0  0.00000000000E+00  0.00000000000E+00 -0.15507322343E+03  0.19918020126E+03  0.12500019180E+03 0.  0.
    9000005    1    3    3    0    0  0.35041636445E+02  0.48629413091E+02 -0.49367154147E+02  0.77658560448E+02  0.10000000000E+01 0.  0.
    9000005    1    3    3    0    0 -0.35041636445E+02 -0.48629413091E+02 -0.10570606929E+03  0.12152164081E+03  0.10000000000E+01 0.  0.
<mgrwt>
<rscale>  0 0.12500019E+03</rscale>
<asrwt>0</asrwt>
<pdfrwt beam="2">  1        4 0.27250262E-01 0.12500019E+03</pdfrwt>
<pdfrwt beam="1">  1       -4 0.33928446E-02 0.12500019E+03</pdfrwt>
<totfact> 0.90273569E+03</totfact>
</mgrwt>
</event>
<event>
 5    1  0.3293542E-002  0.1249877E+03  0.7818608E-02  0.1235088E+00
         -4   -1    0    0    0  501 -0.00000000000E+00  0.00000000000E+00  0.11839580912E+03  0.11840262040E+03  0.12700000000E+01 0.  1.
          4   -1    0    0  501    0  0.00000000000E+00 -0.00000000000E+00 -0.32966668629E+02  0.32991122146E+02  0.12700000000E+01 0.  1.
         25    2    1    2    0    0  0.00000000000E+00  0.00000000000E+00  0.85429140490E+02  0.15139374254E+03  0.12498770834E+03 0.  0.
    9000005    1    3    3    0    0  0.10468253145E-01  0.59190036634E+02  0.18458283393E+02  0.62009424865E+02  0.10000000000E+01 0.  0.
    9000005    1    3    3    0    0 -0.10468253145E-01 -0.59190036634E+02  0.66970857097E+02  0.89384317677E+02  0.10000000000E+01 0.  0.
<mgrwt>
<rscale>  0 0.12498771E+03</rscale>
<asrwt>0</asrwt>
<pdfrwt beam="2">  1        4 0.50742003E-02 0.12498771E+03</pdfrwt>
<pdfrwt beam="1">  1       -4 0.18217144E-01 0.12498771E+03</pdfrwt>
<totfact> 0.99053994E+03</totfact>
</mgrwt>
</event>
<event>
 5    1  0.3293542E-002  0.1250065E+03  0.7818608E-02  0.1235059E+00
          4   -1    0    0  501    0  0.00000000000E+00  0.00000000000E+00  0.25004178000E+03  0.25004500524E+03  0.12700000000E+01 0.  1.
         -4   -1    0    0    0  501 -0.00000000000E+00 -0.00000000000E+00 -0.15594876731E+02  0.15646503771E+02  0.12700000000E+01 0.  1.
         25    2    1    2    0    0  0.00000000000E+00  0.00000000000E+00  0.23444690327E+03  0.26569150901E+03  0.12500650986E+03 0.  0.
    9000005    1    3    3    0    0 -0.11531079705E+02 -0.56261987168E+02  0.16960031550E+03  0.17906324027E+03  0.10000000000E+01 0.  0.
    9000005    1    3    3    0    0  0.11531079705E+02  0.56261987168E+02  0.64846587768E+02  0.86628268737E+02  0.10000000000E+01 0.  0.
<mgrwt>
<rscale>  0 0.12500651E+03</rscale>
<asrwt>0</asrwt>
<pdfrwt beam="1">  1        4 0.38472185E-01 0.12500651E+03</pdfrwt>
<pdfrwt beam="2">  1       -4 0.24034313E-02 0.12500651E+03</pdfrwt>
<totfact> 0.80102311E+03</totfact>
</mgrwt>
</event>
<event>
 5    1  0.3293542E-002  0.1250025E+03  0.7818608E-02  0.1235065E+00
          4   -1    0    0  501    0  0.00000000000E+00  0.00000000000E+00  0.22033473668E+02  0.22070044446E+02  0.12700000000E+01 0.  1.
         -4   -1    0    0    0  501 -0.00000000000E+00 -0.00000000000E+00 -0.17710819547E+03  0.17711274884E+03  0.12700000000E+01 0.  1.
         25    2    1    2    0    0  0.00000000000E+00  0.00000000000E+00 -0.15507472180E+03  0.19918279329E+03  0.12500246318E+03 0.  0.
    9000005    1    3    3    0    0 -0.24633099755E+02 -0.54267751273E+02 -0.10750172365E+03  0.12292029540E+03  0.10000000000E+01 0.  0.
    9000005    1    3    3    0    0  0.24633099755E+02  0.54267751273E+02 -0.47572998144E+02  0.76262497889E+02  0.10000000000E+01 0.  0.
<mgrwt>
<rscale>  0 0.12500246E+03</rscale>
<asrwt>0</asrwt>
<pdfrwt beam="1">  1        4 0.33929287E-02 0.12500246E+03</pdfrwt>
<pdfrwt beam="2">  1       -4 0.27250577E-01 0.12500246E+03</pdfrwt>
<totfact> 0.90268542E+03</totfact>
</mgrwt>
</event>
<event>
 5    1  0.3293542E-002  0.1249987E+03  0.7818608E-02  0.1235071E+00
         -4   -1    0    0    0  501 -0.00000000000E+00  0.00000000000E+00  0.47249020594E+03  0.47249191275E+03  0.12700000000E+01 0. -1.
          4   -1    0    0  501    0  0.00000000000E+00 -0.00000000000E+00 -0.82166893531E+01  0.83142578698E+01  0.12700000000E+01 0. -1.
         25    2    1    2    0    0  0.00000000000E+00  0.00000000000E+00  0.46427351659E+03  0.48080617062E+03  0.12499870198E+03 0.  0.
    9000005    1    3    3    0    0 -0.60148194992E+02 -0.13312202974E+02  0.27250634902E+03  0.27938455642E+03  0.10000000000E+01 0.  0.
    9000005    1    3    3    0    0  0.60148194992E+02  0.13312202974E+02  0.19176716756E+03  0.20142161419E+03  0.10000000000E+01 0.  0.
<mgrwt>
<rscale>  0 0.12499870E+03</rscale>
<asrwt>0</asrwt>
<pdfrwt beam="2">  1        4 0.12717422E-02 0.12499870E+03</pdfrwt>
<pdfrwt beam="1">  1       -4 0.72698461E-01 0.12499870E+03</pdfrwt>
<totfact> 0.57386568E+03</totfact>
</mgrwt>
</event>
<event>
 5    1  0.3293542E-002  0.1249994E+03  0.7818608E-02  0.1235070E+00
         -4   -1    0    0    0  501 -0.00000000000E+00  0.00000000000E+00  0.26044650659E+02  0.26075596406E+02  0.12700000000E+01 0. -1.
          4   -1    0    0  501    0  0.00000000000E+00 -0.00000000000E+00 -0.14985876401E+03  0.14986414531E+03  0.12700000000E+01 0. -1.
         25    2    1    2    0    0  0.00000000000E+00  0.00000000000E+00 -0.12381411335E+03  0.17593974172E+03  0.12499943220E+03 0.  0.
    9000005    1    3    3    0    0  0.37241613079E+02  0.29293633713E+02 -0.11925671773E+03  0.12832856051E+03  0.10000000000E+01 0.  0.
    9000005    1    3    3    0    0 -0.37241613079E+02 -0.29293633713E+02 -0.45573956237E+01  0.47611181204E+02  0.10000000000E+01 0.  0.
<mgrwt>
<rscale>  0 0.12499943E+03</rscale>
<asrwt>0</asrwt>
<pdfrwt beam="2">  1        4 0.23057988E-01 0.12499943E+03</pdfrwt>
<pdfrwt beam="1">  1       -4 0.40096638E-02 0.12499943E+03</pdfrwt>
<totfact> 0.94354213E+03</totfact>
</mgrwt>
</event>
<event>
 5    1  0.3293542E-002  0.1250027E+03  0.7818608E-02  0.1235065E+00
          4   -1    0    0  501    0  0.00000000000E+00  0.00000000000E+00  0.24249549343E+03  0.24249881904E+03  0.12700000000E+01 0.  1.
         -4   -1    0    0    0  501 -0.00000000000E+00 -0.00000000000E+00 -0.16080760178E+02  0.16130832213E+02  0.12700000000E+01 0.  1.
         25    2    1    2    0    0  0.00000000000E+00  0.00000000000E+00  0.22641473325E+03  0.25862965125E+03  0.12500266026E+03 0.  0.
    9000005    1    3    3    0    0  0.45158447245E+02  0.40874267145E+02  0.14213076614E+03  0.15463552553E+03  0.10000000000E+01 0.  0.
    9000005    1    3    3    0    0 -0.45158447245E+02 -0.40874267145E+02  0.84283967118E+02  0.10399412572E+03  0.10000000000E+01 0.  0.
<mgrwt>
<rscale>  0 0.12500266E+03</rscale>
<asrwt>0</asrwt>
<pdfrwt beam="1">  1        4 0.37311105E-01 0.12500266E+03</pdfrwt>
<pdfrwt beam="2">  1       -4 0.24780707E-02 0.12500266E+03</pdfrwt>
<totfact> 0.81093952E+03</totfact>
</mgrwt>
</event>
<event>
 5    1  0.3293542E-002  0.1250156E+03  0.7818608E-02  0.1235045E+00
         -4   -1    0    0    0  501 -0.00000000000E+00  0.00000000000E+00  0.26484874739E+03  0.26485179232E+03  0.12700000000E+01 0. -1.
          4   -1    0    0  501    0  0.00000000000E+00 -0.00000000000E+00 -0.14722190236E+02  0.14776866561E+02  0.12700000000E+01 0. -1.
         25    2    1    2    0    0  0.00000000000E+00  0.00000000000E+00  0.25012655715E+03  0.27962865888E+03  0.12501556812E+03 0.  0.
    9000005    1    3    3    0    0 -0.12978489617E+00 -0.62397265299E+02  0.13306181499E+03  0.14696898370E+03  0.10000000000E+01 0.  0.
    9000005    1    3    3    0    0  0.12978489617E+00  0.62397265299E+02  0.11706474216E+03  0.13265967518E+03  0.10000000000E+01 0.  0.
<mgrwt>
<rscale>  0 0.12501557E+03</rscale>
<asrwt>0</asrwt>
<pdfrwt beam="2">  1        4 0.22693924E-02 0.12501557E+03</pdfrwt>
<pdfrwt beam="1">  1       -4 0.40750402E-01 0.12501557E+03</pdfrwt>
<totfact> 0.78200300E+03</totfact>
</mgrwt>
</event>
<event>
 5    1  0.3293542E-002  0.1250019E+03  0.7818608E-02  0.1235066E+00
         -4   -1    0    0    0  501 -0.00000000000E+00  0.00000000000E+00  0.40758344211E+02  0.40778125543E+02  0.12700000000E+01 0. -1.
          4   -1    0    0  501    0  0.00000000000E+00 -0.00000000000E+00 -0.95794926344E+02  0.95803344478E+02  0.12700000000E+01 0. -1.
         25    2    1    2    0    0  0.00000000000E+00  0.00000000000E+00 -0.55036582133E+02  0.13658147002E+03  0.12500189031E+03 0.  0.
    9000005    1    3    3    0    0  0.29290001122E+02 -0.28909513702E+00 -0.87835125038E+02  0.92595879672E+02  0.10000000000E+01 0.  0.
    9000005    1    3    3    0    0 -0.29290001122E+02  0.28909513702E+00  0.32798542905E+02  0.43985590350E+02  0.10000000000E+01 0.  0.
<mgrwt>
<rscale>  0 0.12500189E+03</rscale>
<asrwt>0</asrwt>
<pdfrwt beam="2">  1        4 0.14739850E-01 0.12500189E+03</pdfrwt>
<pdfrwt beam="1">  1       -4 0.62726837E-02 0.12500189E+03</pdfrwt>
<totfact> 0.10204409E+04</totfact>
</mgrwt>
</event>
<event>
 5    1  0.3293542E-002  0.1250017E+03  0.7818608E-02  0.1235067E+00
         -4   -1    0    0    0  501 -0.00000000000E+00  0.00000000000E+00  0.91767358505E+01  0.92641988791E+01  0.12700000000E+01 0. -1.
          4   -1    0    0  501    0  0.00000000000E+00 -0.00000000000E+00 -0.42357295482E+03  0.42357485873E+03  0.12700000000E+01 0. -1.
         25    2    1    2    0    0  0.00000000000E+00  0.00000000000E+00 -0.41439621897E+03  0.43283905761E+03  0.12500169400E+03 0.  0.
    9000005    1    3    3    0    0  0.56751212403E+02 -0.24946033778E+02 -0.17985594879E+03  0.19024239019E+03  0.10000000000E+01 0.  0.
    9000005    1    3    3    0    0 -0.56751212403E+02  0.24946033778E+02 -0.23454027017E+03  0.24259666742E+03  0.10000000000E+01 0.  0.
<mgrwt>
<rscale>  0 0.12500169E+03</rscale>
<asrwt>0</asrwt>
<pdfrwt beam="2">  1        4 0.65171929E-01 0.12500169E+03</pdfrwt>
<pdfrwt beam="1">  1       -4 0.14186802E-02 0.12500169E+03</pdfrwt>
<totfact> 0.61477200E+03</totfact>
</mgrwt>
</event>
<event>
 5    1  0.3293542E-002  0.1249987E+03  0.7818608E-02  0.1235071E+00
         -4   -1    0    0    0  501 -0.00000000000E+00  0.00000000000E+00  0.24702017838E+01  0.27775523132E+01  0.12700000000E+01 0. -1.
          4   -1    0    0  501    0  0.00000000000E+00 -0.00000000000E+00 -0.14883939478E+04  0.14883944896E+04  0.12700000000E+01 0. -1.
         25    2    1    2    0    0  0.00000000000E+00  0.00000000000E+00 -0.14859237460E+04  0.14911720420E+04  0.12499871873E+03 0.  0.
    9000005    1    3    3    0    0 -0.11257164801E+02 -0.61388778378E+02 -0.78042895337E+03  0.78292123303E+03  0.10000000000E+01 0.  0.
    9000005    1    3    3    0    0  0.11257164801E+02  0.61388778378E+02 -0.70549479267E+03  0.70825080893E+03  0.10000000000E+01 0.  0.
<mgrwt>
<rscale>  0 0.12499872E+03</rscale>
<asrwt>0</asrwt>
<pdfrwt beam="2">  1        4 0.22900669E+00 0.12499872E+03</pdfrwt>
<pdfrwt beam="1">  1       -4 0.40371626E-03 0.12499872E+03</pdfrwt>
<totfact> 0.18105270E+03</totfact>
</mgrwt>
</event>
<event>
 5    1  0.3293542E-002  0.1250000E+03  0.7818608E-02  0.1235069E+00
          4   -1    0    0  501    0  0.00000000000E+00  0.00000000000E+00  0.62230323652E+02  0.62243281419E+02  0.12700000000E+01 0.  1.
         -4   -1    0    0    0  501 -0.00000000000E+00 -0.00000000000E+00 -0.62744886819E+02  0.62757738343E+02  0.12700000000E+01 0.  1.
         25    2    1    2    0    0  0.00000000000E+00  0.00000000000E+00 -0.51456316788E+00  0.12500101976E+03  0.12499996067E+03 0.  0.
    9000005    1    3    3    0    0  0.49980358113E+02  0.37027660518E+02 -0.62709588185E+01  0.62525265014E+02  0.10000000000E+01 0.  0.
    9000005    1    3    3    0    0 -0.49980358113E+02 -0.37027660518E+02  0.57563956506E+01  0.62475754749E+02  0.10000000000E+01 0.  0.
<mgrwt>
<rscale>  0 0.12499996E+03</rscale>
<asrwt>0</asrwt>
<pdfrwt beam="1">  1        4 0.95758812E-02 0.12499996E+03</pdfrwt>
<pdfrwt beam="2">  1       -4 0.96550449E-02 0.12499996E+03</pdfrwt>
<totfact> 0.10452850E+04</totfact>
</mgrwt>
</event>
<event>
 5    1  0.3293542E-002  0.1249986E+03  0.7818608E-02  0.1235072E+00
          4   -1    0    0  501    0  0.00000000000E+00  0.00000000000E+00  0.88318520225E+01  0.89226963496E+01  0.12700000000E+01 0.  1.
         -4   -1    0    0    0  501 -0.00000000000E+00 -0.00000000000E+00 -0.43992624133E+03  0.43992807447E+03  0.12700000000E+01 0.  1.
         25    2    1    2    0    0  0.00000000000E+00  0.00000000000E+00 -0.43109438931E+03  0.44885077082E+03  0.12499856790E+03 0.  0.
    9000005    1    3    3    0    0 -0.10633455794E+02 -0.27258111390E+02 -0.41382848550E+03  0.41486273686E+03  0.10000000000E+01 0.  0.
    9000005    1    3    3    0    0  0.10633455794E+02  0.27258111390E+02 -0.17265903802E+02  0.33988033964E+02  0.10000000000E+01 0.  0.
<mgrwt>
<rscale>  0 0.12499857E+03</rscale>
<asrwt>0</asrwt>
<pdfrwt beam="1">  1        4 0.13658758E-02 0.12499857E+03</pdfrwt>
<pdfrwt beam="2">  1       -4 0.67688072E-01 0.12499857E+03</pdfrwt>
<totfact> 0.60065384E+03</totfact>
</mgrwt>
</event>
<event>
 5    1  0.3293542E-002  0.1249725E+03  0.7818608E-02  0.1235112E+00
         -4   -1    0    0    0  501 -0.00000000000E+00  0.00000000000E+00  0.22032222185E+03  0.22032588214E+03  0.12700000000E+01 0.  1.
          4   -1    0    0  501    0  0.00000000000E+00 -0.00000000000E+00 -0.17695338900E+02  0.17740854511E+02  0.12700000000E+01 0.  1.
         25    2    1    2    0    0  0.00000000000E+00  0.00000000000E+00  0.20262688295E+03  0.23806673665E+03  0.12497246659E+03 0.  0.
    9000005    1    3    3    0    0  0.61147972823E+02  0.69742097002E+01  0.12181406649E+03  0.13648216358E+03  0.10000000000E+01 0.  0.
    9000005    1    3    3    0    0 -0.61147972823E+02 -0.69742097002E+01  0.80812816463E+02  0.10158457307E+03  0.10000000000E+01 0.  0.
<mgrwt>
<rscale>  0 0.12497247E+03</rscale>
<asrwt>0</asrwt>
<pdfrwt beam="2">  1        4 0.27261425E-02 0.12497247E+03</pdfrwt>
<pdfrwt beam="1">  1       -4 0.33899510E-01 0.12497247E+03</pdfrwt>
<totfact> 0.84137778E+03</totfact>
</mgrwt>
</event>
<event>
 5    1  0.3293542E-002  0.1249996E+03  0.7818608E-02  0.1235070E+00
         -4   -1    0    0    0  501 -0.00000000000E+00  0.00000000000E+00  0.11400718126E+03  0.11401425472E+03  0.12700000000E+01 0.  1.
          4   -1    0    0  501    0  0.00000000000E+00 -0.00000000000E+00 -0.34243047949E+02  0.34266590622E+02  0.12700000000E+01 0.  1.
         25    2    1    2    0    0  0.00000000000E+00  0.00000000000E+00  0.79764133313E+02  0.14828084534E+03  0.12499956853E+03 0.  0.
    9000005    1    3    3    0    0 -0.14915292398E+01 -0.46972169903E+02  0.88743703880E+02  0.10042437146E+03  0.10000000000E+01 0.  0.
    9000005    1    3    3    0    0  0.14915292398E+01  0.46972169903E+02 -0.89795705666E+01  0.47856473882E+02  0.10000000000E+01 0.  0.
<mgrwt>
<rscale>  0 0.12499957E+03</rscale>
<asrwt>0</asrwt>
<pdfrwt beam="2">  1        4 0.52705164E-02 0.12499957E+03</pdfrwt>
<pdfrwt beam="1">  1       -4 0.17541921E-01 0.12499957E+03</pdfrwt>
<totfact> 0.99648463E+03</totfact>
</mgrwt>
</event>
<event>
 5    1  0.3293542E-002  0.1250065E+03  0.7818608E-02  0.1235059E+00
          4   -1    0    0  501    0  0.00000000000E+00  0.00000000000E+00  0.45866545368E+02  0.45884124531E+02  0.12700000000E+01 0. -1.
         -4   -1    0    0    0  501 -0.00000000000E+00 -0.00000000000E+00 -0.85135713638E+02  0.85145185634E+02  0.12700000000E+01 0. -1.
         25    2    1    2    0    0  0.00000000000E+00  0.00000000000E+00 -0.39269168270E+02  0.13102931016E+03  0.12500645002E+03 0.  0.
    9000005    1    3    3    0    0 -0.15088495948E+02 -0.13124471226E+02 -0.81696589251E+02  0.84114488349E+02  0.10000000000E+01 0.  0.
    9000005    1    3    3    0    0  0.15088495948E+02  0.13124471226E+02  0.42427420981E+02  0.46914821816E+02  0.10000000000E+01 0.  0.
<mgrwt>
<rscale>  0 0.12500645E+03</rscale>
<asrwt>0</asrwt>
<pdfrwt beam="1">  1        4 0.70584725E-02 0.12500645E+03</pdfrwt>
<pdfrwt beam="2">  1       -4 0.13099883E-01 0.12500645E+03</pdfrwt>
<totfact> 0.10320959E+04</totfact>
</mgrwt>
</event>
<event>
 5    1  0.3293542E-002  0.1250006E+03  0.7818608E-02  0.1235068E+00
          4   -1    0    0  501    0  0.00000000000E+00  0.00000000000E+00  0.91606746069E+03  0.91606834102E+03  0.12700000000E+01 0. -1.
         -4   -1    0    0    0  501 -0.00000000000E+00 -0.00000000000E+00 -0.41687266740E+01  0.43578873416E+01  0.12700000000E+01 0. -1.
         25    2    1    2    0    0  0.00000000000E+00  0.00000000000E+00  0.91189873401E+03  0.92042622837E+03  0.12500056309E+03 0.  0.
    9000005    1    3    3    0    0  0.31816615188E+02  0.52201327999E+02  0.36050638595E+03  0.36565438594E+03  0.10000000000E+01 0.  0.
    9000005    1    3    3    0    0 -0.31816615188E+02 -0.52201327999E+02  0.55139234807E+03  0.55477184243E+03  0.10000000000E+01 0.  0.
<mgrwt>
<rscale>  0 0.12500056E+03</rscale>
<asrwt>0</asrwt>
<pdfrwt beam="1">  1        4 0.14094794E+00 0.12500056E+03</pdfrwt>
<pdfrwt beam="2">  1       -4 0.65596171E-03 0.12500056E+03</pdfrwt>
<totfact> 0.33389367E+03</totfact>
</mgrwt>
</event>
<event>
 5    1  0.3293542E-002  0.1249955E+03  0.7818608E-02  0.1235076E+00
          4   -1    0    0  501    0  0.00000000000E+00  0.00000000000E+00  0.34723494009E+03  0.34723726257E+03  0.12700000000E+01 0.  1.
         -4   -1    0    0    0  501 -0.00000000000E+00 -0.00000000000E+00 -0.11210569491E+02  0.11282276734E+02  0.12700000000E+01 0.  1.
         25    2    1    2    0    0  0.00000000000E+00  0.00000000000E+00  0.33602437060E+03  0.35851953931E+03  0.12499552964E+03 0.  0.
    9000005    1    3    3    0    0  0.35097183813E+02  0.88625725525E+01  0.31411367767E+03  0.31619418085E+03  0.10000000000E+01 0.  0.
    9000005    1    3    3    0    0 -0.35097183813E+02 -0.88625725525E+01  0.21910692926E+02  0.42325358454E+02  0.10000000000E+01 0.  0.
<mgrwt>
<rscale>  0 0.12499553E+03</rscale>
<asrwt>0</asrwt>
<pdfrwt beam="1">  1        4 0.53426446E-01 0.12499553E+03</pdfrwt>
<pdfrwt beam="2">  1       -4 0.17303979E-02 0.12499553E+03</pdfrwt>
<totfact> 0.68804168E+03</totfact>
</mgrwt>
</event>
<event>
 5    1  0.3293542E-002  0.1249993E+03  0.7818608E-02  0.1235070E+00
          4   -1    0    0  501    0  0.00000000000E+00  0.00000000000E+00  0.48187964024E+01  0.49833421283E+01  0.12700000000E+01 0. -1.
         -4   -1    0    0    0  501 -0.00000000000E+00 -0.00000000000E+00 -0.79684576955E+03  0.79684678160E+03  0.12700000000E+01 0. -1.
         25    2    1    2    0    0  0.00000000000E+00  0.00000000000E+00 -0.79202697315E+03  0.80183012373E+03  0.12499928451E+03 0.  0.
    9000005    1    3    3    0    0  0.41426137715E+02 -0.38944269971E+02 -0.22967355482E+03  0.23660879704E+03  0.10000000000E+01 0.  0.
    9000005    1    3    3    0    0 -0.41426137715E+02  0.38944269971E+02 -0.56235341832E+03  0.56522132670E+03  0.10000000000E+01 0.  0.
<mgrwt>
<rscale>  0 0.12499928E+03</rscale>
<asrwt>0</asrwt>
<pdfrwt beam="1">  1        4 0.75408914E-03 0.12499928E+03</pdfrwt>
<pdfrwt beam="2">  1       -4 0.12260429E+00 0.12499928E+03</pdfrwt>
<totfact> 0.38183779E+03</totfact>
</mgrwt>
</event>
<event>
 5    1  0.3293542E-002  0.1249985E+03  0.7818608E-02  0.1235072E+00
          4   -1    0    0  501    0  0.00000000000E+00  0.00000000000E+00  0.77992410491E+02  0.78002749915E+02  0.12700000000E+01 0. -1.
         -4   -1    0    0    0  501 -0.00000000000E+00 -0.00000000000E+00 -0.50062112580E+02  0.50078218977E+02  0.12700000000E+01 0. -1.
         25    2    1    2    0    0  0.00000000000E+00  0.00000000000E+00  0.27930297912E+02  0.12808096889E+03  0.12499853219E+03 0.  0.
    9000005    1    3    3    0    0 -0.48950892585E+02  0.14089134982E+02  0.51058182017E+02  0.72129269789E+02  0.10000000000E+01 0.  0.
    9000005    1    3    3    0    0  0.48950892585E+02 -0.14089134982E+02 -0.23127884105E+02  0.55951699103E+02  0.10000000000E+01 0.  0.
<mgrwt>
<rscale>  0 0.12499853E+03</rscale>
<asrwt>0</asrwt>
<pdfrwt beam="1">  1        4 0.12000867E-01 0.12499853E+03</pdfrwt>
<pdfrwt beam="2">  1       -4 0.77038978E-02 0.12499853E+03</pdfrwt>
<totfact> 0.10386083E+04</totfact>
</mgrwt>
</event>
<event>
 5    1  0.3293542E-002  0.1250008E+03  0.7818608E-02  0.1235068E+00
          4   -1    0    0  501    0  0.00000000000E+00  0.00000000000E+00  0.40315404344E+02  0.40335402904E+02  0.12700000000E+01 0. -1.
         -4   -1    0    0    0  501 -0.00000000000E+00 -0.00000000000E+00 -0.96845328839E+02  0.96853655677E+02  0.12700000000E+01 0. -1.
         25    2    1    2    0    0  0.00000000000E+00  0.00000000000E+00 -0.56529924495E+02  0.13718905858E+03  0.12500082172E+03 0.  0.
    9000005    1    3    3    0    0  0.41319902877E+02 -0.13294250382E+02  0.21076778151E+02  0.48262843308E+02  0.10000000000E+01 0.  0.
    9000005    1    3    3    0    0 -0.41319902877E+02  0.13294250382E+02 -0.77606702646E+02  0.88926215272E+02  0.10000000000E+01 0.  0.
<mgrwt>
<rscale>  0 0.12500082E+03</rscale>
<asrwt>0</asrwt>
<pdfrwt beam="1">  1        4 0.62045488E-02 0.12500082E+03</pdfrwt>
<pdfrwt beam="2">  1       -4 0.14901460E-01 0.12500082E+03</pdfrwt>
<totfact> 0.10191945E+04</totfact>
</mgrwt>
</event>
<event>
 5    1  0.3293542E-002  0.1249967E+03  0.7818608E-02  0.1235074E+00
          4   -1    0    0  501    0  0.00000000000E+00  0.00000000000E+00  0.93770665948E+03  0.93770751950E+03  0.12700000000E+01 0. -1.
         -4   -1    0    0    0  501 -0.00000000000E+00 -0.00000000000E+00 -0.40678487399E+01  0.42614895718E+01  0.12700000000E+01 0. -1.
         25    2    1    2    0    0  0.00000000000E+00  0.00000000000E+00  0.93363881074E+03  0.94196900908E+03  0.12499674051E+03 0.  0.
    9000005    1    3    3    0    0  0.10182462591E+02  0.61397795877E+02  0.42440707510E+03  0.42894724301E+03  0.10000000000E+01 0.  0.
    9000005    1    3    3    0    0 -0.10182462591E+02 -0.61397795877E+02  0.50923173564E+03  0.51302176607E+03  0.10000000000E+01 0.  0.
<mgrwt>
<rscale>  0 0.12499674E+03</rscale>
<asrwt>0</asrwt>
<pdfrwt beam="1">  1        4 0.14427748E+00 0.12499674E+03</pdfrwt>
<pdfrwt beam="2">  1       -4 0.64078469E-03 0.12499674E+03</pdfrwt>
<totfact> 0.32605159E+03</totfact>
</mgrwt>
</event>
<event>
 5    1  0.3293542E-002  0.1250234E+03  0.7818608E-02  0.1235033E+00
          4   -1    0    0  501    0  0.00000000000E+00  0.00000000000E+00  0.31953973387E+02  0.31979201291E+02  0.12700000000E+01 0. -1.
         -4   -1    0    0    0  501 -0.00000000000E+00 -0.00000000000E+00 -0.12221513002E+03  0.12222172845E+03  0.12700000000E+01 0. -1.
         25    2    1    2    0    0  0.00000000000E+00  0.00000000000E+00 -0.90261156631E+02  0.15420092974E+03  0.12502339916E+03 0.  0.
    9000005    1    3    3    0    0  0.63200681757E+01 -0.50903502294E+01 -0.12156866295E+03  0.12184332045E+03  0.10000000000E+01 0.  0.
    9000005    1    3    3    0    0 -0.63200681757E+01  0.50903502294E+01  0.31307506318E+02  0.32357609291E+02  0.10000000000E+01 0.  0.
<mgrwt>
<rscale>  0 0.12502340E+03</rscale>
<asrwt>0</asrwt>
<pdfrwt beam="1">  1        4 0.49184442E-02 0.12502340E+03</pdfrwt>
<pdfrwt beam="2">  1       -4 0.18804776E-01 0.12502340E+03</pdfrwt>
<totfact> 0.98420788E+03</totfact>
</mgrwt>
</event>
<event>
 5    1  0.3293542E-002  0.1249997E+03  0.7818608E-02  0.1235070E+00
          4   -1    0    0  501    0  0.00000000000E+00  0.00000000000E+00  0.12872637547E+04  0.12872643811E+04  0.12700000000E+01 0. -1.
         -4   -1    0    0    0  501 -0.00000000000E+00 -0.00000000000E+00 -0.29009867345E+01  0.31668002832E+01  0.12700000000E+01 0. -1.
         25    2    1    2    0    0  0.00000000000E+00  0.00000000000E+00  0.12843627679E+04  0.12904311814E+04  0.12499965746E+03 0.  0.
    9000005    1    3    3    0    0  0.33833617262E+01  0.36299714689E+02  0.11820898530E+03  0.12370723758E+03  0.10000000000E+01 0.  0.
    9000005    1    3    3    0    0 -0.33833617262E+01 -0.36299714689E+02  0.11661537826E+04  0.11667239439E+04  0.10000000000E+01 0.  0.
<mgrwt>
<rscale>  0 0.12499966E+03</rscale>
<asrwt>0</asrwt>
<pdfrwt beam="1">  1        4 0.19806081E+00 0.12499966E+03</pdfrwt>
<pdfrwt beam="2">  1       -4 0.46680165E-03 0.12499966E+03</pdfrwt>
<totfact> 0.22455696E+03</totfact>
</mgrwt>
</event>
<event>
 5    1  0.3293542E-002  0.1250013E+03  0.7818608E-02  0.1235067E+00
          4   -1    0    0  501    0  0.00000000000E+00  0.00000000000E+00  0.34921690119E+02  0.34944775586E+02  0.12700000000E+01 0. -1.
         -4   -1    0    0    0  501 -0.00000000000E+00 -0.00000000000E+00 -0.11179607824E+03  0.11180329158E+03  0.12700000000E+01 0. -1.
         25    2    1    2    0    0  0.00000000000E+00  0.00000000000E+00 -0.76874388118E+02  0.14674806717E+03  0.12500129467E+03 0.  0.
    9000005    1    3    3    0    0 -0.26906505559E+02  0.56278844732E+02 -0.42839592321E+02  0.75680242309E+02  0.10000000000E+01 0.  0.
    9000005    1    3    3    0    0  0.26906505559E+02 -0.56278844732E+02 -0.34034795796E+02  0.71067824862E+02  0.10000000000E+01 0.  0.
<mgrwt>
<rscale>  0 0.12500129E+03</rscale>
<asrwt>0</asrwt>
<pdfrwt beam="1">  1        4 0.53748984E-02 0.12500129E+03</pdfrwt>
<pdfrwt beam="2">  1       -4 0.17201727E-01 0.12500129E+03</pdfrwt>
<totfact> 0.99953004E+03</totfact>
</mgrwt>
</event>
<event>
 5    1  0.3293542E-002  0.1250080E+03  0.7818608E-02  0.1235057E+00
         -4   -1    0    0    0  501 -0.00000000000E+00  0.00000000000E+00  0.91292431011E+01  0.92171568066E+01  0.12700000000E+01 0. -1.
          4   -1    0    0  501    0  0.00000000000E+00 -0.00000000000E+00 -0.42579835905E+03  0.42580025302E+03  0.12700000000E+01 0. -1.
         25    2    1    2    0    0  0.00000000000E+00  0.00000000000E+00 -0.41666911595E+03  0.43501740983E+03  0.12500797840E+03 0.  0.
    9000005    1    3    3    0    0 -0.56381158397E+02 -0.89153029521E+01 -0.11978922873E+03  0.13269806694E+03  0.10000000000E+01 0.  0.
    9000005    1    3    3    0    0  0.56381158397E+02  0.89153029521E+01 -0.29687988722E+03  0.30231934289E+03  0.10000000000E+01 0.  0.
<mgrwt>
<rscale>  0 0.12500798E+03</rscale>
<asrwt>0</asrwt>
<pdfrwt beam="2">  1        4 0.65514333E-01 0.12500798E+03</pdfrwt>
<pdfrwt beam="1">  1       -4 0.14114076E-02 0.12500798E+03</pdfrwt>
<totfact> 0.61273042E+03</totfact>
</mgrwt>
</event>
<event>
 5    1  0.3293542E-002  0.1250003E+03  0.7818608E-02  0.1235069E+00
          4   -1    0    0  501    0  0.00000000000E+00  0.00000000000E+00  0.28001536112E+03  0.28001824112E+03  0.12700000000E+01 0. -1.
         -4   -1    0    0    0  501 -0.00000000000E+00 -0.00000000000E+00 -0.13918340095E+02  0.13976161526E+02  0.12700000000E+01 0. -1.
         25    2    1    2    0    0  0.00000000000E+00  0.00000000000E+00  0.26609702102E+03  0.29399440265E+03  0.12500033677E+03 0.  0.
    9000005    1    3    3    0    0  0.35670323665E+02  0.51300645176E+02  0.13053416573E+03  0.14472144488E+03  0.10000000000E+01 0.  0.
    9000005    1    3    3    0    0 -0.35670323665E+02 -0.51300645176E+02  0.13556285529E+03  0.14927295777E+03  0.10000000000E+01 0.  0.
<mgrwt>
<rscale>  0 0.12500034E+03</rscale>
<asrwt>0</asrwt>
<pdfrwt beam="1">  1        4 0.43083950E-01 0.12500034E+03</pdfrwt>
<pdfrwt beam="2">  1       -4 0.21459527E-02 0.12500034E+03</pdfrwt>
<totfact> 0.76357830E+03</totfact>
</mgrwt>
</event>
<event>
 5    1  0.3293542E-002  0.1250030E+03  0.7818608E-02  0.1235065E+00
         -4   -1    0    0    0  501 -0.00000000000E+00  0.00000000000E+00  0.43751795449E+02  0.43770223954E+02  0.12700000000E+01 0.  1.
          4   -1    0    0  501    0  0.00000000000E+00 -0.00000000000E+00 -0.89244654878E+02  0.89253690816E+02  0.12700000000E+01 0.  1.
         25    2    1    2    0    0  0.00000000000E+00  0.00000000000E+00 -0.45492859429E+02  0.13302391477E+03  0.12500304653E+03 0.  0.
    9000005    1    3    3    0    0 -0.59349484337E+02  0.16621826970E+02 -0.11749219461E+02  0.62751020556E+02  0.10000000000E+01 0.  0.
    9000005    1    3    3    0    0  0.59349484337E+02 -0.16621826970E+02 -0.33743639969E+02  0.70272894214E+02  0.10000000000E+01 0.  0.
<mgrwt>
<rscale>  0 0.12500305E+03</rscale>
<asrwt>0</asrwt>
<pdfrwt beam="2">  1        4 0.13732060E-01 0.12500305E+03</pdfrwt>
<pdfrwt beam="1">  1       -4 0.67331581E-02 0.12500305E+03</pdfrwt>
<totfact> 0.10279185E+04</totfact>
</mgrwt>
</event>
<event>
 5    1  0.3293542E-002  0.1250015E+03  0.7818608E-02  0.1235067E+00
         -4   -1    0    0    0  501 -0.00000000000E+00  0.00000000000E+00  0.41201780475E+02  0.41221349011E+02  0.12700000000E+01 0. -1.
          4   -1    0    0  501    0  0.00000000000E+00 -0.00000000000E+00 -0.94763788144E+02  0.94772297869E+02  0.12700000000E+01 0. -1.
         25    2    1    2    0    0  0.00000000000E+00  0.00000000000E+00 -0.53562007669E+02  0.13599364688E+03  0.12500153330E+03 0.  0.
    9000005    1    3    3    0    0  0.30956239481E+02  0.43139722175E+02  0.90717467122E+01  0.53875977769E+02  0.10000000000E+01 0.  0.
    9000005    1    3    3    0    0 -0.30956239481E+02 -0.43139722175E+02 -0.62633754381E+02  0.82117669110E+02  0.10000000000E+01 0.  0.
<mgrwt>
<rscale>  0 0.12500153E+03</rscale>
<asrwt>0</asrwt>
<pdfrwt beam="2">  1        4 0.14581204E-01 0.12500153E+03</pdfrwt>
<pdfrwt beam="1">  1       -4 0.63408953E-02 0.12500153E+03</pdfrwt>
<totfact> 0.10216816E+04</totfact>
</mgrwt>
</event>
<event>
 5    1  0.3293542E-002  0.1249953E+03  0.7818608E-02  0.1235077E+00
          4   -1    0    0  501    0  0.00000000000E+00  0.00000000000E+00  0.17889120085E+02  0.17934143900E+02  0.12700000000E+01 0.  1.
         -4   -1    0    0    0  501 -0.00000000000E+00 -0.00000000000E+00 -0.21802118369E+03  0.21802488261E+03  0.12700000000E+01 0.  1.
         25    2    1    2    0    0  0.00000000000E+00  0.00000000000E+00 -0.20013206360E+03  0.23595902651E+03  0.12499527715E+03 0.  0.
    9000005    1    3    3    0    0  0.45333723992E+02 -0.81599508855E+01 -0.20349961580E+02  0.50367174486E+02  0.10000000000E+01 0.  0.
    9000005    1    3    3    0    0 -0.45333723992E+02  0.81599508855E+01 -0.17978210202E+03  0.18559185202E+03  0.10000000000E+01 0.  0.
<mgrwt>
<rscale>  0 0.12499528E+03</rscale>
<asrwt>0</asrwt>
<pdfrwt beam="1">  1        4 0.27559204E-02 0.12499528E+03</pdfrwt>
<pdfrwt beam="2">  1       -4 0.33545467E-01 0.12499528E+03</pdfrwt>
<totfact> 0.84411794E+03</totfact>
</mgrwt>
</event>
<event>
 5    1  0.3293542E-002  0.1250213E+03  0.7818608E-02  0.1235036E+00
         -4   -1    0    0    0  501 -0.00000000000E+00  0.00000000000E+00  0.14571477589E+02  0.14626717305E+02  0.12700000000E+01 0.  1.
          4   -1    0    0  501    0  0.00000000000E+00 -0.00000000000E+00 -0.26760235877E+03  0.26760537237E+03  0.12700000000E+01 0.  1.
         25    2    1    2    0    0  0.00000000000E+00  0.00000000000E+00 -0.25303088118E+03  0.28223208967E+03  0.12502130062E+03 0.  0.
    9000005    1    3    3    0    0  0.34411944171E+02 -0.32840895478E+02 -0.34986847812E+02  0.59057479097E+02  0.10000000000E+01 0.  0.
    9000005    1    3    3    0    0 -0.34411944171E+02  0.32840895478E+02 -0.21804403337E+03  0.22317461058E+03  0.10000000000E+01 0.  0.
<mgrwt>
<rscale>  0 0.12502130E+03</rscale>
<asrwt>0</asrwt>
<pdfrwt beam="2">  1        4 0.41174071E-01 0.12502130E+03</pdfrwt>
<pdfrwt beam="1">  1       -4 0.22462470E-02 0.12502130E+03</pdfrwt>
<totfact> 0.77846217E+03</totfact>
</mgrwt>
</event>
<event>
 5    1  0.3293542E-002  0.1249929E+03  0.7818608E-02  0.1235080E+00
         -4   -1    0    0    0  501 -0.00000000000E+00  0.00000000000E+00  0.14780911041E+03  0.14781456633E+03  0.12700000000E+01 0. -1.
          4   -1    0    0  501    0  0.00000000000E+00 -0.00000000000E+00 -0.26403468469E+02  0.26433994159E+02  0.12700000000E+01 0. -1.
         25    2    1    2    0    0  0.00000000000E+00  0.00000000000E+00  0.12140564194E+03  0.17424856049E+03  0.12499292355E+03 0.  0.
    9000005    1    3    3    0    0  0.17321678567E+02 -0.59700409681E+02  0.51816992234E+02  0.80933183236E+02  0.10000000000E+01 0.  0.
    9000005    1    3    3    0    0 -0.17321678567E+02  0.59700409681E+02  0.69588649706E+02  0.93315377256E+02  0.10000000000E+01 0.  0.
<mgrwt>
<rscale>  0 0.12499292E+03</rscale>
<asrwt>0</asrwt>
<pdfrwt beam="2">  1        4 0.40648400E-02 0.12499292E+03</pdfrwt>
<pdfrwt beam="1">  1       -4 0.22742631E-01 0.12499292E+03</pdfrwt>
<totfact> 0.94677676E+03</totfact>
</mgrwt>
</event>
<event>
 5    1  0.3293542E-002  0.1250113E+03  0.7818608E-02  0.1235052E+00
         -4   -1    0    0    0  501 -0.00000000000E+00  0.00000000000E+00  0.51189225395E+02  0.51204977263E+02  0.12700000000E+01 0. -1.
          4   -1    0    0  501    0  0.00000000000E+00 -0.00000000000E+00 -0.76291060158E+02  0.76301630127E+02  0.12700000000E+01 0. -1.
         25    2    1    2    0    0  0.00000000000E+00  0.00000000000E+00 -0.25101834763E+02  0.12750660739E+03  0.12501133077E+03 0.  0.
    9000005    1    3    3    0    0 -0.64886912881E+01  0.36716569849E+02  0.38607479997E+02  0.53681906894E+02  0.10000000000E+01 0.  0.
    9000005    1    3    3    0    0  0.64886912881E+01 -0.36716569849E+02 -0.63709314760E+02  0.73824700496E+02  0.10000000000E+01 0.  0.
<mgrwt>
<rscale>  0 0.12501133E+03</rscale>
<asrwt>0</asrwt>
<pdfrwt beam="2">  1        4 0.11739111E-01 0.12501133E+03</pdfrwt>
<pdfrwt beam="1">  1       -4 0.78772902E-02 0.12501133E+03</pdfrwt>
<totfact> 0.10395498E+04</totfact>
</mgrwt>
</event>
<event>
 5    1  0.3293542E-002  0.1250001E+03  0.7818608E-02  0.1235069E+00
         -4   -1    0    0    0  501 -0.00000000000E+00  0.00000000000E+00  0.14378987123E+01  0.19184506006E+01  0.12700000000E+01 0. -1.
          4   -1    0    0  501    0  0.00000000000E+00 -0.00000000000E+00 -0.23272017007E+04  0.23272020472E+04  0.12700000000E+01 0. -1.
         25    2    1    2    0    0  0.00000000000E+00  0.00000000000E+00 -0.23257638020E+04  0.23291204978E+04  0.12500012315E+03 0.  0.
    9000005    1    3    3    0    0  0.59654821910E+02 -0.18556739959E+02 -0.11351988242E+04  0.11369170686E+04  0.10000000000E+01 0.  0.
    9000005    1    3    3    0    0 -0.59654821910E+02  0.18556739959E+02 -0.11905649778E+04  0.11922034293E+04  0.10000000000E+01 0.  0.
<mgrwt>
<rscale>  0 0.12500012E+03</rscale>
<asrwt>0</asrwt>
<pdfrwt beam="2">  1        4 0.35806544E+00 0.12500012E+03</pdfrwt>
<pdfrwt beam="1">  1       -4 0.25820924E-03 0.12500012E+03</pdfrwt>
<totfact> 0.61543402E+02</totfact>
</mgrwt>
</event>
<event>
 5    1  0.3293542E-002  0.1250049E+03  0.7818608E-02  0.1235062E+00
         -4   -1    0    0    0  501 -0.00000000000E+00  0.00000000000E+00  0.37007676472E+03  0.37007894386E+03  0.12700000000E+01 0.  1.
          4   -1    0    0  501    0  0.00000000000E+00 -0.00000000000E+00 -0.10515648998E+02  0.10592061831E+02  0.12700000000E+01 0.  1.
         25    2    1    2    0    0  0.00000000000E+00  0.00000000000E+00  0.35956111572E+03  0.38067100569E+03  0.12500487443E+03 0.  0.
    9000005    1    3    3    0    0 -0.12512413136E+02 -0.22564246806E+00 -0.66758379351E+01  0.14218938397E+02  0.10000000000E+01 0.  0.
    9000005    1    3    3    0    0  0.12512413136E+02  0.22564246806E+00  0.36623695366E+03  0.36645206729E+03  0.10000000000E+01 0.  0.
<mgrwt>
<rscale>  0 0.12500487E+03</rscale>
<asrwt>0</asrwt>
<pdfrwt beam="2">  1        4 0.16238382E-02 0.12500487E+03</pdfrwt>
<pdfrwt beam="1">  1       -4 0.56940916E-01 0.12500487E+03</pdfrwt>
<totfact> 0.66469980E+03</totfact>
</mgrwt>
</event>
<event>
 5    1  0.3293542E-002  0.1250096E+03  0.7818608E-02  0.1235054E+00
          4   -1    0    0  501    0  0.00000000000E+00  0.00000000000E+00  0.27993277723E+03  0.27993565809E+03  0.12700000000E+01 0. -1.
         -4   -1    0    0    0  501 -0.00000000000E+00 -0.00000000000E+00 -0.13924537095E+02  0.13982332899E+02  0.12700000000E+01 0. -1.
         25    2    1    2    0    0  0.00000000000E+00  0.00000000000E+00  0.26600824013E+03  0.29391799098E+03  0.12500960605E+03 0.  0.
    9000005    1    3    3    0    0  0.95372523137E+01 -0.61759875048E+02  0.13483901222E+03  0.14861965067E+03  0.10000000000E+01 0.  0.
    9000005    1    3    3    0    0 -0.95372523137E+01  0.61759875048E+02  0.13116922791E+03  0.14529834032E+03  0.10000000000E+01 0.  0.
<mgrwt>
<rscale>  0 0.12500961E+03</rscale>
<asrwt>0</asrwt>
<pdfrwt beam="1">  1        4 0.43071245E-01 0.12500961E+03</pdfrwt>
<pdfrwt beam="2">  1       -4 0.21469041E-02 0.12500961E+03</pdfrwt>
<totfact> 0.76351855E+03</totfact>
</mgrwt>
</event>
<event>
 5    1  0.3293542E-002  0.1250018E+03  0.7818608E-02  0.1235066E+00
          4   -1    0    0  501    0  0.00000000000E+00  0.00000000000E+00  0.14668168374E+03  0.14668718159E+03  0.12700000000E+01 0. -1.
         -4   -1    0    0    0  501 -0.00000000000E+00 -0.00000000000E+00 -0.26610415579E+02  0.26640704144E+02  0.12700000000E+01 0. -1.
         25    2    1    2    0    0  0.00000000000E+00  0.00000000000E+00  0.12007126816E+03  0.17332788574E+03  0.12500178614E+03 0.  0.
    9000005    1    3    3    0    0 -0.11509058940E+02  0.55029813237E+01 -0.24792538393E+02  0.27900021525E+02  0.10000000000E+01 0.  0.
    9000005    1    3    3    0    0  0.11509058940E+02 -0.55029813237E+01  0.14486380655E+03  0.14542786421E+03  0.10000000000E+01 0.  0.
<mgrwt>
<rscale>  0 0.12500179E+03</rscale>
<asrwt>0</asrwt>
<pdfrwt beam="1">  1        4 0.22569166E-01 0.12500179E+03</pdfrwt>
<pdfrwt beam="2">  1       -4 0.40966629E-02 0.12500179E+03</pdfrwt>
<totfact> 0.94828179E+03</totfact>
</mgrwt>
</event>
<event>
 5    1  0.3293542E-002  0.1250007E+03  0.7818608E-02  0.1235068E+00
          4   -1    0    0  501    0  0.00000000000E+00  0.00000000000E+00  0.32622264354E+03  0.32622511561E+03  0.12700000000E+01 0.  1.
         -4   -1    0    0    0  501 -0.00000000000E+00 -0.00000000000E+00 -0.11938111126E+02  0.12005473637E+02  0.12700000000E+01 0.  1.
         25    2    1    2    0    0  0.00000000000E+00  0.00000000000E+00  0.31428453241E+03  0.33823058925E+03  0.12500065676E+03 0.  0.
    9000005    1    3    3    0    0  0.42716972148E+02 -0.63983428174E+01  0.27934317196E+03  0.28266461791E+03  0.10000000000E+01 0.  0.
    9000005    1    3    3    0    0 -0.42716972148E+02  0.63983428174E+01  0.34941360455E+02  0.55565971338E+02  0.10000000000E+01 0.  0.
<mgrwt>
<rscale>  0 0.12500066E+03</rscale>
<asrwt>0</asrwt>
<pdfrwt beam="1">  1        4 0.50193473E-01 0.12500066E+03</pdfrwt>
<pdfrwt beam="2">  1       -4 0.18420043E-02 0.12500066E+03</pdfrwt>
<totfact> 0.71038005E+03</totfact>
</mgrwt>
</event>
<event>
 5    1  0.3293542E-002  0.1249958E+03  0.7818608E-02  0.1235076E+00
         -4   -1    0    0    0  501 -0.00000000000E+00  0.00000000000E+00  0.19837179305E+03  0.19837585836E+03  0.12700000000E+01 0.  1.
          4   -1    0    0  501    0  0.00000000000E+00 -0.00000000000E+00 -0.19665486677E+02  0.19706452402E+02  0.12700000000E+01 0.  1.
         25    2    1    2    0    0  0.00000000000E+00  0.00000000000E+00  0.17870630638E+03  0.21808231076E+03  0.12499580124E+03 0.  0.
    9000005    1    3    3    0    0  0.88709604485E+01 -0.24769889506E+02  0.18824562355E+03  0.19007802649E+03  0.10000000000E+01 0.  0.
    9000005    1    3    3    0    0 -0.88709604485E+01  0.24769889506E+02 -0.95393171783E+01  0.28004284273E+02  0.10000000000E+01 0.  0.
<mgrwt>
<rscale>  0 0.12499580E+03</rscale>
<asrwt>0</asrwt>
<pdfrwt beam="2">  1        4 0.30289234E-02 0.12499580E+03</pdfrwt>
<pdfrwt beam="1">  1       -4 0.30522202E-01 0.12499580E+03</pdfrwt>
<totfact> 0.87180888E+03</totfact>
</mgrwt>
</event>
<event>
 5    1  0.3293542E-002  0.1249898E+03  0.7818608E-02  0.1235085E+00
         -4   -1    0    0    0  501 -0.00000000000E+00  0.00000000000E+00  0.17025117531E+02  0.17072420067E+02  0.12700000000E+01 0.  1.
          4   -1    0    0  501    0  0.00000000000E+00 -0.00000000000E+00 -0.22903547866E+03  0.22903899971E+03  0.12700000000E+01 0.  1.
         25    2    1    2    0    0  0.00000000000E+00  0.00000000000E+00 -0.21201036113E+03  0.24611141977E+03  0.12498975044E+03 0.  0.
    9000005    1    3    3    0    0  0.54384008047E+02 -0.30054360332E+02 -0.92984913169E+02  0.11183952335E+03  0.10000000000E+01 0.  0.
    9000005    1    3    3    0    0 -0.54384008047E+02  0.30054360332E+02 -0.11902544796E+03  0.13427189642E+03  0.10000000000E+01 0.  0.
<mgrwt>
<rscale>  0 0.12498975E+03</rscale>
<asrwt>0</asrwt>
<pdfrwt beam="2">  1        4 0.35240135E-01 0.12498975E+03</pdfrwt>
<pdfrwt beam="1">  1       -4 0.26231585E-02 0.12498975E+03</pdfrwt>
<totfact> 0.82914453E+03</totfact>
</mgrwt>
</event>
<event>
 5    1  0.3293542E-002  0.1250031E+03  0.7818608E-02  0.1235064E+00
         -4   -1    0    0    0  501 -0.00000000000E+00  0.00000000000E+00  0.63001389861E+03  0.63001517866E+03  0.12700000000E+01 0. -1.
          4   -1    0    0  501    0  0.00000000000E+00 -0.00000000000E+00 -0.61342392094E+01  0.62643268336E+01  0.12700000000E+01 0. -1.
         25    2    1    2    0    0  0.00000000000E+00  0.00000000000E+00  0.62387965940E+03  0.63627950549E+03  0.12500311875E+03 0.  0.
    9000005    1    3    3    0    0  0.15111399661E+02 -0.53436981546E+02  0.45783868713E+03  0.46119532611E+03  0.10000000000E+01 0.  0.
    9000005    1    3    3    0    0 -0.15111399661E+02  0.53436981546E+02  0.16604097227E+03  0.17508417938E+03  0.10000000000E+01 0.  0.
<mgrwt>
<rscale>  0 0.12500312E+03</rscale>
<asrwt>0</asrwt>
<pdfrwt beam="2">  1        4 0.95383401E-03 0.12500312E+03</pdfrwt>
<pdfrwt beam="1">  1       -4 0.96935352E-01 0.12500312E+03</pdfrwt>
<totfact> 0.46651596E+03</totfact>
</mgrwt>
</event>
<event>
 5    1  0.3293542E-002  0.1250012E+03  0.7818608E-02  0.1235067E+00
         -4   -1    0    0    0  501 -0.00000000000E+00  0.00000000000E+00  0.13256119811E+02  0.13316816903E+02  0.12700000000E+01 0.  1.
          4   -1    0    0  501    0  0.00000000000E+00 -0.00000000000E+00 -0.29394591479E+03  0.29394865831E+03  0.12700000000E+01 0.  1.
         25    2    1    2    0    0  0.00000000000E+00  0.00000000000E+00 -0.28068979498E+03  0.30726547522E+03  0.12500124500E+03 0.  0.
    9000005    1    3    3    0    0  0.50016126694E+02 -0.21975752660E+02 -0.65755406547E+02  0.85494561959E+02  0.10000000000E+01 0.  0.
    9000005    1    3    3    0    0 -0.50016126694E+02  0.21975752660E+02 -0.21493438844E+03  0.22177091326E+03  0.10000000000E+01 0.  0.
<mgrwt>
<rscale>  0 0.12500125E+03</rscale>
<asrwt>0</asrwt>
<pdfrwt beam="2">  1        4 0.45227324E-01 0.12500125E+03</pdfrwt>
<pdfrwt beam="1">  1       -4 0.20442833E-02 0.12500125E+03</pdfrwt>
<totfact> 0.74694355E+03</totfact>
</mgrwt>
</event>
<event>
 5    1  0.3293542E-002  0.1249945E+03  0.7818608E-02  0.1235078E+00
          4   -1    0    0  501    0  0.00000000000E+00  0.00000000000E+00  0.37951760091E+02  0.37973003489E+02  0.12700000000E+01 0. -1.
         -4   -1    0    0    0  501 -0.00000000000E+00 -0.00000000000E+00 -0.10286374018E+03  0.10287157986E+03  0.12700000000E+01 0. -1.
         25    2    1    2    0    0  0.00000000000E+00  0.00000000000E+00 -0.64911980087E+02  0.14084458335E+03  0.12499452588E+03 0.  0.
    9000005    1    3    3    0    0 -0.61113148049E+02  0.76373792884E+01 -0.20543702544E+02  0.64932196490E+02  0.10000000000E+01 0.  0.
    9000005    1    3    3    0    0  0.61113148049E+02 -0.76373792884E+01 -0.44368277542E+02  0.75912386861E+02  0.10000000000E+01 0.  0.
<mgrwt>
<rscale>  0 0.12499453E+03</rscale>
<asrwt>0</asrwt>
<pdfrwt beam="1">  1        4 0.58409695E-02 0.12499453E+03</pdfrwt>
<pdfrwt beam="2">  1       -4 0.15827428E-01 0.12499453E+03</pdfrwt>
<totfact> 0.10117359E+04</totfact>
</mgrwt>
</event>
<event>
 5    1  0.3293542E-002  0.1249709E+03  0.7818608E-02  0.1235115E+00
         -4   -1    0    0    0  501 -0.00000000000E+00  0.00000000000E+00  0.14253710490E+04  0.14253716148E+04  0.12700000000E+01 0. -1.
          4   -1    0    0  501    0  0.00000000000E+00 -0.00000000000E+00 -0.25914369811E+01  0.28859046462E+01  0.12700000000E+01 0. -1.
         25    2    1    2    0    0  0.00000000000E+00  0.00000000000E+00  0.14227796120E+04  0.14282575194E+04  0.12497086631E+03 0.  0.
    9000005    1    3    3    0    0 -0.57347867192E+02 -0.11138265565E+02  0.45825182196E+03  0.46196165551E+03  0.10000000000E+01 0.  0.
    9000005    1    3    3    0    0  0.57347867192E+02  0.11138265565E+02  0.96452779003E+03  0.96629586389E+03  0.10000000000E+01 0.  0.
<mgrwt>
<rscale>  0 0.12497087E+03</rscale>
<asrwt>0</asrwt>
<pdfrwt beam="2">  1        4 0.42137653E-03 0.12497087E+03</pdfrwt>
<pdfrwt beam="1">  1       -4 0.21931105E+00 0.12497087E+03</pdfrwt>
<totfact> 0.19394811E+03</totfact>
</mgrwt>
</event>
<event>
 5    1  0.3293542E-002  0.1249999E+03  0.7818608E-02  0.1235069E+00
          4   -1    0    0  501    0  0.00000000000E+00  0.00000000000E+00  0.12867655152E+04  0.12867661419E+04  0.12700000000E+01 0. -1.
         -4   -1    0    0    0  501 -0.00000000000E+00 -0.00000000000E+00 -0.29022250172E+01  0.31679346664E+01  0.12700000000E+01 0. -1.
         25    2    1    2    0    0  0.00000000000E+00  0.00000000000E+00  0.12838632902E+04  0.12899340766E+04  0.12499989631E+03 0.  0.
    9000005    1    3    3    0    0  0.45740440125E+02 -0.40195419678E+02  0.49694976794E+03  0.50066748595E+03  0.10000000000E+01 0.  0.
    9000005    1    3    3    0    0 -0.45740440125E+02  0.40195419678E+02  0.78691352225E+03  0.78926659066E+03  0.10000000000E+01 0.  0.
<mgrwt>
<rscale>  0 0.12499990E+03</rscale>
<asrwt>0</asrwt>
<pdfrwt beam="1">  1        4 0.19798447E+00 0.12499990E+03</pdfrwt>
<pdfrwt beam="2">  1       -4 0.46698343E-03 0.12499990E+03</pdfrwt>
<totfact> 0.22467383E+03</totfact>
</mgrwt>
</event>
<event>
 5    1  0.3293542E-002  0.1250090E+03  0.7818608E-02  0.1235055E+00
         -4   -1    0    0    0  501 -0.00000000000E+00  0.00000000000E+00  0.52099605678E+01  0.53625170506E+01  0.12700000000E+01 0. -1.
          4   -1    0    0  501    0  0.00000000000E+00 -0.00000000000E+00 -0.73889978567E+03  0.73890087709E+03  0.12700000000E+01 0. -1.
         25    2    1    2    0    0  0.00000000000E+00  0.00000000000E+00 -0.73368982511E+03  0.74426339414E+03  0.12500896127E+03 0.  0.
    9000005    1    3    3    0    0 -0.49175749575E+02 -0.31632389548E+02 -0.49822412836E+03  0.50164444031E+03  0.10000000000E+01 0.  0.
    9000005    1    3    3    0    0  0.49175749575E+02  0.31632389548E+02 -0.23546569675E+03  0.24261895383E+03  0.10000000000E+01 0.  0.
<mgrwt>
<rscale>  0 0.12500896E+03</rscale>
<asrwt>0</asrwt>
<pdfrwt beam="2">  1        4 0.11368863E+00 0.12500896E+03</pdfrwt>
<pdfrwt beam="1">  1       -4 0.81335205E-03 0.12500896E+03</pdfrwt>
<totfact> 0.40842053E+03</totfact>
</mgrwt>
</event>
<event>
 5    1  0.3293542E-002  0.1250218E+03  0.7818608E-02  0.1235035E+00
          4   -1    0    0  501    0  0.00000000000E+00  0.00000000000E+00  0.48438108885E+02  0.48454755106E+02  0.12700000000E+01 0.  1.
         -4   -1    0    0    0  501 -0.00000000000E+00 -0.00000000000E+00 -0.80636818752E+02  0.80646819146E+02  0.12700000000E+01 0.  1.
         25    2    1    2    0    0  0.00000000000E+00  0.00000000000E+00 -0.32198709867E+02  0.12910157425E+03  0.12502183632E+03 0.  0.
    9000005    1    3    3    0    0  0.54142415982E+02 -0.27761871661E+02 -0.30866073524E+02  0.68233695645E+02  0.10000000000E+01 0.  0.
    9000005    1    3    3    0    0 -0.54142415982E+02  0.27761871661E+02 -0.13326363422E+01  0.60867878607E+02  0.10000000000E+01 0.  0.
<mgrwt>
<rscale>  0 0.12502184E+03</rscale>
<asrwt>0</asrwt>
<pdfrwt beam="1">  1        4 0.74540665E-02 0.12502184E+03</pdfrwt>
<pdfrwt beam="2">  1       -4 0.12407714E-01 0.12502184E+03</pdfrwt>
<totfact> 0.10358658E+04</totfact>
</mgrwt>
</event>
<event>
 5    1  0.3293542E-002  0.1249968E+03  0.7818608E-02  0.1235074E+00
          4   -1    0    0  501    0  0.00000000000E+00  0.00000000000E+00  0.60147169251E+03  0.60147303330E+03  0.12700000000E+01 0.  1.
         -4   -1    0    0    0  501 -0.00000000000E+00 -0.00000000000E+00 -0.64307067007E+01  0.65549133229E+01  0.12700000000E+01 0.  1.
         25    2    1    2    0    0  0.00000000000E+00  0.00000000000E+00  0.59504098581E+03  0.60802794662E+03  0.12499683630E+03 0.  0.
    9000005    1    3    3    0    0 -0.23378712427E+02  0.57941685627E+02  0.30295713389E+03  0.30933449226E+03  0.10000000000E+01 0.  0.
    9000005    1    3    3    0    0  0.23378712427E+02 -0.57941685627E+02  0.29208385192E+03  0.29869345436E+03  0.10000000000E+01 0.  0.
<mgrwt>
<rscale>  0 0.12499684E+03</rscale>
<asrwt>0</asrwt>
<pdfrwt beam="1">  1        4 0.92543785E-01 0.12499684E+03</pdfrwt>
<pdfrwt beam="2">  1       -4 0.99899676E-03 0.12499684E+03</pdfrwt>
<totfact> 0.48368099E+03</totfact>
</mgrwt>
</event>
<event>
 5    1  0.3293542E-002  0.1250001E+03  0.7818608E-02  0.1235069E+00
          4   -1    0    0  501    0  0.00000000000E+00  0.00000000000E+00  0.18885904033E+03  0.18886331039E+03  0.12700000000E+01 0. -1.
         -4   -1    0    0    0  501 -0.00000000000E+00 -0.00000000000E+00 -0.20659438473E+02  0.20698437091E+02  0.12700000000E+01 0. -1.
         25    2    1    2    0    0  0.00000000000E+00  0.00000000000E+00  0.16819960185E+03  0.20956174748E+03  0.12500007978E+03 0.  0.
    9000005    1    3    3    0    0  0.18879711308E+02  0.59440754700E+02  0.77476451222E+02  0.99464804390E+02  0.10000000000E+01 0.  0.
    9000005    1    3    3    0    0 -0.18879711308E+02 -0.59440754700E+02  0.90723150631E+02  0.11009694309E+03  0.10000000000E+01 0.  0.
<mgrwt>
<rscale>  0 0.12500008E+03</rscale>
<asrwt>0</asrwt>
<pdfrwt beam="1">  1        4 0.29058566E-01 0.12500008E+03</pdfrwt>
<pdfrwt beam="2">  1       -4 0.31817034E-02 0.12500008E+03</pdfrwt>
<totfact> 0.88547344E+03</totfact>
</mgrwt>
</event>
<event>
 5    1  0.3293542E-002  0.1249979E+03  0.7818608E-02  0.1235073E+00
         -4   -1    0    0    0  501 -0.00000000000E+00  0.00000000000E+00  0.47378269118E+02  0.47395287578E+02  0.12700000000E+01 0. -1.
          4   -1    0    0  501    0  0.00000000000E+00 -0.00000000000E+00 -0.82408597361E+02  0.82418382773E+02  0.12700000000E+01 0. -1.
         25    2    1    2    0    0  0.00000000000E+00  0.00000000000E+00 -0.35030328243E+02  0.12981367035E+03  0.12499786043E+03 0.  0.
    9000005    1    3    3    0    0  0.21058694380E+02  0.78522011099E+01  0.43040770109E+02  0.48565765338E+02  0.10000000000E+01 0.  0.
    9000005    1    3    3    0    0 -0.21058694380E+02 -0.78522011099E+01 -0.78071098351E+02  0.81247905013E+02  0.10000000000E+01 0.  0.
<mgrwt>
<rscale>  0 0.12499786E+03</rscale>
<asrwt>0</asrwt>
<pdfrwt beam="2">  1        4 0.12680308E-01 0.12499786E+03</pdfrwt>
<pdfrwt beam="1">  1       -4 0.72910263E-02 0.12499786E+03</pdfrwt>
<totfact> 0.10348995E+04</totfact>
</mgrwt>
</event>
<event>
 5    1  0.3293542E-002  0.1250004E+03  0.7818608E-02  0.1235069E+00
          4   -1    0    0  501    0  0.00000000000E+00  0.00000000000E+00  0.21949380182E+03  0.21949747593E+03  0.12700000000E+01 0. -1.
         -4   -1    0    0    0  501 -0.00000000000E+00 -0.00000000000E+00 -0.17770250954E+02  0.17815575179E+02  0.12700000000E+01 0. -1.
         25    2    1    2    0    0  0.00000000000E+00  0.00000000000E+00  0.20172355087E+03  0.23731305111E+03  0.12500037300E+03 0.  0.
    9000005    1    3    3    0    0  0.13939091930E+02  0.47844316309E+02  0.17245044565E+03  0.17950914487E+03  0.10000000000E+01 0.  0.
    9000005    1    3    3    0    0 -0.13939091930E+02 -0.47844316309E+02  0.29273105216E+02  0.57803906234E+02  0.10000000000E+01 0.  0.
<mgrwt>
<rscale>  0 0.12500037E+03</rscale>
<asrwt>0</asrwt>
<pdfrwt beam="1">  1        4 0.33772045E-01 0.12500037E+03</pdfrwt>
<pdfrwt beam="2">  1       -4 0.27376540E-02 0.12500037E+03</pdfrwt>
<totfact> 0.84198475E+03</totfact>
</mgrwt>
</event>
<event>
 5    1  0.3293542E-002  0.1249811E+03  0.7818608E-02  0.1235099E+00
         -4   -1    0    0    0  501 -0.00000000000E+00  0.00000000000E+00  0.65472769589E+03  0.65472892762E+03  0.12700000000E+01 0.  1.
          4   -1    0    0  501    0  0.00000000000E+00 -0.00000000000E+00 -0.58955641488E+01  0.60308023208E+01  0.12700000000E+01 0.  1.
         25    2    1    2    0    0  0.00000000000E+00  0.00000000000E+00  0.64883213174E+03  0.66075972994E+03  0.12498114072E+03 0.  0.
    9000005    1    3    3    0    0 -0.48744117897E+02 -0.34681086856E+02  0.22906091358E+03  0.23674600090E+03  0.10000000000E+01 0.  0.
    9000005    1    3    3    0    0  0.48744117897E+02  0.34681086856E+02  0.41977121817E+03  0.42401372904E+03  0.10000000000E+01 0.  0.
<mgrwt>
<rscale>  0 0.12498114E+03</rscale>
<asrwt>0</asrwt>
<pdfrwt beam="2">  1        4 0.91750790E-03 0.12498114E+03</pdfrwt>
<pdfrwt beam="1">  1       -4 0.10073780E+00 0.12498114E+03</pdfrwt>
<totfact> 0.45259207E+03</totfact>
</mgrwt>
</event>
<event>
 5    1  0.3293542E-002  0.1250345E+03  0.7818608E-02  0.1235015E+00
         -4   -1    0    0    0  501 -0.00000000000E+00  0.00000000000E+00  0.26091845655E+02  0.26122735494E+02  0.12700000000E+01 0. -1.
          4   -1    0    0  501    0  0.00000000000E+00 -0.00000000000E+00 -0.14967202775E+03  0.14967741577E+03  0.12700000000E+01 0. -1.
         25    2    1    2    0    0  0.00000000000E+00  0.00000000000E+00 -0.12358018210E+03  0.17580015126E+03  0.12503452234E+03 0.  0.
    9000005    1    3    3    0    0 -0.58388402123E+02  0.18118166517E+02 -0.80118723545E+02  0.10078434066E+03  0.10000000000E+01 0.  0.
    9000005    1    3    3    0    0  0.58388402123E+02 -0.18118166517E+02 -0.43461458552E+02  0.75015810599E+02  0.10000000000E+01 0.  0.
<mgrwt>
<rscale>  0 0.12503452E+03</rscale>
<asrwt>0</asrwt>
<pdfrwt beam="2">  1        4 0.23029256E-01 0.12503452E+03</pdfrwt>
<pdfrwt beam="1">  1       -4 0.40169208E-02 0.12503452E+03</pdfrwt>
<totfact> 0.94305451E+03</totfact>
</mgrwt>
</event>
<event>
 5    1  0.3293542E-002  0.1250001E+03  0.7818608E-02  0.1235069E+00
          4   -1    0    0  501    0  0.00000000000E+00  0.00000000000E+00  0.37136482060E+02  0.37158191557E+02  0.12700000000E+01 0. -1.
         -4   -1    0    0    0  501 -0.00000000000E+00 -0.00000000000E+00 -0.10513025494E+03  0.10513792562E+03  0.12700000000E+01 0. -1.
         25    2    1    2    0    0  0.00000000000E+00  0.00000000000E+00 -0.67993772876E+02  0.14229611717E+03  0.12500012725E+03 0.  0.
    9000005    1    3    3    0    0 -0.21782205408E+02 -0.29228840347E+02 -0.91779210072E+02  0.98758356517E+02  0.10000000000E+01 0.  0.
    9000005    1    3    3    0    0  0.21782205408E+02  0.29228840347E+02  0.23785437196E+02  0.43537760657E+02  0.10000000000E+01 0.  0.
<mgrwt>
<rscale>  0 0.12500013E+03</rscale>
<asrwt>0</asrwt>
<pdfrwt beam="1">  1        4 0.57155650E-02 0.12500013E+03</pdfrwt>
<pdfrwt beam="2">  1       -4 0.16176145E-01 0.12500013E+03</pdfrwt>
<totfact> 0.10086188E+04</totfact>
</mgrwt>
</event>
<event>
 5    1  0.3293542E-002  0.1250005E+03  0.7818608E-02  0.1235069E+00
          4   -1    0    0  501    0  0.00000000000E+00  0.00000000000E+00  0.45075740145E+02  0.45093627594E+02  0.12700000000E+01 0.  1.
         -4   -1    0    0    0  501 -0.00000000000E+00 -0.00000000000E+00 -0.86620615084E+02  0.86629924723E+02  0.12700000000E+01 0.  1.
         25    2    1    2    0    0  0.00000000000E+00  0.00000000000E+00 -0.41544874939E+02  0.13172355232E+03  0.12500047040E+03 0.  0.
    9000005    1    3    3    0    0  0.22571025211E+02  0.48400572677E+02  0.13426282278E+02  0.55075690375E+02  0.10000000000E+01 0.  0.
    9000005    1    3    3    0    0 -0.22571025211E+02 -0.48400572677E+02 -0.54971157217E+02  0.76647861942E+02  0.10000000000E+01 0.  0.
<mgrwt>
<rscale>  0 0.12500047E+03</rscale>
<asrwt>0</asrwt>
<pdfrwt beam="1">  1        4 0.69368214E-02 0.12500047E+03</pdfrwt>
<pdfrwt beam="2">  1       -4 0.13328340E-01 0.12500047E+03</pdfrwt>
<totfact> 0.10307493E+04</totfact>
</mgrwt>
</event>
<event>
 5    1  0.3293542E-002  0.1250012E+03  0.7818608E-02  0.1235067E+00
         -4   -1    0    0    0  501 -0.00000000000E+00  0.00000000000E+00  0.13624630504E+02  0.13683693082E+02  0.12700000000E+01 0.  1.
          4   -1    0    0  501    0  0.00000000000E+00 -0.00000000000E+00 -0.28603011529E+03  0.28603293473E+03  0.12700000000E+01 0.  1.
         25    2    1    2    0    0  0.00000000000E+00  0.00000000000E+00 -0.27240548478E+03  0.29971662781E+03  0.12500123539E+03 0.  0.
    9000005    1    3    3    0    0  0.33997357252E+02 -0.34442481803E+02 -0.41403053618E+02  0.63697077655E+02  0.10000000000E+01 0.  0.
    9000005    1    3    3    0    0 -0.33997357252E+02  0.34442481803E+02 -0.23100243116E+03  0.23601955016E+03  0.10000000000E+01 0.  0.
<mgrwt>
<rscale>  0 0.12500124E+03</rscale>
<asrwt>0</asrwt>
<pdfrwt beam="2">  1        4 0.44009389E-01 0.12500124E+03</pdfrwt>
<pdfrwt beam="1">  1       -4 0.21008574E-02 0.12500124E+03</pdfrwt>
<totfact> 0.75632326E+03</totfact>
</mgrwt>
</event>
<event>
 5    1  0.3293542E-002  0.1249563E+03  0.7818608E-02  0.1235138E+00
          4   -1    0    0  501    0  0.00000000000E+00  0.00000000000E+00  0.33960715752E+02  0.33984454011E+02  0.12700000000E+01 0. -1.
         -4   -1    0    0    0  501 -0.00000000000E+00 -0.00000000000E+00 -0.11487478427E+03  0.11488180431E+03  0.12700000000E+01 0. -1.
         25    2    1    2    0    0  0.00000000000E+00  0.00000000000E+00 -0.80914068521E+02  0.14886625832E+03  0.12495629789E+03 0.  0.
    9000005    1    3    3    0    0  0.35508167174E+02 -0.38887048220E+02 -0.80495614783E+02  0.96195511614E+02  0.10000000000E+01 0.  0.
    9000005    1    3    3    0    0 -0.35508167174E+02  0.38887048220E+02 -0.41845373715E+00  0.52670746708E+02  0.10000000000E+01 0.  0.
<mgrwt>
<rscale>  0 0.12495630E+03</rscale>
<asrwt>0</asrwt>
<pdfrwt beam="1">  1        4 0.52270916E-02 0.12495630E+03</pdfrwt>
<pdfrwt beam="2">  1       -4 0.17675410E-01 0.12495630E+03</pdfrwt>
<totfact> 0.99628141E+03</totfact>
</mgrwt>
</event>
<event>
 5    1  0.3293542E-002  0.1249988E+03  0.7818608E-02  0.1235071E+00
          4   -1    0    0  501    0  0.00000000000E+00  0.00000000000E+00  0.56168740739E+01  0.57586608132E+01  0.12700000000E+01 0.  1.
         -4   -1    0    0    0  501 -0.00000000000E+00 -0.00000000000E+00 -0.68662506212E+03  0.68662623664E+03  0.12700000000E+01 0.  1.
         25    2    1    2    0    0  0.00000000000E+00  0.00000000000E+00 -0.68100818805E+03  0.69238489745E+03  0.12499877609E+03 0.  0.
    9000005    1    3    3    0    0  0.43888102779E+02  0.31247502585E+02 -0.16511361850E+03  0.17368384784E+03  0.10000000000E+01 0.  0.
    9000005    1    3    3    0    0 -0.43888102779E+02 -0.31247502585E+02 -0.51589456955E+03  0.51870104961E+03  0.10000000000E+01 0.  0.
<mgrwt>
<rscale>  0 0.12499878E+03</rscale>
<asrwt>0</asrwt>
<pdfrwt beam="1">  1        4 0.87513203E-03 0.12499878E+03</pdfrwt>
<pdfrwt beam="2">  1       -4 0.10564556E+00 0.12499878E+03</pdfrwt>
<totfact> 0.43492926E+03</totfact>
</mgrwt>
</event>
<event>
 5    1  0.3293542E-002  0.1250014E+03  0.7818608E-02  0.1235067E+00
          4   -1    0    0  501    0  0.00000000000E+00  0.00000000000E+00  0.35944972090E+01  0.38122578854E+01  0.12700000000E+01 0.  1.
         -4   -1    0    0    0  501 -0.00000000000E+00 -0.00000000000E+00 -0.10545862351E+04  0.10545869998E+04  0.12700000000E+01 0.  1.
         25    2    1    2    0    0  0.00000000000E+00  0.00000000000E+00 -0.10509917379E+04  0.10583992577E+04  0.12500142227E+03 0.  0.
    9000005    1    3    3    0    0  0.15012409504E+02  0.46229647574E+02 -0.85806921214E+03  0.85944535927E+03  0.10000000000E+01 0.  0.
    9000005    1    3    3    0    0 -0.15012409504E+02 -0.46229647574E+02 -0.19292252574E+03  0.19895389841E+03  0.10000000000E+01 0.  0.
<mgrwt>
<rscale>  0 0.12500142E+03</rscale>
<asrwt>0</asrwt>
<pdfrwt beam="1">  1        4 0.56981006E-03 0.12500142E+03</pdfrwt>
<pdfrwt beam="2">  1       -4 0.16226061E+00 0.12500142E+03</pdfrwt>
<totfact> 0.28733110E+03</totfact>
</mgrwt>
</event>
<event>
 5    1  0.3293542E-002  0.1250032E+03  0.7818608E-02  0.1235064E+00
         -4   -1    0    0    0  501 -0.00000000000E+00  0.00000000000E+00  0.11114511514E+02  0.11186834503E+02  0.12700000000E+01 0. -1.
          4   -1    0    0  501    0  0.00000000000E+00 -0.00000000000E+00 -0.35025947968E+03  0.35026178211E+03  0.12700000000E+01 0. -1.
         25    2    1    2    0    0  0.00000000000E+00  0.00000000000E+00 -0.33914496816E+03  0.36144861661E+03  0.12500317203E+03 0.  0.
    9000005    1    3    3    0    0 -0.55342272573E+02 -0.23683741500E+02 -0.12103621766E+03  0.13518303418E+03  0.10000000000E+01 0.  0.
    9000005    1    3    3    0    0  0.55342272573E+02  0.23683741500E+02 -0.21810875050E+03  0.22626558243E+03  0.10000000000E+01 0.  0.
<mgrwt>
<rscale>  0 0.12500317E+03</rscale>
<asrwt>0</asrwt>
<pdfrwt beam="2">  1        4 0.53891806E-01 0.12500317E+03</pdfrwt>
<pdfrwt beam="1">  1       -4 0.17156655E-02 0.12500317E+03</pdfrwt>
<totfact> 0.68478363E+03</totfact>
</mgrwt>
</event>
<event>
 5    1  0.3293542E-002  0.1249996E+03  0.7818608E-02  0.1235070E+00
         -4   -1    0    0    0  501 -0.00000000000E+00  0.00000000000E+00  0.15482223620E+03  0.15482744499E+03  0.12700000000E+01 0.  1.
          4   -1    0    0  501    0  0.00000000000E+00 -0.00000000000E+00 -0.25208761880E+02  0.25240732468E+02  0.12700000000E+01 0.  1.
         25    2    1    2    0    0  0.00000000000E+00  0.00000000000E+00  0.12961347432E+03  0.18006817745E+03  0.12499958323E+03 0.  0.
    9000005    1    3    3    0    0 -0.14711546962E+01 -0.19345862251E+02  0.15038072248E+03  0.15163043354E+03  0.10000000000E+01 0.  0.
    9000005    1    3    3    0    0  0.14711546962E+01  0.19345862251E+02 -0.20767248165E+02  0.28437743911E+02  0.10000000000E+01 0.  0.
<mgrwt>
<rscale>  0 0.12499958E+03</rscale>
<asrwt>0</asrwt>
<pdfrwt beam="2">  1        4 0.38811310E-02 0.12499958E+03</pdfrwt>
<pdfrwt beam="1">  1       -4 0.23821666E-01 0.12499958E+03</pdfrwt>
<totfact> 0.93605607E+03</totfact>
</mgrwt>
</event>
<event>
 5    1  0.3293542E-002  0.1250009E+03  0.7818608E-02  0.1235068E+00
          4   -1    0    0  501    0  0.00000000000E+00  0.00000000000E+00  0.70105989509E+03  0.70106104542E+03  0.12700000000E+01 0.  1.
         -4   -1    0    0    0  501 -0.00000000000E+00 -0.00000000000E+00 -0.54984685867E+01  0.56432310602E+01  0.12700000000E+01 0.  1.
         25    2    1    2    0    0  0.00000000000E+00  0.00000000000E+00  0.69556142650E+03  0.70670427648E+03  0.12500094541E+03 0.  0.
    9000005    1    3    3    0    0  0.60147961800E+02 -0.11742979275E+02  0.41693830798E+03  0.42141930133E+03  0.10000000000E+01 0.  0.
    9000005    1    3    3    0    0 -0.60147961800E+02  0.11742979275E+02  0.27862311852E+03  0.28528497515E+03  0.10000000000E+01 0.  0.
<mgrwt>
<rscale>  0 0.12500095E+03</rscale>
<asrwt>0</asrwt>
<pdfrwt beam="1">  1        4 0.10786654E+00 0.12500095E+03</pdfrwt>
<pdfrwt beam="2">  1       -4 0.85714269E-03 0.12500095E+03</pdfrwt>
<totfact> 0.42734274E+03</totfact>
</mgrwt>
</event>
<event>
 5    1  0.3293542E-002  0.1249766E+03  0.7818608E-02  0.1235106E+00
          4   -1    0    0  501    0  0.00000000000E+00  0.00000000000E+00  0.95264336862E+01  0.96107147901E+01  0.12700000000E+01 0.  1.
         -4   -1    0    0    0  501 -0.00000000000E+00 -0.00000000000E+00 -0.40799954344E+03  0.40800152003E+03  0.12700000000E+01 0.  1.
         25    2    1    2    0    0  0.00000000000E+00  0.00000000000E+00 -0.39847310975E+03  0.41761223482E+03  0.12497663572E+03 0.  0.
    9000005    1    3    3    0    0 -0.35338622520E+02 -0.11825102809E+02 -0.36681777297E+03  0.36870710579E+03  0.10000000000E+01 0.  0.
    9000005    1    3    3    0    0  0.35338622520E+02  0.11825102809E+02 -0.31655336785E+02  0.48905129026E+02  0.10000000000E+01 0.  0.
<mgrwt>
<rscale>  0 0.12497664E+03</rscale>
<asrwt>0</asrwt>
<pdfrwt beam="1">  1        4 0.14722407E-02 0.12497664E+03</pdfrwt>
<pdfrwt beam="2">  1       -4 0.62775782E-01 0.12497664E+03</pdfrwt>
<totfact> 0.62907570E+03</totfact>
</mgrwt>
</event>
<event>
 5    1  0.3293542E-002  0.1249946E+03  0.7818608E-02  0.1235078E+00
          4   -1    0    0  501    0  0.00000000000E+00  0.00000000000E+00  0.11840411028E+03  0.11841092108E+03  0.12700000000E+01 0. -1.
         -4   -1    0    0    0  501 -0.00000000000E+00 -0.00000000000E+00 -0.32967994164E+02  0.32992446699E+02  0.12700000000E+01 0. -1.
         25    2    1    2    0    0  0.00000000000E+00  0.00000000000E+00  0.85436116115E+02  0.15140336778E+03  0.12499459923E+03 0.  0.
    9000005    1    3    3    0    0  0.21506386072E+02 -0.57744955577E+02  0.30135441739E+02  0.68601380345E+02  0.10000000000E+01 0.  0.
    9000005    1    3    3    0    0 -0.21506386072E+02  0.57744955577E+02  0.55300674376E+02  0.82801987433E+02  0.10000000000E+01 0.  0.
<mgrwt>
<rscale>  0 0.12499460E+03</rscale>
<asrwt>0</asrwt>
<pdfrwt beam="1">  1        4 0.18218422E-01 0.12499460E+03</pdfrwt>
<pdfrwt beam="2">  1       -4 0.50744039E-02 0.12499460E+03</pdfrwt>
<totfact> 0.99036725E+03</totfact>
</mgrwt>
</event>
<event>
 5    1  0.3293542E-002  0.1249856E+03  0.7818608E-02  0.1235092E+00
         -4   -1    0    0    0  501 -0.00000000000E+00  0.00000000000E+00  0.18438685119E+02  0.18482370219E+02  0.12700000000E+01 0. -1.
          4   -1    0    0  501    0  0.00000000000E+00 -0.00000000000E+00 -0.21150571630E+03  0.21150952916E+03  0.12700000000E+01 0. -1.
         25    2    1    2    0    0  0.00000000000E+00  0.00000000000E+00 -0.19306703118E+03  0.22999189938E+03  0.12498558018E+03 0.  0.
    9000005    1    3    3    0    0 -0.55904918092E+02  0.11742503401E+02 -0.14312605540E+03  0.15410812434E+03  0.10000000000E+01 0.  0.
    9000005    1    3    3    0    0  0.55904918092E+02 -0.11742503401E+02 -0.49940975780E+02  0.75883775043E+02  0.10000000000E+01 0.  0.
<mgrwt>
<rscale>  0 0.12498558E+03</rscale>
<asrwt>0</asrwt>
<pdfrwt beam="2">  1        4 0.32542993E-01 0.12498558E+03</pdfrwt>
<pdfrwt beam="1">  1       -4 0.28403746E-02 0.12498558E+03</pdfrwt>
<totfact> 0.85338294E+03</totfact>
</mgrwt>
</event>
<event>
 5    1  0.3293542E-002  0.1250009E+03  0.7818608E-02  0.1235068E+00
          4   -1    0    0  501    0  0.00000000000E+00  0.00000000000E+00  0.67401520135E+01  0.68587571151E+01  0.12700000000E+01 0.  1.
         -4   -1    0    0    0  501 -0.00000000000E+00 -0.00000000000E+00 -0.57438391128E+03  0.57438531530E+03  0.12700000000E+01 0.  1.
         25    2    1    2    0    0  0.00000000000E+00  0.00000000000E+00 -0.56764375927E+03  0.58124407242E+03  0.12500093715E+03 0.  0.
    9000005    1    3    3    0    0 -0.40623369103E+02 -0.13809137529E+02 -0.49509186087E+03  0.49694858999E+03  0.10000000000E+01 0.  0.
    9000005    1    3    3    0    0  0.40623369103E+02  0.13809137529E+02 -0.72551898400E+02  0.84295482429E+02  0.10000000000E+01 0.  0.
<mgrwt>
<rscale>  0 0.12500094E+03</rscale>
<asrwt>0</asrwt>
<pdfrwt beam="1">  1        4 0.10461784E-02 0.12500094E+03</pdfrwt>
<pdfrwt beam="2">  1       -4 0.88375949E-01 0.12500094E+03</pdfrwt>
<totfact> 0.50072339E+03</totfact>
</mgrwt>
</event>
<event>
 5    1  0.3293542E-002  0.1250022E+03  0.7818608E-02  0.1235066E+00
          4   -1    0    0  501    0  0.00000000000E+00  0.00000000000E+00  0.14272738046E+02  0.14329129469E+02  0.12700000000E+01 0.  1.
         -4   -1    0    0    0  501 -0.00000000000E+00 -0.00000000000E+00 -0.27309824462E+03  0.27310119757E+03  0.12700000000E+01 0.  1.
         25    2    1    2    0    0  0.00000000000E+00  0.00000000000E+00 -0.25882550657E+03  0.28743032704E+03  0.12500220018E+03 0.  0.
    9000005    1    3    3    0    0  0.29804279232E+02 -0.45270271207E+02 -0.57883419572E+02  0.79304367956E+02  0.10000000000E+01 0.  0.
    9000005    1    3    3    0    0 -0.29804279232E+02  0.45270271207E+02 -0.20094208700E+03  0.20812595908E+03  0.10000000000E+01 0.  0.
<mgrwt>
<rscale>  0 0.12500220E+03</rscale>
<asrwt>0</asrwt>
<pdfrwt beam="1">  1        4 0.22003710E-02 0.12500220E+03</pdfrwt>
<pdfrwt beam="2">  1       -4 0.42019676E-01 0.12500220E+03</pdfrwt>
<totfact> 0.77199329E+03</totfact>
</mgrwt>
</event>
<event>
 5    1  0.3293542E-002  0.1250246E+03  0.7818608E-02  0.1235031E+00
          4   -1    0    0  501    0  0.00000000000E+00  0.00000000000E+00  0.22766897391E+02  0.22802291920E+02  0.12700000000E+01 0.  1.
         -4   -1    0    0    0  501 -0.00000000000E+00 -0.00000000000E+00 -0.17147228548E+03  0.17147698851E+03  0.12700000000E+01 0.  1.
         25    2    1    2    0    0  0.00000000000E+00  0.00000000000E+00 -0.14870538809E+03  0.19427928043E+03  0.12502458301E+03 0.  0.
    9000005    1    3    3    0    0 -0.53636889503E+02 -0.31486516692E+02 -0.64714585172E+02  0.89762431913E+02  0.10000000000E+01 0.  0.
    9000005    1    3    3    0    0  0.53636889503E+02  0.31486516692E+02 -0.83990802921E+02  0.10451684852E+03  0.10000000000E+01 0.  0.
<mgrwt>
<rscale>  0 0.12502458E+03</rscale>
<asrwt>0</asrwt>
<pdfrwt beam="1">  1        4 0.35056841E-02 0.12502458E+03</pdfrwt>
<pdfrwt beam="2">  1       -4 0.26383435E-01 0.12502458E+03</pdfrwt>
<totfact> 0.91057889E+03</totfact>
</mgrwt>
</event>
<event>
 5    1  0.3293542E-002  0.1250068E+03  0.7818608E-02  0.1235059E+00
         -4   -1    0    0    0  501 -0.00000000000E+00  0.00000000000E+00  0.87692712036E+02  0.87701907871E+02  0.12700000000E+01 0.  1.
          4   -1    0    0  501    0  0.00000000000E+00 -0.00000000000E+00 -0.44529027626E+02  0.44547134602E+02  0.12700000000E+01 0.  1.
         25    2    1    2    0    0  0.00000000000E+00  0.00000000000E+00  0.43163684411E+02  0.13224904247E+03  0.12500682215E+03 0.  0.
    9000005    1    3    3    0    0 -0.36220254675E+02 -0.35957087343E+01  0.75327006863E+02  0.83665966396E+02  0.10000000000E+01 0.  0.
    9000005    1    3    3    0    0  0.36220254675E+02  0.35957087343E+01 -0.32163322452E+02  0.48583076078E+02  0.10000000000E+01 0.  0.
<mgrwt>
<rscale>  0 0.12500682E+03</rscale>
<asrwt>0</asrwt>
<pdfrwt beam="2">  1        4 0.68527200E-02 0.12500682E+03</pdfrwt>
<pdfrwt beam="1">  1       -4 0.13493286E-01 0.12500682E+03</pdfrwt>
<totfact> 0.10294801E+04</totfact>
</mgrwt>
</event>
<event>
 5    1  0.3293542E-002  0.1249991E+03  0.7818608E-02  0.1235071E+00
          4   -1    0    0  501    0  0.00000000000E+00  0.00000000000E+00  0.23042071408E+03  0.23042421396E+03  0.12700000000E+01 0. -1.
         -4   -1    0    0    0  501 -0.00000000000E+00 -0.00000000000E+00 -0.16925025280E+02  0.16972606774E+02  0.12700000000E+01 0. -1.
         25    2    1    2    0    0  0.00000000000E+00  0.00000000000E+00  0.21349568880E+03  0.24739682073E+03  0.12499911108E+03 0.  0.
    9000005    1    3    3    0    0  0.53993203664E+02  0.15054120728E+02  0.52066983041E+02  0.76510543820E+02  0.10000000000E+01 0.  0.
    9000005    1    3    3    0    0 -0.53993203664E+02 -0.15054120728E+02  0.16142870576E+03  0.17088627691E+03  0.10000000000E+01 0.  0.
<mgrwt>
<rscale>  0 0.12499911E+03</rscale>
<asrwt>0</asrwt>
<pdfrwt beam="1">  1        4 0.35453269E-01 0.12499911E+03</pdfrwt>
<pdfrwt beam="2">  1       -4 0.26077795E-02 0.12499911E+03</pdfrwt>
<totfact> 0.82709568E+03</totfact>
</mgrwt>
</event>
<event>
 5    1  0.3293542E-002  0.1250005E+03  0.7818608E-02  0.1235068E+00
          4   -1    0    0  501    0  0.00000000000E+00  0.00000000000E+00  0.73032262991E+01  0.74128276909E+01  0.12700000000E+01 0.  1.
         -4   -1    0    0    0  501 -0.00000000000E+00 -0.00000000000E+00 -0.53077697949E+03  0.53077849887E+03  0.12700000000E+01 0.  1.
         25    2    1    2    0    0  0.00000000000E+00  0.00000000000E+00 -0.52347375320E+03  0.53819132656E+03  0.12500053480E+03 0.  0.
    9000005    1    3    3    0    0  0.29302192927E+02  0.34051551043E+02 -0.74699322348E+02  0.87172905182E+02  0.10000000000E+01 0.  0.
    9000005    1    3    3    0    0 -0.29302192927E+02 -0.34051551043E+02 -0.44877443085E+03  0.45101842138E+03  0.10000000000E+01 0.  0.
<mgrwt>
<rscale>  0 0.12500053E+03</rscale>
<asrwt>0</asrwt>
<pdfrwt beam="1">  1        4 0.11321214E-02 0.12500053E+03</pdfrwt>
<pdfrwt beam="2">  1       -4 0.81666515E-01 0.12500053E+03</pdfrwt>
<totfact> 0.53017739E+03</totfact>
</mgrwt>
</event>
<event>
 5    1  0.3293542E-002  0.1250199E+03  0.7818608E-02  0.1235038E+00
          4   -1    0    0  501    0  0.00000000000E+00  0.00000000000E+00  0.18847145543E+03  0.18847573428E+03  0.12700000000E+01 0.  1.
         -4   -1    0    0    0  501 -0.00000000000E+00 -0.00000000000E+00 -0.20708571124E+02  0.20747477389E+02  0.12700000000E+01 0.  1.
         25    2    1    2    0    0  0.00000000000E+00  0.00000000000E+00  0.16776288430E+03  0.20922321166E+03  0.12501986622E+03 0.  0.
    9000005    1    3    3    0    0  0.18019327993E+01 -0.62444438501E+02  0.80560917590E+02  0.10194908682E+03  0.10000000000E+01 0.  0.
    9000005    1    3    3    0    0 -0.18019327993E+01  0.62444438501E+02  0.87201966713E+02  0.10727412484E+03  0.10000000000E+01 0.  0.
<mgrwt>
<rscale>  0 0.12501987E+03</rscale>
<asrwt>0</asrwt>
<pdfrwt beam="1">  1        4 0.28998931E-01 0.12501987E+03</pdfrwt>
<pdfrwt beam="2">  1       -4 0.31892558E-02 0.12501987E+03</pdfrwt>
<totfact> 0.88563553E+03</totfact>
</mgrwt>
</event>
<event>
 5    1  0.3293542E-002  0.1249981E+03  0.7818608E-02  0.1235072E+00
         -4   -1    0    0    0  501 -0.00000000000E+00  0.00000000000E+00  0.44661926005E+02  0.44679979123E+02  0.12700000000E+01 0. -1.
          4   -1    0    0  501    0  0.00000000000E+00 -0.00000000000E+00 -0.87419676427E+02  0.87428900981E+02  0.12700000000E+01 0. -1.
         25    2    1    2    0    0  0.00000000000E+00  0.00000000000E+00 -0.42757750423E+02  0.13210888010E+03  0.12499812391E+03 0.  0.
    9000005    1    3    3    0    0 -0.22992620608E+02 -0.56339541439E+02 -0.63454916070E+01  0.61188804497E+02  0.10000000000E+01 0.  0.
    9000005    1    3    3    0    0  0.22992620608E+02  0.56339541439E+02 -0.36412258816E+02  0.70920075607E+02  0.10000000000E+01 0.  0.
<mgrwt>
<rscale>  0 0.12499812E+03</rscale>
<asrwt>0</asrwt>
<pdfrwt beam="2">  1        4 0.13451279E-01 0.12499812E+03</pdfrwt>
<pdfrwt beam="1">  1       -4 0.68731638E-02 0.12499812E+03</pdfrwt>
<totfact> 0.10299811E+04</totfact>
</mgrwt>
</event>
<event>
 5    1  0.3293542E-002  0.1250084E+03  0.7818608E-02  0.1235056E+00
          4   -1    0    0  501    0  0.00000000000E+00  0.00000000000E+00  0.43640159885E+01  0.45450561655E+01  0.12700000000E+01 0.  1.
         -4   -1    0    0    0  501 -0.00000000000E+00 -0.00000000000E+00 -0.87685115302E+03  0.87685207273E+03  0.12700000000E+01 0.  1.
         25    2    1    2    0    0  0.00000000000E+00  0.00000000000E+00 -0.87248713703E+03  0.88139712890E+03  0.12500837789E+03 0.  0.
    9000005    1    3    3    0    0 -0.11192341998E+01 -0.21743492233E+02 -0.23205772385E+02  0.31836143166E+02  0.10000000000E+01 0.  0.
    9000005    1    3    3    0    0  0.11192341998E+01  0.21743492233E+02 -0.84928136465E+03  0.84956098573E+03  0.10000000000E+01 0.  0.
<mgrwt>
<rscale>  0 0.12500838E+03</rscale>
<asrwt>0</asrwt>
<pdfrwt beam="1">  1        4 0.68538469E-03 0.12500838E+03</pdfrwt>
<pdfrwt beam="2">  1       -4 0.13491404E+00 0.12500838E+03</pdfrwt>
<totfact> 0.34869472E+03</totfact>
</mgrwt>
</event>
<event>
 5    1  0.3293542E-002  0.1250032E+03  0.7818608E-02  0.1235064E+00
          4   -1    0    0  501    0  0.00000000000E+00  0.00000000000E+00  0.38669746027E+02  0.38690595212E+02  0.12700000000E+01 0.  1.
         -4   -1    0    0    0  501 -0.00000000000E+00 -0.00000000000E+00 -0.10096884542E+03  0.10097683222E+03  0.12700000000E+01 0.  1.
         25    2    1    2    0    0  0.00000000000E+00  0.00000000000E+00 -0.62299099396E+02  0.13966742744E+03  0.12500324996E+03 0.  0.
    9000005    1    3    3    0    0  0.30725349027E+02  0.54417931478E+02 -0.30805559446E+02  0.69680275774E+02  0.10000000000E+01 0.  0.
    9000005    1    3    3    0    0 -0.30725349027E+02 -0.54417931478E+02 -0.31493539950E+02  0.69987151662E+02  0.10000000000E+01 0.  0.
<mgrwt>
<rscale>  0 0.12500325E+03</rscale>
<asrwt>0</asrwt>
<pdfrwt beam="1">  1        4 0.59514099E-02 0.12500325E+03</pdfrwt>
<pdfrwt beam="2">  1       -4 0.15535887E-01 0.12500325E+03</pdfrwt>
<totfact> 0.10139741E+04</totfact>
</mgrwt>
</event>
<event>
 5    1  0.3293542E-002  0.1249994E+03  0.7818608E-02  0.1235070E+00
          4   -1    0    0  501    0  0.00000000000E+00  0.00000000000E+00  0.12426433033E+02  0.12491162393E+02  0.12700000000E+01 0.  1.
         -4   -1    0    0    0  501 -0.00000000000E+00 -0.00000000000E+00 -0.31346419113E+03  0.31346676382E+03  0.12700000000E+01 0.  1.
         25    2    1    2    0    0  0.00000000000E+00  0.00000000000E+00 -0.30103775810E+03  0.32595792622E+03  0.12499935145E+03 0.  0.
    9000005    1    3    3    0    0  0.56524653310E+02 -0.25833194275E+02 -0.13345520327E+03  0.14721984118E+03  0.10000000000E+01 0.  0.
    9000005    1    3    3    0    0 -0.56524653310E+02  0.25833194275E+02 -0.16758255483E+03  0.17873808503E+03  0.10000000000E+01 0.  0.
<mgrwt>
<rscale>  0 0.12499935E+03</rscale>
<asrwt>0</asrwt>
<pdfrwt beam="1">  1        4 0.19169362E-02 0.12499935E+03</pdfrwt>
<pdfrwt beam="2">  1       -4 0.48230431E-01 0.12499935E+03</pdfrwt>
<totfact> 0.72454112E+03</totfact>
</mgrwt>
</event>
<event>
 5    1  0.3293542E-002  0.1250042E+03  0.7818608E-02  0.1235063E+00
         -4   -1    0    0    0  501 -0.00000000000E+00  0.00000000000E+00  0.15925684613E+02  0.15976242687E+02  0.12700000000E+01 0.  1.
          4   -1    0    0  501    0  0.00000000000E+00 -0.00000000000E+00 -0.24485524475E+03  0.24485853830E+03  0.12700000000E+01 0.  1.
         25    2    1    2    0    0  0.00000000000E+00  0.00000000000E+00 -0.22892956013E+03  0.26083478099E+03  0.12500415781E+03 0.  0.
    9000005    1    3    3    0    0  0.29763666261E+02  0.50160698745E+02 -0.16128757298E+03  0.17151283546E+03  0.10000000000E+01 0.  0.
    9000005    1    3    3    0    0 -0.29763666261E+02 -0.50160698745E+02 -0.67641987149E+02  0.89321945531E+02  0.10000000000E+01 0.  0.
<mgrwt>
<rscale>  0 0.12500416E+03</rscale>
<asrwt>0</asrwt>
<pdfrwt beam="2">  1        4 0.37674177E-01 0.12500416E+03</pdfrwt>
<pdfrwt beam="1">  1       -4 0.24542479E-02 0.12500416E+03</pdfrwt>
<totfact> 0.80781578E+03</totfact>
</mgrwt>
</event>
<event>
 5    1  0.3293542E-002  0.1249849E+03  0.7818608E-02  0.1235093E+00
          4   -1    0    0  501    0  0.00000000000E+00  0.00000000000E+00  0.79202493149E+02  0.79212674623E+02  0.12700000000E+01 0.  1.
         -4   -1    0    0    0  501 -0.00000000000E+00 -0.00000000000E+00 -0.49286348233E+02  0.49302708061E+02  0.12700000000E+01 0.  1.
         25    2    1    2    0    0  0.00000000000E+00  0.00000000000E+00  0.29916144915E+02  0.12851538268E+03  0.12498491053E+03 0.  0.
    9000005    1    3    3    0    0 -0.16887137049E+02 -0.36142177953E+02 -0.34492755552E+02  0.52746399028E+02  0.10000000000E+01 0.  0.
    9000005    1    3    3    0    0  0.16887137049E+02  0.36142177953E+02  0.64408900468E+02  0.75768983656E+02  0.10000000000E+01 0.  0.
<mgrwt>
<rscale>  0 0.12498491E+03</rscale>
<asrwt>0</asrwt>
<pdfrwt beam="1">  1        4 0.12187040E-01 0.12498491E+03</pdfrwt>
<pdfrwt beam="2">  1       -4 0.75845569E-02 0.12498491E+03</pdfrwt>
<totfact> 0.10379908E+04</totfact>
</mgrwt>
</event>
<event>
 5    1  0.3293542E-002  0.1249988E+03  0.7818608E-02  0.1235071E+00
         -4   -1    0    0    0  501 -0.00000000000E+00  0.00000000000E+00  0.10320078614E+03  0.10320860023E+03  0.12700000000E+01 0.  1.
          4   -1    0    0  501    0  0.00000000000E+00 -0.00000000000E+00 -0.37830329762E+02  0.37851641311E+02  0.12700000000E+01 0.  1.
         25    2    1    2    0    0  0.00000000000E+00  0.00000000000E+00  0.65370456382E+02  0.14106024154E+03  0.12499878069E+03 0.  0.
    9000005    1    3    3    0    0 -0.48538731417E+02  0.30443918321E+02  0.60837297678E+02  0.83576416524E+02  0.10000000000E+01 0.  0.
    9000005    1    3    3    0    0  0.48538731417E+02 -0.30443918321E+02  0.45331587035E+01  0.57483825013E+02  0.10000000000E+01 0.  0.
<mgrwt>
<rscale>  0 0.12499878E+03</rscale>
<asrwt>0</asrwt>
<pdfrwt beam="2">  1        4 0.58222913E-02 0.12499878E+03</pdfrwt>
<pdfrwt beam="1">  1       -4 0.15879284E-01 0.12499878E+03</pdfrwt>
<totfact> 0.10111937E+04</totfact>
</mgrwt>
</event>
<event>
 5    1  0.3293542E-002  0.1250020E+03  0.7818608E-02  0.1235066E+00
          4   -1    0    0  501    0  0.00000000000E+00  0.00000000000E+00  0.36493852075E+03  0.36494073057E+03  0.12700000000E+01 0. -1.
         -4   -1    0    0    0  501 -0.00000000000E+00 -0.00000000000E+00 -0.10664274432E+02  0.10739629843E+02  0.12700000000E+01 0. -1.
         25    2    1    2    0    0  0.00000000000E+00  0.00000000000E+00  0.35427424632E+03  0.37568036042E+03  0.12500196636E+03 0.  0.
    9000005    1    3    3    0    0 -0.17611149710E+02  0.59512427449E+02  0.19911790609E+03  0.20856850707E+03  0.10000000000E+01 0.  0.
    9000005    1    3    3    0    0  0.17611149710E+02 -0.59512427449E+02  0.15515634023E+03  0.16711185335E+03  0.10000000000E+01 0.  0.
<mgrwt>
<rscale>  0 0.12500197E+03</rscale>
<asrwt>0</asrwt>
<pdfrwt beam="1">  1        4 0.56150355E-01 0.12500197E+03</pdfrwt>
<pdfrwt beam="2">  1       -4 0.16466241E-02 0.12500197E+03</pdfrwt>
<totfact> 0.66985909E+03</totfact>
</mgrwt>
</event>
<event>
 5    1  0.3293542E-002  0.1250020E+03  0.7818608E-02  0.1235066E+00
          4   -1    0    0  501    0  0.00000000000E+00  0.00000000000E+00  0.19245178681E+02  0.19287037161E+02  0.12700000000E+01 0.  1.
         -4   -1    0    0    0  501 -0.00000000000E+00 -0.00000000000E+00 -0.20271511849E+03  0.20271909669E+03  0.12700000000E+01 0.  1.
         25    2    1    2    0    0  0.00000000000E+00  0.00000000000E+00 -0.18346993981E+03  0.22200613385E+03  0.12500201861E+03 0.  0.
    9000005    1    3    3    0    0 -0.32414984945E+02  0.42342949773E+02 -0.33865054376E+02  0.63178307610E+02  0.10000000000E+01 0.  0.
    9000005    1    3    3    0    0  0.32414984945E+02 -0.42342949773E+02 -0.14960488543E+03  0.15882782624E+03  0.10000000000E+01 0.  0.
<mgrwt>
<rscale>  0 0.12500202E+03</rscale>
<asrwt>0</asrwt>
<pdfrwt beam="1">  1        4 0.29643228E-02 0.12500202E+03</pdfrwt>
<pdfrwt beam="2">  1       -4 0.31190466E-01 0.12500202E+03</pdfrwt>
<totfact> 0.86547996E+03</totfact>
</mgrwt>
</event>
<event>
 5    1  0.3293542E-002  0.1249927E+03  0.7818608E-02  0.1235081E+00
         -4   -1    0    0    0  501 -0.00000000000E+00  0.00000000000E+00  0.17329946016E+03  0.17330411360E+03  0.12700000000E+01 0. -1.
          4   -1    0    0  501    0  0.00000000000E+00 -0.00000000000E+00 -0.22514977205E+02  0.22550767139E+02  0.12700000000E+01 0. -1.
         25    2    1    2    0    0  0.00000000000E+00  0.00000000000E+00  0.15078448296E+03  0.19585488074E+03  0.12499269583E+03 0.  0.
    9000005    1    3    3    0    0 -0.63422134609E+01  0.46045032966E+02  0.99473297633E+01  0.47542802840E+02  0.10000000000E+01 0.  0.
    9000005    1    3    3    0    0  0.63422134609E+01 -0.46045032966E+02  0.14083715319E+03  0.14831207790E+03  0.10000000000E+01 0.  0.
<mgrwt>
<rscale>  0 0.12499270E+03</rscale>
<asrwt>0</asrwt>
<pdfrwt beam="2">  1        4 0.34669538E-02 0.12499270E+03</pdfrwt>
<pdfrwt beam="1">  1       -4 0.26664565E-01 0.12499270E+03</pdfrwt>
<totfact> 0.90853303E+03</totfact>
</mgrwt>
</event>
<event>
 5    1  0.3293542E-002  0.1249971E+03  0.7818608E-02  0.1235074E+00
          4   -1    0    0  501    0  0.00000000000E+00  0.00000000000E+00  0.10882175628E+02  0.10956032421E+02  0.12700000000E+01 0.  1.
         -4   -1    0    0    0  501 -0.00000000000E+00 -0.00000000000E+00 -0.35765307226E+03  0.35765532709E+03  0.12700000000E+01 0.  1.
         25    2    1    2    0    0  0.00000000000E+00  0.00000000000E+00 -0.34677089663E+03  0.36861135951E+03  0.12499711841E+03 0.  0.
    9000005    1    3    3    0    0 -0.17973335991E+02  0.12614501768E+02 -0.34591601054E+03  0.34661369391E+03  0.10000000000E+01 0.  0.
    9000005    1    3    3    0    0  0.17973335991E+02 -0.12614501768E+02 -0.85488609054E+00  0.21997665597E+02  0.10000000000E+01 0.  0.
<mgrwt>
<rscale>  0 0.12499712E+03</rscale>
<asrwt>0</asrwt>
<pdfrwt beam="1">  1        4 0.16800359E-02 0.12499712E+03</pdfrwt>
<pdfrwt beam="2">  1       -4 0.55029395E-01 0.12499712E+03</pdfrwt>
<totfact> 0.67728784E+03</totfact>
</mgrwt>
</event>
<event>
 5    1  0.3293542E-002  0.1249999E+03  0.7818608E-02  0.1235069E+00
          4   -1    0    0  501    0  0.00000000000E+00  0.00000000000E+00  0.16499087439E+02  0.16547893712E+02  0.12700000000E+01 0. -1.
         -4   -1    0    0    0  501 -0.00000000000E+00 -0.00000000000E+00 -0.23635486242E+03  0.23635827443E+03  0.12700000000E+01 0. -1.
         25    2    1    2    0    0  0.00000000000E+00  0.00000000000E+00 -0.21985577499E+03  0.25290616814E+03  0.12499987236E+03 0.  0.
    9000005    1    3    3    0    0 -0.46932545369E+02  0.29991575306E+02 -0.52591512019E+02  0.76609565595E+02  0.10000000000E+01 0.  0.
    9000005    1    3    3    0    0  0.46932545369E+02 -0.29991575306E+02 -0.16726426297E+03  0.17629660255E+03  0.10000000000E+01 0.  0.
<mgrwt>
<rscale>  0 0.12499987E+03</rscale>
<asrwt>0</asrwt>
<pdfrwt beam="1">  1        4 0.25423381E-02 0.12499987E+03</pdfrwt>
<pdfrwt beam="2">  1       -4 0.36366301E-01 0.12499987E+03</pdfrwt>
<totfact> 0.81912236E+03</totfact>
</mgrwt>
</event>
<event>
 5    1  0.3293542E-002  0.1249983E+03  0.7818608E-02  0.1235072E+00
          4   -1    0    0  501    0  0.00000000000E+00  0.00000000000E+00  0.25568850096E+03  0.25569165497E+03  0.12700000000E+01 0.  1.
         -4   -1    0    0    0  501 -0.00000000000E+00 -0.00000000000E+00 -0.15247320335E+02  0.15300120176E+02  0.12700000000E+01 0.  1.
         25    2    1    2    0    0  0.00000000000E+00  0.00000000000E+00  0.24044118062E+03  0.27099177515E+03  0.12499832342E+03 0.  0.
    9000005    1    3    3    0    0  0.55362245271E+02  0.17878758074E+02  0.70758850283E+02  0.91610278272E+02  0.10000000000E+01 0.  0.
    9000005    1    3    3    0    0 -0.55362245271E+02 -0.17878758074E+02  0.16968233034E+03  0.17938149687E+03  0.10000000000E+01 0.  0.
<mgrwt>
<rscale>  0 0.12499832E+03</rscale>
<asrwt>0</asrwt>
<pdfrwt beam="1">  1        4 0.39340993E-01 0.12499832E+03</pdfrwt>
<pdfrwt beam="2">  1       -4 0.23500460E-02 0.12499832E+03</pdfrwt>
<totfact> 0.79390808E+03</totfact>
</mgrwt>
</event>
<event>
 5    1  0.3293542E-002  0.1250056E+03  0.7818608E-02  0.1235061E+00
         -4   -1    0    0    0  501 -0.00000000000E+00  0.00000000000E+00  0.89779577489E+01  0.90673383824E+01  0.12700000000E+01 0.  1.
          4   -1    0    0  501    0  0.00000000000E+00 -0.00000000000E+00 -0.43288653809E+03  0.43288840105E+03  0.12700000000E+01 0.  1.
         25    2    1    2    0    0  0.00000000000E+00  0.00000000000E+00 -0.42390858035E+03  0.44195573943E+03  0.12500556438E+03 0.  0.
    9000005    1    3    3    0    0  0.30319454867E+02  0.49148171637E+02 -0.29642107453E+03  0.30199547272E+03  0.10000000000E+01 0.  0.
    9000005    1    3    3    0    0 -0.30319454867E+02 -0.49148171637E+02 -0.12748750581E+03  0.13996026671E+03  0.10000000000E+01 0.  0.
<mgrwt>
<rscale>  0 0.12500556E+03</rscale>
<asrwt>0</asrwt>
<pdfrwt beam="2">  1        4 0.66604932E-01 0.12500556E+03</pdfrwt>
<pdfrwt beam="1">  1       -4 0.13882433E-02 0.12500556E+03</pdfrwt>
<totfact> 0.60659596E+03</totfact>
</mgrwt>
</event>
<event>
 5    1  0.3293542E-002  0.1249989E+03  0.7818608E-02  0.1235071E+00
          4   -1    0    0  501    0  0.00000000000E+00  0.00000000000E+00  0.65200765911E+03  0.65200889598E+03  0.12700000000E+01 0. -1.
         -4   -1    0    0    0  501 -0.00000000000E+00 -0.00000000000E+00 -0.59224482250E+01  0.60570861789E+01  0.12700000000E+01 0. -1.
         25    2    1    2    0    0  0.00000000000E+00  0.00000000000E+00  0.64608521088E+03  0.65806598216E+03  0.12499894860E+03 0.  0.
    9000005    1    3    3    0    0 -0.52072588065E+02  0.81536247277E+01  0.14629497333E+03  0.15550323227E+03  0.10000000000E+01 0.  0.
    9000005    1    3    3    0    0  0.52072588065E+02 -0.81536247277E+01  0.49979023755E+03  0.50256274989E+03  0.10000000000E+01 0.  0.
<mgrwt>
<rscale>  0 0.12499895E+03</rscale>
<asrwt>0</asrwt>
<pdfrwt beam="1">  1        4 0.10031931E+00 0.12499895E+03</pdfrwt>
<pdfrwt beam="2">  1       -4 0.92159788E-03 0.12499895E+03</pdfrwt>
<totfact> 0.45395527E+03</totfact>
</mgrwt>
</event>
<event>
 5    1  0.3293542E-002  0.1250061E+03  0.7818608E-02  0.1235060E+00
          4   -1    0    0  501    0  0.00000000000E+00  0.00000000000E+00  0.98915283749E+02  0.98923436349E+02  0.12700000000E+01 0. -1.
         -4   -1    0    0    0  501 -0.00000000000E+00 -0.00000000000E+00 -0.39474728840E+02  0.39495153082E+02  0.12700000000E+01 0. -1.
         25    2    1    2    0    0  0.00000000000E+00  0.00000000000E+00  0.59440554909E+02  0.13841858943E+03  0.12500610518E+03 0.  0.
    9000005    1    3    3    0    0 -0.15669584158E+02  0.55601388484E+02  0.33168998633E+01  0.57870995272E+02  0.10000000000E+01 0.  0.
    9000005    1    3    3    0    0  0.15669584158E+02 -0.55601388484E+02  0.56123655046E+02  0.80547594159E+02  0.10000000000E+01 0.  0.
<mgrwt>
<rscale>  0 0.12500611E+03</rscale>
<asrwt>0</asrwt>
<pdfrwt beam="1">  1        4 0.15219934E-01 0.12500611E+03</pdfrwt>
<pdfrwt beam="2">  1       -4 0.60752334E-02 0.12500611E+03</pdfrwt>
<totfact> 0.10165068E+04</totfact>
</mgrwt>
</event>
<event>
 5    1  0.3293542E-002  0.1249892E+03  0.7818608E-02  0.1235086E+00
          4   -1    0    0  501    0  0.00000000000E+00  0.00000000000E+00  0.80829846928E+02  0.80839823444E+02  0.12700000000E+01 0. -1.
         -4   -1    0    0    0  501 -0.00000000000E+00 -0.00000000000E+00 -0.48297146927E+02  0.48313841716E+02  0.12700000000E+01 0. -1.
         25    2    1    2    0    0  0.00000000000E+00  0.00000000000E+00  0.32532700001E+02  0.12915366516E+03  0.12498917015E+03 0.  0.
    9000005    1    3    3    0    0  0.12033285143E+02 -0.42942232656E+02  0.61493830227E+02  0.75969246757E+02  0.10000000000E+01 0.  0.
    9000005    1    3    3    0    0 -0.12033285143E+02  0.42942232656E+02 -0.28961130227E+02  0.53184418402E+02  0.10000000000E+01 0.  0.
<mgrwt>
<rscale>  0 0.12498917E+03</rscale>
<asrwt>0</asrwt>
<pdfrwt beam="1">  1        4 0.12437413E-01 0.12498917E+03</pdfrwt>
<pdfrwt beam="2">  1       -4 0.74323819E-02 0.12498917E+03</pdfrwt>
<totfact> 0.10365180E+04</totfact>
</mgrwt>
</event>
<event>
 5    1  0.3293542E-002  0.1250072E+03  0.7818608E-02  0.1235058E+00
         -4   -1    0    0    0  501 -0.00000000000E+00  0.00000000000E+00  0.22563889375E+02  0.22599601849E+02  0.12700000000E+01 0. -1.
          4   -1    0    0  501    0  0.00000000000E+00 -0.00000000000E+00 -0.17296460634E+03  0.17296926879E+03  0.12700000000E+01 0. -1.
         25    2    1    2    0    0  0.00000000000E+00  0.00000000000E+00 -0.15040071697E+03  0.19556887064E+03  0.12500722979E+03 0.  0.
    9000005    1    3    3    0    0  0.30052037598E+02 -0.53793434538E+02 -0.91522061471E+02  0.11033651390E+03  0.10000000000E+01 0.  0.
    9000005    1    3    3    0    0 -0.30052037598E+02  0.53793434538E+02 -0.58878655497E+02  0.85232356745E+02  0.10000000000E+01 0.  0.
<mgrwt>
<rscale>  0 0.12500723E+03</rscale>
<asrwt>0</asrwt>
<pdfrwt beam="2">  1        4 0.26613044E-01 0.12500723E+03</pdfrwt>
<pdfrwt beam="1">  1       -4 0.34744735E-02 0.12500723E+03</pdfrwt>
<totfact> 0.90872568E+03</totfact>
</mgrwt>
</event>
<event>
 5    1  0.3293542E-002  0.1249836E+03  0.7818608E-02  0.1235095E+00
          4   -1    0    0  501    0  0.00000000000E+00  0.00000000000E+00  0.11461100014E+04  0.11461107050E+04  0.12700000000E+01 0. -1.
         -4   -1    0    0    0  501 -0.00000000000E+00 -0.00000000000E+00 -0.32883070113E+01  0.35250337587E+01  0.12700000000E+01 0. -1.
         25    2    1    2    0    0  0.00000000000E+00  0.00000000000E+00  0.11428216944E+04  0.11496357388E+04  0.12498362597E+03 0.  0.
    9000005    1    3    3    0    0  0.28263620250E+02 -0.19629038149E+02  0.91678284509E+02  0.97928745621E+02  0.10000000000E+01 0.  0.
    9000005    1    3    3    0    0 -0.28263620250E+02  0.19629038149E+02  0.10511434099E+04  0.10517069932E+04  0.10000000000E+01 0.  0.
<mgrwt>
<rscale>  0 0.12498363E+03</rscale>
<asrwt>0</asrwt>
<pdfrwt beam="1">  1        4 0.17634278E+00 0.12498363E+03</pdfrwt>
<pdfrwt beam="2">  1       -4 0.52415755E-03 0.12498363E+03</pdfrwt>
<totfact> 0.26079671E+03</totfact>
</mgrwt>
</event>
<event>
 5    1  0.3293542E-002  0.1250035E+03  0.7818608E-02  0.1235064E+00
         -4   -1    0    0    0  501 -0.00000000000E+00  0.00000000000E+00  0.16504368747E+03  0.16504857368E+03  0.12700000000E+01 0.  1.
          4   -1    0    0  501    0  0.00000000000E+00 -0.00000000000E+00 -0.23647015457E+02  0.23681094570E+02  0.12700000000E+01 0.  1.
         25    2    1    2    0    0  0.00000000000E+00  0.00000000000E+00  0.14139667202E+03  0.18872966825E+03  0.12500347524E+03 0.  0.
    9000005    1    3    3    0    0  0.20098790330E+02 -0.56517859144E+02  0.44234356503E+02  0.74537963953E+02  0.10000000000E+01 0.  0.
    9000005    1    3    3    0    0 -0.20098790330E+02  0.56517859144E+02  0.97162315513E+02  0.11419170430E+03  0.10000000000E+01 0.  0.
<mgrwt>
<rscale>  0 0.12500348E+03</rscale>
<asrwt>0</asrwt>
<pdfrwt beam="2">  1        4 0.36409997E-02 0.12500348E+03</pdfrwt>
<pdfrwt beam="1">  1       -4 0.25394334E-01 0.12500348E+03</pdfrwt>
<totfact> 0.92061651E+03</totfact>
</mgrwt>
</event>
<event>
 5    1  0.3293542E-002  0.1249993E+03  0.7818608E-02  0.1235070E+00
          4   -1    0    0  501    0  0.00000000000E+00  0.00000000000E+00  0.15893188410E+03  0.15893695820E+03  0.12700000000E+01 0.  1.
         -4   -1    0    0    0  501 -0.00000000000E+00 -0.00000000000E+00 -0.24556000558E+02  0.24588819886E+02  0.12700000000E+01 0.  1.
         25    2    1    2    0    0  0.00000000000E+00  0.00000000000E+00  0.13437588354E+03  0.18352577809E+03  0.12499933258E+03 0.  0.
    9000005    1    3    3    0    0  0.32043609976E+02 -0.69396512029E+01 -0.10921275325E+02  0.34572040059E+02  0.10000000000E+01 0.  0.
    9000005    1    3    3    0    0 -0.32043609976E+02  0.69396512029E+01  0.14529715886E+03  0.14895373803E+03  0.10000000000E+01 0.  0.
<mgrwt>
<rscale>  0 0.12499933E+03</rscale>
<asrwt>0</asrwt>
<pdfrwt beam="1">  1        4 0.24453974E-01 0.12499933E+03</pdfrwt>
<pdfrwt beam="2">  1       -4 0.37807611E-02 0.12499933E+03</pdfrwt>
<totfact> 0.92987565E+03</totfact>
</mgrwt>
</event>
<event>
 5    1  0.3293542E-002  0.1250033E+03  0.7818608E-02  0.1235064E+00
          4   -1    0    0  501    0  0.00000000000E+00  0.00000000000E+00  0.10852446600E+03  0.10853189679E+03  0.12700000000E+01 0. -1.
         -4   -1    0    0    0  501 -0.00000000000E+00 -0.00000000000E+00 -0.35976220800E+02  0.35998630016E+02  0.12700000000E+01 0. -1.
         25    2    1    2    0    0  0.00000000000E+00  0.00000000000E+00  0.72548245198E+02  0.14453052680E+03  0.12500330114E+03 0.  0.
    9000005    1    3    3    0    0 -0.12031423252E+02 -0.55466097066E+02  0.66517747644E+02  0.87446291064E+02  0.10000000000E+01 0.  0.
    9000005    1    3    3    0    0  0.12031423252E+02  0.55466097066E+02  0.60304975542E+01  0.57084235739E+02  0.10000000000E+01 0.  0.
<mgrwt>
<rscale>  0 0.12500330E+03</rscale>
<asrwt>0</asrwt>
<pdfrwt beam="1">  1        4 0.16698367E-01 0.12500330E+03</pdfrwt>
<pdfrwt beam="2">  1       -4 0.55370987E-02 0.12500330E+03</pdfrwt>
<totfact> 0.10039789E+04</totfact>
</mgrwt>
</event>
<event>
 5    1  0.3293542E-002  0.1250002E+03  0.7818608E-02  0.1235069E+00
         -4   -1    0    0    0  501 -0.00000000000E+00  0.00000000000E+00  0.52588338820E+03  0.52588492171E+03  0.12700000000E+01 0.  1.
          4   -1    0    0  501    0  0.00000000000E+00 -0.00000000000E+00 -0.73721594947E+01  0.74807510061E+01  0.12700000000E+01 0.  1.
         25    2    1    2    0    0  0.00000000000E+00  0.00000000000E+00  0.51851122871E+03  0.53336567272E+03  0.12500018617E+03 0.  0.
    9000005    1    3    3    0    0  0.27425480342E+02  0.40940799243E+02  0.95272879822E+02  0.10726708556E+03  0.10000000000E+01 0.  0.
    9000005    1    3    3    0    0 -0.27425480342E+02 -0.40940799243E+02  0.42323834888E+03  0.42609858716E+03  0.10000000000E+01 0.  0.
<mgrwt>
<rscale>  0 0.12500019E+03</rscale>
<asrwt>0</asrwt>
<pdfrwt beam="2">  1        4 0.11426492E-02 0.12500019E+03</pdfrwt>
<pdfrwt beam="1">  1       -4 0.80913629E-01 0.12500019E+03</pdfrwt>
<totfact> 0.53365222E+03</totfact>
</mgrwt>
</event>
<event>
 5    1  0.3293542E-002  0.1249990E+03  0.7818608E-02  0.1235071E+00
          4   -1    0    0  501    0  0.00000000000E+00  0.00000000000E+00  0.31063413654E+02  0.31089364224E+02  0.12700000000E+01 0. -1.
         -4   -1    0    0    0  501 -0.00000000000E+00 -0.00000000000E+00 -0.12566712794E+03  0.12567354513E+03  0.12700000000E+01 0. -1.
         25    2    1    2    0    0  0.00000000000E+00  0.00000000000E+00 -0.94603714287E+02  0.15676290935E+03  0.12499898796E+03 0.  0.
    9000005    1    3    3    0    0 -0.34523156164E+02 -0.39616626484E+02 -0.48864627491E+01  0.52784495107E+02  0.10000000000E+01 0.  0.
    9000005    1    3    3    0    0  0.34523156164E+02  0.39616626484E+02 -0.89717251538E+02  0.10397841425E+03  0.10000000000E+01 0.  0.
<mgrwt>
<rscale>  0 0.12499899E+03</rscale>
<asrwt>0</asrwt>
<pdfrwt beam="1">  1        4 0.47814766E-02 0.12499899E+03</pdfrwt>
<pdfrwt beam="2">  1       -4 0.19335894E-01 0.12499899E+03</pdfrwt>
<totfact> 0.97972755E+03</totfact>
</mgrwt>
</event>
<event>
 5    1  0.3293542E-002  0.1250011E+03  0.7818608E-02  0.1235068E+00
          4   -1    0    0  501    0  0.00000000000E+00  0.00000000000E+00  0.19091099352E+03  0.19091521770E+03  0.12700000000E+01 0. -1.
         -4   -1    0    0    0  501 -0.00000000000E+00 -0.00000000000E+00 -0.20437290653E+02  0.20476712364E+02  0.12700000000E+01 0. -1.
         25    2    1    2    0    0  0.00000000000E+00  0.00000000000E+00  0.17047370287E+03  0.21139193006E+03  0.12500105889E+03 0.  0.
    9000005    1    3    3    0    0 -0.51494912481E+02  0.35406053064E+02  0.85169716031E+02  0.10564182474E+03  0.10000000000E+01 0.  0.
    9000005    1    3    3    0    0  0.51494912481E+02 -0.35406053064E+02  0.85303986841E+02  0.10575010532E+03  0.10000000000E+01 0.  0.
<mgrwt>
<rscale>  0 0.12500106E+03</rscale>
<asrwt>0</asrwt>
<pdfrwt beam="1">  1        4 0.29374280E-01 0.12500106E+03</pdfrwt>
<pdfrwt beam="2">  1       -4 0.31475559E-02 0.12500106E+03</pdfrwt>
<totfact> 0.88246974E+03</totfact>
</mgrwt>
</event>
<event>
 4    1  0.3293542E-002  0.1250912E+03  0.7818608E-02  0.1234927E+00
          4   -1    0    0  501    0  0.00000000000E+00  0.00000000000E+00  0.36239108921E+01  0.38400039263E+01  0.12700000000E+01 0. -1.
         -4   -1    0    0    0  501 -0.00000000000E+00 -0.00000000000E+00 -0.10480144362E+04  0.10480152057E+04  0.12700000000E+01 0. -1.
    9000005    1    1    2    0    0  0.58980903961E+02  0.71281371426E+01 -0.35797864828E+03  0.36287638391E+03  0.10000000000E+01 0.  0.
    9000005    1    1    2    0    0 -0.58980903961E+02 -0.71281371426E+01 -0.68641187700E+03  0.68897882570E+03  0.10000000000E+01 0.  0.
<mgrwt>
<rscale>  0 0.12509122E+03</rscale>
<asrwt>0</asrwt>
<pdfrwt beam="1">  1        4 0.57420732E-03 0.12509122E+03</pdfrwt>
<pdfrwt beam="2">  1       -4 0.16124944E+00 0.12509122E+03</pdfrwt>
<totfact> 0.28879462E+03</totfact>
</mgrwt>
</event>
<event>
 5    1  0.3293542E-002  0.1249995E+03  0.7818608E-02  0.1235070E+00
          4   -1    0    0  501    0  0.00000000000E+00  0.00000000000E+00  0.27375401609E+03  0.27375696196E+03  0.12700000000E+01 0.  1.
         -4   -1    0    0    0  501 -0.00000000000E+00 -0.00000000000E+00 -0.14237801452E+02  0.14294330701E+02  0.12700000000E+01 0.  1.
         25    2    1    2    0    0  0.00000000000E+00  0.00000000000E+00  0.25951621464E+03  0.28805129266E+03  0.12499952619E+03 0.  0.
    9000005    1    3    3    0    0  0.61573801686E+02 -0.10393588237E+02  0.12417938706E+03  0.13899956799E+03  0.10000000000E+01 0.  0.
    9000005    1    3    3    0    0 -0.61573801686E+02  0.10393588237E+02  0.13533682758E+03  0.14905172468E+03  0.10000000000E+01 0.  0.
<mgrwt>
<rscale>  0 0.12499953E+03</rscale>
<asrwt>0</asrwt>
<pdfrwt beam="1">  1        4 0.42120576E-01 0.12499953E+03</pdfrwt>
<pdfrwt beam="2">  1       -4 0.21950061E-02 0.12499953E+03</pdfrwt>
<totfact> 0.77123343E+03</totfact>
</mgrwt>
</event>
<event>
 5    1  0.3293542E-002  0.1249994E+03  0.7818608E-02  0.1235070E+00
          4   -1    0    0  501    0  0.00000000000E+00  0.00000000000E+00  0.67330151407E+01  0.68517437842E+01  0.12700000000E+01 0.  1.
         -4   -1    0    0    0  501 -0.00000000000E+00 -0.00000000000E+00 -0.57496803803E+03  0.57496944063E+03  0.12700000000E+01 0.  1.
         25    2    1    2    0    0  0.00000000000E+00  0.00000000000E+00 -0.56823502289E+03  0.58182118441E+03  0.12499939757E+03 0.  0.
    9000005    1    3    3    0    0 -0.24282120952E+02  0.34834669486E+02 -0.70708824986E+02  0.82485232175E+02  0.10000000000E+01 0.  0.
    9000005    1    3    3    0    0  0.24282120952E+02 -0.34834669486E+02 -0.49752619790E+03  0.49933595224E+03  0.10000000000E+01 0.  0.
<mgrwt>
<rscale>  0 0.12499940E+03</rscale>
<asrwt>0</asrwt>
<pdfrwt beam="1">  1        4 0.10450898E-02 0.12499940E+03</pdfrwt>
<pdfrwt beam="2">  1       -4 0.88465823E-01 0.12499940E+03</pdfrwt>
<totfact> 0.50036267E+03</totfact>
</mgrwt>
</event>
<event>
 5    1  0.3293542E-002  0.1250027E+03  0.7818608E-02  0.1235065E+00
         -4   -1    0    0    0  501 -0.00000000000E+00  0.00000000000E+00  0.10331218114E+03  0.10331998680E+03  0.12700000000E+01 0.  1.
          4   -1    0    0  501    0  0.00000000000E+00 -0.00000000000E+00 -0.37791919926E+02  0.37813253123E+02  0.12700000000E+01 0.  1.
         25    2    1    2    0    0  0.00000000000E+00  0.00000000000E+00  0.65520261215E+02  0.14113323992E+03  0.12500274709E+03 0.  0.
    9000005    1    3    3    0    0  0.89313981701E+01 -0.20394560954E+02 -0.33167688856E+02  0.39960024697E+02  0.10000000000E+01 0.  0.
    9000005    1    3    3    0    0 -0.89313981701E+01  0.20394560954E+02  0.98687950070E+02  0.10117321522E+03  0.10000000000E+01 0.  0.
<mgrwt>
<rscale>  0 0.12500275E+03</rscale>
<asrwt>0</asrwt>
<pdfrwt beam="2">  1        4 0.58163830E-02 0.12500275E+03</pdfrwt>
<pdfrwt beam="1">  1       -4 0.15896423E-01 0.12500275E+03</pdfrwt>
<totfact> 0.10109527E+04</totfact>
</mgrwt>
</event>
<event>
 5    1  0.3293542E-002  0.1250029E+03  0.7818608E-02  0.1235065E+00
          4   -1    0    0  501    0  0.00000000000E+00  0.00000000000E+00  0.32726774720E+03  0.32727021138E+03  0.12700000000E+01 0. -1.
         -4   -1    0    0    0  501 -0.00000000000E+00 -0.00000000000E+00 -0.11900195822E+02  0.11967771748E+02  0.12700000000E+01 0. -1.
         25    2    1    2    0    0  0.00000000000E+00  0.00000000000E+00  0.31536755137E+03  0.33923798312E+03  0.12500286691E+03 0.  0.
    9000005    1    3    3    0    0  0.57930833371E+02  0.23433082459E+02  0.15610513336E+03  0.16815143018E+03  0.10000000000E+01 0.  0.
    9000005    1    3    3    0    0 -0.57930833371E+02 -0.23433082459E+02  0.15926241801E+03  0.17108655295E+03  0.10000000000E+01 0.  0.
<mgrwt>
<rscale>  0 0.12500287E+03</rscale>
<asrwt>0</asrwt>
<pdfrwt beam="1">  1        4 0.50354263E-01 0.12500287E+03</pdfrwt>
<pdfrwt beam="2">  1       -4 0.18361874E-02 0.12500287E+03</pdfrwt>
<totfact> 0.70920467E+03</totfact>
</mgrwt>
</event>
<event>
 5    1  0.3293542E-002  0.1250003E+03  0.7818608E-02  0.1235069E+00
          4   -1    0    0  501    0  0.00000000000E+00  0.00000000000E+00  0.13425181104E+03  0.13425781790E+03  0.12700000000E+01 0.  1.
         -4   -1    0    0    0  501 -0.00000000000E+00 -0.00000000000E+00 -0.29076044949E+02  0.29103767624E+02  0.12700000000E+01 0.  1.
         25    2    1    2    0    0  0.00000000000E+00  0.00000000000E+00  0.10517576609E+03  0.16336158553E+03  0.12500026341E+03 0.  0.
    9000005    1    3    3    0    0  0.72581903144E+01 -0.27407651555E+01  0.13362637036E+03  0.13385514549E+03  0.10000000000E+01 0.  0.
    9000005    1    3    3    0    0 -0.72581903144E+01  0.27407651555E+01 -0.28450604266E+02  0.29506440032E+02  0.10000000000E+01 0.  0.
<mgrwt>
<rscale>  0 0.12500026E+03</rscale>
<asrwt>0</asrwt>
<pdfrwt beam="1">  1        4 0.20656719E-01 0.12500026E+03</pdfrwt>
<pdfrwt beam="2">  1       -4 0.44758323E-02 0.12500026E+03</pdfrwt>
<totfact> 0.96698012E+03</totfact>
</mgrwt>
</event>
<event>
 5    1  0.3293542E-002  0.1250014E+03  0.7818608E-02  0.1235067E+00
         -4   -1    0    0    0  501 -0.00000000000E+00  0.00000000000E+00  0.11150757159E+02  0.11222846573E+02  0.12700000000E+01 0.  1.
          4   -1    0    0  501    0  0.00000000000E+00 -0.00000000000E+00 -0.34911850087E+03  0.34912081082E+03  0.12700000000E+01 0.  1.
         25    2    1    2    0    0  0.00000000000E+00  0.00000000000E+00 -0.33796774371E+03  0.36034365739E+03  0.12500142254E+03 0.  0.
    9000005    1    3    3    0    0 -0.52758366664E+02  0.20758825927E+01 -0.26535392223E+03  0.27055768070E+03  0.10000000000E+01 0.  0.
    9000005    1    3    3    0    0  0.52758366664E+02 -0.20758825927E+01 -0.72613821480E+02  0.89785976698E+02  0.10000000000E+01 0.  0.
<mgrwt>
<rscale>  0 0.12500142E+03</rscale>
<asrwt>0</asrwt>
<pdfrwt beam="2">  1        4 0.53716253E-01 0.12500142E+03</pdfrwt>
<pdfrwt beam="1">  1       -4 0.17212244E-02 0.12500142E+03</pdfrwt>
<totfact> 0.68599264E+03</totfact>
</mgrwt>
</event>
<event>
 5    1  0.3293542E-002  0.1249907E+03  0.7818608E-02  0.1235084E+00
          4   -1    0    0  501    0  0.00000000000E+00  0.00000000000E+00  0.68753705633E+03  0.68753822928E+03  0.12700000000E+01 0. -1.
         -4   -1    0    0    0  501 -0.00000000000E+00 -0.00000000000E+00 -0.56084924792E+01  0.57504858829E+01  0.12700000000E+01 0. -1.
         25    2    1    2    0    0  0.00000000000E+00  0.00000000000E+00  0.68192856385E+03  0.69328871516E+03  0.12499070518E+03 0.  0.
    9000005    1    3    3    0    0  0.39826607167E+02  0.15712253948E+02  0.88503985052E+02  0.98320846888E+02  0.10000000000E+01 0.  0.
    9000005    1    3    3    0    0 -0.39826607167E+02 -0.15712253948E+02  0.59342457880E+03  0.59496786828E+03  0.10000000000E+01 0.  0.
<mgrwt>
<rscale>  0 0.12499071E+03</rscale>
<asrwt>0</asrwt>
<pdfrwt beam="1">  1        4 0.10578598E+00 0.12499071E+03</pdfrwt>
<pdfrwt beam="2">  1       -4 0.87385752E-03 0.12499071E+03</pdfrwt>
<totfact> 0.43452168E+03</totfact>
</mgrwt>
</event>
<event>
 5    1  0.3293542E-002  0.1249955E+03  0.7818608E-02  0.1235076E+00
          4   -1    0    0  501    0  0.00000000000E+00  0.00000000000E+00  0.99420038244E+02  0.99428149457E+02  0.12700000000E+01 0.  1.
         -4   -1    0    0    0  501 -0.00000000000E+00 -0.00000000000E+00 -0.39267585806E+02  0.39288117734E+02  0.12700000000E+01 0.  1.
         25    2    1    2    0    0  0.00000000000E+00  0.00000000000E+00  0.60152452438E+02  0.13871626719E+03  0.12499554092E+03 0.  0.
    9000005    1    3    3    0    0  0.12379686330E+02  0.39643911168E+01 -0.37756021330E+02  0.39943587435E+02  0.10000000000E+01 0.  0.
    9000005    1    3    3    0    0 -0.12379686330E+02 -0.39643911168E+01  0.97908473768E+02  0.98772679756E+02  0.10000000000E+01 0.  0.
<mgrwt>
<rscale>  0 0.12499554E+03</rscale>
<asrwt>0</asrwt>
<pdfrwt beam="1">  1        4 0.15297594E-01 0.12499554E+03</pdfrwt>
<pdfrwt beam="2">  1       -4 0.60433705E-02 0.12499554E+03</pdfrwt>
<totfact> 0.10161282E+04</totfact>
</mgrwt>
</event>
<event>
 5    1  0.3293542E-002  0.1249996E+03  0.7818608E-02  0.1235070E+00
          4   -1    0    0  501    0  0.00000000000E+00  0.00000000000E+00  0.47531811427E+02  0.47548774932E+02  0.12700000000E+01 0. -1.
         -4   -1    0    0    0  501 -0.00000000000E+00 -0.00000000000E+00 -0.82144795337E+02  0.82154612171E+02  0.12700000000E+01 0. -1.
         25    2    1    2    0    0  0.00000000000E+00  0.00000000000E+00 -0.34612983910E+02  0.12970338710E+03  0.12499963988E+03 0.  0.
    9000005    1    3    3    0    0  0.54422292011E+02 -0.26220218467E+02 -0.70629889619E+00  0.60421722769E+02  0.10000000000E+01 0.  0.
    9000005    1    3    3    0    0 -0.54422292011E+02  0.26220218467E+02 -0.33906685014E+02  0.69281664334E+02  0.10000000000E+01 0.  0.
<mgrwt>
<rscale>  0 0.12499964E+03</rscale>
<asrwt>0</asrwt>
<pdfrwt beam="1">  1        4 0.73146464E-02 0.12499964E+03</pdfrwt>
<pdfrwt beam="2">  1       -4 0.12639721E-01 0.12499964E+03</pdfrwt>
<totfact> 0.10350941E+04</totfact>
</mgrwt>
</event>
<event>
 5    1  0.3293542E-002  0.1249896E+03  0.7818608E-02  0.1235085E+00
         -4   -1    0    0    0  501 -0.00000000000E+00  0.00000000000E+00  0.42011700861E+02  0.42030892320E+02  0.12700000000E+01 0. -1.
          4   -1    0    0  501    0  0.00000000000E+00 -0.00000000000E+00 -0.92919888881E+02  0.92928567457E+02  0.12700000000E+01 0. -1.
         25    2    1    2    0    0  0.00000000000E+00  0.00000000000E+00 -0.50908188020E+02  0.13495945978E+03  0.12498964827E+03 0.  0.
    9000005    1    3    3    0    0 -0.51501710962E+02  0.26751764419E+02 -0.50464584431E+02  0.76913961108E+02  0.10000000000E+01 0.  0.
    9000005    1    3    3    0    0  0.51501710962E+02 -0.26751764419E+02 -0.44360358918E+00  0.58045498669E+02  0.10000000000E+01 0.  0.
<mgrwt>
<rscale>  0 0.12498965E+03</rscale>
<asrwt>0</asrwt>
<pdfrwt beam="2">  1        4 0.14297511E-01 0.12498965E+03</pdfrwt>
<pdfrwt beam="1">  1       -4 0.64654825E-02 0.12498965E+03</pdfrwt>
<totfact> 0.10241316E+04</totfact>
</mgrwt>
</event>
<event>
 5    1  0.3293542E-002  0.1250005E+03  0.7818608E-02  0.1235068E+00
         -4   -1    0    0    0  501 -0.00000000000E+00  0.00000000000E+00  0.39959154140E+03  0.39959355958E+03  0.12700000000E+01 0.  1.
          4   -1    0    0  501    0  0.00000000000E+00 -0.00000000000E+00 -0.97323874155E+01  0.98149001424E+01  0.12700000000E+01 0.  1.
         25    2    1    2    0    0  0.00000000000E+00  0.00000000000E+00  0.38985915399E+03  0.40940845973E+03  0.12500050779E+03 0.  0.
    9000005    1    3    3    0    0  0.49011093879E+02 -0.26197966885E+02  0.28853889933E+03  0.29384369522E+03  0.10000000000E+01 0.  0.
    9000005    1    3    3    0    0 -0.49011093879E+02  0.26197966885E+02  0.10132025465E+03  0.11556476450E+03  0.10000000000E+01 0.  0.
<mgrwt>
<rscale>  0 0.12500051E+03</rscale>
<asrwt>0</asrwt>
<pdfrwt beam="2">  1        4 0.15037928E-02 0.12500051E+03</pdfrwt>
<pdfrwt beam="1">  1       -4 0.61482121E-01 0.12500051E+03</pdfrwt>
<totfact> 0.63647192E+03</totfact>
</mgrwt>
</event>
<event>
 5    1  0.3293542E-002  0.1249977E+03  0.7818608E-02  0.1235073E+00
         -4   -1    0    0    0  501 -0.00000000000E+00  0.00000000000E+00  0.15636776190E+02  0.15688265348E+02  0.12700000000E+01 0.  1.
          4   -1    0    0  501    0  0.00000000000E+00 -0.00000000000E+00 -0.24933892859E+03  0.24934216292E+03  0.12700000000E+01 0.  1.
         25    2    1    2    0    0  0.00000000000E+00  0.00000000000E+00 -0.23370215240E+03  0.26503042827E+03  0.12499772747E+03 0.  0.
    9000005    1    3    3    0    0 -0.30318280662E+02 -0.37776069744E+02 -0.33136759259E+02  0.58696459875E+02  0.10000000000E+01 0.  0.
    9000005    1    3    3    0    0  0.30318280662E+02  0.37776069744E+02 -0.20056539314E+03  0.20633396839E+03  0.10000000000E+01 0.  0.
<mgrwt>
<rscale>  0 0.12499773E+03</rscale>
<asrwt>0</asrwt>
<pdfrwt beam="2">  1        4 0.38364042E-01 0.12499773E+03</pdfrwt>
<pdfrwt beam="1">  1       -4 0.24098676E-02 0.12499773E+03</pdfrwt>
<totfact> 0.80209311E+03</totfact>
</mgrwt>
</event>
<event>
 5    1  0.3293542E-002  0.1249914E+03  0.7818608E-02  0.1235083E+00
         -4   -1    0    0    0  501 -0.00000000000E+00  0.00000000000E+00  0.81552313740E+03  0.81552412628E+03  0.12700000000E+01 0.  1.
          4   -1    0    0  501    0  0.00000000000E+00 -0.00000000000E+00 -0.47040083050E+01  0.48724320553E+01  0.12700000000E+01 0.  1.
         25    2    1    2    0    0  0.00000000000E+00  0.00000000000E+00  0.81081912910E+03  0.82039655833E+03  0.12499141095E+03 0.  0.
    9000005    1    3    3    0    0  0.21004178025E+02  0.55465002756E+02  0.53455979011E+03  0.53784078614E+03  0.10000000000E+01 0.  0.
    9000005    1    3    3    0    0 -0.21004178025E+02 -0.55465002756E+02  0.27625933898E+03  0.28255577220E+03  0.10000000000E+01 0.  0.
<mgrwt>
<rscale>  0 0.12499141E+03</rscale>
<asrwt>0</asrwt>
<pdfrwt beam="2">  1        4 0.73672578E-03 0.12499141E+03</pdfrwt>
<pdfrwt beam="1">  1       -4 0.12547805E+00 0.12499141E+03</pdfrwt>
<totfact> 0.37377264E+03</totfact>
</mgrwt>
</event>
<event>
 5    1  0.3293542E-002  0.1249986E+03  0.7818608E-02  0.1235071E+00
          4   -1    0    0  501    0  0.00000000000E+00  0.00000000000E+00  0.25072899673E+03  0.25073221313E+03  0.12700000000E+01 0. -1.
         -4   -1    0    0    0  501 -0.00000000000E+00 -0.00000000000E+00 -0.15550020521E+02  0.15601795993E+02  0.12700000000E+01 0. -1.
         25    2    1    2    0    0  0.00000000000E+00  0.00000000000E+00  0.23517897621E+03  0.26633400912E+03  0.12499861425E+03 0.  0.
    9000005    1    3    3    0    0 -0.52150897388E+02 -0.50910709980E+01  0.19014361202E+03  0.19723394306E+03  0.10000000000E+01 0.  0.
    9000005    1    3    3    0    0  0.52150897388E+02  0.50910709980E+01  0.45035364182E+02  0.69100066059E+02  0.10000000000E+01 0.  0.
<mgrwt>
<rscale>  0 0.12499861E+03</rscale>
<asrwt>0</asrwt>
<pdfrwt beam="1">  1        4 0.38577919E-01 0.12499861E+03</pdfrwt>
<pdfrwt beam="2">  1       -4 0.23965412E-02 0.12499861E+03</pdfrwt>
<totfact> 0.80027778E+03</totfact>
</mgrwt>
</event>
<event>
 5    1  0.3293542E-002  0.1250013E+03  0.7818608E-02  0.1235067E+00
          4   -1    0    0  501    0  0.00000000000E+00  0.00000000000E+00  0.73485873411E+02  0.73496846810E+02  0.12700000000E+01 0.  1.
         -4   -1    0    0    0  501 -0.00000000000E+00 -0.00000000000E+00 -0.53135081954E+02  0.53150257141E+02  0.12700000000E+01 0.  1.
         25    2    1    2    0    0  0.00000000000E+00  0.00000000000E+00  0.20350791458E+02  0.12664710395E+03  0.12500133690E+03 0.  0.
    9000005    1    3    3    0    0 -0.52156536632E+02  0.28361091346E+02  0.29943241635E+02  0.66500026582E+02  0.10000000000E+01 0.  0.
    9000005    1    3    3    0    0  0.52156536632E+02 -0.28361091346E+02 -0.95924501772E+01  0.60147077370E+02  0.10000000000E+01 0.  0.
<mgrwt>
<rscale>  0 0.12500134E+03</rscale>
<asrwt>0</asrwt>
<pdfrwt beam="1">  1        4 0.11307530E-01 0.12500134E+03</pdfrwt>
<pdfrwt beam="2">  1       -4 0.81766395E-02 0.12500134E+03</pdfrwt>
<totfact> 0.10416508E+04</totfact>
</mgrwt>
</event>
<event>
 5    1  0.3293542E-002  0.1249981E+03  0.7818608E-02  0.1235072E+00
         -4   -1    0    0    0  501 -0.00000000000E+00  0.00000000000E+00  0.47489756880E+03  0.47489926696E+03  0.12700000000E+01 0.  1.
          4   -1    0    0  501    0  0.00000000000E+00 -0.00000000000E+00 -0.81744666530E+01  0.82725331708E+01  0.12700000000E+01 0.  1.
         25    2    1    2    0    0  0.00000000000E+00  0.00000000000E+00  0.46672310215E+03  0.48317180013E+03  0.12499813741E+03 0.  0.
    9000005    1    3    3    0    0 -0.40418315245E+02 -0.11693553711E+02  0.41195765238E+03  0.41410202458E+03  0.10000000000E+01 0.  0.
    9000005    1    3    3    0    0  0.40418315245E+02  0.11693553711E+02  0.54765449766E+02  0.69069775544E+02  0.10000000000E+01 0.  0.
<mgrwt>
<rscale>  0 0.12499814E+03</rscale>
<asrwt>0</asrwt>
<pdfrwt beam="2">  1        4 0.12652849E-02 0.12499814E+03</pdfrwt>
<pdfrwt beam="1">  1       -4 0.73068816E-01 0.12499814E+03</pdfrwt>
<totfact> 0.57196437E+03</totfact>
</mgrwt>
</event>
<event>
 4    1  0.3293542E-002  0.1249287E+03  0.7818608E-02  0.1235181E+00
         -4   -1    0    0    0  501 -0.00000000000E+00  0.00000000000E+00  0.66227555285E+03  0.66227677055E+03  0.12700000000E+01 0. -1.
          4   -1    0    0  501    0  0.00000000000E+00 -0.00000000000E+00 -0.58218147035E+01  0.59587269145E+01  0.12700000000E+01 0. -1.
    9000005    1    1    2    0    0  0.30068059117E+02 -0.47619732505E+02  0.18379910465E+03  0.19223641167E+03  0.10000000000E+01 0.  0.
    9000005    1    1    2    0    0 -0.30068059117E+02  0.47619732505E+02  0.47265463350E+03  0.47599908579E+03  0.10000000000E+01 0.  0.
<mgrwt>
<rscale>  0 0.12492866E+03</rscale>
<asrwt>0</asrwt>
<pdfrwt beam="2">  1        4 0.90628938E-03 0.12492866E+03</pdfrwt>
<pdfrwt beam="1">  1       -4 0.10189915E+00 0.12492866E+03</pdfrwt>
<totfact> 0.44887415E+03</totfact>
</mgrwt>
</event>
<event>
 5    1  0.3293542E-002  0.1250045E+03  0.7818608E-02  0.1235062E+00
          4   -1    0    0  501    0  0.00000000000E+00  0.00000000000E+00  0.87795297838E+01  0.88709099434E+01  0.12700000000E+01 0.  1.
         -4   -1    0    0    0  501 -0.00000000000E+00 -0.00000000000E+00 -0.44256286948E+03  0.44256469170E+03  0.12700000000E+01 0.  1.
         25    2    1    2    0    0  0.00000000000E+00  0.00000000000E+00 -0.43378333970E+03  0.45143560165E+03  0.12500446646E+03 0.  0.
    9000005    1    3    3    0    0  0.76855575598E+01 -0.54898693371E+02 -0.11268701245E+03  0.12558780635E+03  0.10000000000E+01 0.  0.
    9000005    1    3    3    0    0 -0.76855575598E+01  0.54898693371E+02 -0.32109632724E+03  0.32584779529E+03  0.10000000000E+01 0.  0.
<mgrwt>
<rscale>  0 0.12500447E+03</rscale>
<asrwt>0</asrwt>
<pdfrwt beam="1">  1        4 0.13578667E-02 0.12500447E+03</pdfrwt>
<pdfrwt beam="2">  1       -4 0.68093747E-01 0.12500447E+03</pdfrwt>
<totfact> 0.59833751E+03</totfact>
</mgrwt>
</event>
<event>
 5    1  0.3293542E-002  0.1250003E+03  0.7818608E-02  0.1235069E+00
          4   -1    0    0  501    0  0.00000000000E+00  0.00000000000E+00  0.63117776991E+01  0.64382790963E+01  0.12700000000E+01 0.  1.
         -4   -1    0    0    0  501 -0.00000000000E+00 -0.00000000000E+00 -0.61261835858E+03  0.61261967498E+03  0.12700000000E+01 0.  1.
         25    2    1    2    0    0  0.00000000000E+00  0.00000000000E+00 -0.60630658088E+03  0.61905795408E+03  0.12500032193E+03 0.  0.
    9000005    1    3    3    0    0  0.48766076670E+02  0.33426131303E+02 -0.20289415056E+03  0.21133497774E+03  0.10000000000E+01 0.  0.
    9000005    1    3    3    0    0 -0.48766076670E+02 -0.33426131303E+02 -0.40341243033E+03  0.40772297633E+03  0.10000000000E+01 0.  0.
<mgrwt>
<rscale>  0 0.12500032E+03</rscale>
<asrwt>0</asrwt>
<pdfrwt beam="1">  1        4 0.98087535E-03 0.12500032E+03</pdfrwt>
<pdfrwt beam="2">  1       -4 0.94258764E-01 0.12500032E+03</pdfrwt>
<totfact> 0.47685980E+03</totfact>
</mgrwt>
</event>
<event>
 5    1  0.3293542E-002  0.1249906E+03  0.7818608E-02  0.1235084E+00
          4   -1    0    0  501    0  0.00000000000E+00  0.00000000000E+00  0.23563963770E+03  0.23564306006E+03  0.12700000000E+01 0.  1.
         -4   -1    0    0    0  501 -0.00000000000E+00 -0.00000000000E+00 -0.16546853894E+02  0.16595519690E+02  0.12700000000E+01 0.  1.
         25    2    1    2    0    0  0.00000000000E+00  0.00000000000E+00  0.21909278380E+03  0.25223857975E+03  0.12499061244E+03 0.  0.
    9000005    1    3    3    0    0  0.30832759015E+02  0.22151502208E+02  0.93864390215E+01  0.39121008628E+02  0.10000000000E+01 0.  0.
    9000005    1    3    3    0    0 -0.30832759015E+02 -0.22151502208E+02  0.20970634478E+03  0.21311757112E+03  0.10000000000E+01 0.  0.
<mgrwt>
<rscale>  0 0.12499061E+03</rscale>
<asrwt>0</asrwt>
<pdfrwt beam="1">  1        4 0.36256254E-01 0.12499061E+03</pdfrwt>
<pdfrwt beam="2">  1       -4 0.25496770E-02 0.12499061E+03</pdfrwt>
<totfact> 0.82024909E+03</totfact>
</mgrwt>
</event>
<event>
 5    1  0.3293542E-002  0.1249974E+03  0.7818608E-02  0.1235073E+00
          4   -1    0    0  501    0  0.00000000000E+00  0.00000000000E+00  0.20641521288E+04  0.20641525195E+04  0.12700000000E+01 0. -1.
         -4   -1    0    0    0  501 -0.00000000000E+00 -0.00000000000E+00 -0.16788288826E+01  0.21050810951E+01  0.12700000000E+01 0. -1.
         25    2    1    2    0    0  0.00000000000E+00  0.00000000000E+00  0.20624733000E+04  0.20662576006E+04  0.12499743644E+03 0.  0.
    9000005    1    3    3    0    0  0.58620990772E+02 -0.15182512644E+02  0.12863412277E+04  0.12877661602E+04  0.10000000000E+01 0.  0.
    9000005    1    3    3    0    0 -0.58620990772E+02  0.15182512644E+02  0.77613207227E+03  0.77849144045E+03  0.10000000000E+01 0.  0.
<mgrwt>
<rscale>  0 0.12499744E+03</rscale>
<asrwt>0</asrwt>
<pdfrwt beam="1">  1        4 0.31759487E+00 0.12499744E+03</pdfrwt>
<pdfrwt beam="2">  1       -4 0.29109988E-03 0.12499744E+03</pdfrwt>
<totfact> 0.90215705E+02</totfact>
</mgrwt>
</event>
<event>
 5    1  0.3293542E-002  0.1249955E+03  0.7818608E-02  0.1235076E+00
          4   -1    0    0  501    0  0.00000000000E+00  0.00000000000E+00  0.52634418546E+03  0.52634571763E+03  0.12700000000E+01 0. -1.
         -4   -1    0    0    0  501 -0.00000000000E+00 -0.00000000000E+00 -0.73650546280E+01  0.74737493719E+01  0.12700000000E+01 0. -1.
         25    2    1    2    0    0  0.00000000000E+00  0.00000000000E+00  0.51897913084E+03  0.53381946701E+03  0.12499554037E+03 0.  0.
    9000005    1    3    3    0    0  0.30804120455E+02  0.11181340182E+01  0.49163809344E+03  0.49260446505E+03  0.10000000000E+01 0.  0.
    9000005    1    3    3    0    0 -0.30804120455E+02 -0.11181340182E+01  0.27341037394E+02  0.41215001959E+02  0.10000000000E+01 0.  0.
<mgrwt>
<rscale>  0 0.12499554E+03</rscale>
<asrwt>0</asrwt>
<pdfrwt beam="1">  1        4 0.80984522E-01 0.12499554E+03</pdfrwt>
<pdfrwt beam="2">  1       -4 0.11415641E-02 0.12499554E+03</pdfrwt>
<totfact> 0.53337879E+03</totfact>
</mgrwt>
</event>
<event>
 5    1  0.3293542E-002  0.1249974E+03  0.7818608E-02  0.1235073E+00
          4   -1    0    0  501    0  0.00000000000E+00  0.00000000000E+00  0.12056258041E+03  0.12056926928E+03  0.12700000000E+01 0.  1.
         -4   -1    0    0    0  501 -0.00000000000E+00 -0.00000000000E+00 -0.32378824511E+02  0.32403721650E+02  0.12700000000E+01 0.  1.
         25    2    1    2    0    0  0.00000000000E+00  0.00000000000E+00  0.88183755895E+02  0.15297299093E+03  0.12499744457E+03 0.  0.
    9000005    1    3    3    0    0 -0.16621063258E+02 -0.50183657412E+01 -0.29373838408E+02  0.34135994513E+02  0.10000000000E+01 0.  0.
    9000005    1    3    3    0    0  0.16621063258E+02  0.50183657412E+01  0.11755759430E+03  0.11883699642E+03  0.10000000000E+01 0.  0.
<mgrwt>
<rscale>  0 0.12499744E+03</rscale>
<asrwt>0</asrwt>
<pdfrwt beam="1">  1        4 0.18550519E-01 0.12499744E+03</pdfrwt>
<pdfrwt beam="2">  1       -4 0.49837873E-02 0.12499744E+03</pdfrwt>
<totfact> 0.98720020E+03</totfact>
</mgrwt>
</event>
<event>
 5    1  0.3293542E-002  0.1250029E+03  0.7818608E-02  0.1235065E+00
         -4   -1    0    0    0  501 -0.00000000000E+00  0.00000000000E+00  0.52239173703E+03  0.52239328079E+03  0.12700000000E+01 0.  1.
          4   -1    0    0  501    0  0.00000000000E+00 -0.00000000000E+00 -0.74224897943E+01  0.75303555525E+01  0.12700000000E+01 0.  1.
         25    2    1    2    0    0  0.00000000000E+00  0.00000000000E+00  0.51496924724E+03  0.52992363635E+03  0.12500293900E+03 0.  0.
    9000005    1    3    3    0    0  0.90489569511E+01  0.59086077702E+02  0.33477298416E+03  0.34006910934E+03  0.10000000000E+01 0.  0.
    9000005    1    3    3    0    0 -0.90489569511E+01 -0.59086077702E+02  0.18019626308E+03  0.18985452701E+03  0.10000000000E+01 0.  0.
<mgrwt>
<rscale>  0 0.12500294E+03</rscale>
<asrwt>0</asrwt>
<pdfrwt beam="2">  1        4 0.11503378E-02 0.12500294E+03</pdfrwt>
<pdfrwt beam="1">  1       -4 0.80376366E-01 0.12500294E+03</pdfrwt>
<totfact> 0.53611718E+03</totfact>
</mgrwt>
</event>
<event>
 5    1  0.3293542E-002  0.1250279E+03  0.7818608E-02  0.1235026E+00
         -4   -1    0    0    0  501 -0.00000000000E+00  0.00000000000E+00  0.61135292450E+02  0.61148482262E+02  0.12700000000E+01 0. -1.
          4   -1    0    0  501    0  0.00000000000E+00 -0.00000000000E+00 -0.63897351751E+02  0.63909971528E+02  0.12700000000E+01 0. -1.
         25    2    1    2    0    0  0.00000000000E+00  0.00000000000E+00 -0.27620593004E+01  0.12505845379E+03  0.12502794845E+03 0.  0.
    9000005    1    3    3    0    0  0.23783006510E+02  0.51248465615E+02  0.25364236716E+02  0.61938527031E+02  0.10000000000E+01 0.  0.
    9000005    1    3    3    0    0 -0.23783006510E+02 -0.51248465615E+02 -0.28126296016E+02  0.63119926760E+02  0.10000000000E+01 0.  0.
<mgrwt>
<rscale>  0 0.12502795E+03</rscale>
<asrwt>0</asrwt>
<pdfrwt beam="2">  1        4 0.98323471E-02 0.12502795E+03</pdfrwt>
<pdfrwt beam="1">  1       -4 0.94074150E-02 0.12502795E+03</pdfrwt>
<totfact> 0.10444994E+04</totfact>
</mgrwt>
</event>
<event>
 5    1  0.3293542E-002  0.1249978E+03  0.7818608E-02  0.1235073E+00
          4   -1    0    0  501    0  0.00000000000E+00  0.00000000000E+00  0.32448146817E+03  0.32448395351E+03  0.12700000000E+01 0.  1.
         -4   -1    0    0    0  501 -0.00000000000E+00 -0.00000000000E+00 -0.12001980666E+02  0.12068986697E+02  0.12700000000E+01 0.  1.
         25    2    1    2    0    0  0.00000000000E+00  0.00000000000E+00  0.31247948750E+03  0.33655294021E+03  0.12499780579E+03 0.  0.
    9000005    1    3    3    0    0 -0.29308482794E+02 -0.43423924502E+02  0.24796130032E+03  0.25343723255E+03  0.10000000000E+01 0.  0.
    9000005    1    3    3    0    0  0.29308482794E+02  0.43423924502E+02  0.64518187180E+02  0.83115707660E+02  0.10000000000E+01 0.  0.
<mgrwt>
<rscale>  0 0.12499781E+03</rscale>
<asrwt>0</asrwt>
<pdfrwt beam="1">  1        4 0.49925564E-01 0.12499781E+03</pdfrwt>
<pdfrwt beam="2">  1       -4 0.18518043E-02 0.12499781E+03</pdfrwt>
<totfact> 0.71233144E+03</totfact>
</mgrwt>
</event>
<event>
 4    1  0.3293542E-002  0.1250879E+03  0.7818608E-02  0.1234932E+00
          4   -1    0    0  501    0  0.00000000000E+00  0.00000000000E+00  0.11469476626E+02  0.11539575126E+02  0.12700000000E+01 0.  1.
         -4   -1    0    0    0  501 -0.00000000000E+00 -0.00000000000E+00 -0.33994668825E+03  0.33994906053E+03  0.12700000000E+01 0.  1.
    9000005    1    1    2    0    0  0.34885695864E+02  0.48524783750E+02 -0.21598100501E+03  0.22409922119E+03  0.10000000000E+01 0.  0.
    9000005    1    1    2    0    0 -0.34885695864E+02 -0.48524783750E+02 -0.11249620662E+03  0.12738941446E+03  0.10000000000E+01 0.  0.
<mgrwt>
<rscale>  0 0.12508790E+03</rscale>
<asrwt>0</asrwt>
<pdfrwt beam="1">  1        4 0.17701098E-02 0.12508790E+03</pdfrwt>
<pdfrwt beam="2">  1       -4 0.52305057E-01 0.12508790E+03</pdfrwt>
<totfact> 0.69425973E+03</totfact>
</mgrwt>
</event>
<event>
 5    1  0.3293542E-002  0.1249968E+03  0.7818608E-02  0.1235074E+00
         -4   -1    0    0    0  501 -0.00000000000E+00  0.00000000000E+00  0.20894754149E+02  0.20933314381E+02  0.12700000000E+01 0.  1.
          4   -1    0    0  501    0  0.00000000000E+00 -0.00000000000E+00 -0.18672621995E+03  0.18673053879E+03  0.12700000000E+01 0.  1.
         25    2    1    2    0    0  0.00000000000E+00  0.00000000000E+00 -0.16583146580E+03  0.20766385317E+03  0.12499680342E+03 0.  0.
    9000005    1    3    3    0    0 -0.11651510086E+02  0.51727023812E+02 -0.13785625073E+03  0.14770507285E+03  0.10000000000E+01 0.  0.
    9000005    1    3    3    0    0  0.11651510086E+02 -0.51727023812E+02 -0.27975215073E+02  0.59958780325E+02  0.10000000000E+01 0.  0.
<mgrwt>
<rscale>  0 0.12499680E+03</rscale>
<asrwt>0</asrwt>
<pdfrwt beam="2">  1        4 0.28730408E-01 0.12499680E+03</pdfrwt>
<pdfrwt beam="1">  1       -4 0.32178761E-02 0.12499680E+03</pdfrwt>
<totfact> 0.88865183E+03</totfact>
</mgrwt>
</event>
<event>
 5    1  0.3293542E-002  0.1249982E+03  0.7818608E-02  0.1235072E+00
          4   -1    0    0  501    0  0.00000000000E+00  0.00000000000E+00  0.10159730934E+02  0.10238800352E+02  0.12700000000E+01 0. -1.
         -4   -1    0    0    0  501 -0.00000000000E+00 -0.00000000000E+00 -0.38290187771E+03  0.38290398385E+03  0.12700000000E+01 0. -1.
         25    2    1    2    0    0  0.00000000000E+00  0.00000000000E+00 -0.37274214677E+03  0.39314278420E+03  0.12499816315E+03 0.  0.
    9000005    1    3    3    0    0 -0.85876581882E+01  0.47932085394E+01  0.77258571652E+01  0.12546377573E+02  0.10000000000E+01 0.  0.
    9000005    1    3    3    0    0  0.85876581882E+01 -0.47932085394E+01 -0.38046800394E+03  0.38059640663E+03  0.10000000000E+01 0.  0.
<mgrwt>
<rscale>  0 0.12499816E+03</rscale>
<asrwt>0</asrwt>
<pdfrwt beam="1">  1        4 0.15692801E-02 0.12499816E+03</pdfrwt>
<pdfrwt beam="2">  1       -4 0.58914214E-01 0.12499816E+03</pdfrwt>
<totfact> 0.65227873E+03</totfact>
</mgrwt>
</event>
<event>
 5    1  0.3293542E-002  0.1250130E+03  0.7818608E-02  0.1235049E+00
          4   -1    0    0  501    0  0.00000000000E+00  0.00000000000E+00  0.85369160909E+02  0.85378607006E+02  0.12700000000E+01 0.  1.
         -4   -1    0    0    0  501 -0.00000000000E+00 -0.00000000000E+00 -0.45745863996E+02  0.45763489516E+02  0.12700000000E+01 0.  1.
         25    2    1    2    0    0  0.00000000000E+00  0.00000000000E+00  0.39623296913E+02  0.13114209652E+03  0.12501297461E+03 0.  0.
    9000005    1    3    3    0    0 -0.58950739729E+01 -0.56909972998E+02  0.46195565946E+02  0.73542689893E+02  0.10000000000E+01 0.  0.
    9000005    1    3    3    0    0  0.58950739729E+01  0.56909972998E+02 -0.65722690324E+01  0.57599406629E+02  0.10000000000E+01 0.  0.
<mgrwt>
<rscale>  0 0.12501297E+03</rscale>
<asrwt>0</asrwt>
<pdfrwt beam="1">  1        4 0.13135799E-01 0.12501297E+03</pdfrwt>
<pdfrwt beam="2">  1       -4 0.70399077E-02 0.12501297E+03</pdfrwt>
<totfact> 0.10317024E+04</totfact>
</mgrwt>
</event>
<event>
 5    1  0.3293542E-002  0.1250016E+03  0.7818608E-02  0.1235067E+00
         -4   -1    0    0    0  501 -0.00000000000E+00  0.00000000000E+00  0.29389114679E+03  0.29389389082E+03  0.12700000000E+01 0.  1.
          4   -1    0    0  501    0  0.00000000000E+00 -0.00000000000E+00 -0.13258666996E+02  0.13319352480E+02  0.12700000000E+01 0.  1.
         25    2    1    2    0    0  0.00000000000E+00  0.00000000000E+00  0.28063247980E+03  0.30721324330E+03  0.12500155257E+03 0.  0.
    9000005    1    3    3    0    0  0.52059713335E+02 -0.33274252232E+02  0.16336570077E+03  0.17466179262E+03  0.10000000000E+01 0.  0.
    9000005    1    3    3    0    0 -0.52059713335E+02  0.33274252232E+02  0.11726677903E+03  0.13255145068E+03  0.10000000000E+01 0.  0.
<mgrwt>
<rscale>  0 0.12500155E+03</rscale>
<asrwt>0</asrwt>
<pdfrwt beam="2">  1        4 0.20446741E-02 0.12500155E+03</pdfrwt>
<pdfrwt beam="1">  1       -4 0.45218901E-01 0.12500155E+03</pdfrwt>
<totfact> 0.74700266E+03</totfact>
</mgrwt>
</event>
<event>
 5    1  0.3293542E-002  0.1250011E+03  0.7818608E-02  0.1235068E+00
          4   -1    0    0  501    0  0.00000000000E+00  0.00000000000E+00  0.12748371218E+03  0.12749003793E+03  0.12700000000E+01 0.  1.
         -4   -1    0    0    0  501 -0.00000000000E+00 -0.00000000000E+00 -0.30621463756E+02  0.30647788543E+02  0.12700000000E+01 0.  1.
         25    2    1    2    0    0  0.00000000000E+00  0.00000000000E+00  0.96862248426E+02  0.15813782647E+03  0.12500110796E+03 0.  0.
    9000005    1    3    3    0    0  0.39314496882E+02  0.25252939369E+02 -0.40660325128E+01  0.46913465361E+02  0.10000000000E+01 0.  0.
    9000005    1    3    3    0    0 -0.39314496882E+02 -0.25252939369E+02  0.10092828094E+03  0.11122436111E+03  0.10000000000E+01 0.  0.
<mgrwt>
<rscale>  0 0.12500111E+03</rscale>
<asrwt>0</asrwt>
<pdfrwt beam="1">  1        4 0.19615390E-01 0.12500111E+03</pdfrwt>
<pdfrwt beam="2">  1       -4 0.47135060E-02 0.12500111E+03</pdfrwt>
<totfact> 0.97700569E+03</totfact>
</mgrwt>
</event>
<event>
 5    1  0.3293542E-002  0.1249978E+03  0.7818608E-02  0.1235073E+00
         -4   -1    0    0    0  501 -0.00000000000E+00  0.00000000000E+00  0.13001190294E+02  0.13063071961E+02  0.12700000000E+01 0. -1.
          4   -1    0    0  501    0  0.00000000000E+00 -0.00000000000E+00 -0.29966599973E+03  0.29966869089E+03  0.12700000000E+01 0. -1.
         25    2    1    2    0    0  0.00000000000E+00  0.00000000000E+00 -0.28666480944E+03  0.31273176285E+03  0.12499777007E+03 0.  0.
    9000005    1    3    3    0    0 -0.16440096052E+02  0.50196856088E+02 -0.59785861084E+02  0.79783145494E+02  0.10000000000E+01 0.  0.
    9000005    1    3    3    0    0  0.16440096052E+02 -0.50196856088E+02 -0.22687894836E+03  0.23294861735E+03  0.10000000000E+01 0.  0.
<mgrwt>
<rscale>  0 0.12499777E+03</rscale>
<asrwt>0</asrwt>
<pdfrwt beam="2">  1        4 0.46107423E-01 0.12499777E+03</pdfrwt>
<pdfrwt beam="1">  1       -4 0.20051505E-02 0.12499777E+03</pdfrwt>
<totfact> 0.74032670E+03</totfact>
</mgrwt>
</event>
<event>
 5    1  0.3293542E-002  0.1249990E+03  0.7818608E-02  0.1235071E+00
          4   -1    0    0  501    0  0.00000000000E+00  0.00000000000E+00  0.11042552128E+03  0.11043282415E+03  0.12700000000E+01 0. -1.
         -4   -1    0    0    0  501 -0.00000000000E+00 -0.00000000000E+00 -0.35354107324E+02  0.35376910616E+02  0.12700000000E+01 0. -1.
         25    2    1    2    0    0  0.00000000000E+00  0.00000000000E+00  0.75071413955E+02  0.14580973477E+03  0.12499904623E+03 0.  0.
    9000005    1    3    3    0    0 -0.15600536883E+02  0.59085819024E+02  0.52775205136E+02  0.80751055955E+02  0.10000000000E+01 0.  0.
    9000005    1    3    3    0    0  0.15600536883E+02 -0.59085819024E+02  0.22296208819E+02  0.65058678810E+02  0.10000000000E+01 0.  0.
<mgrwt>
<rscale>  0 0.12499905E+03</rscale>
<asrwt>0</asrwt>
<pdfrwt beam="1">  1        4 0.16990858E-01 0.12499905E+03</pdfrwt>
<pdfrwt beam="2">  1       -4 0.54414093E-02 0.12499905E+03</pdfrwt>
<totfact> 0.10014777E+04</totfact>
</mgrwt>
</event>
<event>
 5    1  0.3293542E-002  0.1250006E+03  0.7818608E-02  0.1235068E+00
         -4   -1    0    0    0  501 -0.00000000000E+00  0.00000000000E+00  0.95983895752E+01  0.96820443315E+01  0.12700000000E+01 0.  1.
          4   -1    0    0  501    0  0.00000000000E+00 -0.00000000000E+00 -0.40512298073E+03  0.40512497135E+03  0.12700000000E+01 0.  1.
         25    2    1    2    0    0  0.00000000000E+00  0.00000000000E+00 -0.39552459115E+03  0.41480701569E+03  0.12500063222E+03 0.  0.
    9000005    1    3    3    0    0 -0.31136412768E+02  0.32773818269E+02 -0.54580572682E+02  0.70877628898E+02  0.10000000000E+01 0.  0.
    9000005    1    3    3    0    0  0.31136412768E+02 -0.32773818269E+02 -0.34094401847E+03  0.34392938679E+03  0.10000000000E+01 0.  0.
<mgrwt>
<rscale>  0 0.12500063E+03</rscale>
<asrwt>0</asrwt>
<pdfrwt beam="2">  1        4 0.62333187E-01 0.12500063E+03</pdfrwt>
<pdfrwt beam="1">  1       -4 0.14832637E-02 0.12500063E+03</pdfrwt>
<totfact> 0.63136836E+03</totfact>
</mgrwt>
</event>
<event>
 5    1  0.3293542E-002  0.1250004E+03  0.7818608E-02  0.1235069E+00
          4   -1    0    0  501    0  0.00000000000E+00  0.00000000000E+00  0.29308587739E+03  0.29308862896E+03  0.12700000000E+01 0.  1.
         -4   -1    0    0    0  501 -0.00000000000E+00 -0.00000000000E+00 -0.13295025803E+02  0.13355546080E+02  0.12700000000E+01 0.  1.
         25    2    1    2    0    0  0.00000000000E+00  0.00000000000E+00  0.27979085159E+03  0.30644417504E+03  0.12500044714E+03 0.  0.
    9000005    1    3    3    0    0 -0.16396409112E+02 -0.40904399096E+02  0.24852031841E+03  0.25239920911E+03  0.10000000000E+01 0.  0.
    9000005    1    3    3    0    0  0.16396409112E+02  0.40904399096E+02  0.31270533179E+02  0.54044965931E+02  0.10000000000E+01 0.  0.
<mgrwt>
<rscale>  0 0.12500045E+03</rscale>
<asrwt>0</asrwt>
<pdfrwt beam="1">  1        4 0.45094996E-01 0.12500045E+03</pdfrwt>
<pdfrwt beam="2">  1       -4 0.20502559E-02 0.12500045E+03</pdfrwt>
<totfact> 0.74796799E+03</totfact>
</mgrwt>
</event>
