<event>
 5    1  0.3227866E-002  0.1250082E+03  0.7818608E-02  0.1235057E+00
         -4   -1    0    0    0  501 -0.00000000000E+00  0.00000000000E+00  0.85952317016E+03  0.85952410841E+03  0.12700000000E+01 0.  1.
          4   -1    0    0  501    0  0.00000000000E+00 -0.00000000000E+00 -0.44555919353E+01  0.46330550929E+01  0.12700000000E+01 0.  1.
         25    2    1    2    0    0  0.00000000000E+00  0.00000000000E+00  0.85506757822E+03  0.86415716350E+03  0.12500815936E+03 0.  0.
    9000005    1    3    3    0    0  0.37202503105E+02  0.99506956679E+01  0.76778975808E+03  0.76875558872E+03  0.10000000000E+01 0.  0.
    9000005    1    3    3    0    0 -0.37202503105E+02 -0.99506956679E+01  0.87277820143E+02  0.95401574779E+02  0.10000000000E+01 0.  0.
<mgrwt>
<rscale>  0 0.12500816E+03</rscale>
<asrwt>0</asrwt>
<pdfrwt beam="2">  1        4 0.69919828E-03 0.12500816E+03</pdfrwt>
<pdfrwt beam="1">  1       -4 0.13224817E+00 0.12500816E+03</pdfrwt>
<totfact> 0.35548539E+03</totfact>
</mgrwt>
</event>
<event>
 5    1  0.3227866E-002  0.1249998E+03  0.7818608E-02  0.1235070E+00
         -4   -1    0    0    0  501 -0.00000000000E+00  0.00000000000E+00  0.22504184605E+04  0.22504188189E+04  0.12700000000E+01 0. -1.
          4   -1    0    0  501    0  0.00000000000E+00 -0.00000000000E+00 -0.15030740105E+01  0.19677732291E+01  0.12700000000E+01 0. -1.
         25    2    1    2    0    0  0.00000000000E+00  0.00000000000E+00  0.22489153865E+04  0.22523865921E+04  0.12499977845E+03 0.  0.
    9000005    1    3    3    0    0  0.35479066889E+02 -0.35474500979E+02  0.17957835731E+04  0.17964845799E+04  0.10000000000E+01 0.  0.
    9000005    1    3    3    0    0 -0.35479066889E+02  0.35474500979E+02  0.45313181335E+03  0.45590201214E+03  0.10000000000E+01 0.  0.
<mgrwt>
<rscale>  0 0.12499978E+03</rscale>
<asrwt>0</asrwt>
<pdfrwt beam="2">  1        4 0.26701431E-03 0.12499978E+03</pdfrwt>
<pdfrwt beam="1">  1       -4 0.34625594E+00 0.12499978E+03</pdfrwt>
<totfact> 0.69161010E+02</totfact>
</mgrwt>
</event>
<event>
 5    1  0.3227866E-002  0.1249932E+03  0.7818608E-02  0.1235080E+00
         -4   -1    0    0    0  501 -0.00000000000E+00  0.00000000000E+00  0.54226511629E+02  0.54241381467E+02  0.12700000000E+01 0.  1.
          4   -1    0    0  501    0  0.00000000000E+00 -0.00000000000E+00 -0.71997659077E+02  0.72008859265E+02  0.12700000000E+01 0.  1.
         25    2    1    2    0    0  0.00000000000E+00  0.00000000000E+00 -0.17771147448E+02  0.12625024073E+03  0.12499323823E+03 0.  0.
    9000005    1    3    3    0    0  0.28419559582E+02 -0.13341214873E+02  0.45687101200E+02  0.55443399942E+02  0.10000000000E+01 0.  0.
    9000005    1    3    3    0    0 -0.28419559582E+02  0.13341214873E+02 -0.63458248648E+02  0.70806840789E+02  0.10000000000E+01 0.  0.
<mgrwt>
<rscale>  0 0.12499324E+03</rscale>
<asrwt>0</asrwt>
<pdfrwt beam="2">  1        4 0.11078568E-01 0.12499324E+03</pdfrwt>
<pdfrwt beam="1">  1       -4 0.83445456E-02 0.12499324E+03</pdfrwt>
<totfact> 0.10427072E+04</totfact>
</mgrwt>
</event>
<event>
 5    1  0.3227866E-002  0.1249997E+03  0.7818608E-02  0.1235070E+00
          4   -1    0    0  501    0  0.00000000000E+00  0.00000000000E+00  0.48842614228E+02  0.48859122635E+02  0.12700000000E+01 0. -1.
         -4   -1    0    0    0  501 -0.00000000000E+00 -0.00000000000E+00 -0.79940865337E+02  0.79950952783E+02  0.12700000000E+01 0. -1.
         25    2    1    2    0    0  0.00000000000E+00  0.00000000000E+00 -0.31098251109E+02  0.12881007542E+03  0.12499973723E+03 0.  0.
    9000005    1    3    3    0    0 -0.25436886731E+02  0.47087533282E+02  0.17698320757E+02  0.56378201060E+02  0.10000000000E+01 0.  0.
    9000005    1    3    3    0    0  0.25436886731E+02 -0.47087533282E+02 -0.48796571866E+02  0.72431874358E+02  0.10000000000E+01 0.  0.
<mgrwt>
<rscale>  0 0.12499974E+03</rscale>
<asrwt>0</asrwt>
<pdfrwt beam="1">  1        4 0.75162941E-02 0.12499974E+03</pdfrwt>
<pdfrwt beam="2">  1       -4 0.12300641E-01 0.12499974E+03</pdfrwt>
<totfact> 0.10370091E+04</totfact>
</mgrwt>
</event>
<event>
 5    1  0.3227866E-002  0.1249907E+03  0.7818608E-02  0.1235084E+00
         -4   -1    0    0    0  501 -0.00000000000E+00  0.00000000000E+00  0.39727258382E+03  0.39727461378E+03  0.12700000000E+01 0.  1.
          4   -1    0    0  501    0  0.00000000000E+00 -0.00000000000E+00 -0.97881226650E+01  0.98701694669E+01  0.12700000000E+01 0.  1.
         25    2    1    2    0    0  0.00000000000E+00  0.00000000000E+00  0.38748446115E+03  0.40714478325E+03  0.12499066721E+03 0.  0.
    9000005    1    3    3    0    0  0.57956672120E+01  0.51511783634E+02  0.80077442628E+02  0.95396281004E+02  0.10000000000E+01 0.  0.
    9000005    1    3    3    0    0 -0.57956672120E+01 -0.51511783634E+02  0.30740701852E+03  0.31174850224E+03  0.10000000000E+01 0.  0.
<mgrwt>
<rscale>  0 0.12499067E+03</rscale>
<asrwt>0</asrwt>
<pdfrwt beam="2">  1        4 0.15123324E-02 0.12499067E+03</pdfrwt>
<pdfrwt beam="1">  1       -4 0.61125331E-01 0.12499067E+03</pdfrwt>
<totfact> 0.63876929E+03</totfact>
</mgrwt>
</event>
<event>
 5    1  0.3227866E-002  0.1249990E+03  0.7818608E-02  0.1235071E+00
         -4   -1    0    0    0  501 -0.00000000000E+00  0.00000000000E+00  0.28251902225E+03  0.28252187673E+03  0.12700000000E+01 0. -1.
          4   -1    0    0  501    0  0.00000000000E+00 -0.00000000000E+00 -0.13794180375E+02  0.13852520068E+02  0.12700000000E+01 0. -1.
         25    2    1    2    0    0  0.00000000000E+00  0.00000000000E+00  0.26872484187E+03  0.29637439680E+03  0.12499896975E+03 0.  0.
    9000005    1    3    3    0    0 -0.31042548966E+02 -0.50411482946E+02  0.86928604828E+02  0.10517860902E+03  0.10000000000E+01 0.  0.
    9000005    1    3    3    0    0  0.31042548966E+02  0.50411482946E+02  0.18179623704E+03  0.19119578777E+03  0.10000000000E+01 0.  0.
<mgrwt>
<rscale>  0 0.12499897E+03</rscale>
<asrwt>0</asrwt>
<pdfrwt beam="2">  1        4 0.21268890E-02 0.12499897E+03</pdfrwt>
<pdfrwt beam="1">  1       -4 0.43469170E-01 0.12499897E+03</pdfrwt>
<totfact> 0.76057630E+03</totfact>
</mgrwt>
</event>
<event>
 5    1  0.3227866E-002  0.1249981E+03  0.7818608E-02  0.1235072E+00
         -4   -1    0    0    0  501 -0.00000000000E+00  0.00000000000E+00  0.62199685835E+01  0.63482997077E+01  0.12700000000E+01 0. -1.
          4   -1    0    0  501    0  0.00000000000E+00 -0.00000000000E+00 -0.62145690017E+03  0.62145819784E+03  0.12700000000E+01 0. -1.
         25    2    1    2    0    0  0.00000000000E+00  0.00000000000E+00 -0.61523693159E+03  0.62780649755E+03  0.12499806551E+03 0.  0.
    9000005    1    3    3    0    0 -0.43640855005E+02  0.30853458751E+01 -0.53173168312E+03  0.53352940540E+03  0.10000000000E+01 0.  0.
    9000005    1    3    3    0    0  0.43640855005E+02 -0.30853458751E+01 -0.83505248463E+02  0.94277092157E+02  0.10000000000E+01 0.  0.
<mgrwt>
<rscale>  0 0.12499807E+03</rscale>
<asrwt>0</asrwt>
<pdfrwt beam="2">  1        4 0.95618676E-01 0.12499807E+03</pdfrwt>
<pdfrwt beam="1">  1       -4 0.96689018E-03 0.12499807E+03</pdfrwt>
<totfact> 0.47160163E+03</totfact>
</mgrwt>
</event>
<event>
 5    1  0.3227866E-002  0.1250022E+03  0.7818608E-02  0.1235066E+00
          4   -1    0    0  501    0  0.00000000000E+00  0.00000000000E+00  0.37447055828E+02  0.37468585378E+02  0.12700000000E+01 0.  1.
         -4   -1    0    0    0  501 -0.00000000000E+00 -0.00000000000E+00 -0.10426224998E+03  0.10426998451E+03  0.12700000000E+01 0.  1.
         25    2    1    2    0    0  0.00000000000E+00  0.00000000000E+00 -0.66815194149E+02  0.14173856989E+03  0.12500220808E+03 0.  0.
    9000005    1    3    3    0    0 -0.32985113474E+02  0.13170577442E+02  0.24895735894E+02  0.43385245035E+02  0.10000000000E+01 0.  0.
    9000005    1    3    3    0    0  0.32985113474E+02 -0.13170577442E+02 -0.91710930042E+02  0.98353324856E+02  0.10000000000E+01 0.  0.
<mgrwt>
<rscale>  0 0.12500221E+03</rscale>
<asrwt>0</asrwt>
<pdfrwt beam="1">  1        4 0.57633366E-02 0.12500221E+03</pdfrwt>
<pdfrwt beam="2">  1       -4 0.16042597E-01 0.12500221E+03</pdfrwt>
<totfact> 0.10097177E+04</totfact>
</mgrwt>
</event>
<event>
 5    1  0.3227866E-002  0.1250022E+03  0.7818608E-02  0.1235066E+00
          4   -1    0    0  501    0  0.00000000000E+00  0.00000000000E+00  0.18735541177E+02  0.18778535704E+02  0.12700000000E+01 0. -1.
         -4   -1    0    0    0  501 -0.00000000000E+00 -0.00000000000E+00 -0.20821771528E+03  0.20822158835E+03  0.12700000000E+01 0. -1.
         25    2    1    2    0    0  0.00000000000E+00  0.00000000000E+00 -0.18948217410E+03  0.22700012406E+03  0.12500224806E+03 0.  0.
    9000005    1    3    3    0    0 -0.29850934004E+02 -0.31265737279E+02 -0.12785450004E+02  0.45089825020E+02  0.10000000000E+01 0.  0.
    9000005    1    3    3    0    0  0.29850934004E+02  0.31265737279E+02 -0.17669672410E+03  0.18191029904E+03  0.10000000000E+01 0.  0.
<mgrwt>
<rscale>  0 0.12500225E+03</rscale>
<asrwt>0</asrwt>
<pdfrwt beam="1">  1        4 0.28859963E-02 0.12500225E+03</pdfrwt>
<pdfrwt beam="2">  1       -4 0.32037098E-01 0.12500225E+03</pdfrwt>
<totfact> 0.85768067E+03</totfact>
</mgrwt>
</event>
<event>
 5    1  0.3227866E-002  0.1249997E+03  0.7818608E-02  0.1235070E+00
         -4   -1    0    0    0  501 -0.00000000000E+00  0.00000000000E+00  0.70690750595E+01  0.71822504967E+01  0.12700000000E+01 0. -1.
          4   -1    0    0  501    0  0.00000000000E+00 -0.00000000000E+00 -0.54807765344E+03  0.54807912485E+03  0.12700000000E+01 0. -1.
         25    2    1    2    0    0  0.00000000000E+00  0.00000000000E+00 -0.54100857838E+03  0.55526137535E+03  0.12499965230E+03 0.  0.
    9000005    1    3    3    0    0 -0.81299245394E+01 -0.59369084854E+02 -0.34927423808E+03  0.35437872015E+03  0.10000000000E+01 0.  0.
    9000005    1    3    3    0    0  0.81299245394E+01  0.59369084854E+02 -0.19173434030E+03  0.20088265520E+03  0.10000000000E+01 0.  0.
<mgrwt>
<rscale>  0 0.12499965E+03</rscale>
<asrwt>0</asrwt>
<pdfrwt beam="2">  1        4 0.84328425E-01 0.12499965E+03</pdfrwt>
<pdfrwt beam="1">  1       -4 0.10963694E-02 0.12499965E+03</pdfrwt>
<totfact> 0.51819576E+03</totfact>
</mgrwt>
</event>
<event>
 5    1  0.3227866E-002  0.1250108E+03  0.7818608E-02  0.1235052E+00
          4   -1    0    0  501    0  0.00000000000E+00  0.00000000000E+00  0.73699389645E+02  0.73710331257E+02  0.12700000000E+01 0. -1.
         -4   -1    0    0    0  501 -0.00000000000E+00 -0.00000000000E+00 -0.52989108291E+02  0.53004325271E+02  0.12700000000E+01 0. -1.
         25    2    1    2    0    0  0.00000000000E+00  0.00000000000E+00  0.20710281354E+02  0.12671465653E+03  0.12501075324E+03 0.  0.
    9000005    1    3    3    0    0  0.26737328504E+02  0.53719170631E+02  0.28065786608E+02  0.66251961531E+02  0.10000000000E+01 0.  0.
    9000005    1    3    3    0    0 -0.26737328504E+02 -0.53719170631E+02 -0.73555052538E+01  0.60462694997E+02  0.10000000000E+01 0.  0.
<mgrwt>
<rscale>  0 0.12501075E+03</rscale>
<asrwt>0</asrwt>
<pdfrwt beam="1">  1        4 0.11340380E-01 0.12501075E+03</pdfrwt>
<pdfrwt beam="2">  1       -4 0.81541827E-02 0.12501075E+03</pdfrwt>
<totfact> 0.10412823E+04</totfact>
</mgrwt>
</event>
<event>
 5    1  0.3227866E-002  0.1249887E+03  0.7818608E-02  0.1235087E+00
          4   -1    0    0  501    0  0.00000000000E+00  0.00000000000E+00  0.21799252693E+04  0.21799256392E+04  0.12700000000E+01 0.  1.
         -4   -1    0    0    0  501 -0.00000000000E+00 -0.00000000000E+00 -0.15661124623E+01  0.20163353502E+01  0.12700000000E+01 0.  1.
         25    2    1    2    0    0  0.00000000000E+00  0.00000000000E+00  0.21783591568E+04  0.21819419746E+04  0.12498865675E+03 0.  0.
    9000005    1    3    3    0    0 -0.17523453217E+02  0.46331839686E+02  0.42424195863E+03  0.42712521612E+03  0.10000000000E+01 0.  0.
    9000005    1    3    3    0    0  0.17523453217E+02 -0.46331839686E+02  0.17541171982E+04  0.17548167585E+04  0.10000000000E+01 0.  0.
<mgrwt>
<rscale>  0 0.12498866E+03</rscale>
<asrwt>0</asrwt>
<pdfrwt beam="1">  1        4 0.33540800E+00 0.12498866E+03</pdfrwt>
<pdfrwt beam="2">  1       -4 0.27560119E-03 0.12498866E+03</pdfrwt>
<totfact> 0.76714089E+02</totfact>
</mgrwt>
</event>
<event>
 5    1  0.3227866E-002  0.1249939E+03  0.7818608E-02  0.1235079E+00
          4   -1    0    0  501    0  0.00000000000E+00  0.00000000000E+00  0.93724580051E+02  0.93733184123E+02  0.12700000000E+01 0. -1.
         -4   -1    0    0    0  501 -0.00000000000E+00 -0.00000000000E+00 -0.41653731077E+02  0.41673087390E+02  0.12700000000E+01 0. -1.
         25    2    1    2    0    0  0.00000000000E+00  0.00000000000E+00  0.52070848974E+02  0.13540627151E+03  0.12499394006E+03 0.  0.
    9000005    1    3    3    0    0  0.19992103936E+02  0.46425330204E+02 -0.13765826336E+02  0.52397456799E+02  0.10000000000E+01 0.  0.
    9000005    1    3    3    0    0 -0.19992103936E+02 -0.46425330204E+02  0.65836675310E+02  0.83008814714E+02  0.10000000000E+01 0.  0.
<mgrwt>
<rscale>  0 0.12499394E+03</rscale>
<asrwt>0</asrwt>
<pdfrwt beam="1">  1        4 0.14421317E-01 0.12499394E+03</pdfrwt>
<pdfrwt beam="2">  1       -4 0.64104171E-02 0.12499394E+03</pdfrwt>
<totfact> 0.10230913E+04</totfact>
</mgrwt>
</event>
<event>
 5    1  0.3227866E-002  0.1250048E+03  0.7818608E-02  0.1235062E+00
          4   -1    0    0  501    0  0.00000000000E+00  0.00000000000E+00  0.17055751332E+02  0.17102969143E+02  0.12700000000E+01 0.  1.
         -4   -1    0    0    0  501 -0.00000000000E+00 -0.00000000000E+00 -0.22868039005E+03  0.22868391656E+03  0.12700000000E+01 0.  1.
         25    2    1    2    0    0  0.00000000000E+00  0.00000000000E+00 -0.21162463871E+03  0.24578688570E+03  0.12500482179E+03 0.  0.
    9000005    1    3    3    0    0 -0.60672910806E+02  0.74122200267E+01 -0.80220613951E+02  0.10085876270E+03  0.10000000000E+01 0.  0.
    9000005    1    3    3    0    0  0.60672910806E+02 -0.74122200267E+01 -0.13140402476E+03  0.14492812300E+03  0.10000000000E+01 0.  0.
<mgrwt>
<rscale>  0 0.12500482E+03</rscale>
<asrwt>0</asrwt>
<pdfrwt beam="1">  1        4 0.26278653E-02 0.12500482E+03</pdfrwt>
<pdfrwt beam="2">  1       -4 0.35185500E-01 0.12500482E+03</pdfrwt>
<totfact> 0.82934082E+03</totfact>
</mgrwt>
</event>
<event>
 5    1  0.3227866E-002  0.1249982E+03  0.7818608E-02  0.1235072E+00
         -4   -1    0    0    0  501 -0.00000000000E+00  0.00000000000E+00  0.13314125411E+02  0.13374559262E+02  0.12700000000E+01 0. -1.
          4   -1    0    0  501    0  0.00000000000E+00 -0.00000000000E+00 -0.29265695020E+03  0.29265970580E+03  0.12700000000E+01 0. -1.
         25    2    1    2    0    0  0.00000000000E+00  0.00000000000E+00 -0.27934282479E+03  0.30603426506E+03  0.12499823052E+03 0.  0.
    9000005    1    3    3    0    0 -0.31349383002E+02  0.47218498390E+02 -0.75230688028E+02  0.94196745305E+02  0.10000000000E+01 0.  0.
    9000005    1    3    3    0    0  0.31349383002E+02 -0.47218498390E+02 -0.20411213676E+03  0.21183751976E+03  0.10000000000E+01 0.  0.
<mgrwt>
<rscale>  0 0.12499823E+03</rscale>
<asrwt>0</asrwt>
<pdfrwt beam="2">  1        4 0.45029002E-01 0.12499823E+03</pdfrwt>
<pdfrwt beam="1">  1       -4 0.20531879E-02 0.12499823E+03</pdfrwt>
<totfact> 0.74851034E+03</totfact>
</mgrwt>
</event>
<event>
 5    1  0.3227866E-002  0.1250202E+03  0.7818608E-02  0.1235038E+00
          4   -1    0    0  501    0  0.00000000000E+00  0.00000000000E+00  0.21910297004E+02  0.21947073035E+02  0.12700000000E+01 0. -1.
         -4   -1    0    0    0  501 -0.00000000000E+00 -0.00000000000E+00 -0.17815275837E+03  0.17815728504E+03  0.12700000000E+01 0. -1.
         25    2    1    2    0    0  0.00000000000E+00  0.00000000000E+00 -0.15624246136E+03  0.20010435808E+03  0.12502018793E+03 0.  0.
    9000005    1    3    3    0    0  0.50976459078E+02  0.42717464473E+01 -0.13560097104E+03  0.14493264140E+03  0.10000000000E+01 0.  0.
    9000005    1    3    3    0    0 -0.50976459078E+02 -0.42717464473E+01 -0.20641490323E+02  0.55171716672E+02  0.10000000000E+01 0.  0.
<mgrwt>
<rscale>  0 0.12502019E+03</rscale>
<asrwt>0</asrwt>
<pdfrwt beam="1">  1        4 0.33739922E-02 0.12502019E+03</pdfrwt>
<pdfrwt beam="2">  1       -4 0.27411293E-01 0.12502019E+03</pdfrwt>
<totfact> 0.90077211E+03</totfact>
</mgrwt>
</event>
<event>
 5    1  0.3227866E-002  0.1250031E+03  0.7818608E-02  0.1235064E+00
          4   -1    0    0  501    0  0.00000000000E+00  0.00000000000E+00  0.20161336869E+02  0.20201297096E+02  0.12700000000E+01 0. -1.
         -4   -1    0    0    0  501 -0.00000000000E+00 -0.00000000000E+00 -0.19352543070E+03  0.19352959781E+03  0.12700000000E+01 0. -1.
         25    2    1    2    0    0  0.00000000000E+00  0.00000000000E+00 -0.17336409383E+03  0.21373089490E+03  0.12500314559E+03 0.  0.
    9000005    1    3    3    0    0  0.35106309509E+02 -0.51131996798E+02 -0.73603158643E+02  0.96256734965E+02  0.10000000000E+01 0.  0.
    9000005    1    3    3    0    0 -0.35106309509E+02  0.51131996798E+02 -0.99760935185E+02  0.11747415994E+03  0.10000000000E+01 0.  0.
<mgrwt>
<rscale>  0 0.12500315E+03</rscale>
<asrwt>0</asrwt>
<pdfrwt beam="1">  1        4 0.31051387E-02 0.12500315E+03</pdfrwt>
<pdfrwt beam="2">  1       -4 0.29776536E-01 0.12500315E+03</pdfrwt>
<totfact> 0.87864002E+03</totfact>
</mgrwt>
</event>
<event>
 5    1  0.3227866E-002  0.1250005E+03  0.7818608E-02  0.1235068E+00
          4   -1    0    0  501    0  0.00000000000E+00  0.00000000000E+00  0.38464873134E+01  0.40507239664E+01  0.12700000000E+01 0.  1.
         -4   -1    0    0    0  501 -0.00000000000E+00 -0.00000000000E+00 -0.98907714374E+03  0.98907795910E+03  0.12700000000E+01 0.  1.
         25    2    1    2    0    0  0.00000000000E+00  0.00000000000E+00 -0.98523065643E+03  0.99312868306E+03  0.12500053903E+03 0.  0.
    9000005    1    3    3    0    0  0.78548990392E+01 -0.14075120866E+02 -0.12914227717E+02  0.20678146529E+02  0.10000000000E+01 0.  0.
    9000005    1    3    3    0    0 -0.78548990392E+01  0.14075120866E+02 -0.97231642871E+03  0.97245053654E+03  0.10000000000E+01 0.  0.
<mgrwt>
<rscale>  0 0.12500054E+03</rscale>
<asrwt>0</asrwt>
<pdfrwt beam="1">  1        4 0.60754130E-03 0.12500054E+03</pdfrwt>
<pdfrwt beam="2">  1       -4 0.15218129E+00 0.12500054E+03</pdfrwt>
<totfact> 0.30832128E+03</totfact>
</mgrwt>
</event>
<event>
 5    1  0.3227866E-002  0.1250008E+03  0.7818608E-02  0.1235068E+00
         -4   -1    0    0    0  501 -0.00000000000E+00  0.00000000000E+00  0.77496147542E+02  0.77506553167E+02  0.12700000000E+01 0. -1.
          4   -1    0    0  501    0  0.00000000000E+00 -0.00000000000E+00 -0.50384580194E+02  0.50400583541E+02  0.12700000000E+01 0. -1.
         25    2    1    2    0    0  0.00000000000E+00  0.00000000000E+00  0.27111567348E+02  0.12790713671E+03  0.12500079414E+03 0.  0.
    9000005    1    3    3    0    0  0.27280351888E+01  0.15947855616E+02  0.75320831783E+02  0.77045466935E+02  0.10000000000E+01 0.  0.
    9000005    1    3    3    0    0 -0.27280351888E+01 -0.15947855616E+02 -0.48209264435E+02  0.50861669773E+02  0.10000000000E+01 0.  0.
<mgrwt>
<rscale>  0 0.12500079E+03</rscale>
<asrwt>0</asrwt>
<pdfrwt beam="2">  1        4 0.77535053E-02 0.12500079E+03</pdfrwt>
<pdfrwt beam="1">  1       -4 0.11924516E-01 0.12500079E+03</pdfrwt>
<totfact> 0.10389307E+04</totfact>
</mgrwt>
</event>
<event>
 5    1  0.3227866E-002  0.1250034E+03  0.7818608E-02  0.1235064E+00
          4   -1    0    0  501    0  0.00000000000E+00  0.00000000000E+00  0.24357220515E+03  0.24357551605E+03  0.12700000000E+01 0.  1.
         -4   -1    0    0    0  501 -0.00000000000E+00 -0.00000000000E+00 -0.16009639666E+02  0.16059933444E+02  0.12700000000E+01 0.  1.
         25    2    1    2    0    0  0.00000000000E+00  0.00000000000E+00  0.22756256548E+03  0.25963544950E+03  0.12500338166E+03 0.  0.
    9000005    1    3    3    0    0  0.37293385505E+02 -0.25399103437E+02  0.23974155589E+02  0.51104512463E+02  0.10000000000E+01 0.  0.
    9000005    1    3    3    0    0 -0.37293385505E+02  0.25399103437E+02  0.20358840989E+03  0.20853093704E+03  0.10000000000E+01 0.  0.
<mgrwt>
<rscale>  0 0.12500338E+03</rscale>
<asrwt>0</asrwt>
<pdfrwt beam="1">  1        4 0.37476768E-01 0.12500338E+03</pdfrwt>
<pdfrwt beam="2">  1       -4 0.24671451E-02 0.12500338E+03</pdfrwt>
<totfact> 0.80951154E+03</totfact>
</mgrwt>
</event>
<event>
 5    1  0.3227866E-002  0.1249993E+03  0.7818608E-02  0.1235070E+00
          4   -1    0    0  501    0  0.00000000000E+00  0.00000000000E+00  0.16177198779E+02  0.16226973234E+02  0.12700000000E+01 0.  1.
         -4   -1    0    0    0  501 -0.00000000000E+00 -0.00000000000E+00 -0.24104152981E+03  0.24104487547E+03  0.12700000000E+01 0.  1.
         25    2    1    2    0    0  0.00000000000E+00  0.00000000000E+00 -0.22486433103E+03  0.25727184870E+03  0.12499934707E+03 0.  0.
    9000005    1    3    3    0    0  0.56935773941E+02  0.23386386716E+02 -0.13465711534E+03  0.14806128511E+03  0.10000000000E+01 0.  0.
    9000005    1    3    3    0    0 -0.56935773941E+02 -0.23386386716E+02 -0.90207215686E+02  0.10921056359E+03  0.10000000000E+01 0.  0.
<mgrwt>
<rscale>  0 0.12499935E+03</rscale>
<asrwt>0</asrwt>
<pdfrwt beam="1">  1        4 0.24928862E-02 0.12499935E+03</pdfrwt>
<pdfrwt beam="2">  1       -4 0.37087396E-01 0.12499935E+03</pdfrwt>
<totfact> 0.81291632E+03</totfact>
</mgrwt>
</event>
<event>
 5    1  0.3227866E-002  0.1249992E+03  0.7818608E-02  0.1235070E+00
         -4   -1    0    0    0  501 -0.00000000000E+00  0.00000000000E+00  0.12453788328E+04  0.12453794804E+04  0.12700000000E+01 0.  1.
          4   -1    0    0  501    0  0.00000000000E+00 -0.00000000000E+00 -0.30073261634E+01  0.32644924036E+01  0.12700000000E+01 0.  1.
         25    2    1    2    0    0  0.00000000000E+00  0.00000000000E+00  0.12423715066E+04  0.12486439728E+04  0.12499924080E+03 0.  0.
    9000005    1    3    3    0    0  0.19277750359E+02 -0.59411740928E+02  0.60167241760E+03  0.60490667439E+03  0.10000000000E+01 0.  0.
    9000005    1    3    3    0    0 -0.19277750359E+02  0.59411740928E+02  0.64069908904E+03  0.64373729837E+03  0.10000000000E+01 0.  0.
<mgrwt>
<rscale>  0 0.12499924E+03</rscale>
<asrwt>0</asrwt>
<pdfrwt beam="2">  1        4 0.48249752E-03 0.12499924E+03</pdfrwt>
<pdfrwt beam="1">  1       -4 0.19161653E+00 0.12499924E+03</pdfrwt>
<totfact> 0.23474179E+03</totfact>
</mgrwt>
</event>
<event>
 5    1  0.3227866E-002  0.1250024E+03  0.7818608E-02  0.1235066E+00
          4   -1    0    0  501    0  0.00000000000E+00  0.00000000000E+00  0.86754370243E+02  0.86763665530E+02  0.12700000000E+01 0. -1.
         -4   -1    0    0    0  501 -0.00000000000E+00 -0.00000000000E+00 -0.45007622997E+02  0.45025537508E+02  0.12700000000E+01 0. -1.
         25    2    1    2    0    0  0.00000000000E+00  0.00000000000E+00  0.41746747246E+02  0.13178920304E+03  0.12500241250E+03 0.  0.
    9000005    1    3    3    0    0  0.35287589066E+02  0.52736096012E+01  0.74965666211E+02  0.83029368363E+02  0.10000000000E+01 0.  0.
    9000005    1    3    3    0    0 -0.35287589066E+02 -0.52736096012E+01 -0.33218918966E+02  0.48759834675E+02  0.10000000000E+01 0.  0.
<mgrwt>
<rscale>  0 0.12500241E+03</rscale>
<asrwt>0</asrwt>
<pdfrwt beam="1">  1        4 0.13348919E-01 0.12500241E+03</pdfrwt>
<pdfrwt beam="2">  1       -4 0.69263429E-02 0.12500241E+03</pdfrwt>
<totfact> 0.10305639E+04</totfact>
</mgrwt>
</event>
<event>
 5    1  0.3227866E-002  0.1249978E+03  0.7818608E-02  0.1235073E+00
          4   -1    0    0  501    0  0.00000000000E+00  0.00000000000E+00  0.77479117853E+01  0.78513079823E+01  0.12700000000E+01 0.  1.
         -4   -1    0    0    0  501 -0.00000000000E+00 -0.00000000000E+00 -0.50070465942E+03  0.50070627005E+03  0.12700000000E+01 0.  1.
         25    2    1    2    0    0  0.00000000000E+00  0.00000000000E+00 -0.49295674764E+03  0.50855757803E+03  0.12499782051E+03 0.  0.
    9000005    1    3    3    0    0 -0.32037100093E+02  0.51709584949E+02 -0.30471053501E+03  0.31072458400E+03  0.10000000000E+01 0.  0.
    9000005    1    3    3    0    0  0.32037100093E+02 -0.51709584949E+02 -0.18824621263E+03  0.19783299403E+03  0.10000000000E+01 0.  0.
<mgrwt>
<rscale>  0 0.12499782E+03</rscale>
<asrwt>0</asrwt>
<pdfrwt beam="1">  1        4 0.12000643E-02 0.12499782E+03</pdfrwt>
<pdfrwt beam="2">  1       -4 0.77039539E-01 0.12499782E+03</pdfrwt>
<totfact> 0.55209120E+03</totfact>
</mgrwt>
</event>
<event>
 5    1  0.3227866E-002  0.1249999E+03  0.7818608E-02  0.1235069E+00
          4   -1    0    0  501    0  0.00000000000E+00  0.00000000000E+00  0.17583632401E+02  0.17629436418E+02  0.12700000000E+01 0. -1.
         -4   -1    0    0    0  501 -0.00000000000E+00 -0.00000000000E+00 -0.22181553044E+03  0.22181916609E+03  0.12700000000E+01 0. -1.
         25    2    1    2    0    0  0.00000000000E+00  0.00000000000E+00 -0.20423189804E+03  0.23944860251E+03  0.12499986026E+03 0.  0.
    9000005    1    3    3    0    0  0.14695332674E+02 -0.23440377356E+02 -0.20945465186E+03  0.21127625347E+03  0.10000000000E+01 0.  0.
    9000005    1    3    3    0    0 -0.14695332674E+02  0.23440377356E+02  0.52227538207E+01  0.28172349041E+02  0.10000000000E+01 0.  0.
<mgrwt>
<rscale>  0 0.12499986E+03</rscale>
<asrwt>0</asrwt>
<pdfrwt beam="1">  1        4 0.27089774E-02 0.12499986E+03</pdfrwt>
<pdfrwt beam="2">  1       -4 0.34129267E-01 0.12499986E+03</pdfrwt>
<totfact> 0.83879819E+03</totfact>
</mgrwt>
</event>
<event>
 5    1  0.3227866E-002  0.1249987E+03  0.7818608E-02  0.1235071E+00
         -4   -1    0    0    0  501 -0.00000000000E+00  0.00000000000E+00  0.79074868252E+02  0.79085066157E+02  0.12700000000E+01 0.  1.
          4   -1    0    0  501    0  0.00000000000E+00 -0.00000000000E+00 -0.49376824681E+02  0.49393154542E+02  0.12700000000E+01 0.  1.
         25    2    1    2    0    0  0.00000000000E+00  0.00000000000E+00  0.29698043570E+02  0.12847822070E+03  0.12499871760E+03 0.  0.
    9000005    1    3    3    0    0  0.16138952155E+02  0.45885004902E+02 -0.25476631780E+02  0.54917740470E+02  0.10000000000E+01 0.  0.
    9000005    1    3    3    0    0 -0.16138952155E+02 -0.45885004902E+02  0.55174675350E+02  0.73560480229E+02  0.10000000000E+01 0.  0.
<mgrwt>
<rscale>  0 0.12499872E+03</rscale>
<asrwt>0</asrwt>
<pdfrwt beam="2">  1        4 0.75984752E-02 0.12499872E+03</pdfrwt>
<pdfrwt beam="1">  1       -4 0.12167405E-01 0.12499872E+03</pdfrwt>
<totfact> 0.10377473E+04</totfact>
</mgrwt>
</event>
<event>
 5    1  0.3227866E-002  0.1249929E+03  0.7818608E-02  0.1235080E+00
          4   -1    0    0  501    0  0.00000000000E+00  0.00000000000E+00  0.15835947703E+03  0.15836456948E+03  0.12700000000E+01 0. -1.
         -4   -1    0    0    0  501 -0.00000000000E+00 -0.00000000000E+00 -0.24642325422E+02  0.24675029933E+02  0.12700000000E+01 0. -1.
         25    2    1    2    0    0  0.00000000000E+00  0.00000000000E+00  0.13371715161E+03  0.18303959941E+03  0.12499287307E+03 0.  0.
    9000005    1    3    3    0    0 -0.41731103192E+02 -0.25410023703E+02  0.12390726394E+03  0.13319596216E+03  0.10000000000E+01 0.  0.
    9000005    1    3    3    0    0  0.41731103192E+02  0.25410023703E+02  0.98098876657E+01  0.49843637249E+02  0.10000000000E+01 0.  0.
<mgrwt>
<rscale>  0 0.12499287E+03</rscale>
<asrwt>0</asrwt>
<pdfrwt beam="1">  1        4 0.24365903E-01 0.12499287E+03</pdfrwt>
<pdfrwt beam="2">  1       -4 0.37940346E-02 0.12499287E+03</pdfrwt>
<totfact> 0.93087580E+03</totfact>
</mgrwt>
</event>
<event>
 5    1  0.3227866E-002  0.1250007E+03  0.7818608E-02  0.1235068E+00
         -4   -1    0    0    0  501 -0.00000000000E+00  0.00000000000E+00  0.44763155045E+02  0.44781167354E+02  0.12700000000E+01 0.  1.
          4   -1    0    0  501    0  0.00000000000E+00 -0.00000000000E+00 -0.87225580038E+02  0.87234825115E+02  0.12700000000E+01 0.  1.
         25    2    1    2    0    0  0.00000000000E+00  0.00000000000E+00 -0.42462424993E+02  0.13201599247E+03  0.12500065892E+03 0.  0.
    9000005    1    3    3    0    0  0.40009322544E+02 -0.38415498991E+02 -0.51635703198E+02  0.75787481142E+02  0.10000000000E+01 0.  0.
    9000005    1    3    3    0    0 -0.40009322544E+02  0.38415498991E+02  0.91732782051E+01  0.56228511328E+02  0.10000000000E+01 0.  0.
<mgrwt>
<rscale>  0 0.12500066E+03</rscale>
<asrwt>0</asrwt>
<pdfrwt beam="2">  1        4 0.13421417E-01 0.12500066E+03</pdfrwt>
<pdfrwt beam="1">  1       -4 0.68887360E-02 0.12500066E+03</pdfrwt>
<totfact> 0.10301204E+04</totfact>
</mgrwt>
</event>
<event>
 4    1  0.3227866E-002  0.1251084E+03  0.7818608E-02  0.1234900E+00
          4   -1    0    0  501    0  0.00000000000E+00  0.00000000000E+00  0.59482629357E+02  0.59496185552E+02  0.12700000000E+01 0. -1.
         -4   -1    0    0    0  501 -0.00000000000E+00 -0.00000000000E+00 -0.65757168352E+02  0.65769431271E+02  0.12700000000E+01 0. -1.
    9000005    1    1    2    0    0  0.10472625878E+02 -0.18705383299E+02 -0.61968748865E+02  0.65579669815E+02  0.10000000000E+01 0.  0.
    9000005    1    1    2    0    0 -0.10472625878E+02  0.18705383299E+02  0.55694209870E+02  0.59685947008E+02  0.10000000000E+01 0.  0.
<mgrwt>
<rscale>  0 0.12510837E+03</rscale>
<asrwt>0</asrwt>
<pdfrwt beam="1">  1        4 0.91531598E-02 0.12510837E+03</pdfrwt>
<pdfrwt beam="2">  1       -4 0.10118474E-01 0.12510837E+03</pdfrwt>
<totfact> 0.10421550E+04</totfact>
</mgrwt>
</event>
<event>
 5    1  0.3227866E-002  0.1250009E+03  0.7818608E-02  0.1235068E+00
          4   -1    0    0  501    0  0.00000000000E+00  0.00000000000E+00  0.14465556146E+03  0.14466113632E+03  0.12700000000E+01 0. -1.
         -4   -1    0    0    0  501 -0.00000000000E+00 -0.00000000000E+00 -0.26983152410E+02  0.27013023044E+02  0.12700000000E+01 0. -1.
         25    2    1    2    0    0  0.00000000000E+00  0.00000000000E+00  0.11767240905E+03  0.17167415937E+03  0.12500088456E+03 0.  0.
    9000005    1    3    3    0    0  0.38478716891E+02 -0.29811942528E+02  0.11266060622E+03  0.12273050055E+03  0.10000000000E+01 0.  0.
    9000005    1    3    3    0    0 -0.38478716891E+02  0.29811942528E+02  0.50118028334E+01  0.48943658818E+02  0.10000000000E+01 0.  0.
<mgrwt>
<rscale>  0 0.12500088E+03</rscale>
<asrwt>0</asrwt>
<pdfrwt beam="1">  1        4 0.22257428E-01 0.12500088E+03</pdfrwt>
<pdfrwt beam="2">  1       -4 0.41539808E-02 0.12500088E+03</pdfrwt>
<totfact> 0.95135625E+03</totfact>
</mgrwt>
</event>
<event>
 5    1  0.3227866E-002  0.1250000E+03  0.7818608E-02  0.1235069E+00
         -4   -1    0    0    0  501 -0.00000000000E+00  0.00000000000E+00  0.62751127972E+03  0.62751256488E+03  0.12700000000E+01 0. -1.
          4   -1    0    0  501    0  0.00000000000E+00 -0.00000000000E+00 -0.61589064486E+01  0.62884838111E+01  0.12700000000E+01 0. -1.
         25    2    1    2    0    0  0.00000000000E+00  0.00000000000E+00  0.62135237328E+03  0.63380104869E+03  0.12499999018E+03 0.  0.
    9000005    1    3    3    0    0  0.45351808197E+02 -0.10604075685E+02  0.52193746026E+03  0.52401235229E+03  0.10000000000E+01 0.  0.
    9000005    1    3    3    0    0 -0.45351808197E+02  0.10604075685E+02  0.99414913018E+02  0.10978869640E+03  0.10000000000E+01 0.  0.
<mgrwt>
<rscale>  0 0.12499999E+03</rscale>
<asrwt>0</asrwt>
<pdfrwt beam="2">  1        4 0.95759006E-03 0.12499999E+03</pdfrwt>
<pdfrwt beam="1">  1       -4 0.96550299E-01 0.12499999E+03</pdfrwt>
<totfact> 0.46801212E+03</totfact>
</mgrwt>
</event>
<event>
 5    1  0.3227866E-002  0.1250038E+03  0.7818608E-02  0.1235063E+00
         -4   -1    0    0    0  501 -0.00000000000E+00  0.00000000000E+00  0.68452293528E+03  0.68452411340E+03  0.12700000000E+01 0.  1.
          4   -1    0    0  501    0  0.00000000000E+00 -0.00000000000E+00 -0.56350190082E+01  0.57763603786E+01  0.12700000000E+01 0.  1.
         25    2    1    2    0    0  0.00000000000E+00  0.00000000000E+00  0.67888791627E+03  0.69030047378E+03  0.12500376489E+03 0.  0.
    9000005    1    3    3    0    0 -0.57703094346E+02 -0.12361433249E+02  0.22586384572E+03  0.23344791481E+03  0.10000000000E+01 0.  0.
    9000005    1    3    3    0    0  0.57703094346E+02  0.12361433249E+02  0.45302407056E+03  0.45685255896E+03  0.10000000000E+01 0.  0.
<mgrwt>
<rscale>  0 0.12500376E+03</rscale>
<asrwt>0</asrwt>
<pdfrwt beam="2">  1        4 0.87788897E-03 0.12500376E+03</pdfrwt>
<pdfrwt beam="1">  1       -4 0.10532219E+00 0.12500376E+03</pdfrwt>
<totfact> 0.43600089E+03</totfact>
</mgrwt>
</event>
<event>
 5    1  0.3227866E-002  0.1250000E+03  0.7818608E-02  0.1235069E+00
          4   -1    0    0  501    0  0.00000000000E+00  0.00000000000E+00  0.91726042459E+01  0.92601062981E+01  0.12700000000E+01 0. -1.
         -4   -1    0    0    0  501 -0.00000000000E+00 -0.00000000000E+00 -0.42375068343E+03  0.42375258655E+03  0.12700000000E+01 0. -1.
         25    2    1    2    0    0  0.00000000000E+00  0.00000000000E+00 -0.41457807918E+03  0.43301269285E+03  0.12500003371E+03 0.  0.
    9000005    1    3    3    0    0  0.54661985653E+02  0.29198058403E+02 -0.17940511323E+03  0.18980952016E+03  0.10000000000E+01 0.  0.
    9000005    1    3    3    0    0 -0.54661985653E+02 -0.29198058403E+02 -0.23517296595E+03  0.24320317268E+03  0.10000000000E+01 0.  0.
<mgrwt>
<rscale>  0 0.12500003E+03</rscale>
<asrwt>0</asrwt>
<pdfrwt beam="1">  1        4 0.14180475E-02 0.12500003E+03</pdfrwt>
<pdfrwt beam="2">  1       -4 0.65199275E-01 0.12500003E+03</pdfrwt>
<totfact> 0.61463817E+03</totfact>
</mgrwt>
</event>
<event>
 5    1  0.3227866E-002  0.1250013E+03  0.7818608E-02  0.1235067E+00
          4   -1    0    0  501    0  0.00000000000E+00  0.00000000000E+00  0.12560991276E+02  0.12625030766E+02  0.12700000000E+01 0. -1.
         -4   -1    0    0    0  501 -0.00000000000E+00 -0.00000000000E+00 -0.31013321444E+03  0.31013581477E+03  0.12700000000E+01 0. -1.
         25    2    1    2    0    0  0.00000000000E+00  0.00000000000E+00 -0.29757222317E+03  0.32276084553E+03  0.12500134163E+03 0.  0.
    9000005    1    3    3    0    0 -0.43362795769E+02 -0.40626501631E+02 -0.98818821565E+02  0.11531263672E+03  0.10000000000E+01 0.  0.
    9000005    1    3    3    0    0  0.43362795769E+02  0.40626501631E+02 -0.19875340160E+03  0.20744820881E+03  0.10000000000E+01 0.  0.
<mgrwt>
<rscale>  0 0.12500134E+03</rscale>
<asrwt>0</asrwt>
<pdfrwt beam="1">  1        4 0.19375866E-02 0.12500134E+03</pdfrwt>
<pdfrwt beam="2">  1       -4 0.47717923E-01 0.12500134E+03</pdfrwt>
<totfact> 0.72826795E+03</totfact>
</mgrwt>
</event>
<event>
 5    1  0.3227866E-002  0.1250177E+03  0.7818608E-02  0.1235042E+00
          4   -1    0    0  501    0  0.00000000000E+00  0.00000000000E+00  0.14500342780E+03  0.14500898929E+03  0.12700000000E+01 0.  1.
         -4   -1    0    0    0  501 -0.00000000000E+00 -0.00000000000E+00 -0.26925616667E+02  0.26955551059E+02  0.12700000000E+01 0.  1.
         25    2    1    2    0    0  0.00000000000E+00  0.00000000000E+00  0.11807781114E+03  0.17196454035E+03  0.12501773336E+03 0.  0.
    9000005    1    3    3    0    0  0.32375042618E+02  0.49066905362E+02  0.29838504640E+02  0.65932093441E+02  0.10000000000E+01 0.  0.
    9000005    1    3    3    0    0 -0.32375042618E+02 -0.49066905362E+02  0.88239306495E+02  0.10603244691E+03  0.10000000000E+01 0.  0.
<mgrwt>
<rscale>  0 0.12501773E+03</rscale>
<asrwt>0</asrwt>
<pdfrwt beam="1">  1        4 0.22310950E-01 0.12501773E+03</pdfrwt>
<pdfrwt beam="2">  1       -4 0.41451330E-02 0.12501773E+03</pdfrwt>
<totfact> 0.95045907E+03</totfact>
</mgrwt>
</event>
<event>
 5    1  0.3227866E-002  0.1249992E+03  0.7818608E-02  0.1235070E+00
         -4   -1    0    0    0  501 -0.00000000000E+00  0.00000000000E+00  0.19676473103E+03  0.19676882954E+03  0.12700000000E+01 0. -1.
          4   -1    0    0  501    0  0.00000000000E+00 -0.00000000000E+00 -0.19827523401E+02  0.19868155028E+02  0.12700000000E+01 0. -1.
         25    2    1    2    0    0  0.00000000000E+00  0.00000000000E+00  0.17693720763E+03  0.21663698457E+03  0.12499923055E+03 0.  0.
    9000005    1    3    3    0    0 -0.19366529900E+02 -0.55766735212E+02  0.12399562556E+03  0.13733501518E+03  0.10000000000E+01 0.  0.
    9000005    1    3    3    0    0  0.19366529900E+02  0.55766735212E+02  0.52941582075E+02  0.79301969390E+02  0.10000000000E+01 0.  0.
<mgrwt>
<rscale>  0 0.12499923E+03</rscale>
<asrwt>0</asrwt>
<pdfrwt beam="2">  1        4 0.30538289E-02 0.12499923E+03</pdfrwt>
<pdfrwt beam="1">  1       -4 0.30274939E-01 0.12499923E+03</pdfrwt>
<totfact> 0.87404817E+03</totfact>
</mgrwt>
</event>
<event>
 5    1  0.3227866E-002  0.1249895E+03  0.7818608E-02  0.1235086E+00
          4   -1    0    0  501    0  0.00000000000E+00  0.00000000000E+00  0.39616510852E+03  0.39616714415E+03  0.12700000000E+01 0.  1.
         -4   -1    0    0    0  501 -0.00000000000E+00 -0.00000000000E+00 -0.98155256613E+01  0.98973453010E+01  0.12700000000E+01 0.  1.
         25    2    1    2    0    0  0.00000000000E+00  0.00000000000E+00  0.38634958286E+03  0.40606448946E+03  0.12498947725E+03 0.  0.
    9000005    1    3    3    0    0  0.25852447708E+02  0.16450818287E+02  0.16254004222E+02  0.34701168972E+02  0.10000000000E+01 0.  0.
    9000005    1    3    3    0    0 -0.25852447708E+02 -0.16450818287E+02  0.37009557864E+03  0.37136332048E+03  0.10000000000E+01 0.  0.
<mgrwt>
<rscale>  0 0.12498948E+03</rscale>
<asrwt>0</asrwt>
<pdfrwt beam="1">  1        4 0.60954931E-01 0.12498948E+03</pdfrwt>
<pdfrwt beam="2">  1       -4 0.15165312E-02 0.12498948E+03</pdfrwt>
<totfact> 0.63982063E+03</totfact>
</mgrwt>
</event>
<event>
 5    1  0.3227866E-002  0.1249945E+03  0.7818608E-02  0.1235078E+00
          4   -1    0    0  501    0  0.00000000000E+00  0.00000000000E+00  0.93962374131E+02  0.93970956430E+02  0.12700000000E+01 0.  1.
         -4   -1    0    0    0  501 -0.00000000000E+00 -0.00000000000E+00 -0.41548627710E+02  0.41568032965E+02  0.12700000000E+01 0.  1.
         25    2    1    2    0    0  0.00000000000E+00  0.00000000000E+00  0.52413746421E+02  0.13553898940E+03  0.12499446721E+03 0.  0.
    9000005    1    3    3    0    0  0.51849469139E+02  0.42351927169E+01 -0.11334536106E+02  0.53252004808E+02  0.10000000000E+01 0.  0.
    9000005    1    3    3    0    0 -0.51849469139E+02 -0.42351927169E+01  0.63748282528E+02  0.82286984588E+02  0.10000000000E+01 0.  0.
<mgrwt>
<rscale>  0 0.12499447E+03</rscale>
<asrwt>0</asrwt>
<pdfrwt beam="1">  1        4 0.14457903E-01 0.12499447E+03</pdfrwt>
<pdfrwt beam="2">  1       -4 0.63942495E-02 0.12499447E+03</pdfrwt>
<totfact> 0.10227999E+04</totfact>
</mgrwt>
</event>
<event>
 5    1  0.3227866E-002  0.1250048E+03  0.7818608E-02  0.1235062E+00
          4   -1    0    0  501    0  0.00000000000E+00  0.00000000000E+00  0.75425342934E+01  0.76487073134E+01  0.12700000000E+01 0.  1.
         -4   -1    0    0    0  501 -0.00000000000E+00 -0.00000000000E+00 -0.51420895018E+03  0.51421051851E+03  0.12700000000E+01 0.  1.
         25    2    1    2    0    0  0.00000000000E+00  0.00000000000E+00 -0.50666641589E+03  0.52185922582E+03  0.12500477826E+03 0.  0.
    9000005    1    3    3    0    0 -0.61057810840E+02  0.33967881672E+01 -0.30711321963E+03  0.31314393513E+03  0.10000000000E+01 0.  0.
    9000005    1    3    3    0    0  0.61057810840E+02 -0.33967881672E+01 -0.19955319626E+03  0.20871529070E+03  0.10000000000E+01 0.  0.
<mgrwt>
<rscale>  0 0.12500478E+03</rscale>
<asrwt>0</asrwt>
<pdfrwt beam="1">  1        4 0.11686781E-02 0.12500478E+03</pdfrwt>
<pdfrwt beam="2">  1       -4 0.79117330E-01 0.12500478E+03</pdfrwt>
<totfact> 0.54201690E+03</totfact>
</mgrwt>
</event>
<event>
 5    1  0.3227866E-002  0.1250004E+03  0.7818608E-02  0.1235069E+00
          4   -1    0    0  501    0  0.00000000000E+00  0.00000000000E+00  0.28745348873E+02  0.28773390169E+02  0.12700000000E+01 0.  1.
         -4   -1    0    0    0  501 -0.00000000000E+00 -0.00000000000E+00 -0.13579509213E+03  0.13580103073E+03  0.12700000000E+01 0.  1.
         25    2    1    2    0    0  0.00000000000E+00  0.00000000000E+00 -0.10704974326E+03  0.16457442089E+03  0.12500036993E+03 0.  0.
    9000005    1    3    3    0    0  0.40382935565E+02  0.30615351754E+02 -0.53802363047E+01  0.50970856287E+02  0.10000000000E+01 0.  0.
    9000005    1    3    3    0    0 -0.40382935565E+02 -0.30615351754E+02 -0.10166950695E+03  0.11360356461E+03  0.10000000000E+01 0.  0.
<mgrwt>
<rscale>  0 0.12500037E+03</rscale>
<asrwt>0</asrwt>
<pdfrwt beam="1">  1        4 0.44249753E-02 0.12500037E+03</pdfrwt>
<pdfrwt beam="2">  1       -4 0.20894166E-01 0.12500037E+03</pdfrwt>
<totfact> 0.96467249E+03</totfact>
</mgrwt>
</event>
<event>
 5    1  0.3227866E-002  0.1249912E+03  0.7818608E-02  0.1235083E+00
          4   -1    0    0  501    0  0.00000000000E+00  0.00000000000E+00  0.13389580424E+04  0.13389586447E+04  0.12700000000E+01 0.  1.
         -4   -1    0    0    0  501 -0.00000000000E+00 -0.00000000000E+00 -0.27781026677E+01  0.30546283624E+01  0.12700000000E+01 0.  1.
         25    2    1    2    0    0  0.00000000000E+00  0.00000000000E+00  0.13361799397E+04  0.13420132731E+04  0.12499117458E+03 0.  0.
    9000005    1    3    3    0    0 -0.25967564023E+02 -0.47579727719E+02  0.10018931149E+04  0.10033588384E+04  0.10000000000E+01 0.  0.
    9000005    1    3    3    0    0  0.25967564023E+02  0.47579727719E+02  0.33428682482E+03  0.33865443466E+03  0.10000000000E+01 0.  0.
<mgrwt>
<rscale>  0 0.12499117E+03</rscale>
<asrwt>0</asrwt>
<pdfrwt beam="1">  1        4 0.20601461E+00 0.12499117E+03</pdfrwt>
<pdfrwt beam="2">  1       -4 0.44871850E-03 0.12499117E+03</pdfrwt>
<totfact> 0.21262233E+03</totfact>
</mgrwt>
</event>
<event>
 5    1  0.3227866E-002  0.1249993E+03  0.7818608E-02  0.1235070E+00
          4   -1    0    0  501    0  0.00000000000E+00  0.00000000000E+00  0.11619630653E+04  0.11619637593E+04  0.12700000000E+01 0.  1.
         -4   -1    0    0    0  501 -0.00000000000E+00 -0.00000000000E+00 -0.32410635219E+01  0.34810045609E+01  0.12700000000E+01 0.  1.
         25    2    1    2    0    0  0.00000000000E+00  0.00000000000E+00  0.11587220018E+04  0.11654447639E+04  0.12499928120E+03 0.  0.
    9000005    1    3    3    0    0 -0.26003012288E+02 -0.51137481163E+02  0.81039220689E+03  0.81242090545E+03  0.10000000000E+01 0.  0.
    9000005    1    3    3    0    0  0.26003012288E+02  0.51137481163E+02  0.34832979488E+03  0.35302385844E+03  0.10000000000E+01 0.  0.
<mgrwt>
<rscale>  0 0.12499928E+03</rscale>
<asrwt>0</asrwt>
<pdfrwt beam="1">  1        4 0.17878206E+00 0.12499928E+03</pdfrwt>
<pdfrwt beam="2">  1       -4 0.51713555E-03 0.12499928E+03</pdfrwt>
<totfact> 0.25635966E+03</totfact>
</mgrwt>
</event>
<event>
 5    1  0.3227866E-002  0.1249984E+03  0.7818608E-02  0.1235072E+00
         -4   -1    0    0    0  501 -0.00000000000E+00  0.00000000000E+00  0.14359859668E+02  0.14415910297E+02  0.12700000000E+01 0. -1.
          4   -1    0    0  501    0  0.00000000000E+00 -0.00000000000E+00 -0.27143129868E+03  0.27143426977E+03  0.12700000000E+01 0. -1.
         25    2    1    2    0    0  0.00000000000E+00  0.00000000000E+00 -0.25707143901E+03  0.28585018006E+03  0.12499840273E+03 0.  0.
    9000005    1    3    3    0    0  0.37259033685E+02 -0.49265820849E+02 -0.10686584483E+03  0.12343688868E+03  0.10000000000E+01 0.  0.
    9000005    1    3    3    0    0 -0.37259033685E+02  0.49265820849E+02 -0.15020559418E+03  0.16241329138E+03  0.10000000000E+01 0.  0.
<mgrwt>
<rscale>  0 0.12499840E+03</rscale>
<asrwt>0</asrwt>
<pdfrwt beam="2">  1        4 0.41763198E-01 0.12499840E+03</pdfrwt>
<pdfrwt beam="1">  1       -4 0.22137495E-02 0.12499840E+03</pdfrwt>
<totfact> 0.77411503E+03</totfact>
</mgrwt>
</event>
<event>
 5    1  0.3227866E-002  0.1250037E+03  0.7818608E-02  0.1235063E+00
          4   -1    0    0  501    0  0.00000000000E+00  0.00000000000E+00  0.27198682649E+03  0.27198979151E+03  0.12700000000E+01 0. -1.
         -4   -1    0    0    0  501 -0.00000000000E+00 -0.00000000000E+00 -0.14331640900E+02  0.14387801461E+02  0.12700000000E+01 0. -1.
         25    2    1    2    0    0  0.00000000000E+00  0.00000000000E+00  0.25765518559E+03  0.28637759297E+03  0.12500372432E+03 0.  0.
    9000005    1    3    3    0    0  0.51979907927E+02 -0.25327927909E+02  0.18314143389E+03  0.19205519928E+03  0.10000000000E+01 0.  0.
    9000005    1    3    3    0    0 -0.51979907927E+02  0.25327927909E+02  0.74513751700E+02  0.94322393696E+02  0.10000000000E+01 0.  0.
<mgrwt>
<rscale>  0 0.12500372E+03</rscale>
<asrwt>0</asrwt>
<pdfrwt beam="1">  1        4 0.41848674E-01 0.12500372E+03</pdfrwt>
<pdfrwt beam="2">  1       -4 0.22094160E-02 0.12500372E+03</pdfrwt>
<totfact> 0.77333612E+03</totfact>
</mgrwt>
</event>
<event>
 5    1  0.3227866E-002  0.1250045E+03  0.7818608E-02  0.1235062E+00
          4   -1    0    0  501    0  0.00000000000E+00  0.00000000000E+00  0.46917092467E+02  0.46934278151E+02  0.12700000000E+01 0. -1.
         -4   -1    0    0    0  501 -0.00000000000E+00 -0.00000000000E+00 -0.83227268133E+02  0.83236957302E+02  0.12700000000E+01 0. -1.
         25    2    1    2    0    0  0.00000000000E+00  0.00000000000E+00 -0.36310175666E+02  0.13017123545E+03  0.12500448665E+03 0.  0.
    9000005    1    3    3    0    0  0.11298571345E+02  0.18632960349E+02  0.42837895858E+02  0.48072135873E+02  0.10000000000E+01 0.  0.
    9000005    1    3    3    0    0 -0.11298571345E+02 -0.18632960349E+02 -0.79148071524E+02  0.82099099580E+02  0.10000000000E+01 0.  0.
<mgrwt>
<rscale>  0 0.12500449E+03</rscale>
<asrwt>0</asrwt>
<pdfrwt beam="1">  1        4 0.72200815E-02 0.12500449E+03</pdfrwt>
<pdfrwt beam="2">  1       -4 0.12806262E-01 0.12500449E+03</pdfrwt>
<totfact> 0.10339799E+04</totfact>
</mgrwt>
</event>
<event>
 5    1  0.3227866E-002  0.1250016E+03  0.7818608E-02  0.1235067E+00
         -4   -1    0    0    0  501 -0.00000000000E+00  0.00000000000E+00  0.10402061538E+03  0.10402836788E+03  0.12700000000E+01 0.  1.
          4   -1    0    0  501    0  0.00000000000E+00 -0.00000000000E+00 -0.37533714057E+02  0.37555193927E+02  0.12700000000E+01 0.  1.
         25    2    1    2    0    0  0.00000000000E+00  0.00000000000E+00  0.66486901319E+02  0.14158356180E+03  0.12500158769E+03 0.  0.
    9000005    1    3    3    0    0  0.43105061843E+02 -0.35034980996E+02  0.65674820635E+02  0.86021382896E+02  0.10000000000E+01 0.  0.
    9000005    1    3    3    0    0 -0.43105061843E+02  0.35034980996E+02  0.81208068429E+00  0.55562178908E+02  0.10000000000E+01 0.  0.
<mgrwt>
<rscale>  0 0.12500159E+03</rscale>
<asrwt>0</asrwt>
<pdfrwt beam="2">  1        4 0.57766662E-02 0.12500159E+03</pdfrwt>
<pdfrwt beam="1">  1       -4 0.16005420E-01 0.12500159E+03</pdfrwt>
<totfact> 0.10100509E+04</totfact>
</mgrwt>
</event>
<event>
 5    1  0.3227866E-002  0.1250004E+03  0.7818608E-02  0.1235069E+00
         -4   -1    0    0    0  501 -0.00000000000E+00  0.00000000000E+00  0.95797175942E+01  0.96635339904E+01  0.12700000000E+01 0. -1.
          4   -1    0    0  501    0  0.00000000000E+00 -0.00000000000E+00 -0.40590411096E+03  0.40590609776E+03  0.12700000000E+01 0. -1.
         25    2    1    2    0    0  0.00000000000E+00  0.00000000000E+00 -0.39632439337E+03  0.41556963175E+03  0.12500037621E+03 0.  0.
    9000005    1    3    3    0    0 -0.52953916782E+02  0.20802450468E+02 -0.28411406837E+03  0.28975621321E+03  0.10000000000E+01 0.  0.
    9000005    1    3    3    0    0  0.52953916782E+02 -0.20802450468E+02 -0.11221032500E+03  0.12581341854E+03  0.10000000000E+01 0.  0.
<mgrwt>
<rscale>  0 0.12500038E+03</rscale>
<asrwt>0</asrwt>
<pdfrwt beam="2">  1        4 0.62453373E-01 0.12500038E+03</pdfrwt>
<pdfrwt beam="1">  1       -4 0.14804033E-02 0.12500038E+03</pdfrwt>
<totfact> 0.63065643E+03</totfact>
</mgrwt>
</event>
<event>
 5    1  0.3227866E-002  0.1249992E+03  0.7818608E-02  0.1235070E+00
         -4   -1    0    0    0  501 -0.00000000000E+00  0.00000000000E+00  0.12969155531E+03  0.12969777338E+03  0.12700000000E+01 0. -1.
          4   -1    0    0  501    0  0.00000000000E+00 -0.00000000000E+00 -0.30098837209E+02  0.30125618688E+02  0.12700000000E+01 0. -1.
         25    2    1    2    0    0  0.00000000000E+00  0.00000000000E+00  0.99592718103E+02  0.15982339207E+03  0.12499922861E+03 0.  0.
    9000005    1    3    3    0    0  0.39223502214E+02  0.40623847148E+02  0.84019303980E+02  0.10123746107E+03  0.10000000000E+01 0.  0.
    9000005    1    3    3    0    0 -0.39223502214E+02 -0.40623847148E+02  0.15573414124E+02  0.58585930994E+02  0.10000000000E+01 0.  0.
<mgrwt>
<rscale>  0 0.12499923E+03</rscale>
<asrwt>0</asrwt>
<pdfrwt beam="2">  1        4 0.46331289E-02 0.12499923E+03</pdfrwt>
<pdfrwt beam="1">  1       -4 0.19955085E-01 0.12499923E+03</pdfrwt>
<totfact> 0.97378533E+03</totfact>
</mgrwt>
</event>
<event>
 5    1  0.3227866E-002  0.1250026E+03  0.7818608E-02  0.1235065E+00
         -4   -1    0    0    0  501 -0.00000000000E+00  0.00000000000E+00  0.15288474048E+03  0.15289001527E+03  0.12700000000E+01 0. -1.
          4   -1    0    0  501    0  0.00000000000E+00 -0.00000000000E+00 -0.25529841605E+02  0.25561410610E+02  0.12700000000E+01 0. -1.
         25    2    1    2    0    0  0.00000000000E+00  0.00000000000E+00  0.12735489887E+03  0.17845142588E+03  0.12500256451E+03 0.  0.
    9000005    1    3    3    0    0 -0.64344618284E+01 -0.61220715959E+02  0.79055094839E+02  0.10020023144E+03  0.10000000000E+01 0.  0.
    9000005    1    3    3    0    0  0.64344618284E+01  0.61220715959E+02  0.48299804032E+02  0.78251194439E+02  0.10000000000E+01 0.  0.
<mgrwt>
<rscale>  0 0.12500256E+03</rscale>
<asrwt>0</asrwt>
<pdfrwt beam="2">  1        4 0.39305021E-02 0.12500256E+03</pdfrwt>
<pdfrwt beam="1">  1       -4 0.23523564E-01 0.12500256E+03</pdfrwt>
<totfact> 0.93891096E+03</totfact>
</mgrwt>
</event>
<event>
 5    1  0.3227866E-002  0.1250021E+03  0.7818608E-02  0.1235066E+00
          4   -1    0    0  501    0  0.00000000000E+00  0.00000000000E+00  0.41962937130E+02  0.41982150881E+02  0.12700000000E+01 0. -1.
         -4   -1    0    0    0  501 -0.00000000000E+00 -0.00000000000E+00 -0.93046397469E+02  0.93055064247E+02  0.12700000000E+01 0. -1.
         25    2    1    2    0    0  0.00000000000E+00  0.00000000000E+00 -0.51083460339E+02  0.13503721513E+03  0.12500211818E+03 0.  0.
    9000005    1    3    3    0    0  0.34341364865E+02 -0.46168884496E+02  0.79775832356E+00  0.57554597165E+02  0.10000000000E+01 0.  0.
    9000005    1    3    3    0    0 -0.34341364865E+02  0.46168884496E+02 -0.51881218663E+02  0.77482617963E+02  0.10000000000E+01 0.  0.
<mgrwt>
<rscale>  0 0.12500212E+03</rscale>
<asrwt>0</asrwt>
<pdfrwt beam="1">  1        4 0.64579812E-02 0.12500212E+03</pdfrwt>
<pdfrwt beam="2">  1       -4 0.14316975E-01 0.12500212E+03</pdfrwt>
<totfact> 0.10236798E+04</totfact>
</mgrwt>
</event>
<event>
 5    1  0.3227866E-002  0.1249999E+03  0.7818608E-02  0.1235069E+00
          4   -1    0    0  501    0  0.00000000000E+00  0.00000000000E+00  0.38114737144E+02  0.38135889757E+02  0.12700000000E+01 0. -1.
         -4   -1    0    0    0  501 -0.00000000000E+00 -0.00000000000E+00 -0.10243290234E+03  0.10244077500E+03  0.12700000000E+01 0. -1.
         25    2    1    2    0    0  0.00000000000E+00  0.00000000000E+00 -0.64318165198E+02  0.14057666476E+03  0.12499988920E+03 0.  0.
    9000005    1    3    3    0    0  0.39576971183E+02  0.10259655048E+02  0.20991835476E+02  0.45970146033E+02  0.10000000000E+01 0.  0.
    9000005    1    3    3    0    0 -0.39576971183E+02 -0.10259655048E+02 -0.85310000674E+02  0.94606518722E+02  0.10000000000E+01 0.  0.
<mgrwt>
<rscale>  0 0.12499989E+03</rscale>
<asrwt>0</asrwt>
<pdfrwt beam="1">  1        4 0.58660385E-02 0.12499989E+03</pdfrwt>
<pdfrwt beam="2">  1       -4 0.15761141E-01 0.12499989E+03</pdfrwt>
<totfact> 0.10121673E+04</totfact>
</mgrwt>
</event>
<event>
 5    1  0.3227866E-002  0.1249992E+03  0.7818608E-02  0.1235071E+00
         -4   -1    0    0    0  501 -0.00000000000E+00  0.00000000000E+00  0.82944707135E+01  0.83911348706E+01  0.12700000000E+01 0. -1.
          4   -1    0    0  501    0  0.00000000000E+00 -0.00000000000E+00 -0.46811430331E+03  0.46811602607E+03  0.12700000000E+01 0. -1.
         25    2    1    2    0    0  0.00000000000E+00  0.00000000000E+00 -0.45981983260E+03  0.47650716094E+03  0.12499918391E+03 0.  0.
    9000005    1    3    3    0    0  0.53599219212E+02 -0.22091172748E+02 -0.14097290508E+03  0.15243115226E+03  0.10000000000E+01 0.  0.
    9000005    1    3    3    0    0 -0.53599219212E+02  0.22091172748E+02 -0.31884692752E+03  0.32407600868E+03  0.10000000000E+01 0.  0.
<mgrwt>
<rscale>  0 0.12499918E+03</rscale>
<asrwt>0</asrwt>
<pdfrwt beam="2">  1        4 0.72025133E-01 0.12499918E+03</pdfrwt>
<pdfrwt beam="1">  1       -4 0.12836410E-02 0.12499918E+03</pdfrwt>
<totfact> 0.57735380E+03</totfact>
</mgrwt>
</event>
<event>
 5    1  0.3227866E-002  0.1250013E+03  0.7818608E-02  0.1235067E+00
         -4   -1    0    0    0  501 -0.00000000000E+00  0.00000000000E+00  0.61986896826E+03  0.61987026925E+03  0.12700000000E+01 0. -1.
          4   -1    0    0  501    0  0.00000000000E+00 -0.00000000000E+00 -0.62365586011E+01  0.63645552228E+01  0.12700000000E+01 0. -1.
         25    2    1    2    0    0  0.00000000000E+00  0.00000000000E+00  0.61363240965E+03  0.62623482448E+03  0.12500128483E+03 0.  0.
    9000005    1    3    3    0    0 -0.32412302793E+02  0.15891112363E+02  0.51253857132E+02  0.62698027843E+02  0.10000000000E+01 0.  0.
    9000005    1    3    3    0    0  0.32412302793E+02 -0.15891112363E+02  0.56237855252E+03  0.56353679663E+03  0.10000000000E+01 0.  0.
<mgrwt>
<rscale>  0 0.12500128E+03</rscale>
<asrwt>0</asrwt>
<pdfrwt beam="2">  1        4 0.96941603E-03 0.12500128E+03</pdfrwt>
<pdfrwt beam="1">  1       -4 0.95374451E-01 0.12500128E+03</pdfrwt>
<totfact> 0.47251040E+03</totfact>
</mgrwt>
</event>
<event>
 5    1  0.3227866E-002  0.1250048E+03  0.7818608E-02  0.1235062E+00
          4   -1    0    0  501    0  0.00000000000E+00  0.00000000000E+00  0.35774076638E+03  0.35774302065E+03  0.12700000000E+01 0.  1.
         -4   -1    0    0    0  501 -0.00000000000E+00 -0.00000000000E+00 -0.10880832540E+02  0.10954698388E+02  0.12700000000E+01 0.  1.
         25    2    1    2    0    0  0.00000000000E+00  0.00000000000E+00  0.34685993384E+03  0.36869771904E+03  0.12500477722E+03 0.  0.
    9000005    1    3    3    0    0 -0.21887102945E+02 -0.53247616095E+02  0.24514481809E+03  0.25181607520E+03  0.10000000000E+01 0.  0.
    9000005    1    3    3    0    0  0.21887102945E+02  0.53247616095E+02  0.10171511575E+03  0.11688164384E+03  0.10000000000E+01 0.  0.
<mgrwt>
<rscale>  0 0.12500478E+03</rscale>
<asrwt>0</asrwt>
<pdfrwt beam="1">  1        4 0.55042896E-01 0.12500478E+03</pdfrwt>
<pdfrwt beam="2">  1       -4 0.16798296E-02 0.12500478E+03</pdfrwt>
<totfact> 0.67708247E+03</totfact>
</mgrwt>
</event>
<event>
 5    1  0.3227866E-002  0.1250201E+03  0.7818608E-02  0.1235038E+00
         -4   -1    0    0    0  501 -0.00000000000E+00  0.00000000000E+00  0.18441375452E+03  0.18441812751E+03  0.12700000000E+01 0. -1.
          4   -1    0    0  501    0  0.00000000000E+00 -0.00000000000E+00 -0.21165133295E+02  0.21203201819E+02  0.12700000000E+01 0. -1.
         25    2    1    2    0    0  0.00000000000E+00  0.00000000000E+00  0.16324862122E+03  0.20562132933E+03  0.12502007337E+03 0.  0.
    9000005    1    3    3    0    0  0.59670615238E+02  0.37608350469E+01  0.51666330939E+02  0.79026172600E+02  0.10000000000E+01 0.  0.
    9000005    1    3    3    0    0 -0.59670615238E+02 -0.37608350469E+01  0.11158229029E+03  0.12659515673E+03  0.10000000000E+01 0.  0.
<mgrwt>
<rscale>  0 0.12502007E+03</rscale>
<asrwt>0</asrwt>
<pdfrwt beam="2">  1        4 0.32594391E-02 0.12502007E+03</pdfrwt>
<pdfrwt beam="1">  1       -4 0.28374611E-01 0.12502007E+03</pdfrwt>
<totfact> 0.89155972E+03</totfact>
</mgrwt>
</event>
<event>
 5    1  0.3227866E-002  0.1250006E+03  0.7818608E-02  0.1235068E+00
         -4   -1    0    0    0  501 -0.00000000000E+00  0.00000000000E+00  0.15246417172E+03  0.15246946107E+03  0.12700000000E+01 0. -1.
          4   -1    0    0  501    0  0.00000000000E+00 -0.00000000000E+00 -0.25599534223E+02  0.25631017390E+02  0.12700000000E+01 0. -1.
         25    2    1    2    0    0  0.00000000000E+00  0.00000000000E+00  0.12686463750E+03  0.17810047846E+03  0.12500057672E+03 0.  0.
    9000005    1    3    3    0    0  0.55103078029E+02  0.28806847493E+02  0.72341845438E+02  0.95396678518E+02  0.10000000000E+01 0.  0.
    9000005    1    3    3    0    0 -0.55103078029E+02 -0.28806847493E+02  0.54522792060E+02  0.82703799942E+02  0.10000000000E+01 0.  0.
<mgrwt>
<rscale>  0 0.12500058E+03</rscale>
<asrwt>0</asrwt>
<pdfrwt beam="2">  1        4 0.39412185E-02 0.12500058E+03</pdfrwt>
<pdfrwt beam="1">  1       -4 0.23458855E-01 0.12500058E+03</pdfrwt>
<totfact> 0.93958829E+03</totfact>
</mgrwt>
</event>
<event>
 5    1  0.3227866E-002  0.1249981E+03  0.7818608E-02  0.1235072E+00
         -4   -1    0    0    0  501 -0.00000000000E+00  0.00000000000E+00  0.58402309093E+02  0.58416115990E+02  0.12700000000E+01 0.  1.
          4   -1    0    0  501    0  0.00000000000E+00 -0.00000000000E+00 -0.66855441219E+02  0.66867502724E+02  0.12700000000E+01 0.  1.
         25    2    1    2    0    0  0.00000000000E+00  0.00000000000E+00 -0.84531321258E+01  0.12528361871E+03  0.12499811869E+03 0.  0.
    9000005    1    3    3    0    0  0.56302937650E+02  0.25840242632E+01 -0.31277735881E+02  0.64467004981E+02  0.10000000000E+01 0.  0.
    9000005    1    3    3    0    0 -0.56302937650E+02 -0.25840242632E+01  0.22824603755E+02  0.60816613733E+02  0.10000000000E+01 0.  0.
<mgrwt>
<rscale>  0 0.12499812E+03</rscale>
<asrwt>0</asrwt>
<pdfrwt beam="2">  1        4 0.10287442E-01 0.12499812E+03</pdfrwt>
<pdfrwt beam="1">  1       -4 0.89869605E-02 0.12499812E+03</pdfrwt>
<totfact> 0.10447150E+04</totfact>
</mgrwt>
</event>
<event>
 5    1  0.3227866E-002  0.1249975E+03  0.7818608E-02  0.1235073E+00
          4   -1    0    0  501    0  0.00000000000E+00  0.00000000000E+00  0.12533992855E+03  0.12534636249E+03  0.12700000000E+01 0. -1.
         -4   -1    0    0    0  501 -0.00000000000E+00 -0.00000000000E+00 -0.31143837840E+02  0.31169721453E+02  0.12700000000E+01 0. -1.
         25    2    1    2    0    0  0.00000000000E+00  0.00000000000E+00  0.94196090712E+02  0.15651608394E+03  0.12499752408E+03 0.  0.
    9000005    1    3    3    0    0 -0.60477082533E+01  0.28802839154E+02 -0.21928633368E+02  0.36715708897E+02  0.10000000000E+01 0.  0.
    9000005    1    3    3    0    0  0.60477082533E+01 -0.28802839154E+02  0.11612472408E+03  0.11980037505E+03  0.10000000000E+01 0.  0.
<mgrwt>
<rscale>  0 0.12499752E+03</rscale>
<asrwt>0</asrwt>
<pdfrwt beam="1">  1        4 0.19285552E-01 0.12499752E+03</pdfrwt>
<pdfrwt beam="2">  1       -4 0.47938457E-02 0.12499752E+03</pdfrwt>
<totfact> 0.98024150E+03</totfact>
</mgrwt>
</event>
<event>
 5    1  0.3227866E-002  0.1250009E+03  0.7818608E-02  0.1235068E+00
          4   -1    0    0  501    0  0.00000000000E+00  0.00000000000E+00  0.36894802806E+02  0.36916654427E+02  0.12700000000E+01 0.  1.
         -4   -1    0    0    0  501 -0.00000000000E+00 -0.00000000000E+00 -0.10581981602E+03  0.10582743672E+03  0.12700000000E+01 0.  1.
         25    2    1    2    0    0  0.00000000000E+00  0.00000000000E+00 -0.68925013216E+02  0.14274409115E+03  0.12500087244E+03 0.  0.
    9000005    1    3    3    0    0  0.18861564426E+02  0.19204914726E+02  0.29940719385E+02  0.40274483728E+02  0.10000000000E+01 0.  0.
    9000005    1    3    3    0    0 -0.18861564426E+02 -0.19204914726E+02 -0.98865732602E+02  0.10246960742E+03  0.10000000000E+01 0.  0.
<mgrwt>
<rscale>  0 0.12500087E+03</rscale>
<asrwt>0</asrwt>
<pdfrwt beam="1">  1        4 0.56783907E-02 0.12500087E+03</pdfrwt>
<pdfrwt beam="2">  1       -4 0.16282239E-01 0.12500087E+03</pdfrwt>
<totfact> 0.10076828E+04</totfact>
</mgrwt>
</event>
<event>
 5    1  0.3227866E-002  0.1249996E+03  0.7818608E-02  0.1235070E+00
         -4   -1    0    0    0  501 -0.00000000000E+00  0.00000000000E+00  0.71196415909E+03  0.71196529180E+03  0.12700000000E+01 0. -1.
          4   -1    0    0  501    0  0.00000000000E+00 -0.00000000000E+00 -0.54119057016E+01  0.55589228564E+01  0.12700000000E+01 0. -1.
         25    2    1    2    0    0  0.00000000000E+00  0.00000000000E+00  0.70655225339E+03  0.71752421466E+03  0.12499964740E+03 0.  0.
    9000005    1    3    3    0    0  0.34657647916E+02 -0.27924260158E+02  0.10147050812E+03  0.11080695322E+03  0.10000000000E+01 0.  0.
    9000005    1    3    3    0    0 -0.34657647916E+02  0.27924260158E+02  0.60508174527E+03  0.60671726144E+03  0.10000000000E+01 0.  0.
<mgrwt>
<rscale>  0 0.12499965E+03</rscale>
<asrwt>0</asrwt>
<pdfrwt beam="2">  1        4 0.84399693E-03 0.12499965E+03</pdfrwt>
<pdfrwt beam="1">  1       -4 0.10954436E+00 0.12499965E+03</pdfrwt>
<totfact> 0.42177933E+03</totfact>
</mgrwt>
</event>
<event>
 5    1  0.3227866E-002  0.1250022E+03  0.7818608E-02  0.1235066E+00
          4   -1    0    0  501    0  0.00000000000E+00  0.00000000000E+00  0.28147940036E+01  0.30880358293E+01  0.12700000000E+01 0. -1.
         -4   -1    0    0    0  501 -0.00000000000E+00 -0.00000000000E+00 -0.13232900164E+04  0.13232906258E+04  0.12700000000E+01 0. -1.
         25    2    1    2    0    0  0.00000000000E+00  0.00000000000E+00 -0.13204752224E+04  0.13263786616E+04  0.12500216453E+03 0.  0.
    9000005    1    3    3    0    0  0.56210424063E+02  0.26941436445E+02 -0.70761062574E+03  0.71035149781E+03  0.10000000000E+01 0.  0.
    9000005    1    3    3    0    0 -0.56210424063E+02 -0.26941436445E+02 -0.61286459664E+03  0.61602716383E+03  0.10000000000E+01 0.  0.
<mgrwt>
<rscale>  0 0.12500216E+03</rscale>
<asrwt>0</asrwt>
<pdfrwt beam="1">  1        4 0.45411177E-03 0.12500216E+03</pdfrwt>
<pdfrwt beam="2">  1       -4 0.20360367E+00 0.12500216E+03</pdfrwt>
<totfact> 0.21613423E+03</totfact>
</mgrwt>
</event>
<event>
 5    1  0.3227866E-002  0.1250015E+03  0.7818608E-02  0.1235067E+00
          4   -1    0    0  501    0  0.00000000000E+00  0.00000000000E+00  0.80993710488E+03  0.80993810057E+03  0.12700000000E+01 0.  1.
         -4   -1    0    0    0  501 -0.00000000000E+00 -0.00000000000E+00 -0.47384001605E+01  0.49056432892E+01  0.12700000000E+01 0.  1.
         25    2    1    2    0    0  0.00000000000E+00  0.00000000000E+00  0.80519870472E+03  0.81484374386E+03  0.12500149132E+03 0.  0.
    9000005    1    3    3    0    0 -0.36900995870E+01  0.35491063230E+02  0.68164734928E+02  0.76945847789E+02  0.10000000000E+01 0.  0.
    9000005    1    3    3    0    0  0.36900995870E+01 -0.35491063230E+02  0.73703396979E+03  0.73789789607E+03  0.10000000000E+01 0.  0.
<mgrwt>
<rscale>  0 0.12500149E+03</rscale>
<asrwt>0</asrwt>
<pdfrwt beam="1">  1        4 0.12461871E+00 0.12500149E+03</pdfrwt>
<pdfrwt beam="2">  1       -4 0.74192575E-03 0.12500149E+03</pdfrwt>
<totfact> 0.37609352E+03</totfact>
</mgrwt>
</event>
<event>
 5    1  0.3227866E-002  0.1250038E+03  0.7818608E-02  0.1235063E+00
          4   -1    0    0  501    0  0.00000000000E+00  0.00000000000E+00  0.69260894555E+03  0.69261010992E+03  0.12700000000E+01 0.  1.
         -4   -1    0    0    0  501 -0.00000000000E+00 -0.00000000000E+00 -0.55675717624E+01  0.57105827487E+01  0.12700000000E+01 0.  1.
         25    2    1    2    0    0  0.00000000000E+00  0.00000000000E+00  0.68704137379E+03  0.69832069267E+03  0.12500376197E+03 0.  0.
    9000005    1    3    3    0    0 -0.59743289511E+02 -0.87354032796E+01  0.43358429675E+03  0.43776924321E+03  0.10000000000E+01 0.  0.
    9000005    1    3    3    0    0  0.59743289511E+02  0.87354032796E+01  0.25345707704E+03  0.26055144946E+03  0.10000000000E+01 0.  0.
<mgrwt>
<rscale>  0 0.12500376E+03</rscale>
<asrwt>0</asrwt>
<pdfrwt beam="1">  1        4 0.10656630E+00 0.12500376E+03</pdfrwt>
<pdfrwt beam="2">  1       -4 0.86764002E-03 0.12500376E+03</pdfrwt>
<totfact> 0.43171935E+03</totfact>
</mgrwt>
</event>
<event>
 5    1  0.3227866E-002  0.1249485E+03  0.7818608E-02  0.1235150E+00
          4   -1    0    0  501    0  0.00000000000E+00  0.00000000000E+00  0.53568532757E+02  0.53583585190E+02  0.12700000000E+01 0.  1.
         -4   -1    0    0    0  501 -0.00000000000E+00 -0.00000000000E+00 -0.72829755753E+02  0.72840827996E+02  0.12700000000E+01 0.  1.
         25    2    1    2    0    0  0.00000000000E+00  0.00000000000E+00 -0.19261222996E+02  0.12642441319E+03  0.12494853956E+03 0.  0.
    9000005    1    3    3    0    0 -0.87302163018E+01  0.50841038450E+02  0.26013417906E+02  0.57781707992E+02  0.10000000000E+01 0.  0.
    9000005    1    3    3    0    0  0.87302163018E+01 -0.50841038450E+02 -0.45274640902E+02  0.68642705193E+02  0.10000000000E+01 0.  0.
<mgrwt>
<rscale>  0 0.12494854E+03</rscale>
<asrwt>0</asrwt>
<pdfrwt beam="1">  1        4 0.82433223E-02 0.12494854E+03</pdfrwt>
<pdfrwt beam="2">  1       -4 0.11206587E-01 0.12494854E+03</pdfrwt>
<totfact> 0.10433791E+04</totfact>
</mgrwt>
</event>
<event>
 5    1  0.3227866E-002  0.1249987E+03  0.7818608E-02  0.1235071E+00
         -4   -1    0    0    0  501 -0.00000000000E+00  0.00000000000E+00  0.78206215016E+01  0.79230688923E+01  0.12700000000E+01 0. -1.
          4   -1    0    0  501    0  0.00000000000E+00 -0.00000000000E+00 -0.49611708620E+03  0.49611871172E+03  0.12700000000E+01 0. -1.
         25    2    1    2    0    0  0.00000000000E+00  0.00000000000E+00 -0.48829646470E+03  0.50404178061E+03  0.12499871666E+03 0.  0.
    9000005    1    3    3    0    0  0.94855731205E+01 -0.60509244075E+02 -0.19413619445E+03  0.20357113428E+03  0.10000000000E+01 0.  0.
    9000005    1    3    3    0    0 -0.94855731205E+01  0.60509244075E+02 -0.29416027025E+03  0.30047064634E+03  0.10000000000E+01 0.  0.
<mgrwt>
<rscale>  0 0.12499872E+03</rscale>
<asrwt>0</asrwt>
<pdfrwt beam="2">  1        4 0.76333687E-01 0.12499872E+03</pdfrwt>
<pdfrwt beam="1">  1       -4 0.12111785E-02 0.12499872E+03</pdfrwt>
<totfact> 0.55553710E+03</totfact>
</mgrwt>
</event>
<event>
 5    1  0.3227866E-002  0.1250003E+03  0.7818608E-02  0.1235069E+00
          4   -1    0    0  501    0  0.00000000000E+00  0.00000000000E+00  0.90368682086E+02  0.90377605644E+02  0.12700000000E+01 0.  1.
         -4   -1    0    0    0  501 -0.00000000000E+00 -0.00000000000E+00 -0.43205496030E+02  0.43224157449E+02  0.12700000000E+01 0.  1.
         25    2    1    2    0    0  0.00000000000E+00  0.00000000000E+00  0.47163186056E+02  0.13360176309E+03  0.12500025993E+03 0.  0.
    9000005    1    3    3    0    0  0.32815611125E+01  0.53974663318E+02  0.57061744746E+02  0.78619817076E+02  0.10000000000E+01 0.  0.
    9000005    1    3    3    0    0 -0.32815611125E+01 -0.53974663318E+02 -0.98985586896E+01  0.54981946017E+02  0.10000000000E+01 0.  0.
<mgrwt>
<rscale>  0 0.12500026E+03</rscale>
<asrwt>0</asrwt>
<pdfrwt beam="1">  1        4 0.13904996E-01 0.12500026E+03</pdfrwt>
<pdfrwt beam="2">  1       -4 0.66491214E-02 0.12500026E+03</pdfrwt>
<totfact> 0.10267567E+04</totfact>
</mgrwt>
</event>
<event>
 5    1  0.3227866E-002  0.1249998E+03  0.7818608E-02  0.1235070E+00
         -4   -1    0    0    0  501 -0.00000000000E+00  0.00000000000E+00  0.21607023299E+03  0.21607396531E+03  0.12700000000E+01 0. -1.
          4   -1    0    0  501    0  0.00000000000E+00 -0.00000000000E+00 -0.18052371124E+02  0.18096988788E+02  0.12700000000E+01 0. -1.
         25    2    1    2    0    0  0.00000000000E+00  0.00000000000E+00  0.19801786186E+03  0.23417095410E+03  0.12499984850E+03 0.  0.
    9000005    1    3    3    0    0  0.55854194863E+02 -0.72150473224E+01  0.14974553428E+03  0.15998897783E+03  0.10000000000E+01 0.  0.
    9000005    1    3    3    0    0 -0.55854194863E+02  0.72150473224E+01  0.48272327585E+02  0.74181976262E+02  0.10000000000E+01 0.  0.
<mgrwt>
<rscale>  0 0.12499985E+03</rscale>
<asrwt>0</asrwt>
<pdfrwt beam="2">  1        4 0.27810070E-02 0.12499985E+03</pdfrwt>
<pdfrwt beam="1">  1       -4 0.33245295E-01 0.12499985E+03</pdfrwt>
<totfact> 0.84673515E+03</totfact>
</mgrwt>
</event>
<event>
 5    1  0.3227866E-002  0.1250001E+03  0.7818608E-02  0.1235069E+00
         -4   -1    0    0    0  501 -0.00000000000E+00  0.00000000000E+00  0.76321471427E+02  0.76332037185E+02  0.12700000000E+01 0.  1.
          4   -1    0    0  501    0  0.00000000000E+00 -0.00000000000E+00 -0.51159624508E+02  0.51175385487E+02  0.12700000000E+01 0.  1.
         25    2    1    2    0    0  0.00000000000E+00  0.00000000000E+00  0.25161846919E+02  0.12750742267E+03  0.12500009718E+03 0.  0.
    9000005    1    3    3    0    0 -0.36643819220E+02  0.49725881221E+02  0.22248545817E+02  0.65661484458E+02  0.10000000000E+01 0.  0.
    9000005    1    3    3    0    0  0.36643819220E+02 -0.49725881221E+02  0.29133011016E+01  0.61845938214E+02  0.10000000000E+01 0.  0.
<mgrwt>
<rscale>  0 0.12500010E+03</rscale>
<asrwt>0</asrwt>
<pdfrwt beam="2">  1        4 0.78727366E-02 0.12500010E+03</pdfrwt>
<pdfrwt beam="1">  1       -4 0.11743790E-01 0.12500010E+03</pdfrwt>
<totfact> 0.10398117E+04</totfact>
</mgrwt>
</event>
<event>
 5    1  0.3227866E-002  0.1249937E+03  0.7818608E-02  0.1235079E+00
         -4   -1    0    0    0  501 -0.00000000000E+00  0.00000000000E+00  0.15056468367E+03  0.15057003975E+03  0.12700000000E+01 0. -1.
          4   -1    0    0  501    0  0.00000000000E+00 -0.00000000000E+00 -0.25920034603E+02  0.25951128951E+02  0.12700000000E+01 0. -1.
         25    2    1    2    0    0  0.00000000000E+00  0.00000000000E+00  0.12464464907E+03  0.17652116870E+03  0.12499373767E+03 0.  0.
    9000005    1    3    3    0    0 -0.15415187663E+02  0.53494042106E+02  0.10240651681E+03  0.11656472553E+03  0.10000000000E+01 0.  0.
    9000005    1    3    3    0    0  0.15415187663E+02 -0.53494042106E+02  0.22238132256E+02  0.59956443171E+02  0.10000000000E+01 0.  0.
<mgrwt>
<rscale>  0 0.12499374E+03</rscale>
<asrwt>0</asrwt>
<pdfrwt beam="2">  1        4 0.39905014E-02 0.12499374E+03</pdfrwt>
<pdfrwt beam="1">  1       -4 0.23166602E-01 0.12499374E+03</pdfrwt>
<totfact> 0.94260217E+03</totfact>
</mgrwt>
</event>
<event>
 5    1  0.3227866E-002  0.1249978E+03  0.7818608E-02  0.1235073E+00
          4   -1    0    0  501    0  0.00000000000E+00  0.00000000000E+00  0.12958159386E+02  0.13020245568E+02  0.12700000000E+01 0. -1.
         -4   -1    0    0    0  501 -0.00000000000E+00 -0.00000000000E+00 -0.30065630686E+03  0.30065898915E+03  0.12700000000E+01 0. -1.
         25    2    1    2    0    0  0.00000000000E+00  0.00000000000E+00 -0.28769814748E+03  0.31367923472E+03  0.12499775291E+03 0.  0.
    9000005    1    3    3    0    0  0.35069718842E+02 -0.25714183392E+02 -0.25646864054E+03  0.26013125146E+03  0.10000000000E+01 0.  0.
    9000005    1    3    3    0    0 -0.35069718842E+02  0.25714183392E+02 -0.31229506939E+02  0.53547983257E+02  0.10000000000E+01 0.  0.
<mgrwt>
<rscale>  0 0.12499775E+03</rscale>
<asrwt>0</asrwt>
<pdfrwt beam="1">  1        4 0.19985454E-02 0.12499775E+03</pdfrwt>
<pdfrwt beam="2">  1       -4 0.46259793E-01 0.12499775E+03</pdfrwt>
<totfact> 0.73917943E+03</totfact>
</mgrwt>
</event>
<event>
 5    1  0.3227866E-002  0.1249962E+03  0.7818608E-02  0.1235075E+00
         -4   -1    0    0    0  501 -0.00000000000E+00  0.00000000000E+00  0.30580086535E+03  0.30580350251E+03  0.12700000000E+01 0. -1.
          4   -1    0    0  501    0  0.00000000000E+00 -0.00000000000E+00 -0.12738795144E+02  0.12801945232E+02  0.12700000000E+01 0. -1.
         25    2    1    2    0    0  0.00000000000E+00  0.00000000000E+00  0.29306207020E+03  0.31860544774E+03  0.12499621730E+03 0.  0.
    9000005    1    3    3    0    0  0.32993840205E+02  0.17670598806E+02  0.27408331742E+03  0.27662882793E+03  0.10000000000E+01 0.  0.
    9000005    1    3    3    0    0 -0.32993840205E+02 -0.17670598806E+02  0.18978752783E+02  0.41976619812E+02  0.10000000000E+01 0.  0.
<mgrwt>
<rscale>  0 0.12499622E+03</rscale>
<asrwt>0</asrwt>
<pdfrwt beam="2">  1        4 0.19648753E-02 0.12499622E+03</pdfrwt>
<pdfrwt beam="1">  1       -4 0.47051344E-01 0.12499622E+03</pdfrwt>
<totfact> 0.73328446E+03</totfact>
</mgrwt>
</event>
<event>
 5    1  0.3227866E-002  0.1250028E+03  0.7818608E-02  0.1235065E+00
         -4   -1    0    0    0  501 -0.00000000000E+00  0.00000000000E+00  0.64564226065E+03  0.64564350971E+03  0.12700000000E+01 0. -1.
          4   -1    0    0  501    0  0.00000000000E+00 -0.00000000000E+00 -0.59825403270E+01  0.61158555219E+01  0.12700000000E+01 0. -1.
         25    2    1    2    0    0  0.00000000000E+00  0.00000000000E+00  0.63965972032E+03  0.65175936524E+03  0.12500284945E+03 0.  0.
    9000005    1    3    3    0    0  0.10228886554E+02 -0.27582642407E+02  0.60730736052E+03  0.60802028126E+03  0.10000000000E+01 0.  0.
    9000005    1    3    3    0    0 -0.10228886554E+02  0.27582642407E+02  0.32352359804E+02  0.43739083978E+02  0.10000000000E+01 0.  0.
<mgrwt>
<rscale>  0 0.12500285E+03</rscale>
<asrwt>0</asrwt>
<pdfrwt beam="2">  1        4 0.93074161E-03 0.12500285E+03</pdfrwt>
<pdfrwt beam="1">  1       -4 0.99339962E-01 0.12500285E+03</pdfrwt>
<totfact> 0.45752264E+03</totfact>
</mgrwt>
</event>
<event>
 5    1  0.3227866E-002  0.1250066E+03  0.7818608E-02  0.1235059E+00
          4   -1    0    0  501    0  0.00000000000E+00  0.00000000000E+00  0.88921958612E+02  0.88931027338E+02  0.12700000000E+01 0. -1.
         -4   -1    0    0    0  501 -0.00000000000E+00 -0.00000000000E+00 -0.43913144684E+02  0.43931505506E+02  0.12700000000E+01 0. -1.
         25    2    1    2    0    0  0.00000000000E+00  0.00000000000E+00  0.45008813928E+02  0.13286253284E+03  0.12500663703E+03 0.  0.
    9000005    1    3    3    0    0 -0.15495787173E+02  0.55588875748E+02 -0.29910499406E+01  0.57794367431E+02  0.10000000000E+01 0.  0.
    9000005    1    3    3    0    0  0.15495787173E+02 -0.55588875748E+02  0.47999863869E+02  0.75068165413E+02  0.10000000000E+01 0.  0.
<mgrwt>
<rscale>  0 0.12500664E+03</rscale>
<asrwt>0</asrwt>
<pdfrwt beam="1">  1        4 0.13682411E-01 0.12500664E+03</pdfrwt>
<pdfrwt beam="2">  1       -4 0.67579784E-02 0.12500664E+03</pdfrwt>
<totfact> 0.10281783E+04</totfact>
</mgrwt>
</event>
<event>
 5    1  0.3227866E-002  0.1250109E+03  0.7818608E-02  0.1235052E+00
          4   -1    0    0  501    0  0.00000000000E+00  0.00000000000E+00  0.76903580329E+02  0.76914066122E+02  0.12700000000E+01 0.  1.
         -4   -1    0    0    0  501 -0.00000000000E+00 -0.00000000000E+00 -0.50781088991E+02  0.50796967421E+02  0.12700000000E+01 0.  1.
         25    2    1    2    0    0  0.00000000000E+00  0.00000000000E+00  0.26122491338E+02  0.12771103354E+03  0.12501089367E+03 0.  0.
    9000005    1    3    3    0    0 -0.45910012728E+02 -0.14726474475E+02 -0.27563641427E+02  0.55545950779E+02  0.10000000000E+01 0.  0.
    9000005    1    3    3    0    0  0.45910012728E+02  0.14726474475E+02  0.53686132765E+02  0.72165082765E+02  0.10000000000E+01 0.  0.
<mgrwt>
<rscale>  0 0.12501089E+03</rscale>
<asrwt>0</asrwt>
<pdfrwt beam="1">  1        4 0.11833348E-01 0.12501089E+03</pdfrwt>
<pdfrwt beam="2">  1       -4 0.78145033E-02 0.12501089E+03</pdfrwt>
<totfact> 0.10391177E+04</totfact>
</mgrwt>
</event>
<event>
 5    1  0.3227866E-002  0.1250024E+03  0.7818608E-02  0.1235066E+00
          4   -1    0    0  501    0  0.00000000000E+00  0.00000000000E+00  0.79392945897E+01  0.80402300081E+01  0.12700000000E+01 0.  1.
         -4   -1    0    0    0  501 -0.00000000000E+00 -0.00000000000E+00 -0.48882396435E+03  0.48882561412E+03  0.12700000000E+01 0.  1.
         25    2    1    2    0    0  0.00000000000E+00  0.00000000000E+00 -0.48088466976E+03  0.49686584413E+03  0.12500240579E+03 0.  0.
    9000005    1    3    3    0    0  0.57512405085E+02 -0.11577540768E+01 -0.14337268052E+03  0.15448541242E+03  0.10000000000E+01 0.  0.
    9000005    1    3    3    0    0 -0.57512405085E+02  0.11577540768E+01 -0.33751198925E+03  0.34238043171E+03  0.10000000000E+01 0.  0.
<mgrwt>
<rscale>  0 0.12500241E+03</rscale>
<asrwt>0</asrwt>
<pdfrwt beam="1">  1        4 0.12293215E-02 0.12500241E+03</pdfrwt>
<pdfrwt beam="2">  1       -4 0.75211555E-01 0.12500241E+03</pdfrwt>
<totfact> 0.56105403E+03</totfact>
</mgrwt>
</event>
<event>
 5    1  0.3227866E-002  0.1250005E+03  0.7818608E-02  0.1235069E+00
          4   -1    0    0  501    0  0.00000000000E+00  0.00000000000E+00  0.81813106745E+02  0.81822963374E+02  0.12700000000E+01 0. -1.
         -4   -1    0    0    0  501 -0.00000000000E+00 -0.00000000000E+00 -0.47725207496E+02  0.47742102284E+02  0.12700000000E+01 0. -1.
         25    2    1    2    0    0  0.00000000000E+00  0.00000000000E+00  0.34087899249E+02  0.12956506566E+03  0.12500048545E+03 0.  0.
    9000005    1    3    3    0    0  0.22754449847E+02  0.43572077997E+02 -0.22952553126E+02  0.54259659637E+02  0.10000000000E+01 0.  0.
    9000005    1    3    3    0    0 -0.22754449847E+02 -0.43572077997E+02  0.57040452376E+02  0.75305406022E+02  0.10000000000E+01 0.  0.
<mgrwt>
<rscale>  0 0.12500049E+03</rscale>
<asrwt>0</asrwt>
<pdfrwt beam="1">  1        4 0.12588690E-01 0.12500049E+03</pdfrwt>
<pdfrwt beam="2">  1       -4 0.73443974E-02 0.12500049E+03</pdfrwt>
<totfact> 0.10353707E+04</totfact>
</mgrwt>
</event>
<event>
 5    1  0.3227866E-002  0.1249997E+03  0.7818608E-02  0.1235070E+00
          4   -1    0    0  501    0  0.00000000000E+00  0.00000000000E+00  0.17123036265E+03  0.17123507232E+03  0.12700000000E+01 0.  1.
         -4   -1    0    0    0  501 -0.00000000000E+00 -0.00000000000E+00 -0.22790031770E+02  0.22825390425E+02  0.12700000000E+01 0.  1.
         25    2    1    2    0    0  0.00000000000E+00  0.00000000000E+00  0.14844033088E+03  0.19406046274E+03  0.12499972548E+03 0.  0.
    9000005    1    3    3    0    0 -0.90989253753E+01  0.29548829868E+02  0.15853192352E+03  0.16152180832E+03  0.10000000000E+01 0.  0.
    9000005    1    3    3    0    0  0.90989253753E+01 -0.29548829868E+02 -0.10091592641E+02  0.32538654422E+02  0.10000000000E+01 0.  0.
<mgrwt>
<rscale>  0 0.12499973E+03</rscale>
<asrwt>0</asrwt>
<pdfrwt beam="1">  1        4 0.26346215E-01 0.12499973E+03</pdfrwt>
<pdfrwt beam="2">  1       -4 0.35092409E-02 0.12499973E+03</pdfrwt>
<totfact> 0.91146128E+03</totfact>
</mgrwt>
</event>
<event>
 5    1  0.3227866E-002  0.1250007E+03  0.7818608E-02  0.1235068E+00
          4   -1    0    0  501    0  0.00000000000E+00  0.00000000000E+00  0.84088526896E+02  0.84098116837E+02  0.12700000000E+01 0. -1.
         -4   -1    0    0    0  501 -0.00000000000E+00 -0.00000000000E+00 -0.46433651118E+02  0.46451015663E+02  0.12700000000E+01 0. -1.
         25    2    1    2    0    0  0.00000000000E+00  0.00000000000E+00  0.37654875779E+02  0.13054913250E+03  0.12500074530E+03 0.  0.
    9000005    1    3    3    0    0 -0.25754130075E+02  0.56348482731E+02  0.27367806071E+02  0.67737903209E+02  0.10000000000E+01 0.  0.
    9000005    1    3    3    0    0  0.25754130075E+02 -0.56348482731E+02  0.10287069707E+02  0.62811229292E+02  0.10000000000E+01 0.  0.
<mgrwt>
<rscale>  0 0.12500075E+03</rscale>
<asrwt>0</asrwt>
<pdfrwt beam="1">  1        4 0.12938770E-01 0.12500075E+03</pdfrwt>
<pdfrwt beam="2">  1       -4 0.71457121E-02 0.12500075E+03</pdfrwt>
<totfact> 0.10332591E+04</totfact>
</mgrwt>
</event>
<event>
 5    1  0.3227866E-002  0.1250119E+03  0.7818608E-02  0.1235051E+00
          4   -1    0    0  501    0  0.00000000000E+00  0.00000000000E+00  0.13342593988E+04  0.13342600032E+04  0.12700000000E+01 0.  1.
         -4   -1    0    0    0  501 -0.00000000000E+00 -0.00000000000E+00 -0.27898763883E+01  0.30653401543E+01  0.12700000000E+01 0.  1.
         25    2    1    2    0    0  0.00000000000E+00  0.00000000000E+00  0.13314695224E+04  0.13373253433E+04  0.12501193908E+03 0.  0.
    9000005    1    3    3    0    0  0.43481883303E+02  0.41621760262E+02  0.48578913459E+03  0.48950498301E+03  0.10000000000E+01 0.  0.
    9000005    1    3    3    0    0 -0.43481883303E+02 -0.41621760262E+02  0.84568038777E+03  0.84782036031E+03  0.10000000000E+01 0.  0.
<mgrwt>
<rscale>  0 0.12501194E+03</rscale>
<asrwt>0</asrwt>
<pdfrwt beam="1">  1        4 0.20529199E+00 0.12501194E+03</pdfrwt>
<pdfrwt beam="2">  1       -4 0.45044760E-03 0.12501194E+03</pdfrwt>
<totfact> 0.21358758E+03</totfact>
</mgrwt>
</event>
<event>
 5    1  0.3227866E-002  0.1250052E+03  0.7818608E-02  0.1235061E+00
         -4   -1    0    0    0  501 -0.00000000000E+00  0.00000000000E+00  0.16080008855E+03  0.16080510371E+03  0.12700000000E+01 0. -1.
          4   -1    0    0  501    0  0.00000000000E+00 -0.00000000000E+00 -0.24272593899E+02  0.24305795905E+02  0.12700000000E+01 0. -1.
         25    2    1    2    0    0  0.00000000000E+00  0.00000000000E+00  0.13652749465E+03  0.18511089961E+03  0.12500515333E+03 0.  0.
    9000005    1    3    3    0    0  0.16553032359E+01  0.36814725399E+02  0.14300525553E+03  0.14768062549E+03  0.10000000000E+01 0.  0.
    9000005    1    3    3    0    0 -0.16553032359E+01 -0.36814725399E+02 -0.64777608776E+01  0.37430274124E+02  0.10000000000E+01 0.  0.
<mgrwt>
<rscale>  0 0.12500515E+03</rscale>
<asrwt>0</asrwt>
<pdfrwt beam="2">  1        4 0.37371850E-02 0.12500515E+03</pdfrwt>
<pdfrwt beam="1">  1       -4 0.24741415E-01 0.12500515E+03</pdfrwt>
<totfact> 0.92694325E+03</totfact>
</mgrwt>
</event>
<event>
 5    1  0.3227866E-002  0.1249762E+03  0.7818608E-02  0.1235106E+00
         -4   -1    0    0    0  501 -0.00000000000E+00  0.00000000000E+00  0.40126954867E+03  0.40127155841E+03  0.12700000000E+01 0. -1.
          4   -1    0    0  501    0  0.00000000000E+00 -0.00000000000E+00 -0.96875412019E+01  0.97704326690E+01  0.12700000000E+01 0. -1.
         25    2    1    2    0    0  0.00000000000E+00  0.00000000000E+00  0.39158200747E+03  0.41104199108E+03  0.12497619717E+03 0.  0.
    9000005    1    3    3    0    0  0.53963681116E+02  0.19763327229E+02  0.11515476619E+03  0.12870232383E+03  0.10000000000E+01 0.  0.
    9000005    1    3    3    0    0 -0.53963681116E+02 -0.19763327229E+02  0.27642724128E+03  0.28233966725E+03  0.10000000000E+01 0.  0.
<mgrwt>
<rscale>  0 0.12497620E+03</rscale>
<asrwt>0</asrwt>
<pdfrwt beam="2">  1        4 0.14969225E-02 0.12497620E+03</pdfrwt>
<pdfrwt beam="1">  1       -4 0.61740279E-01 0.12497620E+03</pdfrwt>
<totfact> 0.63526218E+03</totfact>
</mgrwt>
</event>
<event>
 5    1  0.3227866E-002  0.1250115E+03  0.7818608E-02  0.1235051E+00
          4   -1    0    0  501    0  0.00000000000E+00  0.00000000000E+00  0.16755319174E+04  0.16755323987E+04  0.12700000000E+01 0.  1.
         -4   -1    0    0    0  501 -0.00000000000E+00 -0.00000000000E+00 -0.21583367668E+01  0.25042598905E+01  0.12700000000E+01 0.  1.
         25    2    1    2    0    0  0.00000000000E+00  0.00000000000E+00  0.16733735807E+04  0.16780366586E+04  0.12501154845E+03 0.  0.
    9000005    1    3    3    0    0 -0.20805962178E+02 -0.51869173773E+02  0.12122139600E+04  0.12135019506E+04  0.10000000000E+01 0.  0.
    9000005    1    3    3    0    0  0.20805962178E+02  0.51869173773E+02  0.46115962062E+03  0.46453470800E+03  0.10000000000E+01 0.  0.
<mgrwt>
<rscale>  0 0.12501155E+03</rscale>
<asrwt>0</asrwt>
<pdfrwt beam="1">  1        4 0.25780121E+00 0.12501155E+03</pdfrwt>
<pdfrwt beam="2">  1       -4 0.35869772E-03 0.12501155E+03</pdfrwt>
<totfact> 0.14673901E+03</totfact>
</mgrwt>
</event>
<event>
 5    1  0.3227866E-002  0.1249989E+03  0.7818608E-02  0.1235071E+00
         -4   -1    0    0    0  501 -0.00000000000E+00  0.00000000000E+00  0.16917607973E+03  0.16918084659E+03  0.12700000000E+01 0.  1.
          4   -1    0    0  501    0  0.00000000000E+00 -0.00000000000E+00 -0.23066877369E+02  0.23101812300E+02  0.12700000000E+01 0.  1.
         25    2    1    2    0    0  0.00000000000E+00  0.00000000000E+00  0.14610920236E+03  0.19228265889E+03  0.12499888758E+03 0.  0.
    9000005    1    3    3    0    0 -0.48168700080E+02 -0.31304852105E+02  0.11089000665E+03  0.12489119668E+03  0.10000000000E+01 0.  0.
    9000005    1    3    3    0    0  0.48168700080E+02  0.31304852105E+02  0.35219195713E+02  0.67391462214E+02  0.10000000000E+01 0.  0.
<mgrwt>
<rscale>  0 0.12499889E+03</rscale>
<asrwt>0</asrwt>
<pdfrwt beam="2">  1        4 0.35518044E-02 0.12499889E+03</pdfrwt>
<pdfrwt beam="1">  1       -4 0.26030142E-01 0.12499889E+03</pdfrwt>
<totfact> 0.91453928E+03</totfact>
</mgrwt>
</event>
<event>
 5    1  0.3227866E-002  0.1250004E+03  0.7818608E-02  0.1235069E+00
          4   -1    0    0  501    0  0.00000000000E+00  0.00000000000E+00  0.14734348584E+01  0.19452275656E+01  0.12700000000E+01 0. -1.
         -4   -1    0    0    0  501 -0.00000000000E+00 -0.00000000000E+00 -0.22847939048E+04  0.22847942577E+04  0.12700000000E+01 0. -1.
         25    2    1    2    0    0  0.00000000000E+00  0.00000000000E+00 -0.22833204699E+04  0.22867394853E+04  0.12500042124E+03 0.  0.
    9000005    1    3    3    0    0 -0.57425954210E+02  0.10530953070E+02 -0.15493444872E+04  0.15504444464E+04  0.10000000000E+01 0.  0.
    9000005    1    3    3    0    0  0.57425954210E+02 -0.10530953070E+02 -0.73397598268E+03  0.73629503892E+03  0.10000000000E+01 0.  0.
<mgrwt>
<rscale>  0 0.12500042E+03</rscale>
<asrwt>0</asrwt>
<pdfrwt beam="1">  1        4 0.26300301E-03 0.12500042E+03</pdfrwt>
<pdfrwt beam="2">  1       -4 0.35154063E+00 0.12500042E+03</pdfrwt>
<totfact> 0.65676683E+02</totfact>
</mgrwt>
</event>
<event>
 5    1  0.3227866E-002  0.1250006E+03  0.7818608E-02  0.1235068E+00
         -4   -1    0    0    0  501 -0.00000000000E+00  0.00000000000E+00  0.22047498396E+02  0.22084045950E+02  0.12700000000E+01 0. -1.
          4   -1    0    0  501    0  0.00000000000E+00 -0.00000000000E+00 -0.17699047147E+03  0.17699502787E+03  0.12700000000E+01 0. -1.
         25    2    1    2    0    0  0.00000000000E+00  0.00000000000E+00 -0.15494297307E+03  0.19907907382E+03  0.12500061091E+03 0.  0.
    9000005    1    3    3    0    0  0.48032035363E+02  0.31496960002E+02 -0.38260776849E+02  0.69021894755E+02  0.10000000000E+01 0.  0.
    9000005    1    3    3    0    0 -0.48032035363E+02 -0.31496960002E+02 -0.11668219622E+03  0.13005717906E+03  0.10000000000E+01 0.  0.
<mgrwt>
<rscale>  0 0.12500061E+03</rscale>
<asrwt>0</asrwt>
<pdfrwt beam="2">  1        4 0.27232464E-01 0.12500061E+03</pdfrwt>
<pdfrwt beam="1">  1       -4 0.33950848E-02 0.12500061E+03</pdfrwt>
<totfact> 0.90289827E+03</totfact>
</mgrwt>
</event>
<event>
 5    1  0.3227866E-002  0.1249980E+03  0.7818608E-02  0.1235072E+00
          4   -1    0    0  501    0  0.00000000000E+00  0.00000000000E+00  0.46954125751E+01  0.48641339671E+01  0.12700000000E+01 0.  1.
         -4   -1    0    0    0  501 -0.00000000000E+00 -0.00000000000E+00 -0.81705001426E+03  0.81705100128E+03  0.12700000000E+01 0.  1.
         25    2    1    2    0    0  0.00000000000E+00  0.00000000000E+00 -0.81235460168E+03  0.82191513525E+03  0.12499796270E+03 0.  0.
    9000005    1    3    3    0    0 -0.28289512298E+02 -0.12459479959E+02 -0.49065101034E+02  0.57999304189E+02  0.10000000000E+01 0.  0.
    9000005    1    3    3    0    0  0.28289512298E+02  0.12459479959E+02 -0.76328950065E+03  0.76391583106E+03  0.10000000000E+01 0.  0.
<mgrwt>
<rscale>  0 0.12499796E+03</rscale>
<asrwt>0</asrwt>
<pdfrwt beam="1">  1        4 0.73542631E-03 0.12499796E+03</pdfrwt>
<pdfrwt beam="2">  1       -4 0.12571295E+00 0.12499796E+03</pdfrwt>
<totfact> 0.37306594E+03</totfact>
</mgrwt>
</event>
<event>
 5    1  0.3227866E-002  0.1250007E+03  0.7818608E-02  0.1235068E+00
         -4   -1    0    0    0  501 -0.00000000000E+00  0.00000000000E+00  0.58342291013E+01  0.59708566560E+01  0.12700000000E+01 0. -1.
          4   -1    0    0  501    0  0.00000000000E+00 -0.00000000000E+00 -0.66166163076E+03  0.66166284958E+03  0.12700000000E+01 0. -1.
         25    2    1    2    0    0  0.00000000000E+00  0.00000000000E+00 -0.65582740166E+03  0.66763370624E+03  0.12500073976E+03 0.  0.
    9000005    1    3    3    0    0 -0.22752980296E+02 -0.55762661146E+02 -0.41698641898E+03  0.42131442665E+03  0.10000000000E+01 0.  0.
    9000005    1    3    3    0    0  0.22752980296E+02  0.55762661146E+02 -0.23884098268E+03  0.24631927959E+03  0.10000000000E+01 0.  0.
<mgrwt>
<rscale>  0 0.12500074E+03</rscale>
<asrwt>0</asrwt>
<pdfrwt beam="2">  1        4 0.10180464E+00 0.12500074E+03</pdfrwt>
<pdfrwt beam="1">  1       -4 0.90817780E-03 0.12500074E+03</pdfrwt>
<totfact> 0.44850477E+03</totfact>
</mgrwt>
</event>
<event>
 5    1  0.3227866E-002  0.1249922E+03  0.7818608E-02  0.1235081E+00
          4   -1    0    0  501    0  0.00000000000E+00  0.00000000000E+00  0.26380542894E+02  0.26411095081E+02  0.12700000000E+01 0.  1.
         -4   -1    0    0    0  501 -0.00000000000E+00 -0.00000000000E+00 -0.14793579499E+03  0.14794124624E+03  0.12700000000E+01 0.  1.
         25    2    1    2    0    0  0.00000000000E+00  0.00000000000E+00 -0.12155525209E+03  0.17435234132E+03  0.12499223821E+03 0.  0.
    9000005    1    3    3    0    0  0.20087959479E+02 -0.37443453513E+02 -0.12468844707E+03  0.13173362198E+03  0.10000000000E+01 0.  0.
    9000005    1    3    3    0    0 -0.20087959479E+02  0.37443453513E+02  0.31331949820E+01  0.42618719335E+02  0.10000000000E+01 0.  0.
<mgrwt>
<rscale>  0 0.12499224E+03</rscale>
<asrwt>0</asrwt>
<pdfrwt beam="1">  1        4 0.40613146E-02 0.12499224E+03</pdfrwt>
<pdfrwt beam="2">  1       -4 0.22762122E-01 0.12499224E+03</pdfrwt>
<totfact> 0.94660074E+03</totfact>
</mgrwt>
</event>
<event>
 5    1  0.3227866E-002  0.1249947E+03  0.7818608E-02  0.1235078E+00
         -4   -1    0    0    0  501 -0.00000000000E+00  0.00000000000E+00  0.19620344826E+02  0.19661404606E+02  0.12700000000E+01 0.  1.
          4   -1    0    0  501    0  0.00000000000E+00 -0.00000000000E+00 -0.19882383361E+03  0.19882788968E+03  0.12700000000E+01 0.  1.
         25    2    1    2    0    0  0.00000000000E+00  0.00000000000E+00 -0.17920348879E+03  0.21848929428E+03  0.12499472518E+03 0.  0.
    9000005    1    3    3    0    0  0.22290387585E+02  0.50459397547E+02 -0.38283833323E+02  0.67154032443E+02  0.10000000000E+01 0.  0.
    9000005    1    3    3    0    0 -0.22290387585E+02 -0.50459397547E+02 -0.14091965546E+03  0.15133526184E+03  0.10000000000E+01 0.  0.
<mgrwt>
<rscale>  0 0.12499473E+03</rscale>
<asrwt>0</asrwt>
<pdfrwt beam="2">  1        4 0.30591751E-01 0.12499473E+03</pdfrwt>
<pdfrwt beam="1">  1       -4 0.30219852E-02 0.12499473E+03</pdfrwt>
<totfact> 0.87118231E+03</totfact>
</mgrwt>
</event>
<event>
 5    1  0.3227866E-002  0.1249945E+03  0.7818608E-02  0.1235078E+00
          4   -1    0    0  501    0  0.00000000000E+00  0.00000000000E+00  0.92910520243E+02  0.92919199694E+02  0.12700000000E+01 0. -1.
         -4   -1    0    0    0  501 -0.00000000000E+00 -0.00000000000E+00 -0.42019232694E+02  0.42038420715E+02  0.12700000000E+01 0. -1.
         25    2    1    2    0    0  0.00000000000E+00  0.00000000000E+00  0.50891287548E+02  0.13495762041E+03  0.12499454451E+03 0.  0.
    9000005    1    3    3    0    0 -0.55219892248E+02 -0.13084282039E+02 -0.28021715022E+01  0.56826816746E+02  0.10000000000E+01 0.  0.
    9000005    1    3    3    0    0  0.55219892248E+02  0.13084282039E+02  0.53693459051E+02  0.78130803664E+02  0.10000000000E+01 0.  0.
<mgrwt>
<rscale>  0 0.12499454E+03</rscale>
<asrwt>0</asrwt>
<pdfrwt beam="1">  1        4 0.14296070E-01 0.12499454E+03</pdfrwt>
<pdfrwt beam="2">  1       -4 0.64666410E-02 0.12499454E+03</pdfrwt>
<totfact> 0.10240224E+04</totfact>
</mgrwt>
</event>
<event>
 5    1  0.3227866E-002  0.1250009E+03  0.7818608E-02  0.1235068E+00
          4   -1    0    0  501    0  0.00000000000E+00  0.00000000000E+00  0.10214757386E+03  0.10215546851E+03  0.12700000000E+01 0. -1.
         -4   -1    0    0    0  501 -0.00000000000E+00 -0.00000000000E+00 -0.38221852019E+02  0.38242945385E+02  0.12700000000E+01 0. -1.
         25    2    1    2    0    0  0.00000000000E+00  0.00000000000E+00  0.63925721845E+02  0.14039841389E+03  0.12500086684E+03 0.  0.
    9000005    1    3    3    0    0 -0.52374142804E+02 -0.34077025476E+02  0.30834259457E+02  0.69685336018E+02  0.10000000000E+01 0.  0.
    9000005    1    3    3    0    0  0.52374142804E+02  0.34077025476E+02  0.33091462388E+02  0.70713077876E+02  0.10000000000E+01 0.  0.
<mgrwt>
<rscale>  0 0.12500087E+03</rscale>
<asrwt>0</asrwt>
<pdfrwt beam="1">  1        4 0.15717241E-01 0.12500087E+03</pdfrwt>
<pdfrwt beam="2">  1       -4 0.58825148E-02 0.12500087E+03</pdfrwt>
<totfact> 0.10125137E+04</totfact>
</mgrwt>
</event>
<event>
 5    1  0.3227866E-002  0.1250009E+03  0.7818608E-02  0.1235068E+00
          4   -1    0    0  501    0  0.00000000000E+00  0.00000000000E+00  0.17647721015E+04  0.17647725585E+04  0.12700000000E+01 0.  1.
         -4   -1    0    0    0  501 -0.00000000000E+00 -0.00000000000E+00 -0.20308281461E+01  0.23952375580E+01  0.12700000000E+01 0.  1.
         25    2    1    2    0    0  0.00000000000E+00  0.00000000000E+00  0.17627412734E+04  0.17671677961E+04  0.12500089015E+03 0.  0.
    9000005    1    3    3    0    0  0.46340692050E+02 -0.41017840133E+02  0.10041146970E+04  0.10060205006E+04  0.10000000000E+01 0.  0.
    9000005    1    3    3    0    0 -0.46340692050E+02  0.41017840133E+02  0.75862657642E+03  0.76114729547E+03  0.10000000000E+01 0.  0.
<mgrwt>
<rscale>  0 0.12500089E+03</rscale>
<asrwt>0</asrwt>
<pdfrwt beam="1">  1        4 0.27153184E+00 0.12500089E+03</pdfrwt>
<pdfrwt beam="2">  1       -4 0.34050128E-03 0.12500089E+03</pdfrwt>
<totfact> 0.13215873E+03</totfact>
</mgrwt>
</event>
<event>
 5    1  0.3227866E-002  0.1250261E+03  0.7818608E-02  0.1235029E+00
          4   -1    0    0  501    0  0.00000000000E+00  0.00000000000E+00  0.21371357534E+03  0.21371734881E+03  0.12700000000E+01 0. -1.
         -4   -1    0    0    0  501 -0.00000000000E+00 -0.00000000000E+00 -0.18259607987E+02  0.18303720491E+02  0.12700000000E+01 0. -1.
         25    2    1    2    0    0  0.00000000000E+00  0.00000000000E+00  0.19545396735E+03  0.23202106930E+03  0.12502609027E+03 0.  0.
    9000005    1    3    3    0    0 -0.64591057538E+01 -0.21845963252E+02 -0.10290238423E+02  0.25017097441E+02  0.10000000000E+01 0.  0.
    9000005    1    3    3    0    0  0.64591057538E+01  0.21845963252E+02  0.20574420577E+03  0.20700397186E+03  0.10000000000E+01 0.  0.
<mgrwt>
<rscale>  0 0.12502609E+03</rscale>
<asrwt>0</asrwt>
<pdfrwt beam="1">  1        4 0.32882693E-01 0.12502609E+03</pdfrwt>
<pdfrwt beam="2">  1       -4 0.28128542E-02 0.12502609E+03</pdfrwt>
<totfact> 0.84950771E+03</totfact>
</mgrwt>
</event>
<event>
 5    1  0.3227866E-002  0.1249990E+03  0.7818608E-02  0.1235071E+00
          4   -1    0    0  501    0  0.00000000000E+00  0.00000000000E+00  0.72702938156E+02  0.72714029709E+02  0.12700000000E+01 0. -1.
         -4   -1    0    0    0  501 -0.00000000000E+00 -0.00000000000E+00 -0.53705322370E+02  0.53720336474E+02  0.12700000000E+01 0. -1.
         25    2    1    2    0    0  0.00000000000E+00  0.00000000000E+00  0.18997615786E+02  0.12643436618E+03  0.12499895818E+03 0.  0.
    9000005    1    3    3    0    0  0.95867815752E+01  0.36153670073E+02 -0.41137938730E+02  0.55608670580E+02  0.10000000000E+01 0.  0.
    9000005    1    3    3    0    0 -0.95867815752E+01 -0.36153670073E+02  0.60135554516E+02  0.70825695603E+02  0.10000000000E+01 0.  0.
<mgrwt>
<rscale>  0 0.12499896E+03</rscale>
<asrwt>0</asrwt>
<pdfrwt beam="1">  1        4 0.11187076E-01 0.12499896E+03</pdfrwt>
<pdfrwt beam="2">  1       -4 0.82643654E-02 0.12499896E+03</pdfrwt>
<totfact> 0.10421705E+04</totfact>
</mgrwt>
</event>
<event>
 5    1  0.3227866E-002  0.1249971E+03  0.7818608E-02  0.1235074E+00
         -4   -1    0    0    0  501 -0.00000000000E+00  0.00000000000E+00  0.66456241349E+01  0.67658865009E+01  0.12700000000E+01 0. -1.
          4   -1    0    0  501    0  0.00000000000E+00 -0.00000000000E+00 -0.58237403083E+03  0.58237541559E+03  0.12700000000E+01 0. -1.
         25    2    1    2    0    0  0.00000000000E+00  0.00000000000E+00 -0.57572840669E+03  0.58914130209E+03  0.12499710219E+03 0.  0.
    9000005    1    3    3    0    0 -0.61552559904E+02 -0.10710098089E+02 -0.29390939400E+03  0.30047821171E+03  0.10000000000E+01 0.  0.
    9000005    1    3    3    0    0  0.61552559904E+02  0.10710098089E+02 -0.28181901269E+03  0.28866309038E+03  0.10000000000E+01 0.  0.
<mgrwt>
<rscale>  0 0.12499710E+03</rscale>
<asrwt>0</asrwt>
<pdfrwt beam="2">  1        4 0.89605323E-01 0.12499710E+03</pdfrwt>
<pdfrwt beam="1">  1       -4 0.10317616E-02 0.12499710E+03</pdfrwt>
<totfact> 0.49563462E+03</totfact>
</mgrwt>
</event>
<event>
 5    1  0.3227866E-002  0.1250001E+03  0.7818608E-02  0.1235069E+00
         -4   -1    0    0    0  501 -0.00000000000E+00  0.00000000000E+00  0.11710238244E+02  0.11778904012E+02  0.12700000000E+01 0. -1.
          4   -1    0    0  501    0  0.00000000000E+00 -0.00000000000E+00 -0.33253116465E+03  0.33253358982E+03  0.12700000000E+01 0. -1.
         25    2    1    2    0    0  0.00000000000E+00  0.00000000000E+00 -0.32082092640E+03  0.34431249384E+03  0.12500010638E+03 0.  0.
    9000005    1    3    3    0    0  0.46132863934E+02 -0.70329727246E+00 -0.27650921706E+03  0.28033387751E+03  0.10000000000E+01 0.  0.
    9000005    1    3    3    0    0 -0.46132863934E+02  0.70329727246E+00 -0.44311709339E+02  0.63978616321E+02  0.10000000000E+01 0.  0.
<mgrwt>
<rscale>  0 0.12500011E+03</rscale>
<asrwt>0</asrwt>
<pdfrwt beam="2">  1        4 0.51164102E-01 0.12500011E+03</pdfrwt>
<pdfrwt beam="1">  1       -4 0.18070439E-02 0.12500011E+03</pdfrwt>
<totfact> 0.70354654E+03</totfact>
</mgrwt>
</event>
<event>
 5    1  0.3227866E-002  0.1249994E+03  0.7818608E-02  0.1235070E+00
         -4   -1    0    0    0  501 -0.00000000000E+00  0.00000000000E+00  0.30517592196E+03  0.30517856453E+03  0.12700000000E+01 0. -1.
          4   -1    0    0  501    0  0.00000000000E+00 -0.00000000000E+00 -0.12765661903E+02  0.12828679738E+02  0.12700000000E+01 0. -1.
         25    2    1    2    0    0  0.00000000000E+00  0.00000000000E+00  0.29241026006E+03  0.31800724426E+03  0.12499938886E+03 0.  0.
    9000005    1    3    3    0    0  0.89764904596E+00  0.53753541896E+02  0.22725534638E+03  0.23352995846E+03  0.10000000000E+01 0.  0.
    9000005    1    3    3    0    0 -0.89764904596E+00 -0.53753541896E+02  0.65154913679E+02  0.84477285803E+02  0.10000000000E+01 0.  0.
<mgrwt>
<rscale>  0 0.12499939E+03</rscale>
<asrwt>0</asrwt>
<pdfrwt beam="2">  1        4 0.19689989E-02 0.12499939E+03</pdfrwt>
<pdfrwt beam="1">  1       -4 0.46955190E-01 0.12499939E+03</pdfrwt>
<totfact> 0.73394760E+03</totfact>
</mgrwt>
</event>
<event>
 5    1  0.3227866E-002  0.1250086E+03  0.7818608E-02  0.1235056E+00
         -4   -1    0    0    0  501 -0.00000000000E+00  0.00000000000E+00  0.18573202949E+03  0.18573637145E+03  0.12700000000E+01 0. -1.
          4   -1    0    0  501    0  0.00000000000E+00 -0.00000000000E+00 -0.21010786231E+02  0.21049133903E+02  0.12700000000E+01 0. -1.
         25    2    1    2    0    0  0.00000000000E+00  0.00000000000E+00  0.16472124326E+03  0.20678550535E+03  0.12500862867E+03 0.  0.
    9000005    1    3    3    0    0  0.41811543547E+02 -0.46142895149E+02  0.73542582969E+02  0.96368477503E+02  0.10000000000E+01 0.  0.
    9000005    1    3    3    0    0 -0.41811543547E+02  0.46142895149E+02  0.91178660294E+02  0.11041702785E+03  0.10000000000E+01 0.  0.
<mgrwt>
<rscale>  0 0.12500863E+03</rscale>
<asrwt>0</asrwt>
<pdfrwt beam="2">  1        4 0.32357125E-02 0.12500863E+03</pdfrwt>
<pdfrwt beam="1">  1       -4 0.28577442E-01 0.12500863E+03</pdfrwt>
<totfact> 0.88986382E+03</totfact>
</mgrwt>
</event>
<event>
 5    1  0.3227866E-002  0.1250036E+03  0.7818608E-02  0.1235064E+00
          4   -1    0    0  501    0  0.00000000000E+00  0.00000000000E+00  0.15538833874E+03  0.15539352856E+03  0.12700000000E+01 0. -1.
         -4   -1    0    0    0  501 -0.00000000000E+00 -0.00000000000E+00 -0.25118441979E+02  0.25150527380E+02  0.12700000000E+01 0. -1.
         25    2    1    2    0    0  0.00000000000E+00  0.00000000000E+00  0.13026989676E+03  0.18054405594E+03  0.12500364047E+03 0.  0.
    9000005    1    3    3    0    0  0.59774082231E+02  0.12894267520E+02  0.46510931888E+02  0.76834040806E+02  0.10000000000E+01 0.  0.
    9000005    1    3    3    0    0 -0.59774082231E+02 -0.12894267520E+02  0.83758964875E+02  0.10371001513E+03  0.10000000000E+01 0.  0.
<mgrwt>
<rscale>  0 0.12500364E+03</rscale>
<asrwt>0</asrwt>
<pdfrwt beam="1">  1        4 0.23908766E-01 0.12500364E+03</pdfrwt>
<pdfrwt beam="2">  1       -4 0.38672429E-02 0.12500364E+03</pdfrwt>
<totfact> 0.93511529E+03</totfact>
</mgrwt>
</event>
<event>
 5    1  0.3227866E-002  0.1250006E+03  0.7818608E-02  0.1235068E+00
          4   -1    0    0  501    0  0.00000000000E+00  0.00000000000E+00  0.20679487974E+01  0.24267905202E+01  0.12700000000E+01 0. -1.
         -4   -1    0    0    0  501 -0.00000000000E+00 -0.00000000000E+00 -0.17378008876E+04  0.17378013516E+04  0.12700000000E+01 0. -1.
         25    2    1    2    0    0  0.00000000000E+00  0.00000000000E+00 -0.17357329388E+04  0.17402281422E+04  0.12500060801E+03 0.  0.
    9000005    1    3    3    0    0 -0.29881875372E+01  0.61335447127E+02 -0.70651716765E+03  0.70918155258E+03  0.10000000000E+01 0.  0.
    9000005    1    3    3    0    0  0.29881875372E+01 -0.61335447127E+02 -0.10292157711E+04  0.10310465896E+04  0.10000000000E+01 0.  0.
<mgrwt>
<rscale>  0 0.12500061E+03</rscale>
<asrwt>0</asrwt>
<pdfrwt beam="1">  1        4 0.34578627E-03 0.12500061E+03</pdfrwt>
<pdfrwt beam="2">  1       -4 0.26738055E+00 0.12500061E+03</pdfrwt>
<totfact> 0.13647150E+03</totfact>
</mgrwt>
</event>
<event>
 5    1  0.3227866E-002  0.1250098E+03  0.7818608E-02  0.1235054E+00
          4   -1    0    0  501    0  0.00000000000E+00  0.00000000000E+00  0.52128129417E+02  0.52143597656E+02  0.12700000000E+01 0.  1.
         -4   -1    0    0    0  501 -0.00000000000E+00 -0.00000000000E+00 -0.74915327011E+02  0.74926091058E+02  0.12700000000E+01 0.  1.
         25    2    1    2    0    0  0.00000000000E+00  0.00000000000E+00 -0.22787197594E+02  0.12706968871E+03  0.12500979728E+03 0.  0.
    9000005    1    3    3    0    0 -0.14821640003E+01  0.59695701367E+01 -0.74611899723E+02  0.74871677943E+02  0.10000000000E+01 0.  0.
    9000005    1    3    3    0    0  0.14821640003E+01 -0.59695701367E+01  0.51824702128E+02  0.52198010771E+02  0.10000000000E+01 0.  0.
<mgrwt>
<rscale>  0 0.12500980E+03</rscale>
<asrwt>0</asrwt>
<pdfrwt beam="1">  1        4 0.80217301E-02 0.12500980E+03</pdfrwt>
<pdfrwt beam="2">  1       -4 0.11527453E-01 0.12500980E+03</pdfrwt>
<totfact> 0.10405331E+04</totfact>
</mgrwt>
</event>
<event>
 5    1  0.3227866E-002  0.1249770E+03  0.7818608E-02  0.1235105E+00
         -4   -1    0    0    0  501 -0.00000000000E+00  0.00000000000E+00  0.13759978686E+02  0.13818462775E+02  0.12700000000E+01 0.  1.
          4   -1    0    0  501    0  0.00000000000E+00 -0.00000000000E+00 -0.28311882610E+03  0.28312167454E+03  0.12700000000E+01 0.  1.
         25    2    1    2    0    0  0.00000000000E+00  0.00000000000E+00 -0.26935884741E+03  0.29694013731E+03  0.12497702375E+03 0.  0.
    9000005    1    3    3    0    0 -0.61614171662E+02 -0.66244953999E+01 -0.11572767426E+03  0.13127865279E+03  0.10000000000E+01 0.  0.
    9000005    1    3    3    0    0  0.61614171662E+02  0.66244953999E+01 -0.15363117316E+03  0.16566148452E+03  0.10000000000E+01 0.  0.
<mgrwt>
<rscale>  0 0.12497702E+03</rscale>
<asrwt>0</asrwt>
<pdfrwt beam="2">  1        4 0.43561456E-01 0.12497702E+03</pdfrwt>
<pdfrwt beam="1">  1       -4 0.21216379E-02 0.12497702E+03</pdfrwt>
<totfact> 0.76023051E+03</totfact>
</mgrwt>
</event>
<event>
 5    1  0.3227866E-002  0.1250014E+03  0.7818608E-02  0.1235067E+00
          4   -1    0    0  501    0  0.00000000000E+00  0.00000000000E+00  0.11384084753E+03  0.11384793133E+03  0.12700000000E+01 0.  1.
         -4   -1    0    0    0  501 -0.00000000000E+00 -0.00000000000E+00 -0.34294091870E+02  0.34317599525E+02  0.12700000000E+01 0.  1.
         25    2    1    2    0    0  0.00000000000E+00  0.00000000000E+00  0.79546755664E+02  0.14816553085E+03  0.12500135278E+03 0.  0.
    9000005    1    3    3    0    0  0.23975356691E+02 -0.49066783428E+02  0.75783591028E+02  0.93415842518E+02  0.10000000000E+01 0.  0.
    9000005    1    3    3    0    0 -0.23975356691E+02  0.49066783428E+02  0.37631646363E+01  0.54749688332E+02  0.10000000000E+01 0.  0.
<mgrwt>
<rscale>  0 0.12500135E+03</rscale>
<asrwt>0</asrwt>
<pdfrwt beam="1">  1        4 0.17516330E-01 0.12500135E+03</pdfrwt>
<pdfrwt beam="2">  1       -4 0.52783673E-02 0.12500135E+03</pdfrwt>
<totfact> 0.99667601E+03</totfact>
</mgrwt>
</event>
<event>
 5    1  0.3227866E-002  0.1249932E+03  0.7818608E-02  0.1235080E+00
          4   -1    0    0  501    0  0.00000000000E+00  0.00000000000E+00  0.59135018293E+01  0.60483389360E+01  0.12700000000E+01 0.  1.
         -4   -1    0    0    0  501 -0.00000000000E+00 -0.00000000000E+00 -0.65291254464E+03  0.65291377979E+03  0.12700000000E+01 0.  1.
         25    2    1    2    0    0  0.00000000000E+00  0.00000000000E+00 -0.64699904281E+03  0.65896211873E+03  0.12499324992E+03 0.  0.
    9000005    1    3    3    0    0 -0.14968599782E+02 -0.48990370489E+02 -0.51216817751E+03  0.51472454520E+03  0.10000000000E+01 0.  0.
    9000005    1    3    3    0    0  0.14968599782E+02  0.48990370489E+02 -0.13483086530E+03  0.14423757353E+03  0.10000000000E+01 0.  0.
<mgrwt>
<rscale>  0 0.12499325E+03</rscale>
<asrwt>0</asrwt>
<pdfrwt beam="1">  1        4 0.92023713E-03 0.12499325E+03</pdfrwt>
<pdfrwt beam="2">  1       -4 0.10045849E+00 0.12499325E+03</pdfrwt>
<totfact> 0.45349891E+03</totfact>
</mgrwt>
</event>
<event>
 5    1  0.3227866E-002  0.1249916E+03  0.7818608E-02  0.1235082E+00
         -4   -1    0    0    0  501 -0.00000000000E+00  0.00000000000E+00  0.42192573035E+02  0.42211682261E+02  0.12700000000E+01 0.  1.
          4   -1    0    0  501    0  0.00000000000E+00 -0.00000000000E+00 -0.92524590426E+02  0.92533306077E+02  0.12700000000E+01 0.  1.
         25    2    1    2    0    0  0.00000000000E+00  0.00000000000E+00 -0.50332017392E+02  0.13474498834E+03  0.12499159935E+03 0.  0.
    9000005    1    3    3    0    0 -0.29160930013E+02 -0.49272066749E+02  0.18198905127E+01  0.57292306660E+02  0.10000000000E+01 0.  0.
    9000005    1    3    3    0    0  0.29160930013E+02  0.49272066749E+02 -0.52151907904E+02  0.77452681678E+02  0.10000000000E+01 0.  0.
<mgrwt>
<rscale>  0 0.12499160E+03</rscale>
<asrwt>0</asrwt>
<pdfrwt beam="2">  1        4 0.14236693E-01 0.12499160E+03</pdfrwt>
<pdfrwt beam="1">  1       -4 0.64933055E-02 0.12499160E+03</pdfrwt>
<totfact> 0.10245390E+04</totfact>
</mgrwt>
</event>
<event>
 5    1  0.3227866E-002  0.1249832E+03  0.7818608E-02  0.1235096E+00
          4   -1    0    0  501    0  0.00000000000E+00  0.00000000000E+00  0.18566144406E+03  0.18566578767E+03  0.12700000000E+01 0.  1.
         -4   -1    0    0    0  501 -0.00000000000E+00 -0.00000000000E+00 -0.21010208160E+02  0.21048556885E+02  0.12700000000E+01 0.  1.
         25    2    1    2    0    0  0.00000000000E+00  0.00000000000E+00  0.16465123590E+03  0.20671434456E+03  0.12498316191E+03 0.  0.
    9000005    1    3    3    0    0 -0.62242856868E+02 -0.14276178001E+01  0.91075301898E+02  0.11032643355E+03  0.10000000000E+01 0.  0.
    9000005    1    3    3    0    0  0.62242856868E+02  0.14276178001E+01  0.73575934005E+02  0.96387911008E+02  0.10000000000E+01 0.  0.
<mgrwt>
<rscale>  0 0.12498316E+03</rscale>
<asrwt>0</asrwt>
<pdfrwt beam="1">  1        4 0.28566584E-01 0.12498316E+03</pdfrwt>
<pdfrwt beam="2">  1       -4 0.32356237E-02 0.12498316E+03</pdfrwt>
<totfact> 0.89048825E+03</totfact>
</mgrwt>
</event>
<event>
 5    1  0.3227866E-002  0.1250004E+03  0.7818608E-02  0.1235069E+00
         -4   -1    0    0    0  501 -0.00000000000E+00  0.00000000000E+00  0.82739044301E+02  0.82748790637E+02  0.12700000000E+01 0. -1.
          4   -1    0    0  501    0  0.00000000000E+00 -0.00000000000E+00 -0.47190909255E+02  0.47207995259E+02  0.12700000000E+01 0. -1.
         25    2    1    2    0    0  0.00000000000E+00  0.00000000000E+00  0.35548135046E+02  0.12995678590E+03  0.12500038518E+03 0.  0.
    9000005    1    3    3    0    0  0.43531815477E+02 -0.51998581470E+01  0.64073181915E+02  0.77642965710E+02  0.10000000000E+01 0.  0.
    9000005    1    3    3    0    0 -0.43531815477E+02  0.51998581470E+01 -0.28525046870E+02  0.52313820185E+02  0.10000000000E+01 0.  0.
<mgrwt>
<rscale>  0 0.12500039E+03</rscale>
<asrwt>0</asrwt>
<pdfrwt beam="2">  1        4 0.72622040E-02 0.12500039E+03</pdfrwt>
<pdfrwt beam="1">  1       -4 0.12731148E-01 0.12500039E+03</pdfrwt>
<totfact> 0.10345342E+04</totfact>
</mgrwt>
</event>
<event>
 5    1  0.3227866E-002  0.1250004E+03  0.7818608E-02  0.1235069E+00
         -4   -1    0    0    0  501 -0.00000000000E+00  0.00000000000E+00  0.11862708863E+02  0.11930497122E+02  0.12700000000E+01 0.  1.
          4   -1    0    0  501    0  0.00000000000E+00 -0.00000000000E+00 -0.32828331619E+03  0.32828577274E+03  0.12700000000E+01 0.  1.
         25    2    1    2    0    0  0.00000000000E+00  0.00000000000E+00 -0.31642060732E+03  0.34021626987E+03  0.12500043817E+03 0.  0.
    9000005    1    3    3    0    0  0.59589742695E+02  0.44613453982E+01 -0.10843656309E+03  0.12381570681E+03  0.10000000000E+01 0.  0.
    9000005    1    3    3    0    0 -0.59589742695E+02 -0.44613453982E+01 -0.20798404423E+03  0.21640056306E+03  0.10000000000E+01 0.  0.
<mgrwt>
<rscale>  0 0.12500044E+03</rscale>
<asrwt>0</asrwt>
<pdfrwt beam="2">  1        4 0.50510522E-01 0.12500044E+03</pdfrwt>
<pdfrwt beam="1">  1       -4 0.18304358E-02 0.12500044E+03</pdfrwt>
<totfact> 0.70813784E+03</totfact>
</mgrwt>
</event>
<event>
 5    1  0.3227866E-002  0.1250075E+03  0.7818608E-02  0.1235058E+00
         -4   -1    0    0    0  501 -0.00000000000E+00  0.00000000000E+00  0.89221120425E+03  0.89221210813E+03  0.12700000000E+01 0.  1.
          4   -1    0    0  501    0  0.00000000000E+00 -0.00000000000E+00 -0.42856763430E+01  0.44698905710E+01  0.12700000000E+01 0.  1.
         25    2    1    2    0    0  0.00000000000E+00  0.00000000000E+00  0.88792552790E+03  0.89668199870E+03  0.12500745450E+03 0.  0.
    9000005    1    3    3    0    0  0.11475604749E+02  0.57461069412E+02  0.28808312021E+03  0.29398358484E+03  0.10000000000E+01 0.  0.
    9000005    1    3    3    0    0 -0.11475604749E+02 -0.57461069412E+02  0.59984240769E+03  0.60269841386E+03  0.10000000000E+01 0.  0.
<mgrwt>
<rscale>  0 0.12500745E+03</rscale>
<asrwt>0</asrwt>
<pdfrwt beam="2">  1        4 0.67357454E-03 0.12500745E+03</pdfrwt>
<pdfrwt beam="1">  1       -4 0.13727753E+00 0.12500745E+03</pdfrwt>
<totfact> 0.34281699E+03</totfact>
</mgrwt>
</event>
<event>
 5    1  0.3227866E-002  0.1249916E+03  0.7818608E-02  0.1235082E+00
          4   -1    0    0  501    0  0.00000000000E+00  0.00000000000E+00  0.36694883240E+02  0.36716853841E+02  0.12700000000E+01 0.  1.
         -4   -1    0    0    0  501 -0.00000000000E+00 -0.00000000000E+00 -0.10638031958E+03  0.10638790013E+03  0.12700000000E+01 0.  1.
         25    2    1    2    0    0  0.00000000000E+00  0.00000000000E+00 -0.69685436343E+02  0.14310475397E+03  0.12499164201E+03 0.  0.
    9000005    1    3    3    0    0 -0.54344478768E+02  0.81770454854E+01 -0.68893894565E+02  0.88133734482E+02  0.10000000000E+01 0.  0.
    9000005    1    3    3    0    0  0.54344478768E+02 -0.81770454854E+01 -0.79154177802E+00  0.54971019491E+02  0.10000000000E+01 0.  0.
<mgrwt>
<rscale>  0 0.12499164E+03</rscale>
<asrwt>0</asrwt>
<pdfrwt beam="1">  1        4 0.56476399E-02 0.12499164E+03</pdfrwt>
<pdfrwt beam="2">  1       -4 0.16368476E-01 0.12499164E+03</pdfrwt>
<totfact> 0.10071534E+04</totfact>
</mgrwt>
</event>
<event>
 5    1  0.3227866E-002  0.1250010E+03  0.7818608E-02  0.1235068E+00
          4   -1    0    0  501    0  0.00000000000E+00  0.00000000000E+00  0.63244793789E+02  0.63257543751E+02  0.12700000000E+01 0.  1.
         -4   -1    0    0    0  501 -0.00000000000E+00 -0.00000000000E+00 -0.61739434416E+02  0.61752495189E+02  0.12700000000E+01 0.  1.
         25    2    1    2    0    0  0.00000000000E+00  0.00000000000E+00  0.15053593728E+01  0.12501003894E+03  0.12500097491E+03 0.  0.
    9000005    1    3    3    0    0  0.34014018486E+00  0.15317063991E+02 -0.59837048213E+02  0.61775403548E+02  0.10000000000E+01 0.  0.
    9000005    1    3    3    0    0 -0.34014018486E+00 -0.15317063991E+02  0.61342407586E+02  0.63234635391E+02  0.10000000000E+01 0.  0.
<mgrwt>
<rscale>  0 0.12500097E+03</rscale>
<asrwt>0</asrwt>
<pdfrwt beam="1">  1        4 0.97319537E-02 0.12500097E+03</pdfrwt>
<pdfrwt beam="2">  1       -4 0.95003600E-02 0.12500097E+03</pdfrwt>
<totfact> 0.10452414E+04</totfact>
</mgrwt>
</event>
<event>
 5    1  0.3227866E-002  0.1249915E+03  0.7818608E-02  0.1235083E+00
          4   -1    0    0  501    0  0.00000000000E+00  0.00000000000E+00  0.20799477311E+02  0.20838213849E+02  0.12700000000E+01 0. -1.
         -4   -1    0    0    0  501 -0.00000000000E+00 -0.00000000000E+00 -0.18756410168E+03  0.18756840122E+03  0.12700000000E+01 0. -1.
         25    2    1    2    0    0  0.00000000000E+00  0.00000000000E+00 -0.16676462437E+03  0.20840661507E+03  0.12499150878E+03 0.  0.
    9000005    1    3    3    0    0  0.34796918155E+02 -0.51621726635E+02 -0.74389171643E+02  0.97007097841E+02  0.10000000000E+01 0.  0.
    9000005    1    3    3    0    0 -0.34796918155E+02  0.51621726635E+02 -0.92375452722E+02  0.11139951723E+03  0.10000000000E+01 0.  0.
<mgrwt>
<rscale>  0 0.12499151E+03</rscale>
<asrwt>0</asrwt>
<pdfrwt beam="1">  1        4 0.32032302E-02 0.12499151E+03</pdfrwt>
<pdfrwt beam="2">  1       -4 0.28859325E-01 0.12499151E+03</pdfrwt>
<totfact> 0.88753615E+03</totfact>
</mgrwt>
</event>
<event>
 5    1  0.3227866E-002  0.1249663E+03  0.7818608E-02  0.1235122E+00
          4   -1    0    0  501    0  0.00000000000E+00  0.00000000000E+00  0.10070974604E+04  0.10070982611E+04  0.12700000000E+01 0. -1.
         -4   -1    0    0    0  501 -0.00000000000E+00 -0.00000000000E+00 -0.37717923437E+01  0.39798640032E+01  0.12700000000E+01 0. -1.
         25    2    1    2    0    0  0.00000000000E+00  0.00000000000E+00  0.10033256680E+04  0.10110781251E+04  0.12496631152E+03 0.  0.
    9000005    1    3    3    0    0 -0.60789880478E+02 -0.12693097551E+02  0.44641947984E+03  0.45071928767E+03  0.10000000000E+01 0.  0.
    9000005    1    3    3    0    0  0.60789880478E+02  0.12693097551E+02  0.55690618817E+03  0.56035883746E+03  0.10000000000E+01 0.  0.
<mgrwt>
<rscale>  0 0.12496631E+03</rscale>
<asrwt>0</asrwt>
<pdfrwt beam="1">  1        4 0.15495420E+00 0.12496631E+03</pdfrwt>
<pdfrwt beam="2">  1       -4 0.59634260E-03 0.12496631E+03</pdfrwt>
<totfact> 0.30263689E+03</totfact>
</mgrwt>
</event>
<event>
 5    1  0.3227866E-002  0.1249992E+03  0.7818608E-02  0.1235070E+00
         -4   -1    0    0    0  501 -0.00000000000E+00  0.00000000000E+00  0.33231443691E+03  0.33231686367E+03  0.12700000000E+01 0. -1.
          4   -1    0    0  501    0  0.00000000000E+00 -0.00000000000E+00 -0.11717755491E+02  0.11786377465E+02  0.12700000000E+01 0. -1.
         25    2    1    2    0    0  0.00000000000E+00  0.00000000000E+00  0.32059668142E+03  0.34410324113E+03  0.12499923368E+03 0.  0.
    9000005    1    3    3    0    0  0.13767632553E+02 -0.53460826399E+02  0.24091455335E+03  0.24716073653E+03  0.10000000000E+01 0.  0.
    9000005    1    3    3    0    0 -0.13767632553E+02  0.53460826399E+02  0.79682128069E+02  0.96942504604E+02  0.10000000000E+01 0.  0.
<mgrwt>
<rscale>  0 0.12499923E+03</rscale>
<asrwt>0</asrwt>
<pdfrwt beam="2">  1        4 0.18081971E-02 0.12499923E+03</pdfrwt>
<pdfrwt beam="1">  1       -4 0.51130758E-01 0.12499923E+03</pdfrwt>
<totfact> 0.70379376E+03</totfact>
</mgrwt>
</event>
<event>
 5    1  0.3227866E-002  0.1250541E+03  0.7818608E-02  0.1234985E+00
         -4   -1    0    0    0  501 -0.00000000000E+00  0.00000000000E+00  0.81654930567E+02  0.81664806287E+02  0.12700000000E+01 0. -1.
          4   -1    0    0  501    0  0.00000000000E+00 -0.00000000000E+00 -0.47858693345E+02  0.47875541028E+02  0.12700000000E+01 0. -1.
         25    2    1    2    0    0  0.00000000000E+00  0.00000000000E+00  0.33796237222E+02  0.12954034732E+03  0.12505405204E+03 0.  0.
    9000005    1    3    3    0    0 -0.59442218610E+02  0.72833904234E+01  0.35492111217E+02  0.69621225844E+02  0.10000000000E+01 0.  0.
    9000005    1    3    3    0    0  0.59442218610E+02 -0.72833904234E+01 -0.16958739947E+01  0.59919121472E+02  0.10000000000E+01 0.  0.
<mgrwt>
<rscale>  0 0.12505405E+03</rscale>
<asrwt>0</asrwt>
<pdfrwt beam="2">  1        4 0.73649316E-02 0.12505405E+03</pdfrwt>
<pdfrwt beam="1">  1       -4 0.12564353E-01 0.12505405E+03</pdfrwt>
<totfact> 0.10341727E+04</totfact>
</mgrwt>
</event>
<event>
 5    1  0.3227866E-002  0.1249962E+03  0.7818608E-02  0.1235075E+00
         -4   -1    0    0    0  501 -0.00000000000E+00  0.00000000000E+00  0.16703317123E+03  0.16703799924E+03  0.12700000000E+01 0. -1.
          4   -1    0    0  501    0  0.00000000000E+00 -0.00000000000E+00 -0.23362254378E+02  0.23396748270E+02  0.12700000000E+01 0. -1.
         25    2    1    2    0    0  0.00000000000E+00  0.00000000000E+00  0.14367091685E+03  0.19043474751E+03  0.12499624279E+03 0.  0.
    9000005    1    3    3    0    0 -0.24856663736E+02 -0.35842506691E+02  0.36592393028E+01  0.43782748318E+02  0.10000000000E+01 0.  0.
    9000005    1    3    3    0    0  0.24856663736E+02  0.35842506691E+02  0.14001167755E+03  0.14665199920E+03  0.10000000000E+01 0.  0.
<mgrwt>
<rscale>  0 0.12499624E+03</rscale>
<asrwt>0</asrwt>
<pdfrwt beam="2">  1        4 0.35972179E-02 0.12499624E+03</pdfrwt>
<pdfrwt beam="1">  1       -4 0.25700434E-01 0.12499624E+03</pdfrwt>
<totfact> 0.91779450E+03</totfact>
</mgrwt>
</event>
<event>
 5    1  0.3227866E-002  0.1250019E+03  0.7818608E-02  0.1235066E+00
          4   -1    0    0  501    0  0.00000000000E+00  0.00000000000E+00  0.23184805866E+03  0.23185153698E+03  0.12700000000E+01 0. -1.
         -4   -1    0    0    0  501 -0.00000000000E+00 -0.00000000000E+00 -0.16821293531E+02  0.16869167616E+02  0.12700000000E+01 0. -1.
         25    2    1    2    0    0  0.00000000000E+00  0.00000000000E+00  0.21502676512E+03  0.24872070460E+03  0.12500191669E+03 0.  0.
    9000005    1    3    3    0    0 -0.38223130555E+02  0.29368432104E+02  0.18665026109E+03  0.19277663883E+03  0.10000000000E+01 0.  0.
    9000005    1    3    3    0    0  0.38223130555E+02 -0.29368432104E+02  0.28376504034E+02  0.55944065770E+02  0.10000000000E+01 0.  0.
<mgrwt>
<rscale>  0 0.12500192E+03</rscale>
<asrwt>0</asrwt>
<pdfrwt beam="1">  1        4 0.35672881E-01 0.12500192E+03</pdfrwt>
<pdfrwt beam="2">  1       -4 0.25918416E-02 0.12500192E+03</pdfrwt>
<totfact> 0.82511955E+03</totfact>
</mgrwt>
</event>
<event>
 5    1  0.3227866E-002  0.1250034E+03  0.7818608E-02  0.1235064E+00
         -4   -1    0    0    0  501 -0.00000000000E+00  0.00000000000E+00  0.20260303932E+03  0.20260701972E+03  0.12700000000E+01 0.  1.
          4   -1    0    0  501    0  0.00000000000E+00 -0.00000000000E+00 -0.19256278105E+02  0.19298112510E+02  0.12700000000E+01 0.  1.
         25    2    1    2    0    0  0.00000000000E+00  0.00000000000E+00  0.18334676121E+03  0.22190513223E+03  0.12500341141E+03 0.  0.
    9000005    1    3    3    0    0 -0.46843347227E+02  0.10604106628E+02  0.16265260876E+03  0.16959840033E+03  0.10000000000E+01 0.  0.
    9000005    1    3    3    0    0  0.46843347227E+02 -0.10604106628E+02  0.20694152450E+02  0.52306731903E+02  0.10000000000E+01 0.  0.
<mgrwt>
<rscale>  0 0.12500341E+03</rscale>
<asrwt>0</asrwt>
<pdfrwt beam="2">  1        4 0.29660285E-02 0.12500341E+03</pdfrwt>
<pdfrwt beam="1">  1       -4 0.31173224E-01 0.12500341E+03</pdfrwt>
<totfact> 0.86561186E+03</totfact>
</mgrwt>
</event>
<event>
 5    1  0.3227866E-002  0.1250006E+03  0.7818608E-02  0.1235068E+00
          4   -1    0    0  501    0  0.00000000000E+00  0.00000000000E+00  0.24319292073E+01  0.27435706059E+01  0.12700000000E+01 0.  1.
         -4   -1    0    0    0  501 -0.00000000000E+00 -0.00000000000E+00 -0.15092198157E+04  0.15092203500E+04  0.12700000000E+01 0.  1.
         25    2    1    2    0    0  0.00000000000E+00  0.00000000000E+00 -0.15067878865E+04  0.15119639206E+04  0.12500064992E+03 0.  0.
    9000005    1    3    3    0    0  0.34269774597E+01  0.44892294622E+02 -0.12776015880E+04  0.12783950407E+04  0.10000000000E+01 0.  0.
    9000005    1    3    3    0    0 -0.34269774597E+01 -0.44892294622E+02 -0.22918629846E+03  0.23356887997E+03  0.10000000000E+01 0.  0.
<mgrwt>
<rscale>  0 0.12500065E+03</rscale>
<asrwt>0</asrwt>
<pdfrwt beam="1">  1        4 0.39815768E-03 0.12500065E+03</pdfrwt>
<pdfrwt beam="2">  1       -4 0.23221097E+00 0.12500065E+03</pdfrwt>
<totfact> 0.17696259E+03</totfact>
</mgrwt>
</event>
<event>
 5    1  0.3227866E-002  0.1249955E+03  0.7818608E-02  0.1235076E+00
          4   -1    0    0  501    0  0.00000000000E+00  0.00000000000E+00  0.32381537041E+03  0.32381786086E+03  0.12700000000E+01 0.  1.
         -4   -1    0    0    0  501 -0.00000000000E+00 -0.00000000000E+00 -0.12026354238E+02  0.12093225222E+02  0.12700000000E+01 0.  1.
         25    2    1    2    0    0  0.00000000000E+00  0.00000000000E+00  0.31178901617E+03  0.33591108608E+03  0.12499546851E+03 0.  0.
    9000005    1    3    3    0    0  0.54090185107E+01  0.30979247044E+02  0.30101324759E+03  0.30265317850E+03  0.10000000000E+01 0.  0.
    9000005    1    3    3    0    0 -0.54090185107E+01 -0.30979247044E+02  0.10775768582E+02  0.33257907589E+02  0.10000000000E+01 0.  0.
<mgrwt>
<rscale>  0 0.12499547E+03</rscale>
<asrwt>0</asrwt>
<pdfrwt beam="1">  1        4 0.49823076E-01 0.12499547E+03</pdfrwt>
<pdfrwt beam="2">  1       -4 0.18555442E-02 0.12499547E+03</pdfrwt>
<totfact> 0.71309997E+03</totfact>
</mgrwt>
</event>
<event>
 5    1  0.3227866E-002  0.1250047E+03  0.7818608E-02  0.1235062E+00
         -4   -1    0    0    0  501 -0.00000000000E+00  0.00000000000E+00  0.27882242758E+01  0.30638365838E+01  0.12700000000E+01 0.  1.
          4   -1    0    0  501    0  0.00000000000E+00 -0.00000000000E+00 -0.13348247982E+04  0.13348254023E+04  0.12700000000E+01 0.  1.
         25    2    1    2    0    0  0.00000000000E+00  0.00000000000E+00 -0.13320365739E+04  0.13378892389E+04  0.12500472557E+03 0.  0.
    9000005    1    3    3    0    0  0.17128231080E+02 -0.12132655291E+02 -0.12960223157E+04  0.12961926633E+04  0.10000000000E+01 0.  0.
    9000005    1    3    3    0    0 -0.17128231080E+02  0.12132655291E+02 -0.36014258224E+02  0.41696575636E+02  0.10000000000E+01 0.  0.
<mgrwt>
<rscale>  0 0.12500473E+03</rscale>
<asrwt>0</asrwt>
<pdfrwt beam="2">  1        4 0.20537842E+00 0.12500473E+03</pdfrwt>
<pdfrwt beam="1">  1       -4 0.45020607E-03 0.12500473E+03</pdfrwt>
<totfact> 0.21349400E+03</totfact>
</mgrwt>
</event>
<event>
 5    1  0.3227866E-002  0.1249989E+03  0.7818608E-02  0.1235071E+00
         -4   -1    0    0    0  501 -0.00000000000E+00  0.00000000000E+00  0.14649805058E+02  0.14704750533E+02  0.12700000000E+01 0. -1.
          4   -1    0    0  501    0  0.00000000000E+00 -0.00000000000E+00 -0.26608165768E+03  0.26608468850E+03  0.12700000000E+01 0. -1.
         25    2    1    2    0    0  0.00000000000E+00  0.00000000000E+00 -0.25143185262E+03  0.28078943903E+03  0.12499893023E+03 0.  0.
    9000005    1    3    3    0    0  0.45555480417E+02 -0.30229827785E+02 -0.19370379404E+03  0.20127420130E+03  0.10000000000E+01 0.  0.
    9000005    1    3    3    0    0 -0.45555480417E+02  0.30229827785E+02 -0.57728058587E+02  0.79515237736E+02  0.10000000000E+01 0.  0.
<mgrwt>
<rscale>  0 0.12499893E+03</rscale>
<asrwt>0</asrwt>
<pdfrwt beam="2">  1        4 0.40940096E-01 0.12499893E+03</pdfrwt>
<pdfrwt beam="1">  1       -4 0.22582761E-02 0.12499893E+03</pdfrwt>
<totfact> 0.78075406E+03</totfact>
</mgrwt>
</event>
<event>
 5    1  0.3227866E-002  0.1249997E+03  0.7818608E-02  0.1235070E+00
         -4   -1    0    0    0  501 -0.00000000000E+00  0.00000000000E+00  0.37997518643E+03  0.37997730880E+03  0.12700000000E+01 0. -1.
          4   -1    0    0  501    0  0.00000000000E+00 -0.00000000000E+00 -0.10238841027E+02  0.10317304182E+02  0.12700000000E+01 0. -1.
         25    2    1    2    0    0  0.00000000000E+00  0.00000000000E+00  0.36973634541E+03  0.39029461298E+03  0.12499967924E+03 0.  0.
    9000005    1    3    3    0    0  0.47111648806E+01 -0.60390005622E+02  0.13689315017E+03  0.14969930667E+03  0.10000000000E+01 0.  0.
    9000005    1    3    3    0    0 -0.47111648806E+01  0.60390005622E+02  0.23284319524E+03  0.24059530632E+03  0.10000000000E+01 0.  0.
<mgrwt>
<rscale>  0 0.12499968E+03</rscale>
<asrwt>0</asrwt>
<pdfrwt beam="2">  1        4 0.15814053E-02 0.12499968E+03</pdfrwt>
<pdfrwt beam="1">  1       -4 0.58463915E-01 0.12499968E+03</pdfrwt>
<totfact> 0.65508262E+03</totfact>
</mgrwt>
</event>
<event>
 5    1  0.3227866E-002  0.1250028E+03  0.7818608E-02  0.1235065E+00
          4   -1    0    0  501    0  0.00000000000E+00  0.00000000000E+00  0.74539376229E+03  0.74539484420E+03  0.12700000000E+01 0. -1.
         -4   -1    0    0    0  501 -0.00000000000E+00 -0.00000000000E+00 -0.51627104737E+01  0.53166229352E+01  0.12700000000E+01 0. -1.
         25    2    1    2    0    0  0.00000000000E+00  0.00000000000E+00  0.74023105181E+03  0.75071146713E+03  0.12500278723E+03 0.  0.
    9000005    1    3    3    0    0 -0.18778358344E+02 -0.58756598016E+02  0.43030896911E+03  0.43470883755E+03  0.10000000000E+01 0.  0.
    9000005    1    3    3    0    0  0.18778358344E+02  0.58756598016E+02  0.30992208270E+03  0.31600262958E+03  0.10000000000E+01 0.  0.
<mgrwt>
<rscale>  0 0.12500279E+03</rscale>
<asrwt>0</asrwt>
<pdfrwt beam="1">  1        4 0.11468792E+00 0.12500279E+03</pdfrwt>
<pdfrwt beam="2">  1       -4 0.80618554E-03 0.12500279E+03</pdfrwt>
<totfact> 0.40537646E+03</totfact>
</mgrwt>
</event>
<event>
 5    1  0.3227866E-002  0.1249997E+03  0.7818608E-02  0.1235070E+00
         -4   -1    0    0    0  501 -0.00000000000E+00  0.00000000000E+00  0.23863483548E+02  0.23897253965E+02  0.12700000000E+01 0. -1.
          4   -1    0    0  501    0  0.00000000000E+00 -0.00000000000E+00 -0.16353867423E+03  0.16354360540E+03  0.12700000000E+01 0. -1.
         25    2    1    2    0    0  0.00000000000E+00  0.00000000000E+00 -0.13967519068E+03  0.18744085937E+03  0.12499966748E+03 0.  0.
    9000005    1    3    3    0    0  0.27914549415E+02  0.35682235619E+02 -0.13438338920E+03  0.14181797946E+03  0.10000000000E+01 0.  0.
    9000005    1    3    3    0    0 -0.27914549415E+02 -0.35682235619E+02 -0.52918014848E+01  0.45622879904E+02  0.10000000000E+01 0.  0.
<mgrwt>
<rscale>  0 0.12499967E+03</rscale>
<asrwt>0</asrwt>
<pdfrwt beam="2">  1        4 0.25162772E-01 0.12499967E+03</pdfrwt>
<pdfrwt beam="1">  1       -4 0.36742823E-02 0.12499967E+03</pdfrwt>
<totfact> 0.92295201E+03</totfact>
</mgrwt>
</event>
<event>
 5    1  0.3227866E-002  0.1249999E+03  0.7818608E-02  0.1235069E+00
         -4   -1    0    0    0  501 -0.00000000000E+00  0.00000000000E+00  0.12711223568E+03  0.12711857991E+03  0.12700000000E+01 0. -1.
          4   -1    0    0  501    0  0.00000000000E+00 -0.00000000000E+00 -0.30710452010E+02  0.30736700582E+02  0.12700000000E+01 0. -1.
         25    2    1    2    0    0  0.00000000000E+00  0.00000000000E+00  0.96401783670E+02  0.15785528050E+03  0.12499994274E+03 0.  0.
    9000005    1    3    3    0    0  0.30374801479E+02 -0.49082524091E+02  0.78443899481E+02  0.97396961461E+02  0.10000000000E+01 0.  0.
    9000005    1    3    3    0    0 -0.30374801479E+02  0.49082524091E+02  0.17957884189E+02  0.60458319035E+02  0.10000000000E+01 0.  0.
<mgrwt>
<rscale>  0 0.12499994E+03</rscale>
<asrwt>0</asrwt>
<pdfrwt beam="2">  1        4 0.47271921E-02 0.12499994E+03</pdfrwt>
<pdfrwt beam="1">  1       -4 0.19558235E-01 0.12499994E+03</pdfrwt>
<totfact> 0.97757996E+03</totfact>
</mgrwt>
</event>
<event>
 5    1  0.3227866E-002  0.1250020E+03  0.7818608E-02  0.1235066E+00
          4   -1    0    0  501    0  0.00000000000E+00  0.00000000000E+00  0.58779038120E+01  0.60135391596E+01  0.12700000000E+01 0. -1.
         -4   -1    0    0    0  501 -0.00000000000E+00 -0.00000000000E+00 -0.65687019962E+03  0.65687142733E+03  0.12700000000E+01 0. -1.
         25    2    1    2    0    0  0.00000000000E+00  0.00000000000E+00 -0.65099229580E+03  0.66288496649E+03  0.12500203839E+03 0.  0.
    9000005    1    3    3    0    0  0.43585818645E+02  0.41705114901E+02 -0.23895214203E+03  0.24645114400E+03  0.10000000000E+01 0.  0.
    9000005    1    3    3    0    0 -0.43585818645E+02 -0.41705114901E+02 -0.41204015377E+03  0.41643382249E+03  0.10000000000E+01 0.  0.
<mgrwt>
<rscale>  0 0.12500204E+03</rscale>
<asrwt>0</asrwt>
<pdfrwt beam="1">  1        4 0.91482134E-03 0.12500204E+03</pdfrwt>
<pdfrwt beam="2">  1       -4 0.10106742E+00 0.12500204E+03</pdfrwt>
<totfact> 0.45117598E+03</totfact>
</mgrwt>
</event>
<event>
 5    1  0.3227866E-002  0.1250013E+03  0.7818608E-02  0.1235067E+00
          4   -1    0    0  501    0  0.00000000000E+00  0.00000000000E+00  0.45251548788E+01  0.46999921997E+01  0.12700000000E+01 0. -1.
         -4   -1    0    0    0  501 -0.00000000000E+00 -0.00000000000E+00 -0.84671171708E+03  0.84671266953E+03  0.12700000000E+01 0. -1.
         25    2    1    2    0    0  0.00000000000E+00  0.00000000000E+00 -0.84218656221E+03  0.85141266173E+03  0.12500125999E+03 0.  0.
    9000005    1    3    3    0    0 -0.44837251935E+02  0.40203170631E+01 -0.12586058988E+03  0.13367284763E+03  0.10000000000E+01 0.  0.
    9000005    1    3    3    0    0  0.44837251935E+02 -0.40203170631E+01 -0.71632597233E+03  0.71773981410E+03  0.10000000000E+01 0.  0.
<mgrwt>
<rscale>  0 0.12500126E+03</rscale>
<asrwt>0</asrwt>
<pdfrwt beam="1">  1        4 0.70970064E-03 0.12500126E+03</pdfrwt>
<pdfrwt beam="2">  1       -4 0.13027674E+00 0.12500126E+03</pdfrwt>
<totfact> 0.36068624E+03</totfact>
</mgrwt>
</event>
<event>
 5    1  0.3227866E-002  0.1250483E+03  0.7818608E-02  0.1234994E+00
         -4   -1    0    0    0  501 -0.00000000000E+00  0.00000000000E+00  0.28135172074E+02  0.28163820899E+02  0.12700000000E+01 0.  1.
          4   -1    0    0  501    0  0.00000000000E+00 -0.00000000000E+00 -0.13884381475E+03  0.13884962295E+03  0.12700000000E+01 0.  1.
         25    2    1    2    0    0  0.00000000000E+00  0.00000000000E+00 -0.11070864267E+03  0.16701344385E+03  0.12504833811E+03 0.  0.
    9000005    1    3    3    0    0 -0.34726906320E+02  0.35749578217E+02 -0.49495787830E+01  0.50094797089E+02  0.10000000000E+01 0.  0.
    9000005    1    3    3    0    0  0.34726906320E+02 -0.35749578217E+02 -0.10575906389E+03  0.11691864676E+03  0.10000000000E+01 0.  0.
<mgrwt>
<rscale>  0 0.12504834E+03</rscale>
<asrwt>0</asrwt>
<pdfrwt beam="2">  1        4 0.21363237E-01 0.12504834E+03</pdfrwt>
<pdfrwt beam="1">  1       -4 0.43311386E-02 0.12504834E+03</pdfrwt>
<totfact> 0.95903274E+03</totfact>
</mgrwt>
</event>
<event>
 5    1  0.3227866E-002  0.1249976E+03  0.7818608E-02  0.1235073E+00
          4   -1    0    0  501    0  0.00000000000E+00  0.00000000000E+00  0.76199980188E+02  0.76210562789E+02  0.12700000000E+01 0.  1.
         -4   -1    0    0    0  501 -0.00000000000E+00 -0.00000000000E+00 -0.51239157197E+02  0.51254893720E+02  0.12700000000E+01 0.  1.
         25    2    1    2    0    0  0.00000000000E+00  0.00000000000E+00  0.24960822991E+02  0.12746545651E+03  0.12499759965E+03 0.  0.
    9000005    1    3    3    0    0 -0.69723956885E+00  0.61677393781E+02  0.22703963384E+02  0.65734747280E+02  0.10000000000E+01 0.  0.
    9000005    1    3    3    0    0  0.69723956885E+00 -0.61677393781E+02  0.22568596066E+01  0.61730709229E+02  0.10000000000E+01 0.  0.
<mgrwt>
<rscale>  0 0.12499760E+03</rscale>
<asrwt>0</asrwt>
<pdfrwt beam="1">  1        4 0.11725098E-01 0.12499760E+03</pdfrwt>
<pdfrwt beam="2">  1       -4 0.78849719E-02 0.12499760E+03</pdfrwt>
<totfact> 0.10399612E+04</totfact>
</mgrwt>
</event>
<event>
 5    1  0.3227866E-002  0.1249887E+03  0.7818608E-02  0.1235087E+00
         -4   -1    0    0    0  501 -0.00000000000E+00  0.00000000000E+00  0.20119090532E+02  0.20159134501E+02  0.12700000000E+01 0. -1.
          4   -1    0    0  501    0  0.00000000000E+00 -0.00000000000E+00 -0.19388626184E+03  0.19389042119E+03  0.12700000000E+01 0. -1.
         25    2    1    2    0    0  0.00000000000E+00  0.00000000000E+00 -0.17376717131E+03  0.21404955569E+03  0.12498872937E+03 0.  0.
    9000005    1    3    3    0    0 -0.60348164358E+02  0.34930479164E+01 -0.11398538837E+03  0.12902624185E+03  0.10000000000E+01 0.  0.
    9000005    1    3    3    0    0  0.60348164358E+02 -0.34930479164E+01 -0.59781782938E+02  0.85023313840E+02  0.10000000000E+01 0.  0.
<mgrwt>
<rscale>  0 0.12498873E+03</rscale>
<asrwt>0</asrwt>
<pdfrwt beam="2">  1        4 0.29832055E-01 0.12498873E+03</pdfrwt>
<pdfrwt beam="1">  1       -4 0.30986451E-02 0.12498873E+03</pdfrwt>
<totfact> 0.87840901E+03</totfact>
</mgrwt>
</event>
<event>
 5    1  0.3227866E-002  0.1250071E+03  0.7818608E-02  0.1235058E+00
         -4   -1    0    0    0  501 -0.00000000000E+00  0.00000000000E+00  0.97951356698E+01  0.98771242166E+01  0.12700000000E+01 0. -1.
          4   -1    0    0  501    0  0.00000000000E+00 -0.00000000000E+00 -0.39709503071E+03  0.39709706158E+03  0.12700000000E+01 0. -1.
         25    2    1    2    0    0  0.00000000000E+00  0.00000000000E+00 -0.38729989504E+03  0.40697418580E+03  0.12500711662E+03 0.  0.
    9000005    1    3    3    0    0  0.48265078604E+02  0.18676979899E+02 -0.30770535498E+03  0.31202873726E+03  0.10000000000E+01 0.  0.
    9000005    1    3    3    0    0 -0.48265078604E+02 -0.18676979899E+02 -0.79594540062E+02  0.94945448540E+02  0.10000000000E+01 0.  0.
<mgrwt>
<rscale>  0 0.12500712E+03</rscale>
<asrwt>0</asrwt>
<pdfrwt beam="2">  1        4 0.61097994E-01 0.12500712E+03</pdfrwt>
<pdfrwt beam="1">  1       -4 0.15134073E-02 0.12500712E+03</pdfrwt>
<totfact> 0.63870067E+03</totfact>
</mgrwt>
</event>
<event>
 5    1  0.3227866E-002  0.1250033E+03  0.7818608E-02  0.1235064E+00
          4   -1    0    0  501    0  0.00000000000E+00  0.00000000000E+00  0.24653374961E+03  0.24653702074E+03  0.12700000000E+01 0.  1.
         -4   -1    0    0    0  501 -0.00000000000E+00 -0.00000000000E+00 -0.15816682813E+02  0.15867588198E+02  0.12700000000E+01 0.  1.
         25    2    1    2    0    0  0.00000000000E+00  0.00000000000E+00  0.23071706679E+03  0.26240460894E+03  0.12500325548E+03 0.  0.
    9000005    1    3    3    0    0  0.66600371392E+01  0.51053490024E+02  0.18971340806E+03  0.19657820871E+03  0.10000000000E+01 0.  0.
    9000005    1    3    3    0    0 -0.66600371392E+01 -0.51053490024E+02  0.41003658727E+02  0.65826400231E+02  0.10000000000E+01 0.  0.
<mgrwt>
<rscale>  0 0.12500326E+03</rscale>
<asrwt>0</asrwt>
<pdfrwt beam="1">  1        4 0.37932437E-01 0.12500326E+03</pdfrwt>
<pdfrwt beam="2">  1       -4 0.24375032E-02 0.12500326E+03</pdfrwt>
<totfact> 0.80563949E+03</totfact>
</mgrwt>
</event>
<event>
 5    1  0.3227866E-002  0.1250022E+03  0.7818608E-02  0.1235066E+00
         -4   -1    0    0    0  501 -0.00000000000E+00  0.00000000000E+00  0.19768450112E+02  0.19809202908E+02  0.12700000000E+01 0. -1.
          4   -1    0    0  501    0  0.00000000000E+00 -0.00000000000E+00 -0.19736103228E+03  0.19736511841E+03  0.12700000000E+01 0. -1.
         25    2    1    2    0    0  0.00000000000E+00  0.00000000000E+00 -0.17759258217E+03  0.21717432131E+03  0.12500224237E+03 0.  0.
    9000005    1    3    3    0    0 -0.25784128933E+02  0.56192564465E+02 -0.10462104379E+03  0.12152772692E+03  0.10000000000E+01 0.  0.
    9000005    1    3    3    0    0  0.25784128933E+02 -0.56192564465E+02 -0.72971538377E+02  0.95646594394E+02  0.10000000000E+01 0.  0.
<mgrwt>
<rscale>  0 0.12500224E+03</rscale>
<asrwt>0</asrwt>
<pdfrwt beam="2">  1        4 0.30366684E-01 0.12500224E+03</pdfrwt>
<pdfrwt beam="1">  1       -4 0.30447493E-02 0.12500224E+03</pdfrwt>
<totfact> 0.87313087E+03</totfact>
</mgrwt>
</event>
<event>
 5    1  0.3227866E-002  0.1250104E+03  0.7818608E-02  0.1235053E+00
          4   -1    0    0  501    0  0.00000000000E+00  0.00000000000E+00  0.59934477702E+03  0.59934612257E+03  0.12700000000E+01 0.  1.
         -4   -1    0    0    0  501 -0.00000000000E+00 -0.00000000000E+00 -0.64553984045E+01  0.65791388920E+01  0.12700000000E+01 0.  1.
         25    2    1    2    0    0  0.00000000000E+00  0.00000000000E+00  0.59288937862E+03  0.60592526146E+03  0.12501042838E+03 0.  0.
    9000005    1    3    3    0    0 -0.45244684603E+02 -0.31328985166E+02  0.15287902195E+03  0.16248563675E+03  0.10000000000E+01 0.  0.
    9000005    1    3    3    0    0  0.45244684603E+02  0.31328985166E+02  0.44001035667E+03  0.44343962472E+03  0.10000000000E+01 0.  0.
<mgrwt>
<rscale>  0 0.12501043E+03</rscale>
<asrwt>0</asrwt>
<pdfrwt beam="1">  1        4 0.92216533E-01 0.12501043E+03</pdfrwt>
<pdfrwt beam="2">  1       -4 0.10027600E-02 0.12501043E+03</pdfrwt>
<totfact> 0.48484619E+03</totfact>
</mgrwt>
</event>
<event>
 5    1  0.3227866E-002  0.1249915E+03  0.7818608E-02  0.1235083E+00
          4   -1    0    0  501    0  0.00000000000E+00  0.00000000000E+00  0.31045232457E+02  0.31071198212E+02  0.12700000000E+01 0.  1.
         -4   -1    0    0    0  501 -0.00000000000E+00 -0.00000000000E+00 -0.12572561293E+03  0.12573202713E+03  0.12700000000E+01 0.  1.
         25    2    1    2    0    0  0.00000000000E+00  0.00000000000E+00 -0.94680380475E+02  0.15680322534E+03  0.12499150784E+03 0.  0.
    9000005    1    3    3    0    0  0.17044931958E+02 -0.60110620903E+02 -0.46148202002E+02  0.77681870464E+02  0.10000000000E+01 0.  0.
    9000005    1    3    3    0    0 -0.17044931958E+02  0.60110620903E+02 -0.48532178472E+02  0.79121354880E+02  0.10000000000E+01 0.  0.
<mgrwt>
<rscale>  0 0.12499151E+03</rscale>
<asrwt>0</asrwt>
<pdfrwt beam="1">  1        4 0.47786804E-02 0.12499151E+03</pdfrwt>
<pdfrwt beam="2">  1       -4 0.19344893E-01 0.12499151E+03</pdfrwt>
<totfact> 0.97981370E+03</totfact>
</mgrwt>
</event>
<event>
 5    1  0.3227866E-002  0.1249982E+03  0.7818608E-02  0.1235072E+00
          4   -1    0    0  501    0  0.00000000000E+00  0.00000000000E+00  0.71523111860E+02  0.71534386348E+02  0.12700000000E+01 0. -1.
         -4   -1    0    0    0  501 -0.00000000000E+00 -0.00000000000E+00 -0.54590667680E+02  0.54605438353E+02  0.12700000000E+01 0. -1.
         25    2    1    2    0    0  0.00000000000E+00  0.00000000000E+00  0.16932444180E+02  0.12613982470E+03  0.12499819083E+03 0.  0.
    9000005    1    3    3    0    0  0.44758955053E+02  0.34757702715E+02 -0.18112035644E+02  0.59502166268E+02  0.10000000000E+01 0.  0.
    9000005    1    3    3    0    0 -0.44758955053E+02 -0.34757702715E+02  0.35044479824E+02  0.66637658434E+02  0.10000000000E+01 0.  0.
<mgrwt>
<rscale>  0 0.12499819E+03</rscale>
<asrwt>0</asrwt>
<pdfrwt beam="1">  1        4 0.11005559E-01 0.12499819E+03</pdfrwt>
<pdfrwt beam="2">  1       -4 0.84005677E-02 0.12499819E+03</pdfrwt>
<totfact> 0.10428321E+04</totfact>
</mgrwt>
</event>
<event>
 5    1  0.3227866E-002  0.1250026E+03  0.7818608E-02  0.1235065E+00
          4   -1    0    0  501    0  0.00000000000E+00  0.00000000000E+00  0.94456237255E+02  0.94464774685E+02  0.12700000000E+01 0. -1.
         -4   -1    0    0    0  501 -0.00000000000E+00 -0.00000000000E+00 -0.41336722498E+02  0.41356227184E+02  0.12700000000E+01 0. -1.
         25    2    1    2    0    0  0.00000000000E+00  0.00000000000E+00  0.53119514757E+02  0.13582100187E+03  0.12500264678E+03 0.  0.
    9000005    1    3    3    0    0  0.53799594321E+02  0.22679134260E+02  0.50774746844E+02  0.77380969217E+02  0.10000000000E+01 0.  0.
    9000005    1    3    3    0    0 -0.53799594321E+02 -0.22679134260E+02  0.23447679131E+01  0.58440032653E+02  0.10000000000E+01 0.  0.
<mgrwt>
<rscale>  0 0.12500265E+03</rscale>
<asrwt>0</asrwt>
<pdfrwt beam="1">  1        4 0.14533886E-01 0.12500265E+03</pdfrwt>
<pdfrwt beam="2">  1       -4 0.63616529E-02 0.12500265E+03</pdfrwt>
<totfact> 0.10220185E+04</totfact>
</mgrwt>
</event>
<event>
 5    1  0.3227866E-002  0.1249999E+03  0.7818608E-02  0.1235069E+00
         -4   -1    0    0    0  501 -0.00000000000E+00  0.00000000000E+00  0.18400854268E+02  0.18444628969E+02  0.12700000000E+01 0. -1.
          4   -1    0    0  501    0  0.00000000000E+00 -0.00000000000E+00 -0.21198823198E+03  0.21199203617E+03  0.12700000000E+01 0. -1.
         25    2    1    2    0    0  0.00000000000E+00  0.00000000000E+00 -0.19358737771E+03  0.23043666514E+03  0.12499993532E+03 0.  0.
    9000005    1    3    3    0    0 -0.61723025931E+02  0.58196558598E+01 -0.11126783494E+03  0.12737790788E+03  0.10000000000E+01 0.  0.
    9000005    1    3    3    0    0  0.61723025931E+02 -0.58196558598E+01 -0.82319542774E+02  0.10305875725E+03  0.10000000000E+01 0.  0.
<mgrwt>
<rscale>  0 0.12499994E+03</rscale>
<asrwt>0</asrwt>
<pdfrwt beam="2">  1        4 0.32617232E-01 0.12499994E+03</pdfrwt>
<pdfrwt beam="1">  1       -4 0.28345607E-02 0.12499994E+03</pdfrwt>
<totfact> 0.85242715E+03</totfact>
</mgrwt>
</event>
<event>
 5    1  0.3227866E-002  0.1250005E+03  0.7818608E-02  0.1235068E+00
         -4   -1    0    0    0  501 -0.00000000000E+00  0.00000000000E+00  0.17132778530E+03  0.17133249229E+03  0.12700000000E+01 0. -1.
          4   -1    0    0  501    0  0.00000000000E+00 -0.00000000000E+00 -0.22777337950E+02  0.22812716280E+02  0.12700000000E+01 0. -1.
         25    2    1    2    0    0  0.00000000000E+00  0.00000000000E+00  0.14855044735E+03  0.19414520857E+03  0.12500050642E+03 0.  0.
    9000005    1    3    3    0    0  0.29181040886E+02 -0.52181565767E+01 -0.11169771873E+02  0.31694259873E+02  0.10000000000E+01 0.  0.
    9000005    1    3    3    0    0 -0.29181040886E+02  0.52181565767E+01  0.15972021922E+03  0.16245094870E+03  0.10000000000E+01 0.  0.
<mgrwt>
<rscale>  0 0.12500051E+03</rscale>
<asrwt>0</asrwt>
<pdfrwt beam="2">  1        4 0.35072892E-02 0.12500051E+03</pdfrwt>
<pdfrwt beam="1">  1       -4 0.26361205E-01 0.12500051E+03</pdfrwt>
<totfact> 0.91129988E+03</totfact>
</mgrwt>
</event>
<event>
 5    1  0.3227866E-002  0.1250031E+03  0.7818608E-02  0.1235064E+00
         -4   -1    0    0    0  501 -0.00000000000E+00  0.00000000000E+00  0.10989080036E+02  0.11062223106E+02  0.12700000000E+01 0. -1.
          4   -1    0    0  501    0  0.00000000000E+00 -0.00000000000E+00 -0.35423085744E+03  0.35423313405E+03  0.12700000000E+01 0. -1.
         25    2    1    2    0    0  0.00000000000E+00  0.00000000000E+00 -0.34324177740E+03  0.36529535716E+03  0.12500312079E+03 0.  0.
    9000005    1    3    3    0    0 -0.35860403759E+02 -0.42961336664E+02 -0.25291099145E+03  0.25903014226E+03  0.10000000000E+01 0.  0.
    9000005    1    3    3    0    0  0.35860403759E+02  0.42961336664E+02 -0.90330785954E+02  0.10626521490E+03  0.10000000000E+01 0.  0.
<mgrwt>
<rscale>  0 0.12500312E+03</rscale>
<asrwt>0</asrwt>
<pdfrwt beam="2">  1        4 0.54502848E-01 0.12500312E+03</pdfrwt>
<pdfrwt beam="1">  1       -4 0.16964295E-02 0.12500312E+03</pdfrwt>
<totfact> 0.68069326E+03</totfact>
</mgrwt>
</event>
<event>
 5    1  0.3227866E-002  0.1250037E+03  0.7818608E-02  0.1235064E+00
         -4   -1    0    0    0  501 -0.00000000000E+00  0.00000000000E+00  0.15082263150E+03  0.15082797841E+03  0.12700000000E+01 0.  1.
          4   -1    0    0  501    0  0.00000000000E+00 -0.00000000000E+00 -0.25879770250E+02  0.25910912917E+02  0.12700000000E+01 0.  1.
         25    2    1    2    0    0  0.00000000000E+00  0.00000000000E+00  0.12494286124E+03  0.17673889133E+03  0.12500366847E+03 0.  0.
    9000005    1    3    3    0    0  0.38312127080E+01  0.53576987295E+02  0.17309249029E+02  0.56442730802E+02  0.10000000000E+01 0.  0.
    9000005    1    3    3    0    0 -0.38312127080E+01 -0.53576987295E+02  0.10763361222E+03  0.12029616053E+03  0.10000000000E+01 0.  0.
<mgrwt>
<rscale>  0 0.12500367E+03</rscale>
<asrwt>0</asrwt>
<pdfrwt beam="2">  1        4 0.39843101E-02 0.12500367E+03</pdfrwt>
<pdfrwt beam="1">  1       -4 0.23206288E-01 0.12500367E+03</pdfrwt>
<totfact> 0.94199578E+03</totfact>
</mgrwt>
</event>
<event>
 5    1  0.3227866E-002  0.1250006E+03  0.7818608E-02  0.1235068E+00
          4   -1    0    0  501    0  0.00000000000E+00  0.00000000000E+00  0.23581366740E+03  0.23581708724E+03  0.12700000000E+01 0. -1.
         -4   -1    0    0    0  501 -0.00000000000E+00 -0.00000000000E+00 -0.16537258865E+02  0.16585952814E+02  0.12700000000E+01 0. -1.
         25    2    1    2    0    0  0.00000000000E+00  0.00000000000E+00  0.21927640853E+03  0.25240304005E+03  0.12500060515E+03 0.  0.
    9000005    1    3    3    0    0 -0.27262705718E+02  0.16487994420E+02  0.21819195078E+03  0.22050813244E+03  0.10000000000E+01 0.  0.
    9000005    1    3    3    0    0  0.27262705718E+02 -0.16487994420E+02  0.10844577492E+01  0.31894907614E+02  0.10000000000E+01 0.  0.
<mgrwt>
<rscale>  0 0.12500061E+03</rscale>
<asrwt>0</asrwt>
<pdfrwt beam="1">  1        4 0.36283035E-01 0.12500061E+03</pdfrwt>
<pdfrwt beam="2">  1       -4 0.25482024E-02 0.12500061E+03</pdfrwt>
<totfact> 0.81983043E+03</totfact>
</mgrwt>
</event>
<event>
 5    1  0.3227866E-002  0.1250000E+03  0.7818608E-02  0.1235069E+00
         -4   -1    0    0    0  501 -0.00000000000E+00  0.00000000000E+00  0.32278081108E+03  0.32278330951E+03  0.12700000000E+01 0. -1.
          4   -1    0    0  501    0  0.00000000000E+00 -0.00000000000E+00 -0.12065996108E+02  0.12132648601E+02  0.12700000000E+01 0. -1.
         25    2    1    2    0    0  0.00000000000E+00  0.00000000000E+00  0.31071481497E+03  0.33491595812E+03  0.12500001103E+03 0.  0.
    9000005    1    3    3    0    0 -0.24625551144E+02  0.44033130835E+02  0.25416308059E+03  0.25912392000E+03  0.10000000000E+01 0.  0.
    9000005    1    3    3    0    0  0.24625551144E+02 -0.44033130835E+02  0.56551734377E+02  0.75792038113E+02  0.10000000000E+01 0.  0.
<mgrwt>
<rscale>  0 0.12500001E+03</rscale>
<asrwt>0</asrwt>
<pdfrwt beam="2">  1        4 0.18616263E-02 0.12500001E+03</pdfrwt>
<pdfrwt beam="1">  1       -4 0.49663909E-01 0.12500001E+03</pdfrwt>
<totfact> 0.71416476E+03</totfact>
</mgrwt>
</event>
<event>
 5    1  0.3227866E-002  0.1250018E+03  0.7818608E-02  0.1235066E+00
         -4   -1    0    0    0  501 -0.00000000000E+00  0.00000000000E+00  0.13194669579E+02  0.13255648052E+02  0.12700000000E+01 0. -1.
          4   -1    0    0  501    0  0.00000000000E+00 -0.00000000000E+00 -0.29531134198E+03  0.29531407282E+03  0.12700000000E+01 0. -1.
         25    2    1    2    0    0  0.00000000000E+00  0.00000000000E+00 -0.28211667241E+03  0.30856972087E+03  0.12500182314E+03 0.  0.
    9000005    1    3    3    0    0  0.29312383771E+02  0.47198576967E+02 -0.70437796799E+02  0.89718474842E+02  0.10000000000E+01 0.  0.
    9000005    1    3    3    0    0 -0.29312383771E+02 -0.47198576967E+02 -0.21167887561E+03  0.21885124603E+03  0.10000000000E+01 0.  0.
<mgrwt>
<rscale>  0 0.12500182E+03</rscale>
<asrwt>0</asrwt>
<pdfrwt beam="2">  1        4 0.45437410E-01 0.12500182E+03</pdfrwt>
<pdfrwt beam="1">  1       -4 0.20348501E-02 0.12500182E+03</pdfrwt>
<totfact> 0.74533278E+03</totfact>
</mgrwt>
</event>
<event>
 5    1  0.3227866E-002  0.1250056E+03  0.7818608E-02  0.1235061E+00
         -4   -1    0    0    0  501 -0.00000000000E+00  0.00000000000E+00  0.41144847977E+02  0.41164443578E+02  0.12700000000E+01 0.  1.
          4   -1    0    0  501    0  0.00000000000E+00 -0.00000000000E+00 -0.94901053808E+02  0.94909551226E+02  0.12700000000E+01 0.  1.
         25    2    1    2    0    0  0.00000000000E+00  0.00000000000E+00 -0.53756205831E+02  0.13607399480E+03  0.12500560946E+03 0.  0.
    9000005    1    3    3    0    0 -0.30228490048E+01  0.53361548944E+02 -0.62134266217E+02  0.81964989844E+02  0.10000000000E+01 0.  0.
    9000005    1    3    3    0    0  0.30228490048E+01 -0.53361548944E+02  0.83780603859E+01  0.54109004959E+02  0.10000000000E+01 0.  0.
<mgrwt>
<rscale>  0 0.12500561E+03</rscale>
<asrwt>0</asrwt>
<pdfrwt beam="2">  1        4 0.14602323E-01 0.12500561E+03</pdfrwt>
<pdfrwt beam="1">  1       -4 0.63321376E-02 0.12500561E+03</pdfrwt>
<totfact> 0.10214191E+04</totfact>
</mgrwt>
</event>
<event>
 5    1  0.3227866E-002  0.1249997E+03  0.7818608E-02  0.1235070E+00
          4   -1    0    0  501    0  0.00000000000E+00  0.00000000000E+00  0.25874597249E+02  0.25905746134E+02  0.12700000000E+01 0.  1.
         -4   -1    0    0    0  501 -0.00000000000E+00 -0.00000000000E+00 -0.15084320060E+03  0.15084854678E+03  0.12700000000E+01 0.  1.
         25    2    1    2    0    0  0.00000000000E+00  0.00000000000E+00 -0.12496860335E+03  0.17675429292E+03  0.12499971297E+03 0.  0.
    9000005    1    3    3    0    0  0.14480006166E+02 -0.23463537946E+01  0.23412588234E+02  0.27646432727E+02  0.10000000000E+01 0.  0.
    9000005    1    3    3    0    0 -0.14480006166E+02  0.23463537946E+01 -0.14838119158E+03  0.14910786019E+03  0.10000000000E+01 0.  0.
<mgrwt>
<rscale>  0 0.12499971E+03</rscale>
<asrwt>0</asrwt>
<pdfrwt beam="1">  1        4 0.39835147E-02 0.12499971E+03</pdfrwt>
<pdfrwt beam="2">  1       -4 0.23209453E-01 0.12499971E+03</pdfrwt>
<totfact> 0.94205132E+03</totfact>
</mgrwt>
</event>
<event>
 5    1  0.3227866E-002  0.1250014E+03  0.7818608E-02  0.1235067E+00
          4   -1    0    0  501    0  0.00000000000E+00  0.00000000000E+00  0.16751591451E+02  0.16799664167E+02  0.12700000000E+01 0. -1.
         -4   -1    0    0    0  501 -0.00000000000E+00 -0.00000000000E+00 -0.23280800475E+03  0.23281146874E+03  0.12700000000E+01 0. -1.
         25    2    1    2    0    0  0.00000000000E+00  0.00000000000E+00 -0.21605641330E+03  0.24961113291E+03  0.12500137576E+03 0.  0.
    9000005    1    3    3    0    0 -0.49743758761E+02 -0.12297009503E+02 -0.36595104364E+02  0.62975071590E+02  0.10000000000E+01 0.  0.
    9000005    1    3    3    0    0  0.49743758761E+02  0.12297009503E+02 -0.17946130894E+03  0.18663606132E+03  0.10000000000E+01 0.  0.
<mgrwt>
<rscale>  0 0.12500138E+03</rscale>
<asrwt>0</asrwt>
<pdfrwt beam="1">  1        4 0.25811324E-02 0.12500138E+03</pdfrwt>
<pdfrwt beam="2">  1       -4 0.35820578E-01 0.12500138E+03</pdfrwt>
<totfact> 0.82383940E+03</totfact>
</mgrwt>
</event>
<event>
 5    1  0.3227866E-002  0.1249981E+03  0.7818608E-02  0.1235072E+00
         -4   -1    0    0    0  501 -0.00000000000E+00  0.00000000000E+00  0.67173414773E+01  0.68363423351E+01  0.12700000000E+01 0.  1.
          4   -1    0    0  501    0  0.00000000000E+00 -0.00000000000E+00 -0.57627463996E+03  0.57627603938E+03  0.12700000000E+01 0.  1.
         25    2    1    2    0    0  0.00000000000E+00  0.00000000000E+00 -0.56955729848E+03  0.58311238171E+03  0.12499813379E+03 0.  0.
    9000005    1    3    3    0    0 -0.49726403043E+02  0.13430122718E+02 -0.11971191021E+03  0.13032660819E+03  0.10000000000E+01 0.  0.
    9000005    1    3    3    0    0  0.49726403043E+02 -0.13430122718E+02 -0.44984538827E+03  0.45278577352E+03  0.10000000000E+01 0.  0.
<mgrwt>
<rscale>  0 0.12499813E+03</rscale>
<asrwt>0</asrwt>
<pdfrwt beam="2">  1        4 0.88666860E-01 0.12499813E+03</pdfrwt>
<pdfrwt beam="1">  1       -4 0.10426992E-02 0.12499813E+03</pdfrwt>
<totfact> 0.49953317E+03</totfact>
</mgrwt>
</event>
<event>
 5    1  0.3227866E-002  0.1249993E+03  0.7818608E-02  0.1235070E+00
         -4   -1    0    0    0  501 -0.00000000000E+00  0.00000000000E+00  0.59262898541E+02  0.59276504987E+02  0.12700000000E+01 0.  1.
          4   -1    0    0  501    0  0.00000000000E+00 -0.00000000000E+00 -0.65885923812E+02  0.65898162771E+02  0.12700000000E+01 0.  1.
         25    2    1    2    0    0  0.00000000000E+00  0.00000000000E+00 -0.66230252719E+01  0.12517466776E+03  0.12499933194E+03 0.  0.
    9000005    1    3    3    0    0  0.41219572822E+02  0.38819667399E+01 -0.50186202531E+02  0.65067486304E+02  0.10000000000E+01 0.  0.
    9000005    1    3    3    0    0 -0.41219572822E+02 -0.38819667399E+01  0.43563177259E+02  0.60107181454E+02  0.10000000000E+01 0.  0.
<mgrwt>
<rscale>  0 0.12499933E+03</rscale>
<asrwt>0</asrwt>
<pdfrwt beam="2">  1        4 0.10138284E-01 0.12499933E+03</pdfrwt>
<pdfrwt beam="1">  1       -4 0.91193571E-02 0.12499933E+03</pdfrwt>
<totfact> 0.10449228E+04</totfact>
</mgrwt>
</event>
<event>
 5    1  0.3227866E-002  0.1250021E+03  0.7818608E-02  0.1235066E+00
          4   -1    0    0  501    0  0.00000000000E+00  0.00000000000E+00  0.18324217714E+03  0.18324657809E+03  0.12700000000E+01 0. -1.
         -4   -1    0    0    0  501 -0.00000000000E+00 -0.00000000000E+00 -0.21294543634E+02  0.21332381222E+02  0.12700000000E+01 0. -1.
         25    2    1    2    0    0  0.00000000000E+00  0.00000000000E+00  0.16194763350E+03  0.20457895931E+03  0.12500205837E+03 0.  0.
    9000005    1    3    3    0    0  0.74831196613E+01 -0.38134187003E+02  0.87768343624E+00  0.38884233649E+02  0.10000000000E+01 0.  0.
    9000005    1    3    3    0    0 -0.74831196613E+01  0.38134187003E+02  0.16106995007E+03  0.16569472566E+03  0.10000000000E+01 0.  0.
<mgrwt>
<rscale>  0 0.12500206E+03</rscale>
<asrwt>0</asrwt>
<pdfrwt beam="1">  1        4 0.28194352E-01 0.12500206E+03</pdfrwt>
<pdfrwt beam="2">  1       -4 0.32793328E-02 0.12500206E+03</pdfrwt>
<totfact> 0.89364818E+03</totfact>
</mgrwt>
</event>
<event>
 5    1  0.3227866E-002  0.1249974E+03  0.7818608E-02  0.1235073E+00
          4   -1    0    0  501    0  0.00000000000E+00  0.00000000000E+00  0.63921740691E+02  0.63934355654E+02  0.12700000000E+01 0.  1.
         -4   -1    0    0    0  501 -0.00000000000E+00 -0.00000000000E+00 -0.61082114581E+02  0.61095315874E+02  0.12700000000E+01 0.  1.
         25    2    1    2    0    0  0.00000000000E+00  0.00000000000E+00  0.28396261091E+01  0.12502967153E+03  0.12499742112E+03 0.  0.
    9000005    1    3    3    0    0 -0.44245347296E+02 -0.20494169725E+02  0.40512208118E+02  0.63402687298E+02  0.10000000000E+01 0.  0.
    9000005    1    3    3    0    0  0.44245347296E+02  0.20494169725E+02 -0.37672582009E+02  0.61626984230E+02  0.10000000000E+01 0.  0.
<mgrwt>
<rscale>  0 0.12499742E+03</rscale>
<asrwt>0</asrwt>
<pdfrwt beam="1">  1        4 0.98360998E-02 0.12499742E+03</pdfrwt>
<pdfrwt beam="2">  1       -4 0.93992343E-02 0.12499742E+03</pdfrwt>
<totfact> 0.10452827E+04</totfact>
</mgrwt>
</event>
<event>
 5    1  0.3227866E-002  0.1250042E+03  0.7818608E-02  0.1235063E+00
         -4   -1    0    0    0  501 -0.00000000000E+00  0.00000000000E+00  0.82398529664E+02  0.82408316272E+02  0.12700000000E+01 0. -1.
          4   -1    0    0  501    0  0.00000000000E+00 -0.00000000000E+00 -0.47388892421E+02  0.47405907067E+02  0.12700000000E+01 0. -1.
         25    2    1    2    0    0  0.00000000000E+00  0.00000000000E+00  0.35009637243E+02  0.12981422334E+03  0.12500423145E+03 0.  0.
    9000005    1    3    3    0    0  0.51192689645E+02 -0.31181131714E+02 -0.85482638423E+00  0.59955693443E+02  0.10000000000E+01 0.  0.
    9000005    1    3    3    0    0 -0.51192689645E+02  0.31181131714E+02  0.35864463628E+02  0.69858529897E+02  0.10000000000E+01 0.  0.
<mgrwt>
<rscale>  0 0.12500423E+03</rscale>
<asrwt>0</asrwt>
<pdfrwt beam="2">  1        4 0.72926606E-02 0.12500423E+03</pdfrwt>
<pdfrwt beam="1">  1       -4 0.12678758E-01 0.12500423E+03</pdfrwt>
<totfact> 0.10347495E+04</totfact>
</mgrwt>
</event>
<event>
 5    1  0.3227866E-002  0.1250012E+03  0.7818608E-02  0.1235067E+00
         -4   -1    0    0    0  501 -0.00000000000E+00  0.00000000000E+00  0.98518236932E+02  0.98526422386E+02  0.12700000000E+01 0. -1.
          4   -1    0    0  501    0  0.00000000000E+00 -0.00000000000E+00 -0.39630800447E+02  0.39651144297E+02  0.12700000000E+01 0. -1.
         25    2    1    2    0    0  0.00000000000E+00  0.00000000000E+00  0.58887436485E+02  0.13817756668E+03  0.12500123903E+03 0.  0.
    9000005    1    3    3    0    0 -0.39192460884E+02 -0.46721677723E+02  0.44534210114E+02  0.75519931341E+02  0.10000000000E+01 0.  0.
    9000005    1    3    3    0    0  0.39192460884E+02  0.46721677723E+02  0.14353226371E+02  0.62657635342E+02  0.10000000000E+01 0.  0.
<mgrwt>
<rscale>  0 0.12500124E+03</rscale>
<asrwt>0</asrwt>
<pdfrwt beam="2">  1        4 0.60992408E-02 0.12500124E+03</pdfrwt>
<pdfrwt beam="1">  1       -4 0.15158846E-01 0.12500124E+03</pdfrwt>
<totfact> 0.10171213E+04</totfact>
</mgrwt>
</event>
<event>
 5    1  0.3227866E-002  0.1249994E+03  0.7818608E-02  0.1235070E+00
          4   -1    0    0  501    0  0.00000000000E+00  0.00000000000E+00  0.62988282853E+01  0.64255846246E+01  0.12700000000E+01 0.  1.
         -4   -1    0    0    0  501 -0.00000000000E+00 -0.00000000000E+00 -0.61384399468E+03  0.61384530845E+03  0.12700000000E+01 0.  1.
         25    2    1    2    0    0  0.00000000000E+00  0.00000000000E+00 -0.60754516640E+03  0.62027089307E+03  0.12499940634E+03 0.  0.
    9000005    1    3    3    0    0  0.85273852489E+01  0.16008129625E+02 -0.70254308557E+01  0.19476477915E+02  0.10000000000E+01 0.  0.
    9000005    1    3    3    0    0 -0.85273852489E+01 -0.16008129625E+02 -0.60051973554E+03  0.60079441516E+03  0.10000000000E+01 0.  0.
<mgrwt>
<rscale>  0 0.12499941E+03</rscale>
<asrwt>0</asrwt>
<pdfrwt beam="1">  1        4 0.97890253E-03 0.12499941E+03</pdfrwt>
<pdfrwt beam="2">  1       -4 0.94447343E-01 0.12499941E+03</pdfrwt>
<totfact> 0.47613190E+03</totfact>
</mgrwt>
</event>
<event>
 5    1  0.3227866E-002  0.1250113E+03  0.7818608E-02  0.1235052E+00
         -4   -1    0    0    0  501 -0.00000000000E+00  0.00000000000E+00  0.17583294139E+03  0.17583752778E+03  0.12700000000E+01 0.  1.
          4   -1    0    0  501    0  0.00000000000E+00 -0.00000000000E+00 -0.22196688744E+02  0.22232991053E+02  0.12700000000E+01 0.  1.
         25    2    1    2    0    0  0.00000000000E+00  0.00000000000E+00  0.15363625264E+03  0.19807051884E+03  0.12501132871E+03 0.  0.
    9000005    1    3    3    0    0 -0.25923212673E+02 -0.52762087203E+02  0.11043276785E+03  0.12510894060E+03  0.10000000000E+01 0.  0.
    9000005    1    3    3    0    0  0.25923212673E+02  0.52762087203E+02  0.43203484789E+02  0.72961578240E+02  0.10000000000E+01 0.  0.
<mgrwt>
<rscale>  0 0.12501133E+03</rscale>
<asrwt>0</asrwt>
<pdfrwt beam="2">  1        4 0.34180204E-02 0.12501133E+03</pdfrwt>
<pdfrwt beam="1">  1       -4 0.27054367E-01 0.12501133E+03</pdfrwt>
<totfact> 0.90438789E+03</totfact>
</mgrwt>
</event>
<event>
 5    1  0.3227866E-002  0.1250004E+03  0.7818608E-02  0.1235069E+00
          4   -1    0    0  501    0  0.00000000000E+00  0.00000000000E+00  0.24468316082E+02  0.24501252863E+02  0.12700000000E+01 0. -1.
         -4   -1    0    0    0  501 -0.00000000000E+00 -0.00000000000E+00 -0.15950350490E+03  0.15950856082E+03  0.12700000000E+01 0. -1.
         25    2    1    2    0    0  0.00000000000E+00  0.00000000000E+00 -0.13503518881E+03  0.18400981368E+03  0.12500043725E+03 0.  0.
    9000005    1    3    3    0    0 -0.54802616729E+02 -0.29919509482E+02 -0.63686389438E+02  0.89193385672E+02  0.10000000000E+01 0.  0.
    9000005    1    3    3    0    0  0.54802616729E+02  0.29919509482E+02 -0.71348799377E+02  0.94816428009E+02  0.10000000000E+01 0.  0.
<mgrwt>
<rscale>  0 0.12500044E+03</rscale>
<asrwt>0</asrwt>
<pdfrwt beam="1">  1        4 0.37672789E-02 0.12500044E+03</pdfrwt>
<pdfrwt beam="2">  1       -4 0.24541923E-01 0.12500044E+03</pdfrwt>
<totfact> 0.92899253E+03</totfact>
</mgrwt>
</event>
<event>
 5    1  0.3227866E-002  0.1249943E+03  0.7818608E-02  0.1235078E+00
          4   -1    0    0  501    0  0.00000000000E+00  0.00000000000E+00  0.52375416661E+02  0.52390811889E+02  0.12700000000E+01 0.  1.
         -4   -1    0    0    0  501 -0.00000000000E+00 -0.00000000000E+00 -0.74543176375E+02  0.74553994152E+02  0.12700000000E+01 0.  1.
         25    2    1    2    0    0  0.00000000000E+00  0.00000000000E+00 -0.22167759714E+02  0.12694480604E+03  0.12499429671E+03 0.  0.
    9000005    1    3    3    0    0 -0.20905023413E+02  0.45384853954E+02  0.27026188454E+02  0.56817425450E+02  0.10000000000E+01 0.  0.
    9000005    1    3    3    0    0  0.20905023413E+02 -0.45384853954E+02 -0.49193948168E+02  0.70127380592E+02  0.10000000000E+01 0.  0.
<mgrwt>
<rscale>  0 0.12499430E+03</rscale>
<asrwt>0</asrwt>
<pdfrwt beam="1">  1        4 0.80597728E-02 0.12499430E+03</pdfrwt>
<pdfrwt beam="2">  1       -4 0.11470197E-01 0.12499430E+03</pdfrwt>
<totfact> 0.10411685E+04</totfact>
</mgrwt>
</event>
<event>
 5    1  0.3227866E-002  0.1250051E+03  0.7818608E-02  0.1235061E+00
          4   -1    0    0  501    0  0.00000000000E+00  0.00000000000E+00  0.85447912158E+01  0.86386548097E+01  0.12700000000E+01 0.  1.
         -4   -1    0    0    0  501 -0.00000000000E+00 -0.00000000000E+00 -0.45459478973E+03  0.45459656372E+03  0.12700000000E+01 0.  1.
         25    2    1    2    0    0  0.00000000000E+00  0.00000000000E+00 -0.44604999851E+03  0.46323521853E+03  0.12500506596E+03 0.  0.
    9000005    1    3    3    0    0 -0.34858519673E+02  0.20368295946E+02 -0.46250232209E+02  0.61400878274E+02  0.10000000000E+01 0.  0.
    9000005    1    3    3    0    0  0.34858519673E+02 -0.20368295946E+02 -0.39979976631E+03  0.40183434026E+03  0.10000000000E+01 0.  0.
<mgrwt>
<rscale>  0 0.12500507E+03</rscale>
<asrwt>0</asrwt>
<pdfrwt beam="1">  1        4 0.13219404E-02 0.12500507E+03</pdfrwt>
<pdfrwt beam="2">  1       -4 0.69944998E-01 0.12500507E+03</pdfrwt>
<totfact> 0.58827582E+03</totfact>
</mgrwt>
</event>
<event>
 5    1  0.3227866E-002  0.1250017E+03  0.7818608E-02  0.1235067E+00
          4   -1    0    0  501    0  0.00000000000E+00  0.00000000000E+00  0.14845464858E+03  0.14846008078E+03  0.12700000000E+01 0. -1.
         -4   -1    0    0    0  501 -0.00000000000E+00 -0.00000000000E+00 -0.26292211085E+02  0.26322865797E+02  0.12700000000E+01 0. -1.
         25    2    1    2    0    0  0.00000000000E+00  0.00000000000E+00  0.12216243749E+03  0.17478294658E+03  0.12500166910E+03 0.  0.
    9000005    1    3    3    0    0 -0.48528077683E+02  0.19383720381E+02  0.10900352843E+03  0.12088619503E+03  0.10000000000E+01 0.  0.
    9000005    1    3    3    0    0  0.48528077683E+02 -0.19383720381E+02  0.13158909069E+02  0.53896751546E+02  0.10000000000E+01 0.  0.
<mgrwt>
<rscale>  0 0.12500167E+03</rscale>
<asrwt>0</asrwt>
<pdfrwt beam="1">  1        4 0.22841953E-01 0.12500167E+03</pdfrwt>
<pdfrwt beam="2">  1       -4 0.40477314E-02 0.12500167E+03</pdfrwt>
<totfact> 0.94561067E+03</totfact>
</mgrwt>
</event>
<event>
 5    1  0.3227866E-002  0.1250040E+03  0.7818608E-02  0.1235063E+00
          4   -1    0    0  501    0  0.00000000000E+00  0.00000000000E+00  0.20201612279E+02  0.20241492995E+02  0.12700000000E+01 0.  1.
         -4   -1    0    0    0  501 -0.00000000000E+00 -0.00000000000E+00 -0.19314305594E+03  0.19314723129E+03  0.12700000000E+01 0.  1.
         25    2    1    2    0    0  0.00000000000E+00  0.00000000000E+00 -0.17294144366E+03  0.21338872429E+03  0.12500401881E+03 0.  0.
    9000005    1    3    3    0    0 -0.34902859536E+02  0.10049923302E+02 -0.17328399953E+03  0.17705240765E+03  0.10000000000E+01 0.  0.
    9000005    1    3    3    0    0  0.34902859536E+02 -0.10049923302E+02  0.34255587314E+00  0.36336316636E+02  0.10000000000E+01 0.  0.
<mgrwt>
<rscale>  0 0.12500402E+03</rscale>
<asrwt>0</asrwt>
<pdfrwt beam="1">  1        4 0.31113294E-02 0.12500402E+03</pdfrwt>
<pdfrwt beam="2">  1       -4 0.29717704E-01 0.12500402E+03</pdfrwt>
<totfact> 0.87917535E+03</totfact>
</mgrwt>
</event>
<event>
 5    1  0.3227866E-002  0.1249997E+03  0.7818608E-02  0.1235070E+00
         -4   -1    0    0    0  501 -0.00000000000E+00  0.00000000000E+00  0.62494187259E+01  0.63771572360E+01  0.12700000000E+01 0. -1.
          4   -1    0    0  501    0  0.00000000000E+00 -0.00000000000E+00 -0.61860338308E+03  0.61860468674E+03  0.12700000000E+01 0. -1.
         25    2    1    2    0    0  0.00000000000E+00  0.00000000000E+00 -0.61235396435E+03  0.62498184397E+03  0.12499971056E+03 0.  0.
    9000005    1    3    3    0    0 -0.16239622413E+02 -0.24452830681E+02 -0.58201220986E+03  0.58275284529E+03  0.10000000000E+01 0.  0.
    9000005    1    3    3    0    0  0.16239622413E+02  0.24452830681E+02 -0.30341754488E+02  0.42228998683E+02  0.10000000000E+01 0.  0.
<mgrwt>
<rscale>  0 0.12499971E+03</rscale>
<asrwt>0</asrwt>
<pdfrwt beam="2">  1        4 0.95179629E-01 0.12499971E+03</pdfrwt>
<pdfrwt beam="1">  1       -4 0.97137585E-03 0.12499971E+03</pdfrwt>
<totfact> 0.47328041E+03</totfact>
</mgrwt>
</event>
<event>
 5    1  0.3227866E-002  0.1250070E+03  0.7818608E-02  0.1235058E+00
         -4   -1    0    0    0  501 -0.00000000000E+00  0.00000000000E+00  0.29613288870E+03  0.29613561195E+03  0.12700000000E+01 0.  1.
          4   -1    0    0  501    0  0.00000000000E+00 -0.00000000000E+00 -0.13158992871E+02  0.13220135906E+02  0.12700000000E+01 0.  1.
         25    2    1    2    0    0  0.00000000000E+00  0.00000000000E+00  0.28297389583E+03  0.30935574786E+03  0.12500701187E+03 0.  0.
    9000005    1    3    3    0    0  0.53883793887E+02  0.18289243681E+02  0.20543448124E+03  0.21317196288E+03  0.10000000000E+01 0.  0.
    9000005    1    3    3    0    0 -0.53883793887E+02 -0.18289243681E+02  0.77539414590E+02  0.96183784980E+02  0.10000000000E+01 0.  0.
<mgrwt>
<rscale>  0 0.12500701E+03</rscale>
<asrwt>0</asrwt>
<pdfrwt beam="2">  1        4 0.20293733E-02 0.12500701E+03</pdfrwt>
<pdfrwt beam="1">  1       -4 0.45563816E-01 0.12500701E+03</pdfrwt>
<totfact> 0.74428481E+03</totfact>
</mgrwt>
</event>
<event>
 5    1  0.3227866E-002  0.1250038E+03  0.7818608E-02  0.1235063E+00
          4   -1    0    0  501    0  0.00000000000E+00  0.00000000000E+00  0.28107602863E+02  0.28136279760E+02  0.12700000000E+01 0.  1.
         -4   -1    0    0    0  501 -0.00000000000E+00 -0.00000000000E+00 -0.13888094678E+03  0.13888675343E+03  0.12700000000E+01 0.  1.
         25    2    1    2    0    0  0.00000000000E+00  0.00000000000E+00 -0.11077334392E+03  0.16702303319E+03  0.12500383952E+03 0.  0.
    9000005    1    3    3    0    0 -0.48664434091E+00  0.59024212734E+02 -0.27958431966E+02  0.65320505429E+02  0.10000000000E+01 0.  0.
    9000005    1    3    3    0    0  0.48664434091E+00 -0.59024212734E+02 -0.82814911955E+02  0.10170252776E+03  0.10000000000E+01 0.  0.
<mgrwt>
<rscale>  0 0.12500384E+03</rscale>
<asrwt>0</asrwt>
<pdfrwt beam="1">  1        4 0.43268992E-02 0.12500384E+03</pdfrwt>
<pdfrwt beam="2">  1       -4 0.21368952E-01 0.12500384E+03</pdfrwt>
<totfact> 0.95997350E+03</totfact>
</mgrwt>
</event>
<event>
 5    1  0.3227866E-002  0.1250000E+03  0.7818608E-02  0.1235069E+00
         -4   -1    0    0    0  501 -0.00000000000E+00  0.00000000000E+00  0.12300009440E+03  0.12300665073E+03  0.12700000000E+01 0.  1.
          4   -1    0    0  501    0  0.00000000000E+00 -0.00000000000E+00 -0.31738027281E+02  0.31763426700E+02  0.12700000000E+01 0.  1.
         25    2    1    2    0    0  0.00000000000E+00  0.00000000000E+00  0.91262067122E+02  0.15477007743E+03  0.12500004789E+03 0.  0.
    9000005    1    3    3    0    0  0.28875555615E+02 -0.12999896821E+01  0.11423186942E+03  0.11783635973E+03  0.10000000000E+01 0.  0.
    9000005    1    3    3    0    0 -0.28875555615E+02  0.12999896821E+01 -0.22969802294E+02  0.36933717693E+02  0.10000000000E+01 0.  0.
<mgrwt>
<rscale>  0 0.12500005E+03</rscale>
<asrwt>0</asrwt>
<pdfrwt beam="2">  1        4 0.48852316E-02 0.12500005E+03</pdfrwt>
<pdfrwt beam="1">  1       -4 0.18925550E-01 0.12500005E+03</pdfrwt>
<totfact> 0.98360548E+03</totfact>
</mgrwt>
</event>
<event>
 5    1  0.3227866E-002  0.1249960E+03  0.7818608E-02  0.1235075E+00
         -4   -1    0    0    0  501 -0.00000000000E+00  0.00000000000E+00  0.81149502421E+01  0.82137273775E+01  0.12700000000E+01 0.  1.
          4   -1    0    0  501    0  0.00000000000E+00 -0.00000000000E+00 -0.47832282808E+03  0.47832451408E+03  0.12700000000E+01 0.  1.
         25    2    1    2    0    0  0.00000000000E+00  0.00000000000E+00 -0.47020787784E+03  0.48653824145E+03  0.12499604799E+03 0.  0.
    9000005    1    3    3    0    0 -0.27266972660E+02 -0.55166732031E+02 -0.27741284841E+03  0.28415795710E+03  0.10000000000E+01 0.  0.
    9000005    1    3    3    0    0  0.27266972660E+02  0.55166732031E+02 -0.19279502944E+03  0.20238028436E+03  0.10000000000E+01 0.  0.
<mgrwt>
<rscale>  0 0.12499605E+03</rscale>
<asrwt>0</asrwt>
<pdfrwt beam="2">  1        4 0.73595833E-01 0.12499605E+03</pdfrwt>
<pdfrwt beam="1">  1       -4 0.12561822E-02 0.12499605E+03</pdfrwt>
<totfact> 0.56929131E+03</totfact>
</mgrwt>
</event>
<event>
 5    1  0.3227866E-002  0.1249996E+03  0.7818608E-02  0.1235070E+00
          4   -1    0    0  501    0  0.00000000000E+00  0.00000000000E+00  0.86573989931E+02  0.86583304583E+02  0.12700000000E+01 0. -1.
         -4   -1    0    0    0  501 -0.00000000000E+00 -0.00000000000E+00 -0.45099422195E+02  0.45117300255E+02  0.12700000000E+01 0. -1.
         25    2    1    2    0    0  0.00000000000E+00  0.00000000000E+00  0.41474567736E+02  0.13170060484E+03  0.12499963818E+03 0.  0.
    9000005    1    3    3    0    0 -0.47698850621E+02 -0.19960332933E+02 -0.16238681485E+02  0.54205996142E+02  0.10000000000E+01 0.  0.
    9000005    1    3    3    0    0  0.47698850621E+02  0.19960332933E+02  0.57713249221E+02  0.77494608696E+02  0.10000000000E+01 0.  0.
<mgrwt>
<rscale>  0 0.12499964E+03</rscale>
<asrwt>0</asrwt>
<pdfrwt beam="1">  1        4 0.13321167E-01 0.12499964E+03</pdfrwt>
<pdfrwt beam="2">  1       -4 0.69404644E-02 0.12499964E+03</pdfrwt>
<totfact> 0.10308177E+04</totfact>
</mgrwt>
</event>
<event>
 5    1  0.3227866E-002  0.1250009E+03  0.7818608E-02  0.1235068E+00
         -4   -1    0    0    0  501 -0.00000000000E+00  0.00000000000E+00  0.45970074146E+03  0.45970249575E+03  0.12700000000E+01 0.  1.
          4   -1    0    0  501    0  0.00000000000E+00 -0.00000000000E+00 -0.84482633583E+01  0.85431875650E+01  0.12700000000E+01 0.  1.
         25    2    1    2    0    0  0.00000000000E+00  0.00000000000E+00  0.45125247811E+03  0.46824568332E+03  0.12500088380E+03 0.  0.
    9000005    1    3    3    0    0  0.37139853651E+02  0.18390131946E+02  0.40083608522E+03  0.40297410946E+03  0.10000000000E+01 0.  0.
    9000005    1    3    3    0    0 -0.37139853651E+02 -0.18390131946E+02  0.50416392887E+02  0.65271573858E+02  0.10000000000E+01 0.  0.
<mgrwt>
<rscale>  0 0.12500088E+03</rscale>
<asrwt>0</asrwt>
<pdfrwt beam="2">  1        4 0.13071694E-02 0.12500088E+03</pdfrwt>
<pdfrwt beam="1">  1       -4 0.70730639E-01 0.12500088E+03</pdfrwt>
<totfact> 0.58413985E+03</totfact>
</mgrwt>
</event>
<event>
 5    1  0.3227866E-002  0.1250007E+03  0.7818608E-02  0.1235068E+00
         -4   -1    0    0    0  501 -0.00000000000E+00  0.00000000000E+00  0.31638710214E+03  0.31638965107E+03  0.12700000000E+01 0. -1.
          4   -1    0    0  501    0  0.00000000000E+00 -0.00000000000E+00 -0.12311308334E+02  0.12376639807E+02  0.12700000000E+01 0. -1.
         25    2    1    2    0    0  0.00000000000E+00  0.00000000000E+00  0.30407579381E+03  0.32876629088E+03  0.12500074254E+03 0.  0.
    9000005    1    3    3    0    0 -0.59512898053E+01 -0.98424041120E+01 -0.95163638317E+01  0.14961682714E+02  0.10000000000E+01 0.  0.
    9000005    1    3    3    0    0  0.59512898053E+01  0.98424041120E+01  0.31359215764E+03  0.31380460816E+03  0.10000000000E+01 0.  0.
<mgrwt>
<rscale>  0 0.12500074E+03</rscale>
<asrwt>0</asrwt>
<pdfrwt beam="2">  1        4 0.18992692E-02 0.12500074E+03</pdfrwt>
<pdfrwt beam="1">  1       -4 0.48680154E-01 0.12500074E+03</pdfrwt>
<totfact> 0.72124297E+03</totfact>
</mgrwt>
</event>
<event>
 5    1  0.3227866E-002  0.1250029E+03  0.7818608E-02  0.1235065E+00
         -4   -1    0    0    0  501 -0.00000000000E+00  0.00000000000E+00  0.11314884583E+02  0.11385934881E+02  0.12700000000E+01 0.  1.
          4   -1    0    0  501    0  0.00000000000E+00 -0.00000000000E+00 -0.34409444021E+03  0.34409678389E+03  0.12700000000E+01 0.  1.
         25    2    1    2    0    0  0.00000000000E+00  0.00000000000E+00 -0.33277955562E+03  0.35548271877E+03  0.12500292277E+03 0.  0.
    9000005    1    3    3    0    0  0.27131003471E+02  0.52087808295E+02 -0.10564950962E+03  0.12088031273E+03  0.10000000000E+01 0.  0.
    9000005    1    3    3    0    0 -0.27131003471E+02 -0.52087808295E+02 -0.22713004600E+03  0.23460240604E+03  0.10000000000E+01 0.  0.
<mgrwt>
<rscale>  0 0.12500292E+03</rscale>
<asrwt>0</asrwt>
<pdfrwt beam="2">  1        4 0.52943244E-01 0.12500292E+03</pdfrwt>
<pdfrwt beam="1">  1       -4 0.17463974E-02 0.12500292E+03</pdfrwt>
<totfact> 0.69121106E+03</totfact>
</mgrwt>
</event>
<event>
 5    1  0.3227866E-002  0.1249871E+03  0.7818608E-02  0.1235089E+00
          4   -1    0    0  501    0  0.00000000000E+00  0.00000000000E+00  0.17357317167E+03  0.17357781777E+03  0.12700000000E+01 0. -1.
         -4   -1    0    0    0  501 -0.00000000000E+00 -0.00000000000E+00 -0.22477407293E+02  0.22513256952E+02  0.12700000000E+01 0. -1.
         25    2    1    2    0    0  0.00000000000E+00  0.00000000000E+00  0.15109576438E+03  0.19609107473E+03  0.12498711764E+03 0.  0.
    9000005    1    3    3    0    0  0.51047429788E+02  0.29975970207E+02  0.44168271673E+02  0.73866332658E+02  0.10000000000E+01 0.  0.
    9000005    1    3    3    0    0 -0.51047429788E+02 -0.29975970207E+02  0.10692749270E+03  0.12222474207E+03  0.10000000000E+01 0.  0.
<mgrwt>
<rscale>  0 0.12498712E+03</rscale>
<asrwt>0</asrwt>
<pdfrwt beam="1">  1        4 0.26706680E-01 0.12498712E+03</pdfrwt>
<pdfrwt beam="2">  1       -4 0.34611777E-02 0.12498712E+03</pdfrwt>
<totfact> 0.90824346E+03</totfact>
</mgrwt>
</event>
<event>
 5    1  0.3227866E-002  0.1249952E+03  0.7818608E-02  0.1235077E+00
         -4   -1    0    0    0  501 -0.00000000000E+00  0.00000000000E+00  0.22697931999E+02  0.22733433903E+02  0.12700000000E+01 0. -1.
          4   -1    0    0  501    0  0.00000000000E+00 -0.00000000000E+00 -0.17191157078E+03  0.17191626179E+03  0.12700000000E+01 0. -1.
         25    2    1    2    0    0  0.00000000000E+00  0.00000000000E+00 -0.14921363879E+03  0.19464969570E+03  0.12499517605E+03 0.  0.
    9000005    1    3    3    0    0  0.40214137165E+02  0.30573750199E+02 -0.17325609810E+02  0.53414490398E+02  0.10000000000E+01 0.  0.
    9000005    1    3    3    0    0 -0.40214137165E+02 -0.30573750199E+02 -0.13188802897E+03  0.14123520530E+03  0.10000000000E+01 0.  0.
<mgrwt>
<rscale>  0 0.12499518E+03</rscale>
<asrwt>0</asrwt>
<pdfrwt beam="2">  1        4 0.26451025E-01 0.12499518E+03</pdfrwt>
<pdfrwt beam="1">  1       -4 0.34950814E-02 0.12499518E+03</pdfrwt>
<totfact> 0.91054353E+03</totfact>
</mgrwt>
</event>
<event>
 5    1  0.3227866E-002  0.1250000E+03  0.7818608E-02  0.1235069E+00
         -4   -1    0    0    0  501 -0.00000000000E+00  0.00000000000E+00  0.31367789077E+01  0.33841220303E+01  0.12700000000E+01 0. -1.
          4   -1    0    0  501    0  0.00000000000E+00 -0.00000000000E+00 -0.11978225791E+04  0.11978232523E+04  0.12700000000E+01 0. -1.
         25    2    1    2    0    0  0.00000000000E+00  0.00000000000E+00 -0.11946858002E+04  0.12012073744E+04  0.12499998046E+03 0.  0.
    9000005    1    3    3    0    0  0.24937785729E+02  0.51977036351E+02 -0.36556408148E+03  0.37008323811E+03  0.10000000000E+01 0.  0.
    9000005    1    3    3    0    0 -0.24937785729E+02 -0.51977036351E+02 -0.82912171868E+03  0.83112413625E+03  0.10000000000E+01 0.  0.
<mgrwt>
<rscale>  0 0.12499998E+03</rscale>
<asrwt>0</asrwt>
<pdfrwt beam="2">  1        4 0.18429912E+00 0.12499998E+03</pdfrwt>
<pdfrwt beam="1">  1       -4 0.50166051E-03 0.12499998E+03</pdfrwt>
<totfact> 0.24681236E+03</totfact>
</mgrwt>
</event>
<event>
 5    1  0.3227866E-002  0.1250002E+03  0.7818608E-02  0.1235069E+00
         -4   -1    0    0    0  501 -0.00000000000E+00  0.00000000000E+00  0.15994039883E+03  0.15994544094E+03  0.12700000000E+01 0.  1.
          4   -1    0    0  501    0  0.00000000000E+00 -0.00000000000E+00 -0.24401309929E+02  0.24434337033E+02  0.12700000000E+01 0.  1.
         25    2    1    2    0    0  0.00000000000E+00  0.00000000000E+00  0.13553908890E+03  0.18437977798E+03  0.12500023162E+03 0.  0.
    9000005    1    3    3    0    0  0.28651129963E+02 -0.53974637987E+02  0.48474429209E+02  0.78005891324E+02  0.10000000000E+01 0.  0.
    9000005    1    3    3    0    0 -0.28651129963E+02  0.53974637987E+02  0.87064659695E+02  0.10637388665E+03  0.10000000000E+01 0.  0.
<mgrwt>
<rscale>  0 0.12500023E+03</rscale>
<asrwt>0</asrwt>
<pdfrwt beam="2">  1        4 0.37569762E-02 0.12500023E+03</pdfrwt>
<pdfrwt beam="1">  1       -4 0.24609143E-01 0.12500023E+03</pdfrwt>
<totfact> 0.92834036E+03</totfact>
</mgrwt>
</event>
<event>
 5    1  0.3227866E-002  0.1249985E+03  0.7818608E-02  0.1235072E+00
         -4   -1    0    0    0  501 -0.00000000000E+00  0.00000000000E+00  0.17105357014E+02  0.17152438269E+02  0.12700000000E+01 0. -1.
          4   -1    0    0  501    0  0.00000000000E+00 -0.00000000000E+00 -0.22799612629E+03  0.22799966338E+03  0.12700000000E+01 0. -1.
         25    2    1    2    0    0  0.00000000000E+00  0.00000000000E+00 -0.21089076928E+03  0.24515210165E+03  0.12499854551E+03 0.  0.
    9000005    1    3    3    0    0  0.48374164423E+02 -0.39380878103E+02 -0.98042971221E+02  0.11620816473E+03  0.10000000000E+01 0.  0.
    9000005    1    3    3    0    0 -0.48374164423E+02  0.39380878103E+02 -0.11284779805E+03  0.12894393692E+03  0.10000000000E+01 0.  0.
<mgrwt>
<rscale>  0 0.12499855E+03</rscale>
<asrwt>0</asrwt>
<pdfrwt beam="2">  1        4 0.35080219E-01 0.12499855E+03</pdfrwt>
<pdfrwt beam="1">  1       -4 0.26354873E-02 0.12499855E+03</pdfrwt>
<totfact> 0.83038680E+03</totfact>
</mgrwt>
</event>
<event>
 5    1  0.3227866E-002  0.1250036E+03  0.7818608E-02  0.1235064E+00
         -4   -1    0    0    0  501 -0.00000000000E+00  0.00000000000E+00  0.85134193661E+02  0.85143665826E+02  0.12700000000E+01 0. -1.
          4   -1    0    0  501    0  0.00000000000E+00 -0.00000000000E+00 -0.45865284340E+02  0.45882863987E+02  0.12700000000E+01 0. -1.
         25    2    1    2    0    0  0.00000000000E+00  0.00000000000E+00  0.39268909320E+02  0.13102652981E+03  0.12500361705E+03 0.  0.
    9000005    1    3    3    0    0  0.47851522325E+02  0.37690010210E+02  0.34277935209E+02  0.69901944898E+02  0.10000000000E+01 0.  0.
    9000005    1    3    3    0    0 -0.47851522325E+02 -0.37690010210E+02  0.49909741115E+01  0.61124584914E+02  0.10000000000E+01 0.  0.
<mgrwt>
<rscale>  0 0.12500362E+03</rscale>
<asrwt>0</asrwt>
<pdfrwt beam="2">  1        4 0.70582786E-02 0.12500362E+03</pdfrwt>
<pdfrwt beam="1">  1       -4 0.13099649E-01 0.12500362E+03</pdfrwt>
<totfact> 0.10321678E+04</totfact>
</mgrwt>
</event>
<event>
 5    1  0.3227866E-002  0.1250005E+03  0.7818608E-02  0.1235068E+00
          4   -1    0    0  501    0  0.00000000000E+00  0.00000000000E+00  0.56219605729E+01  0.57636221843E+01  0.12700000000E+01 0. -1.
         -4   -1    0    0    0  501 -0.00000000000E+00 -0.00000000000E+00 -0.68603804651E+03  0.68603922203E+03  0.12700000000E+01 0. -1.
         25    2    1    2    0    0  0.00000000000E+00  0.00000000000E+00 -0.68041608594E+03  0.69180284421E+03  0.12500050103E+03 0.  0.
    9000005    1    3    3    0    0  0.43844758704E+01 -0.33715857102E+02 -0.63039744667E+03  0.63131444100E+03  0.10000000000E+01 0.  0.
    9000005    1    3    3    0    0 -0.43844758704E+01  0.33715857102E+02 -0.50018639271E+02  0.60488403213E+02  0.10000000000E+01 0.  0.
<mgrwt>
<rscale>  0 0.12500050E+03</rscale>
<asrwt>0</asrwt>
<pdfrwt beam="1">  1        4 0.87590502E-03 0.12500050E+03</pdfrwt>
<pdfrwt beam="2">  1       -4 0.10555524E+00 0.12500050E+03</pdfrwt>
<totfact> 0.43522497E+03</totfact>
</mgrwt>
</event>
<event>
 5    1  0.3227866E-002  0.1250018E+03  0.7818608E-02  0.1235066E+00
          4   -1    0    0  501    0  0.00000000000E+00  0.00000000000E+00  0.18525979856E+03  0.18526415159E+03  0.12700000000E+01 0.  1.
         -4   -1    0    0    0  501 -0.00000000000E+00 -0.00000000000E+00 -0.21062141468E+02  0.21100395807E+02  0.12700000000E+01 0.  1.
         25    2    1    2    0    0  0.00000000000E+00  0.00000000000E+00  0.16419765710E+03  0.20636454740E+03  0.12500182329E+03 0.  0.
    9000005    1    3    3    0    0  0.19581570408E+02  0.22287153998E+02 -0.87033818735E+01  0.30933864760E+02  0.10000000000E+01 0.  0.
    9000005    1    3    3    0    0 -0.19581570408E+02 -0.22287153998E+02  0.17290103897E+03  0.17543068264E+03  0.10000000000E+01 0.  0.
<mgrwt>
<rscale>  0 0.12500182E+03</rscale>
<asrwt>0</asrwt>
<pdfrwt beam="1">  1        4 0.28504785E-01 0.12500182E+03</pdfrwt>
<pdfrwt beam="2">  1       -4 0.32436069E-02 0.12500182E+03</pdfrwt>
<totfact> 0.89069428E+03</totfact>
</mgrwt>
</event>
<event>
 5    1  0.3227866E-002  0.1250008E+03  0.7818608E-02  0.1235068E+00
         -4   -1    0    0    0  501 -0.00000000000E+00  0.00000000000E+00  0.43298901048E+02  0.43317522228E+02  0.12700000000E+01 0. -1.
          4   -1    0    0  501    0  0.00000000000E+00 -0.00000000000E+00 -0.90174563359E+02  0.90183506125E+02  0.12700000000E+01 0. -1.
         25    2    1    2    0    0  0.00000000000E+00  0.00000000000E+00 -0.46875662311E+02  0.13350102835E+03  0.12500078741E+03 0.  0.
    9000005    1    3    3    0    0  0.83533338062E+01  0.25855679629E+02 -0.83540841824E+02  0.87854235000E+02  0.10000000000E+01 0.  0.
    9000005    1    3    3    0    0 -0.83533338062E+01 -0.25855679629E+02  0.36665179513E+02  0.45646793353E+02  0.10000000000E+01 0.  0.
<mgrwt>
<rscale>  0 0.12500079E+03</rscale>
<asrwt>0</asrwt>
<pdfrwt beam="2">  1        4 0.13875130E-01 0.12500079E+03</pdfrwt>
<pdfrwt beam="1">  1       -4 0.66634897E-02 0.12500079E+03</pdfrwt>
<totfact> 0.10269580E+04</totfact>
</mgrwt>
</event>
<event>
 5    1  0.3227866E-002  0.1250004E+03  0.7818608E-02  0.1235069E+00
         -4   -1    0    0    0  501 -0.00000000000E+00  0.00000000000E+00  0.60380679580E+03  0.60380813141E+03  0.12700000000E+01 0.  1.
          4   -1    0    0  501    0  0.00000000000E+00 -0.00000000000E+00 -0.64057290400E+01  0.65304107477E+01  0.12700000000E+01 0.  1.
         25    2    1    2    0    0  0.00000000000E+00  0.00000000000E+00  0.59740106676E+03  0.61033854216E+03  0.12500040590E+03 0.  0.
    9000005    1    3    3    0    0  0.39027009344E+02  0.34920916487E+02  0.13220877408E+03  0.14220667287E+03  0.10000000000E+01 0.  0.
    9000005    1    3    3    0    0 -0.39027009344E+02 -0.34920916487E+02  0.46519229268E+03  0.46813186928E+03  0.10000000000E+01 0.  0.
<mgrwt>
<rscale>  0 0.12500041E+03</rscale>
<asrwt>0</asrwt>
<pdfrwt beam="2">  1        4 0.99519048E-03 0.12500041E+03</pdfrwt>
<pdfrwt beam="1">  1       -4 0.92903040E-01 0.12500041E+03</pdfrwt>
<totfact> 0.48221021E+03</totfact>
</mgrwt>
</event>
<event>
 5    1  0.3227866E-002  0.1249988E+03  0.7818608E-02  0.1235071E+00
          4   -1    0    0  501    0  0.00000000000E+00  0.00000000000E+00  0.68314506384E+03  0.68314624433E+03  0.12700000000E+01 0. -1.
         -4   -1    0    0    0  501 -0.00000000000E+00 -0.00000000000E+00 -0.56462089281E+01  0.57872770160E+01  0.12700000000E+01 0. -1.
         25    2    1    2    0    0  0.00000000000E+00  0.00000000000E+00  0.67749885491E+03  0.68893352135E+03  0.12499879373E+03 0.  0.
    9000005    1    3    3    0    0  0.13211581155E+02 -0.59573319526E+02  0.41303204562E+03  0.41751646313E+03  0.10000000000E+01 0.  0.
    9000005    1    3    3    0    0 -0.13211581155E+02  0.59573319526E+02  0.26446680928E+03  0.27141705821E+03  0.10000000000E+01 0.  0.
<mgrwt>
<rscale>  0 0.12499879E+03</rscale>
<asrwt>0</asrwt>
<pdfrwt beam="1">  1        4 0.10511015E+00 0.12499879E+03</pdfrwt>
<pdfrwt beam="2">  1       -4 0.87958998E-03 0.12499879E+03</pdfrwt>
<totfact> 0.43678512E+03</totfact>
</mgrwt>
</event>
<event>
 5    1  0.3227866E-002  0.1250079E+03  0.7818608E-02  0.1235057E+00
          4   -1    0    0  501    0  0.00000000000E+00  0.00000000000E+00  0.61143152034E+01  0.62448178841E+01  0.12700000000E+01 0. -1.
         -4   -1    0    0    0  501 -0.00000000000E+00 -0.00000000000E+00 -0.63207217408E+03  0.63207344997E+03  0.12700000000E+01 0. -1.
         25    2    1    2    0    0  0.00000000000E+00  0.00000000000E+00 -0.62595785888E+03  0.63831826785E+03  0.12500787966E+03 0.  0.
    9000005    1    3    3    0    0  0.34429159812E+02  0.24018954280E+01 -0.57902283504E+03  0.58005135949E+03  0.10000000000E+01 0.  0.
    9000005    1    3    3    0    0 -0.34429159812E+02 -0.24018954280E+01 -0.46935023842E+02  0.58266908362E+02  0.10000000000E+01 0.  0.
<mgrwt>
<rscale>  0 0.12500788E+03</rscale>
<asrwt>0</asrwt>
<pdfrwt beam="1">  1        4 0.95080119E-03 0.12500788E+03</pdfrwt>
<pdfrwt beam="2">  1       -4 0.97251959E-01 0.12500788E+03</pdfrwt>
<totfact> 0.46526820E+03</totfact>
</mgrwt>
</event>
<event>
 5    1  0.3227866E-002  0.1250082E+03  0.7818608E-02  0.1235056E+00
         -4   -1    0    0    0  501 -0.00000000000E+00  0.00000000000E+00  0.17124597410E+03  0.17125068334E+03  0.12700000000E+01 0. -1.
          4   -1    0    0  501    0  0.00000000000E+00 -0.00000000000E+00 -0.22791062475E+02  0.22826419534E+02  0.12700000000E+01 0. -1.
         25    2    1    2    0    0  0.00000000000E+00  0.00000000000E+00  0.14845491162E+03  0.19407710288E+03  0.12500824403E+03 0.  0.
    9000005    1    3    3    0    0  0.17635723208E+02 -0.59932851069E+02  0.71629649323E+02  0.95051417835E+02  0.10000000000E+01 0.  0.
    9000005    1    3    3    0    0 -0.17635723208E+02  0.59932851069E+02  0.76825262300E+02  0.99025685041E+02  0.10000000000E+01 0.  0.
<mgrwt>
<rscale>  0 0.12500824E+03</rscale>
<asrwt>0</asrwt>
<pdfrwt beam="2">  1        4 0.35093994E-02 0.12500824E+03</pdfrwt>
<pdfrwt beam="1">  1       -4 0.26348616E-01 0.12500824E+03</pdfrwt>
<totfact> 0.91125890E+03</totfact>
</mgrwt>
</event>
<event>
 5    1  0.3227866E-002  0.1249999E+03  0.7818608E-02  0.1235069E+00
          4   -1    0    0  501    0  0.00000000000E+00  0.00000000000E+00  0.24119070728E+02  0.24152483781E+02  0.12700000000E+01 0.  1.
         -4   -1    0    0    0  501 -0.00000000000E+00 -0.00000000000E+00 -0.16180871930E+03  0.16181370320E+03  0.12700000000E+01 0.  1.
         25    2    1    2    0    0  0.00000000000E+00  0.00000000000E+00 -0.13768964857E+03  0.18596618698E+03  0.12499993350E+03 0.  0.
    9000005    1    3    3    0    0  0.36829662924E+02  0.17289051114E+02 -0.13941266426E+03  0.14523162987E+03  0.10000000000E+01 0.  0.
    9000005    1    3    3    0    0 -0.36829662924E+02 -0.17289051114E+02  0.17230156849E+01  0.40734557106E+02  0.10000000000E+01 0.  0.
<mgrwt>
<rscale>  0 0.12499993E+03</rscale>
<asrwt>0</asrwt>
<pdfrwt beam="1">  1        4 0.37135800E-02 0.12499993E+03</pdfrwt>
<pdfrwt beam="2">  1       -4 0.24896602E-01 0.12499993E+03</pdfrwt>
<totfact> 0.92554099E+03</totfact>
</mgrwt>
</event>
<event>
 5    1  0.3227866E-002  0.1250025E+03  0.7818608E-02  0.1235065E+00
         -4   -1    0    0    0  501 -0.00000000000E+00  0.00000000000E+00  0.15996716746E+03  0.15997220872E+03  0.12700000000E+01 0.  1.
          4   -1    0    0  501    0  0.00000000000E+00 -0.00000000000E+00 -0.24398116153E+02  0.24431147575E+02  0.12700000000E+01 0.  1.
         25    2    1    2    0    0  0.00000000000E+00  0.00000000000E+00  0.13556905130E+03  0.18440335630E+03  0.12500252055E+03 0.  0.
    9000005    1    3    3    0    0 -0.27430666307E+02  0.42277887918E+02  0.12229792468E+03  0.13227865905E+03  0.10000000000E+01 0.  0.
    9000005    1    3    3    0    0  0.27430666307E+02 -0.42277887918E+02  0.13271126626E+02  0.52124697244E+02  0.10000000000E+01 0.  0.
<mgrwt>
<rscale>  0 0.12500252E+03</rscale>
<asrwt>0</asrwt>
<pdfrwt beam="2">  1        4 0.37564848E-02 0.12500252E+03</pdfrwt>
<pdfrwt beam="1">  1       -4 0.24613263E-01 0.12500252E+03</pdfrwt>
<totfact> 0.92825091E+03</totfact>
</mgrwt>
</event>
<event>
 5    1  0.3227866E-002  0.1250006E+03  0.7818608E-02  0.1235068E+00
          4   -1    0    0  501    0  0.00000000000E+00  0.00000000000E+00  0.44428957492E+03  0.44429139006E+03  0.12700000000E+01 0. -1.
         -4   -1    0    0    0  501 -0.00000000000E+00 -0.00000000000E+00 -0.87445101797E+01  0.88362525022E+01  0.12700000000E+01 0. -1.
         25    2    1    2    0    0  0.00000000000E+00  0.00000000000E+00  0.43554506474E+03  0.45312764256E+03  0.12500062814E+03 0.  0.
    9000005    1    3    3    0    0 -0.56221773036E+02 -0.17709374728E+02  0.14253476555E+03  0.15424548326E+03  0.10000000000E+01 0.  0.
    9000005    1    3    3    0    0  0.56221773036E+02  0.17709374728E+02  0.29301029919E+03  0.29888215930E+03  0.10000000000E+01 0.  0.
<mgrwt>
<rscale>  0 0.12500063E+03</rscale>
<asrwt>0</asrwt>
<pdfrwt beam="1">  1        4 0.68359444E-01 0.12500063E+03</pdfrwt>
<pdfrwt beam="2">  1       -4 0.13525059E-02 0.12500063E+03</pdfrwt>
<totfact> 0.59692971E+03</totfact>
</mgrwt>
</event>
<event>
 5    1  0.3227866E-002  0.1250000E+03  0.7818608E-02  0.1235069E+00
         -4   -1    0    0    0  501 -0.00000000000E+00  0.00000000000E+00  0.12479481666E+03  0.12480127870E+03  0.12700000000E+01 0. -1.
          4   -1    0    0  501    0  0.00000000000E+00 -0.00000000000E+00 -0.31281218706E+02  0.31306988736E+02  0.12700000000E+01 0. -1.
         25    2    1    2    0    0  0.00000000000E+00  0.00000000000E+00  0.93513597955E+02  0.15610826744E+03  0.12499999264E+03 0.  0.
    9000005    1    3    3    0    0 -0.31772440370E+02  0.47272101006E+02  0.14645875736E+02  0.58818714511E+02  0.10000000000E+01 0.  0.
    9000005    1    3    3    0    0  0.31772440370E+02 -0.47272101006E+02  0.78867722219E+02  0.97289552927E+02  0.10000000000E+01 0.  0.
<mgrwt>
<rscale>  0 0.12499999E+03</rscale>
<asrwt>0</asrwt>
<pdfrwt beam="2">  1        4 0.48149746E-02 0.12499999E+03</pdfrwt>
<pdfrwt beam="1">  1       -4 0.19201682E-01 0.12499999E+03</pdfrwt>
<totfact> 0.98098387E+03</totfact>
</mgrwt>
</event>
<event>
 5    1  0.3227866E-002  0.1249976E+03  0.7818608E-02  0.1235073E+00
         -4   -1    0    0    0  501 -0.00000000000E+00  0.00000000000E+00  0.17701333871E+03  0.17701789452E+03  0.12700000000E+01 0.  1.
          4   -1    0    0  501    0  0.00000000000E+00 -0.00000000000E+00 -0.22043597431E+02  0.22080151442E+02  0.12700000000E+01 0.  1.
         25    2    1    2    0    0  0.00000000000E+00  0.00000000000E+00  0.15496974127E+03  0.19909804596E+03  0.12499764476E+03 0.  0.
    9000005    1    3    3    0    0 -0.24894933243E+02 -0.12930731307E+02  0.16642813454E+03  0.16877880637E+03  0.10000000000E+01 0.  0.
    9000005    1    3    3    0    0  0.24894933243E+02  0.12930731307E+02 -0.11458393263E+02  0.30319239593E+02  0.10000000000E+01 0.  0.
<mgrwt>
<rscale>  0 0.12499764E+03</rscale>
<asrwt>0</asrwt>
<pdfrwt beam="2">  1        4 0.33944850E-02 0.12499764E+03</pdfrwt>
<pdfrwt beam="1">  1       -4 0.27235984E-01 0.12499764E+03</pdfrwt>
<totfact> 0.90292610E+03</totfact>
</mgrwt>
</event>
<event>
 5    1  0.3227866E-002  0.1249920E+03  0.7818608E-02  0.1235082E+00
          4   -1    0    0  501    0  0.00000000000E+00  0.00000000000E+00  0.23765108645E+02  0.23799018654E+02  0.12700000000E+01 0.  1.
         -4   -1    0    0    0  501 -0.00000000000E+00 -0.00000000000E+00 -0.16419457930E+03  0.16419949078E+03  0.12700000000E+01 0.  1.
         25    2    1    2    0    0  0.00000000000E+00  0.00000000000E+00 -0.14042947065E+03  0.18799850943E+03  0.12499201303E+03 0.  0.
    9000005    1    3    3    0    0  0.61743681322E+02  0.70823318087E+01 -0.79998132120E+02  0.10130717028E+03  0.10000000000E+01 0.  0.
    9000005    1    3    3    0    0 -0.61743681322E+02 -0.70823318087E+01 -0.60431338534E+02  0.86691339153E+02  0.10000000000E+01 0.  0.
<mgrwt>
<rscale>  0 0.12499201E+03</rscale>
<asrwt>0</asrwt>
<pdfrwt beam="1">  1        4 0.36591569E-02 0.12499201E+03</pdfrwt>
<pdfrwt beam="2">  1       -4 0.25263690E-01 0.12499201E+03</pdfrwt>
<totfact> 0.92213238E+03</totfact>
</mgrwt>
</event>
<event>
 5    1  0.3227866E-002  0.1249993E+03  0.7818608E-02  0.1235070E+00
          4   -1    0    0  501    0  0.00000000000E+00  0.00000000000E+00  0.20193704352E+03  0.20194103705E+03  0.12700000000E+01 0.  1.
         -4   -1    0    0    0  501 -0.00000000000E+00 -0.00000000000E+00 -0.19318656633E+02  0.19360356249E+02  0.12700000000E+01 0.  1.
         25    2    1    2    0    0  0.00000000000E+00  0.00000000000E+00  0.18261838689E+03  0.22130139330E+03  0.12499932579E+03 0.  0.
    9000005    1    3    3    0    0 -0.39901589318E+02  0.43493488777E+02  0.12765190142E+03  0.14064077763E+03  0.10000000000E+01 0.  0.
    9000005    1    3    3    0    0  0.39901589318E+02 -0.43493488777E+02  0.54966485474E+02  0.80660615678E+02  0.10000000000E+01 0.  0.
<mgrwt>
<rscale>  0 0.12499933E+03</rscale>
<asrwt>0</asrwt>
<pdfrwt beam="1">  1        4 0.31070755E-01 0.12499933E+03</pdfrwt>
<pdfrwt beam="2">  1       -4 0.29756156E-02 0.12499933E+03</pdfrwt>
<totfact> 0.86664141E+03</totfact>
</mgrwt>
</event>
<event>
 5    1  0.3227866E-002  0.1249977E+03  0.7818608E-02  0.1235073E+00
         -4   -1    0    0    0  501 -0.00000000000E+00  0.00000000000E+00  0.10413185883E+02  0.10490345096E+02  0.12700000000E+01 0.  1.
          4   -1    0    0  501    0  0.00000000000E+00 -0.00000000000E+00 -0.37364881978E+03  0.37365097808E+03  0.12700000000E+01 0.  1.
         25    2    1    2    0    0  0.00000000000E+00  0.00000000000E+00 -0.36323563390E+03  0.38414132318E+03  0.12499772174E+03 0.  0.
    9000005    1    3    3    0    0  0.34359092067E+02 -0.52167611147E+02 -0.17620625921E+03  0.18695361094E+03  0.10000000000E+01 0.  0.
    9000005    1    3    3    0    0 -0.34359092067E+02  0.52167611147E+02 -0.18702937469E+03  0.19718771224E+03  0.10000000000E+01 0.  0.
<mgrwt>
<rscale>  0 0.12499772E+03</rscale>
<asrwt>0</asrwt>
<pdfrwt beam="2">  1        4 0.57490525E-01 0.12499772E+03</pdfrwt>
<pdfrwt beam="1">  1       -4 0.16081302E-02 0.12499772E+03</pdfrwt>
<totfact> 0.66128307E+03</totfact>
</mgrwt>
</event>
<event>
 5    1  0.3227866E-002  0.1250002E+03  0.7818608E-02  0.1235069E+00
          4   -1    0    0  501    0  0.00000000000E+00  0.00000000000E+00  0.31581986652E+02  0.31607511463E+02  0.12700000000E+01 0.  1.
         -4   -1    0    0    0  501 -0.00000000000E+00 -0.00000000000E+00 -0.12360766395E+03  0.12361418805E+03  0.12700000000E+01 0.  1.
         25    2    1    2    0    0  0.00000000000E+00  0.00000000000E+00 -0.92025677295E+02  0.15522169951E+03  0.12500020287E+03 0.  0.
    9000005    1    3    3    0    0 -0.30587393638E+02 -0.50966318012E+02 -0.69966752714E+02  0.91812312391E+02  0.10000000000E+01 0.  0.
    9000005    1    3    3    0    0  0.30587393638E+02  0.50966318012E+02 -0.22058924581E+02  0.63409387120E+02  0.10000000000E+01 0.  0.
<mgrwt>
<rscale>  0 0.12500020E+03</rscale>
<asrwt>0</asrwt>
<pdfrwt beam="1">  1        4 0.48612325E-02 0.12500020E+03</pdfrwt>
<pdfrwt beam="2">  1       -4 0.19019029E-01 0.12500020E+03</pdfrwt>
<totfact> 0.98271546E+03</totfact>
</mgrwt>
</event>
<event>
 5    1  0.3227866E-002  0.1249949E+03  0.7818608E-02  0.1235077E+00
          4   -1    0    0  501    0  0.00000000000E+00  0.00000000000E+00  0.11169495106E+03  0.11170217094E+03  0.12700000000E+01 0. -1.
         -4   -1    0    0    0  501 -0.00000000000E+00 -0.00000000000E+00 -0.34949747593E+02  0.34972814540E+02  0.12700000000E+01 0. -1.
         25    2    1    2    0    0  0.00000000000E+00  0.00000000000E+00  0.76745203467E+02  0.14667498548E+03  0.12499490034E+03 0.  0.
    9000005    1    3    3    0    0 -0.26553891662E+02  0.69731505834E+01  0.10424470890E+03  0.10780395783E+03  0.10000000000E+01 0.  0.
    9000005    1    3    3    0    0  0.26553891662E+02 -0.69731505834E+01 -0.27499505429E+02  0.38871027646E+02  0.10000000000E+01 0.  0.
<mgrwt>
<rscale>  0 0.12499490E+03</rscale>
<asrwt>0</asrwt>
<pdfrwt beam="1">  1        4 0.17186169E-01 0.12499490E+03</pdfrwt>
<pdfrwt beam="2">  1       -4 0.53792139E-02 0.12499490E+03</pdfrwt>
<totfact> 0.99982147E+03</totfact>
</mgrwt>
</event>
<event>
 5    1  0.3227866E-002  0.1250012E+03  0.7818608E-02  0.1235067E+00
          4   -1    0    0  501    0  0.00000000000E+00  0.00000000000E+00  0.44566847062E+03  0.44567028014E+03  0.12700000000E+01 0.  1.
         -4   -1    0    0    0  501 -0.00000000000E+00 -0.00000000000E+00 -0.87172536730E+01  0.88092798570E+01  0.12700000000E+01 0.  1.
         25    2    1    2    0    0  0.00000000000E+00  0.00000000000E+00  0.43695121694E+03  0.45447956000E+03  0.12500121787E+03 0.  0.
    9000005    1    3    3    0    0  0.23870133566E+02  0.18487953693E+02  0.41740870197E+03  0.41850043272E+03  0.10000000000E+01 0.  0.
    9000005    1    3    3    0    0 -0.23870133566E+02 -0.18487953693E+02  0.19542514976E+02  0.35979127279E+02  0.10000000000E+01 0.  0.
<mgrwt>
<rscale>  0 0.12500122E+03</rscale>
<asrwt>0</asrwt>
<pdfrwt beam="1">  1        4 0.68571615E-01 0.12500122E+03</pdfrwt>
<pdfrwt beam="2">  1       -4 0.13483337E-02 0.12500122E+03</pdfrwt>
<totfact> 0.59576077E+03</totfact>
</mgrwt>
</event>
<event>
 5    1  0.3227866E-002  0.1249960E+03  0.7818608E-02  0.1235076E+00
          4   -1    0    0  501    0  0.00000000000E+00  0.00000000000E+00  0.30066230832E+02  0.30093041329E+02  0.12700000000E+01 0.  1.
         -4   -1    0    0    0  501 -0.00000000000E+00 -0.00000000000E+00 -0.12982531934E+03  0.12983153100E+03  0.12700000000E+01 0.  1.
         25    2    1    2    0    0  0.00000000000E+00  0.00000000000E+00 -0.99759088508E+02  0.15992457233E+03  0.12499597231E+03 0.  0.
    9000005    1    3    3    0    0  0.26111650431E+02  0.48259652136E+02 -0.88138499147E+02  0.10382777733E+03  0.10000000000E+01 0.  0.
    9000005    1    3    3    0    0 -0.26111650431E+02 -0.48259652136E+02 -0.11620589361E+02  0.56096795003E+02  0.10000000000E+01 0.  0.
<mgrwt>
<rscale>  0 0.12499597E+03</rscale>
<asrwt>0</asrwt>
<pdfrwt beam="1">  1        4 0.46281142E-02 0.12499597E+03</pdfrwt>
<pdfrwt beam="2">  1       -4 0.19975666E-01 0.12499597E+03</pdfrwt>
<totfact> 0.97366143E+03</totfact>
</mgrwt>
</event>
<event>
 5    1  0.3227866E-002  0.1249978E+03  0.7818608E-02  0.1235073E+00
         -4   -1    0    0    0  501 -0.00000000000E+00  0.00000000000E+00  0.12121603561E+03  0.12122268842E+03  0.12700000000E+01 0.  1.
          4   -1    0    0  501    0  0.00000000000E+00 -0.00000000000E+00 -0.32204351993E+02  0.32229383911E+02  0.12700000000E+01 0.  1.
         25    2    1    2    0    0  0.00000000000E+00  0.00000000000E+00  0.89011683614E+02  0.15345207233E+03  0.12499783472E+03 0.  0.
    9000005    1    3    3    0    0 -0.36403010739E+01  0.22695541480E+02 -0.26832226864E+02  0.35345548425E+02  0.10000000000E+01 0.  0.
    9000005    1    3    3    0    0  0.36403010739E+01 -0.22695541480E+02  0.11584391048E+03  0.11810652391E+03  0.10000000000E+01 0.  0.
<mgrwt>
<rscale>  0 0.12499783E+03</rscale>
<asrwt>0</asrwt>
<pdfrwt beam="2">  1        4 0.49569531E-02 0.12499783E+03</pdfrwt>
<pdfrwt beam="1">  1       -4 0.18651058E-01 0.12499783E+03</pdfrwt>
<totfact> 0.98624781E+03</totfact>
</mgrwt>
</event>
<event>
 5    1  0.3227866E-002  0.1250046E+03  0.7818608E-02  0.1235062E+00
         -4   -1    0    0    0  501 -0.00000000000E+00  0.00000000000E+00  0.77572438298E+02  0.77582833690E+02  0.12700000000E+01 0. -1.
          4   -1    0    0  501    0  0.00000000000E+00 -0.00000000000E+00 -0.50338051020E+02  0.50354069155E+02  0.12700000000E+01 0. -1.
         25    2    1    2    0    0  0.00000000000E+00  0.00000000000E+00  0.27234387278E+02  0.12793690285E+03  0.12500455695E+03 0.  0.
    9000005    1    3    3    0    0 -0.41695935378E+02 -0.11310979666E+02 -0.32597858678E+02  0.54130487513E+02  0.10000000000E+01 0.  0.
    9000005    1    3    3    0    0  0.41695935378E+02  0.11310979666E+02  0.59832245956E+02  0.73806415332E+02  0.10000000000E+01 0.  0.
<mgrwt>
<rscale>  0 0.12500456E+03</rscale>
<asrwt>0</asrwt>
<pdfrwt beam="2">  1        4 0.77463473E-02 0.12500456E+03</pdfrwt>
<pdfrwt beam="1">  1       -4 0.11936253E-01 0.12500456E+03</pdfrwt>
<totfact> 0.10387782E+04</totfact>
</mgrwt>
</event>
<event>
 5    1  0.3227866E-002  0.1249997E+03  0.7818608E-02  0.1235070E+00
          4   -1    0    0  501    0  0.00000000000E+00  0.00000000000E+00  0.26944001396E+02  0.26973915386E+02  0.12700000000E+01 0.  1.
         -4   -1    0    0    0  501 -0.00000000000E+00 -0.00000000000E+00 -0.14486278344E+03  0.14486835032E+03  0.12700000000E+01 0.  1.
         25    2    1    2    0    0  0.00000000000E+00  0.00000000000E+00 -0.11791878204E+03  0.17184226571E+03  0.12499970050E+03 0.  0.
    9000005    1    3    3    0    0  0.39601742729E+02  0.31282947528E+02 -0.82929337498E+01  0.51153627275E+02  0.10000000000E+01 0.  0.
    9000005    1    3    3    0    0 -0.39601742729E+02 -0.31282947528E+02 -0.10962584829E+03  0.12068863843E+03  0.10000000000E+01 0.  0.
<mgrwt>
<rscale>  0 0.12499970E+03</rscale>
<asrwt>0</asrwt>
<pdfrwt beam="1">  1        4 0.41479604E-02 0.12499970E+03</pdfrwt>
<pdfrwt beam="2">  1       -4 0.22289311E-01 0.12499970E+03</pdfrwt>
<totfact> 0.95107014E+03</totfact>
</mgrwt>
</event>
<event>
 5    1  0.3227866E-002  0.1250013E+03  0.7818608E-02  0.1235067E+00
         -4   -1    0    0    0  501 -0.00000000000E+00  0.00000000000E+00  0.72141149095E+03  0.72141260883E+03  0.12700000000E+01 0. -1.
          4   -1    0    0  501    0  0.00000000000E+00 -0.00000000000E+00 -0.53392414963E+01  0.54882055132E+01  0.12700000000E+01 0. -1.
         25    2    1    2    0    0  0.00000000000E+00  0.00000000000E+00  0.71607224946E+03  0.72690081434E+03  0.12500130980E+03 0.  0.
    9000005    1    3    3    0    0 -0.18488834649E+02 -0.30796766219E+02  0.65540870845E+03  0.65639306283E+03  0.10000000000E+01 0.  0.
    9000005    1    3    3    0    0  0.18488834649E+02  0.30796766219E+02  0.60663541004E+02  0.70507751513E+02  0.10000000000E+01 0.  0.
<mgrwt>
<rscale>  0 0.12500131E+03</rscale>
<asrwt>0</asrwt>
<pdfrwt beam="2">  1        4 0.83296719E-03 0.12500131E+03</pdfrwt>
<pdfrwt beam="1">  1       -4 0.11099784E+00 0.12500131E+03</pdfrwt>
<totfact> 0.41702911E+03</totfact>
</mgrwt>
</event>
<event>
 5    1  0.3227866E-002  0.1249896E+03  0.7818608E-02  0.1235086E+00
          4   -1    0    0  501    0  0.00000000000E+00  0.00000000000E+00  0.50039992224E+02  0.50056105740E+02  0.12700000000E+01 0.  1.
         -4   -1    0    0    0  501 -0.00000000000E+00 -0.00000000000E+00 -0.78015742945E+02  0.78026079276E+02  0.12700000000E+01 0.  1.
         25    2    1    2    0    0  0.00000000000E+00  0.00000000000E+00 -0.27975750720E+02  0.12808218502E+03  0.12498961353E+03 0.  0.
    9000005    1    3    3    0    0  0.41188151952E+02 -0.43271815795E+02 -0.32762966076E+02  0.68141953666E+02  0.10000000000E+01 0.  0.
    9000005    1    3    3    0    0 -0.41188151952E+02  0.43271815795E+02  0.47872153559E+01  0.59940231349E+02  0.10000000000E+01 0.  0.
<mgrwt>
<rscale>  0 0.12498961E+03</rscale>
<asrwt>0</asrwt>
<pdfrwt beam="1">  1        4 0.77004949E-02 0.12498961E+03</pdfrwt>
<pdfrwt beam="2">  1       -4 0.12004457E-01 0.12498961E+03</pdfrwt>
<totfact> 0.10388149E+04</totfact>
</mgrwt>
</event>
<event>
 5    1  0.3227866E-002  0.1250016E+03  0.7818608E-02  0.1235067E+00
         -4   -1    0    0    0  501 -0.00000000000E+00  0.00000000000E+00  0.18721147462E+03  0.18721578227E+03  0.12700000000E+01 0.  1.
          4   -1    0    0  501    0  0.00000000000E+00 -0.00000000000E+00 -0.20842112678E+02  0.20880770122E+02  0.12700000000E+01 0.  1.
         25    2    1    2    0    0  0.00000000000E+00  0.00000000000E+00  0.16636936194E+03  0.20809655239E+03  0.12500164208E+03 0.  0.
    9000005    1    3    3    0    0  0.29122512987E+02  0.39852084016E+02  0.19377955028E+02  0.53035973679E+02  0.10000000000E+01 0.  0.
    9000005    1    3    3    0    0 -0.29122512987E+02 -0.39852084016E+02  0.14699140692E+03  0.15506057871E+03  0.10000000000E+01 0.  0.
<mgrwt>
<rscale>  0 0.12500164E+03</rscale>
<asrwt>0</asrwt>
<pdfrwt beam="2">  1        4 0.32097838E-02 0.12500164E+03</pdfrwt>
<pdfrwt beam="1">  1       -4 0.28805071E-01 0.12500164E+03</pdfrwt>
<totfact> 0.88784424E+03</totfact>
</mgrwt>
</event>
<event>
 5    1  0.3227866E-002  0.1249988E+03  0.7818608E-02  0.1235071E+00
         -4   -1    0    0    0  501 -0.00000000000E+00  0.00000000000E+00  0.32472407657E+02  0.32497233099E+02  0.12700000000E+01 0.  1.
          4   -1    0    0  501    0  0.00000000000E+00 -0.00000000000E+00 -0.12021798717E+03  0.12022469521E+03  0.12700000000E+01 0.  1.
         25    2    1    2    0    0  0.00000000000E+00  0.00000000000E+00 -0.87745579512E+02  0.15272192831E+03  0.12499880265E+03 0.  0.
    9000005    1    3    3    0    0  0.94678786149E+01 -0.61632626425E+02 -0.38842082135E+02  0.73470597589E+02  0.10000000000E+01 0.  0.
    9000005    1    3    3    0    0 -0.94678786149E+01  0.61632626425E+02 -0.48903497377E+02  0.79251330722E+02  0.10000000000E+01 0.  0.
<mgrwt>
<rscale>  0 0.12499880E+03</rscale>
<asrwt>0</asrwt>
<pdfrwt beam="2">  1        4 0.18497500E-01 0.12499880E+03</pdfrwt>
<pdfrwt beam="1">  1       -4 0.49981807E-02 0.12499880E+03</pdfrwt>
<totfact> 0.98766525E+03</totfact>
</mgrwt>
</event>
<event>
 5    1  0.3227866E-002  0.1249814E+03  0.7818608E-02  0.1235098E+00
         -4   -1    0    0    0  501 -0.00000000000E+00  0.00000000000E+00  0.59100246918E+03  0.59100383372E+03  0.12700000000E+01 0. -1.
          4   -1    0    0  501    0  0.00000000000E+00 -0.00000000000E+00 -0.65451594761E+01  0.66672342517E+01  0.12700000000E+01 0. -1.
         25    2    1    2    0    0  0.00000000000E+00  0.00000000000E+00  0.58445730970E+03  0.59767106797E+03  0.12498143314E+03 0.  0.
    9000005    1    3    3    0    0  0.43569665392E+02  0.44028814689E+02  0.33144094094E+03  0.33718088557E+03  0.10000000000E+01 0.  0.
    9000005    1    3    3    0    0 -0.43569665392E+02 -0.44028814689E+02  0.25301636876E+03  0.26049018240E+03  0.10000000000E+01 0.  0.
<mgrwt>
<rscale>  0 0.12498143E+03</rscale>
<asrwt>0</asrwt>
<pdfrwt beam="2">  1        4 0.10164425E-02 0.12498143E+03</pdfrwt>
<pdfrwt beam="1">  1       -4 0.90932993E-01 0.12498143E+03</pdfrwt>
<totfact> 0.49034895E+03</totfact>
</mgrwt>
</event>
<event>
 5    1  0.3227866E-002  0.1250016E+03  0.7818608E-02  0.1235067E+00
          4   -1    0    0  501    0  0.00000000000E+00  0.00000000000E+00  0.11931167028E+02  0.11998568525E+02  0.12700000000E+01 0.  1.
         -4   -1    0    0    0  501 -0.00000000000E+00 -0.00000000000E+00 -0.32641651492E+03  0.32641898553E+03  0.12700000000E+01 0.  1.
         25    2    1    2    0    0  0.00000000000E+00  0.00000000000E+00 -0.31448534790E+03  0.33841755405E+03  0.12500162740E+03 0.  0.
    9000005    1    3    3    0    0 -0.40825664441E+01  0.56500284089E+02 -0.22868692726E+03  0.23560063699E+03  0.10000000000E+01 0.  0.
    9000005    1    3    3    0    0  0.40825664441E+01 -0.56500284089E+02 -0.85798420633E+02  0.10281691706E+03  0.10000000000E+01 0.  0.
<mgrwt>
<rscale>  0 0.12500163E+03</rscale>
<asrwt>0</asrwt>
<pdfrwt beam="1">  1        4 0.18409392E-02 0.12500163E+03</pdfrwt>
<pdfrwt beam="2">  1       -4 0.50223293E-01 0.12500163E+03</pdfrwt>
<totfact> 0.71015291E+03</totfact>
</mgrwt>
</event>
<event>
 5    1  0.3227866E-002  0.1249962E+03  0.7818608E-02  0.1235075E+00
          4   -1    0    0  501    0  0.00000000000E+00  0.00000000000E+00  0.12041557841E+03  0.12042227545E+03  0.12700000000E+01 0.  1.
         -4   -1    0    0    0  501 -0.00000000000E+00 -0.00000000000E+00 -0.32417743535E+02  0.32442610806E+02  0.12700000000E+01 0.  1.
         25    2    1    2    0    0  0.00000000000E+00  0.00000000000E+00  0.87997834873E+02  0.15286488625E+03  0.12499621797E+03 0.  0.
    9000005    1    3    3    0    0 -0.18196288112E+02  0.59066629596E+02  0.55276800338E+02  0.82924642228E+02  0.10000000000E+01 0.  0.
    9000005    1    3    3    0    0  0.18196288112E+02 -0.59066629596E+02  0.32721034535E+02  0.69940244023E+02  0.10000000000E+01 0.  0.
<mgrwt>
<rscale>  0 0.12499622E+03</rscale>
<asrwt>0</asrwt>
<pdfrwt beam="1">  1        4 0.18527902E-01 0.12499622E+03</pdfrwt>
<pdfrwt beam="2">  1       -4 0.49897731E-02 0.12499622E+03</pdfrwt>
<totfact> 0.98744063E+03</totfact>
</mgrwt>
</event>
<event>
 5    1  0.3227866E-002  0.1249993E+03  0.7818608E-02  0.1235070E+00
         -4   -1    0    0    0  501 -0.00000000000E+00  0.00000000000E+00  0.16737626932E+02  0.16785739642E+02  0.12700000000E+01 0.  1.
          4   -1    0    0  501    0  0.00000000000E+00 -0.00000000000E+00 -0.23299379542E+03  0.23299725664E+03  0.12700000000E+01 0.  1.
         25    2    1    2    0    0  0.00000000000E+00  0.00000000000E+00 -0.21625616849E+03  0.24978299628E+03  0.12499925930E+03 0.  0.
    9000005    1    3    3    0    0 -0.90802904827E+01 -0.60132923642E+02 -0.13686322963E+03  0.14976970256E+03  0.10000000000E+01 0.  0.
    9000005    1    3    3    0    0  0.90802904827E+01  0.60132923642E+02 -0.79392938853E+02  0.10001329372E+03  0.10000000000E+01 0.  0.
<mgrwt>
<rscale>  0 0.12499926E+03</rscale>
<asrwt>0</asrwt>
<pdfrwt beam="2">  1        4 0.35849164E-01 0.12499926E+03</pdfrwt>
<pdfrwt beam="1">  1       -4 0.25789869E-02 0.12499926E+03</pdfrwt>
<totfact> 0.82362962E+03</totfact>
</mgrwt>
</event>
<event>
 5    1  0.3227866E-002  0.1249989E+03  0.7818608E-02  0.1235071E+00
         -4   -1    0    0    0  501 -0.00000000000E+00  0.00000000000E+00  0.39985032345E+02  0.40005196058E+02  0.12700000000E+01 0.  1.
          4   -1    0    0  501    0  0.00000000000E+00 -0.00000000000E+00 -0.97642096990E+02  0.97650355886E+02  0.12700000000E+01 0.  1.
         25    2    1    2    0    0  0.00000000000E+00  0.00000000000E+00 -0.57657064645E+02  0.13765555194E+03  0.12499885550E+03 0.  0.
    9000005    1    3    3    0    0 -0.34457634109E+02 -0.15976880844E+02 -0.83477716207E+02  0.91717601217E+02  0.10000000000E+01 0.  0.
    9000005    1    3    3    0    0  0.34457634109E+02  0.15976880844E+02  0.25820651562E+02  0.45937950727E+02  0.10000000000E+01 0.  0.
<mgrwt>
<rscale>  0 0.12499886E+03</rscale>
<asrwt>0</asrwt>
<pdfrwt beam="2">  1        4 0.15024047E-01 0.12499886E+03</pdfrwt>
<pdfrwt beam="1">  1       -4 0.61537298E-02 0.12499886E+03</pdfrwt>
<totfact> 0.10182659E+04</totfact>
</mgrwt>
</event>
<event>
 5    1  0.3227866E-002  0.1249969E+03  0.7818608E-02  0.1235074E+00
          4   -1    0    0  501    0  0.00000000000E+00  0.00000000000E+00  0.59335399467E+02  0.59348989291E+02  0.12700000000E+01 0. -1.
         -4   -1    0    0    0  501 -0.00000000000E+00 -0.00000000000E+00 -0.65802878720E+02  0.65815133122E+02  0.12700000000E+01 0. -1.
         25    2    1    2    0    0  0.00000000000E+00  0.00000000000E+00 -0.64674792533E+01  0.12516412241E+03  0.12499691697E+03 0.  0.
    9000005    1    3    3    0    0  0.12014167366E+02  0.54758360067E+02  0.24411869805E+02  0.61153557559E+02  0.10000000000E+01 0.  0.
    9000005    1    3    3    0    0 -0.12014167366E+02 -0.54758360067E+02 -0.30879349058E+02  0.64010564855E+02  0.10000000000E+01 0.  0.
<mgrwt>
<rscale>  0 0.12499692E+03</rscale>
<asrwt>0</asrwt>
<pdfrwt beam="1">  1        4 0.91305110E-02 0.12499692E+03</pdfrwt>
<pdfrwt beam="2">  1       -4 0.10125508E-01 0.12499692E+03</pdfrwt>
<totfact> 0.10450027E+04</totfact>
</mgrwt>
</event>
<event>
 5    1  0.3227866E-002  0.1249980E+03  0.7818608E-02  0.1235072E+00
          4   -1    0    0  501    0  0.00000000000E+00  0.00000000000E+00  0.12007551528E+02  0.12074526644E+02  0.12700000000E+01 0. -1.
         -4   -1    0    0    0  501 -0.00000000000E+00 -0.00000000000E+00 -0.32433297148E+03  0.32433545796E+03  0.12700000000E+01 0. -1.
         25    2    1    2    0    0  0.00000000000E+00  0.00000000000E+00 -0.31232541996E+03  0.33640998461E+03  0.12499803915E+03 0.  0.
    9000005    1    3    3    0    0 -0.59171022741E+02 -0.20094825124E+02 -0.15707743927E+03  0.16905423348E+03  0.10000000000E+01 0.  0.
    9000005    1    3    3    0    0  0.59171022741E+02  0.20094825124E+02 -0.15524798068E+03  0.16735575113E+03  0.10000000000E+01 0.  0.
<mgrwt>
<rscale>  0 0.12499804E+03</rscale>
<asrwt>0</asrwt>
<pdfrwt beam="1">  1        4 0.18526591E-02 0.12499804E+03</pdfrwt>
<pdfrwt beam="2">  1       -4 0.49902717E-01 0.12499804E+03</pdfrwt>
<totfact> 0.71249059E+03</totfact>
</mgrwt>
</event>
<event>
 5    1  0.3227866E-002  0.1249999E+03  0.7818608E-02  0.1235069E+00
          4   -1    0    0  501    0  0.00000000000E+00  0.00000000000E+00  0.16753495250E+02  0.16801562520E+02  0.12700000000E+01 0. -1.
         -4   -1    0    0    0  501 -0.00000000000E+00 -0.00000000000E+00 -0.23277617009E+03  0.23277963455E+03  0.12700000000E+01 0. -1.
         25    2    1    2    0    0  0.00000000000E+00  0.00000000000E+00 -0.21602267484E+03  0.24958119707E+03  0.12499991155E+03 0.  0.
    9000005    1    3    3    0    0  0.13001599391E+01 -0.30375993324E+02 -0.21702286957E+03  0.21914451237E+03  0.10000000000E+01 0.  0.
    9000005    1    3    3    0    0 -0.13001599391E+01  0.30375993324E+02  0.10001947247E+01  0.30436684704E+02  0.10000000000E+01 0.  0.
<mgrwt>
<rscale>  0 0.12499991E+03</rscale>
<asrwt>0</asrwt>
<pdfrwt beam="1">  1        4 0.25814250E-02 0.12499991E+03</pdfrwt>
<pdfrwt beam="2">  1       -4 0.35815680E-01 0.12499991E+03</pdfrwt>
<totfact> 0.82390959E+03</totfact>
</mgrwt>
</event>
<event>
 5    1  0.3227866E-002  0.1249999E+03  0.7818608E-02  0.1235069E+00
          4   -1    0    0  501    0  0.00000000000E+00  0.00000000000E+00  0.19610252508E+04  0.19610256620E+04  0.12700000000E+01 0.  1.
         -4   -1    0    0    0  501 -0.00000000000E+00 -0.00000000000E+00 -0.17890596115E+01  0.21939996111E+01  0.12700000000E+01 0.  1.
         25    2    1    2    0    0  0.00000000000E+00  0.00000000000E+00  0.19592361912E+04  0.19632196616E+04  0.12499994810E+03 0.  0.
    9000005    1    3    3    0    0 -0.42126964706E+02 -0.12655185845E+02  0.28244989463E+03  0.28585621886E+03  0.10000000000E+01 0.  0.
    9000005    1    3    3    0    0  0.42126964706E+02  0.12655185845E+02  0.16767862965E+04  0.16773634428E+04  0.10000000000E+01 0.  0.
<mgrwt>
<rscale>  0 0.12499995E+03</rscale>
<asrwt>0</asrwt>
<pdfrwt beam="1">  1        4 0.30172810E+00 0.12499995E+03</pdfrwt>
<pdfrwt beam="2">  1       -4 0.30642006E-03 0.12499995E+03</pdfrwt>
<totfact> 0.10349002E+03</totfact>
</mgrwt>
</event>
<event>
 5    1  0.3227866E-002  0.1250001E+03  0.7818608E-02  0.1235069E+00
          4   -1    0    0  501    0  0.00000000000E+00  0.00000000000E+00  0.32742271127E+03  0.32742517429E+03  0.12700000000E+01 0. -1.
         -4   -1    0    0    0  501 -0.00000000000E+00 -0.00000000000E+00 -0.11893999131E+02  0.11961610064E+02  0.12700000000E+01 0. -1.
         25    2    1    2    0    0  0.00000000000E+00  0.00000000000E+00  0.31552871214E+03  0.33938678435E+03  0.12500008483E+03 0.  0.
    9000005    1    3    3    0    0 -0.59608015997E+02 -0.15074788713E+02  0.12742200148E+03  0.14148403192E+03  0.10000000000E+01 0.  0.
    9000005    1    3    3    0    0  0.59608015997E+02  0.15074788713E+02  0.18810671066E+03  0.19790275244E+03  0.10000000000E+01 0.  0.
<mgrwt>
<rscale>  0 0.12500008E+03</rscale>
<asrwt>0</asrwt>
<pdfrwt beam="1">  1        4 0.50378112E-01 0.12500008E+03</pdfrwt>
<pdfrwt beam="2">  1       -4 0.18352364E-02 0.12500008E+03</pdfrwt>
<totfact> 0.70908007E+03</totfact>
</mgrwt>
</event>
<event>
 5    1  0.3227866E-002  0.1249961E+03  0.7818608E-02  0.1235075E+00
         -4   -1    0    0    0  501 -0.00000000000E+00  0.00000000000E+00  0.23082829579E+03  0.23083178948E+03  0.12700000000E+01 0. -1.
          4   -1    0    0  501    0  0.00000000000E+00 -0.00000000000E+00 -0.16894236392E+02  0.16941904358E+02  0.12700000000E+01 0. -1.
         25    2    1    2    0    0  0.00000000000E+00  0.00000000000E+00  0.21393405940E+03  0.24777369384E+03  0.12499608630E+03 0.  0.
    9000005    1    3    3    0    0 -0.23103732553E+02  0.19579731511E+02  0.21531946782E+03  0.21744107608E+03  0.10000000000E+01 0.  0.
    9000005    1    3    3    0    0  0.23103732553E+02 -0.19579731511E+02 -0.13854084234E+01  0.30332617764E+02  0.10000000000E+01 0.  0.
<mgrwt>
<rscale>  0 0.12499609E+03</rscale>
<asrwt>0</asrwt>
<pdfrwt beam="2">  1        4 0.26030488E-02 0.12499609E+03</pdfrwt>
<pdfrwt beam="1">  1       -4 0.35515981E-01 0.12499609E+03</pdfrwt>
<totfact> 0.82660273E+03</totfact>
</mgrwt>
</event>
<event>
 5    1  0.3227866E-002  0.1250157E+03  0.7818608E-02  0.1235045E+00
         -4   -1    0    0    0  501 -0.00000000000E+00  0.00000000000E+00  0.24389350894E+02  0.24422394171E+02  0.12700000000E+01 0. -1.
          4   -1    0    0  501    0  0.00000000000E+00 -0.00000000000E+00 -0.16005825094E+03  0.16006328934E+03  0.12700000000E+01 0. -1.
         25    2    1    2    0    0  0.00000000000E+00  0.00000000000E+00 -0.13566890004E+03  0.18448568351E+03  0.12501566694E+03 0.  0.
    9000005    1    3    3    0    0  0.43573870601E+02 -0.40438905204E+02 -0.96305986791E+02  0.11318052105E+03  0.10000000000E+01 0.  0.
    9000005    1    3    3    0    0 -0.43573870601E+02  0.40438905204E+02 -0.39362913252E+02  0.71305162457E+02  0.10000000000E+01 0.  0.
<mgrwt>
<rscale>  0 0.12501567E+03</rscale>
<asrwt>0</asrwt>
<pdfrwt beam="2">  1        4 0.24627275E-01 0.12501567E+03</pdfrwt>
<pdfrwt beam="1">  1       -4 0.37551373E-02 0.12501567E+03</pdfrwt>
<totfact> 0.92783158E+03</totfact>
</mgrwt>
</event>
<event>
 5    1  0.3227866E-002  0.1250007E+03  0.7818608E-02  0.1235068E+00
          4   -1    0    0  501    0  0.00000000000E+00  0.00000000000E+00  0.13844414115E+03  0.13844996613E+03  0.12700000000E+01 0.  1.
         -4   -1    0    0    0  501 -0.00000000000E+00 -0.00000000000E+00 -0.28194961437E+02  0.28223549571E+02  0.12700000000E+01 0.  1.
         25    2    1    2    0    0  0.00000000000E+00  0.00000000000E+00  0.11024917972E+03  0.16667351570E+03  0.12500071682E+03 0.  0.
    9000005    1    3    3    0    0 -0.31245552569E+02 -0.15531587626E+02 -0.14002926604E+02  0.37611124990E+02  0.10000000000E+01 0.  0.
    9000005    1    3    3    0    0  0.31245552569E+02  0.15531587626E+02  0.12425210632E+03  0.12906239071E+03  0.10000000000E+01 0.  0.
<mgrwt>
<rscale>  0 0.12500072E+03</rscale>
<asrwt>0</asrwt>
<pdfrwt beam="1">  1        4 0.21301746E-01 0.12500072E+03</pdfrwt>
<pdfrwt beam="2">  1       -4 0.43403336E-02 0.12500072E+03</pdfrwt>
<totfact> 0.96069844E+03</totfact>
</mgrwt>
</event>
<event>
 5    1  0.3227866E-002  0.1250024E+03  0.7818608E-02  0.1235066E+00
          4   -1    0    0  501    0  0.00000000000E+00  0.00000000000E+00  0.42273189993E+03  0.42273380763E+03  0.12700000000E+01 0.  1.
         -4   -1    0    0    0  501 -0.00000000000E+00 -0.00000000000E+00 -0.91952673005E+01  0.92825557218E+01  0.12700000000E+01 0.  1.
         25    2    1    2    0    0  0.00000000000E+00  0.00000000000E+00  0.41353663263E+03  0.43201636336E+03  0.12500236671E+03 0.  0.
    9000005    1    3    3    0    0  0.13996052453E+02 -0.60056449904E+02  0.24179776249E+03  0.24953922458E+03  0.10000000000E+01 0.  0.
    9000005    1    3    3    0    0 -0.13996052453E+02  0.60056449904E+02  0.17173887014E+03  0.18247713878E+03  0.10000000000E+01 0.  0.
<mgrwt>
<rscale>  0 0.12500237E+03</rscale>
<asrwt>0</asrwt>
<pdfrwt beam="1">  1        4 0.65042528E-01 0.12500237E+03</pdfrwt>
<pdfrwt beam="2">  1       -4 0.14215180E-02 0.12500237E+03</pdfrwt>
<totfact> 0.61550437E+03</totfact>
</mgrwt>
</event>
<event>
 5    1  0.3227866E-002  0.1249984E+03  0.7818608E-02  0.1235072E+00
          4   -1    0    0  501    0  0.00000000000E+00  0.00000000000E+00  0.61562404736E+02  0.61575503058E+02  0.12700000000E+01 0.  1.
         -4   -1    0    0    0  501 -0.00000000000E+00 -0.00000000000E+00 -0.63424089922E+02  0.63436803848E+02  0.12700000000E+01 0.  1.
         25    2    1    2    0    0  0.00000000000E+00  0.00000000000E+00 -0.18616851862E+01  0.12501230691E+03  0.12499844401E+03 0.  0.
    9000005    1    3    3    0    0  0.38352432720E+02 -0.23041237156E+01  0.48358846586E+02  0.61772130648E+02  0.10000000000E+01 0.  0.
    9000005    1    3    3    0    0 -0.38352432720E+02  0.23041237156E+01 -0.50220531772E+02  0.63240176258E+02  0.10000000000E+01 0.  0.
<mgrwt>
<rscale>  0 0.12499844E+03</rscale>
<asrwt>0</asrwt>
<pdfrwt beam="1">  1        4 0.94731248E-02 0.12499844E+03</pdfrwt>
<pdfrwt beam="2">  1       -4 0.97595378E-02 0.12499844E+03</pdfrwt>
<totfact> 0.10452963E+04</totfact>
</mgrwt>
</event>
<event>
 5    1  0.3227866E-002  0.1249991E+03  0.7818608E-02  0.1235071E+00
         -4   -1    0    0    0  501 -0.00000000000E+00  0.00000000000E+00  0.14381697666E+02  0.14437663514E+02  0.12700000000E+01 0. -1.
          4   -1    0    0  501    0  0.00000000000E+00 -0.00000000000E+00 -0.27102359852E+03  0.27102657407E+03  0.12700000000E+01 0. -1.
         25    2    1    2    0    0  0.00000000000E+00  0.00000000000E+00 -0.25664190085E+03  0.28546423759E+03  0.12499906267E+03 0.  0.
    9000005    1    3    3    0    0  0.50033208185E+02  0.37412811869E+02 -0.13167033906E+03  0.14574333124E+03  0.10000000000E+01 0.  0.
    9000005    1    3    3    0    0 -0.50033208185E+02 -0.37412811869E+02 -0.12497156179E+03  0.13972090634E+03  0.10000000000E+01 0.  0.
<mgrwt>
<rscale>  0 0.12499906E+03</rscale>
<asrwt>0</asrwt>
<pdfrwt beam="2">  1        4 0.41700468E-01 0.12499906E+03</pdfrwt>
<pdfrwt beam="1">  1       -4 0.22171030E-02 0.12499906E+03</pdfrwt>
<totfact> 0.77460736E+03</totfact>
</mgrwt>
</event>
<event>
 5    1  0.3227866E-002  0.1250031E+03  0.7818608E-02  0.1235064E+00
          4   -1    0    0  501    0  0.00000000000E+00  0.00000000000E+00  0.23279210311E+04  0.23279213775E+04  0.12700000000E+01 0.  1.
         -4   -1    0    0    0  501 -0.00000000000E+00 -0.00000000000E+00 -0.14373986832E+01  0.19180758521E+01  0.12700000000E+01 0.  1.
         25    2    1    2    0    0  0.00000000000E+00  0.00000000000E+00  0.23264836324E+04  0.23298394533E+04  0.12500314640E+03 0.  0.
    9000005    1    3    3    0    0  0.43066711965E+02 -0.21466276505E+02  0.19064157938E+04  0.19070232619E+04  0.10000000000E+01 0.  0.
    9000005    1    3    3    0    0 -0.43066711965E+02  0.21466276505E+02  0.42006783861E+03  0.42281619144E+03  0.10000000000E+01 0.  0.
<mgrwt>
<rscale>  0 0.12500315E+03</rscale>
<asrwt>0</asrwt>
<pdfrwt beam="1">  1        4 0.35817766E+00 0.12500315E+03</pdfrwt>
<pdfrwt beam="2">  1       -4 0.25814082E-03 0.12500315E+03</pdfrwt>
<totfact> 0.61469766E+02</totfact>
</mgrwt>
</event>
<event>
 5    1  0.3227866E-002  0.1250051E+03  0.7818608E-02  0.1235061E+00
          4   -1    0    0  501    0  0.00000000000E+00  0.00000000000E+00  0.11457050275E+03  0.11457754143E+03  0.12700000000E+01 0. -1.
         -4   -1    0    0    0  501 -0.00000000000E+00 -0.00000000000E+00 -0.34077619999E+02  0.34101276880E+02  0.12700000000E+01 0. -1.
         25    2    1    2    0    0  0.00000000000E+00  0.00000000000E+00  0.80492882752E+02  0.14867881831E+03  0.12500514726E+03 0.  0.
    9000005    1    3    3    0    0  0.26841027734E+02  0.24938389708E+02 -0.19969724687E+02  0.41739117805E+02  0.10000000000E+01 0.  0.
    9000005    1    3    3    0    0 -0.26841027734E+02 -0.24938389708E+02  0.10046260744E+03  0.10693970051E+03  0.10000000000E+01 0.  0.
<mgrwt>
<rscale>  0 0.12500515E+03</rscale>
<asrwt>0</asrwt>
<pdfrwt beam="1">  1        4 0.17628593E-01 0.12500515E+03</pdfrwt>
<pdfrwt beam="2">  1       -4 0.52450719E-02 0.12500515E+03</pdfrwt>
<totfact> 0.99556175E+03</totfact>
</mgrwt>
</event>
<event>
 5    1  0.3227866E-002  0.1250080E+03  0.7818608E-02  0.1235057E+00
         -4   -1    0    0    0  501 -0.00000000000E+00  0.00000000000E+00  0.27620441564E+03  0.27620733539E+03  0.12700000000E+01 0. -1.
          4   -1    0    0  501    0  0.00000000000E+00 -0.00000000000E+00 -0.14112916175E+02  0.14169943647E+02  0.12700000000E+01 0. -1.
         25    2    1    2    0    0  0.00000000000E+00  0.00000000000E+00  0.26209149947E+03  0.29037727903E+03  0.12500804008E+03 0.  0.
    9000005    1    3    3    0    0  0.56224383756E+02 -0.23936686880E+01  0.19418513343E+03  0.20217758784E+03  0.10000000000E+01 0.  0.
    9000005    1    3    3    0    0 -0.56224383756E+02  0.23936686880E+01  0.67906366039E+02  0.88199691197E+02  0.10000000000E+01 0.  0.
<mgrwt>
<rscale>  0 0.12500804E+03</rscale>
<asrwt>0</asrwt>
<pdfrwt beam="2">  1        4 0.21758296E-02 0.12500804E+03</pdfrwt>
<pdfrwt beam="1">  1       -4 0.42497590E-01 0.12500804E+03</pdfrwt>
<totfact> 0.76808256E+03</totfact>
</mgrwt>
</event>
<event>
 5    1  0.3227866E-002  0.1250003E+03  0.7818608E-02  0.1235069E+00
          4   -1    0    0  501    0  0.00000000000E+00  0.00000000000E+00  0.45955763541E+03  0.45955939025E+03  0.12700000000E+01 0. -1.
         -4   -1    0    0    0  501 -0.00000000000E+00 -0.00000000000E+00 -0.84508396057E+01  0.85457351961E+01  0.12700000000E+01 0. -1.
         25    2    1    2    0    0  0.00000000000E+00  0.00000000000E+00  0.45110679581E+03  0.46810512545E+03  0.12500026898E+03 0.  0.
    9000005    1    3    3    0    0  0.31909986036E+02  0.14359280660E+02  0.31658161347E+02  0.47198255579E+02  0.10000000000E+01 0.  0.
    9000005    1    3    3    0    0 -0.31909986036E+02 -0.14359280660E+02  0.41944863446E+03  0.42090686987E+03  0.10000000000E+01 0.  0.
<mgrwt>
<rscale>  0 0.12500027E+03</rscale>
<asrwt>0</asrwt>
<pdfrwt beam="1">  1        4 0.70708620E-01 0.12500027E+03</pdfrwt>
<pdfrwt beam="2">  1       -4 0.13075636E-02 0.12500027E+03</pdfrwt>
<totfact> 0.58426466E+03</totfact>
</mgrwt>
</event>
<event>
 5    1  0.3227866E-002  0.1249916E+03  0.7818608E-02  0.1235082E+00
         -4   -1    0    0    0  501 -0.00000000000E+00  0.00000000000E+00  0.49802515995E+02  0.49818706320E+02  0.12700000000E+01 0. -1.
          4   -1    0    0  501    0  0.00000000000E+00 -0.00000000000E+00 -0.78390193294E+02  0.78400480258E+02  0.12700000000E+01 0. -1.
         25    2    1    2    0    0  0.00000000000E+00  0.00000000000E+00 -0.28587677300E+02  0.12821918658E+03  0.12499161777E+03 0.  0.
    9000005    1    3    3    0    0  0.34788390829E+02 -0.51785454977E+02 -0.10629391713E+02  0.63292570273E+02  0.10000000000E+01 0.  0.
    9000005    1    3    3    0    0 -0.34788390829E+02  0.51785454977E+02 -0.17958285586E+02  0.64926616305E+02  0.10000000000E+01 0.  0.
<mgrwt>
<rscale>  0 0.12499162E+03</rscale>
<asrwt>0</asrwt>
<pdfrwt beam="2">  1        4 0.12062066E-01 0.12499162E+03</pdfrwt>
<pdfrwt beam="1">  1       -4 0.76639623E-02 0.12499162E+03</pdfrwt>
<totfact> 0.10384722E+04</totfact>
</mgrwt>
</event>
<event>
 5    1  0.3227866E-002  0.1250021E+03  0.7818608E-02  0.1235066E+00
         -4   -1    0    0    0  501 -0.00000000000E+00  0.00000000000E+00  0.91526593411E+02  0.91535404088E+02  0.12700000000E+01 0. -1.
          4   -1    0    0  501    0  0.00000000000E+00 -0.00000000000E+00 -0.42659996251E+02  0.42678896192E+02  0.12700000000E+01 0. -1.
         25    2    1    2    0    0  0.00000000000E+00  0.00000000000E+00  0.48866597160E+02  0.13421430028E+03  0.12500213631E+03 0.  0.
    9000005    1    3    3    0    0  0.36720454313E+02  0.48664980056E+02  0.96836896048E+01  0.61736908678E+02  0.10000000000E+01 0.  0.
    9000005    1    3    3    0    0 -0.36720454313E+02 -0.48664980056E+02  0.39182907555E+02  0.72477391601E+02  0.10000000000E+01 0.  0.
<mgrwt>
<rscale>  0 0.12500214E+03</rscale>
<asrwt>0</asrwt>
<pdfrwt beam="2">  1        4 0.65652079E-02 0.12500214E+03</pdfrwt>
<pdfrwt beam="1">  1       -4 0.14083146E-01 0.12500214E+03</pdfrwt>
<totfact> 0.10254164E+04</totfact>
</mgrwt>
</event>
<event>
 5    1  0.3227866E-002  0.1250099E+03  0.7818608E-02  0.1235054E+00
          4   -1    0    0  501    0  0.00000000000E+00  0.00000000000E+00  0.68466277686E+01  0.69634195480E+01  0.12700000000E+01 0. -1.
         -4   -1    0    0    0  501 -0.00000000000E+00 -0.00000000000E+00 -0.56568320121E+03  0.56568462683E+03  0.12700000000E+01 0. -1.
         25    2    1    2    0    0  0.00000000000E+00  0.00000000000E+00 -0.55883657345E+03  0.57264804638E+03  0.12500987643E+03 0.  0.
    9000005    1    3    3    0    0  0.33846988490E+02 -0.40243405388E+02 -0.12470328968E+03  0.13534053629E+03  0.10000000000E+01 0.  0.
    9000005    1    3    3    0    0 -0.33846988490E+02  0.40243405388E+02 -0.43413328377E+03  0.43730751009E+03  0.10000000000E+01 0.  0.
<mgrwt>
<rscale>  0 0.12500988E+03</rscale>
<asrwt>0</asrwt>
<pdfrwt beam="1">  1        4 0.10624214E-02 0.12500988E+03</pdfrwt>
<pdfrwt beam="2">  1       -4 0.87037242E-01 0.12500988E+03</pdfrwt>
<totfact> 0.50629992E+03</totfact>
</mgrwt>
</event>
<event>
 5    1  0.3227866E-002  0.1250012E+03  0.7818608E-02  0.1235067E+00
          4   -1    0    0  501    0  0.00000000000E+00  0.00000000000E+00  0.10665073735E+04  0.10665081297E+04  0.12700000000E+01 0. -1.
         -4   -1    0    0    0  501 -0.00000000000E+00 -0.00000000000E+00 -0.35518587959E+01  0.37720817735E+01  0.12700000000E+01 0. -1.
         25    2    1    2    0    0  0.00000000000E+00  0.00000000000E+00  0.10629555147E+04  0.10702802115E+04  0.12500121898E+03 0.  0.
    9000005    1    3    3    0    0 -0.38507647566E+02  0.20105067095E+02  0.14682109303E+03  0.15311592341E+03  0.10000000000E+01 0.  0.
    9000005    1    3    3    0    0  0.38507647566E+02 -0.20105067095E+02  0.91613442169E+03  0.91716428804E+03  0.10000000000E+01 0.  0.
<mgrwt>
<rscale>  0 0.12500122E+03</rscale>
<asrwt>0</asrwt>
<pdfrwt beam="1">  1        4 0.16409508E+00 0.12500122E+03</pdfrwt>
<pdfrwt beam="2">  1       -4 0.56343812E-03 0.12500122E+03</pdfrwt>
<totfact> 0.28369139E+03</totfact>
</mgrwt>
</event>
<event>
 5    1  0.3227866E-002  0.1249980E+03  0.7818608E-02  0.1235072E+00
         -4   -1    0    0    0  501 -0.00000000000E+00  0.00000000000E+00  0.79346068491E+01  0.80356011504E+01  0.12700000000E+01 0.  1.
          4   -1    0    0  501    0  0.00000000000E+00 -0.00000000000E+00 -0.48907427359E+03  0.48907592252E+03  0.12700000000E+01 0.  1.
         25    2    1    2    0    0  0.00000000000E+00  0.00000000000E+00 -0.48113966674E+03  0.49711152367E+03  0.12499795220E+03 0.  0.
    9000005    1    3    3    0    0 -0.24958371033E+02 -0.56565278773E+02 -0.20443179161E+03  0.21357881091E+03  0.10000000000E+01 0.  0.
    9000005    1    3    3    0    0  0.24958371033E+02  0.56565278773E+02 -0.27670787512E+03  0.28353271276E+03  0.10000000000E+01 0.  0.
<mgrwt>
<rscale>  0 0.12499795E+03</rscale>
<asrwt>0</asrwt>
<pdfrwt beam="2">  1        4 0.75250068E-01 0.12499795E+03</pdfrwt>
<pdfrwt beam="1">  1       -4 0.12286048E-02 0.12499795E+03</pdfrwt>
<totfact> 0.56091711E+03</totfact>
</mgrwt>
</event>
<event>
 5    1  0.3227866E-002  0.1250041E+03  0.7818608E-02  0.1235063E+00
          4   -1    0    0  501    0  0.00000000000E+00  0.00000000000E+00  0.35789186528E+01  0.37975727410E+01  0.12700000000E+01 0.  1.
         -4   -1    0    0    0  501 -0.00000000000E+00 -0.00000000000E+00 -0.10589591277E+04  0.10589598892E+04  0.12700000000E+01 0.  1.
         25    2    1    2    0    0  0.00000000000E+00  0.00000000000E+00 -0.10553802090E+04  0.10627574620E+04  0.12500414940E+03 0.  0.
    9000005    1    3    3    0    0  0.26169217599E+02  0.54627731220E+02 -0.39694714723E+03  0.40154334095E+03  0.10000000000E+01 0.  0.
    9000005    1    3    3    0    0 -0.26169217599E+02 -0.54627731220E+02 -0.65843306179E+03  0.66121412101E+03  0.10000000000E+01 0.  0.
<mgrwt>
<rscale>  0 0.12500415E+03</rscale>
<asrwt>0</asrwt>
<pdfrwt beam="1">  1        4 0.56748184E-03 0.12500415E+03</pdfrwt>
<pdfrwt beam="2">  1       -4 0.16293342E+00 0.12500415E+03</pdfrwt>
<totfact> 0.28597212E+03</totfact>
</mgrwt>
</event>
<event>
 5    1  0.3227866E-002  0.1249980E+03  0.7818608E-02  0.1235072E+00
         -4   -1    0    0    0  501 -0.00000000000E+00  0.00000000000E+00  0.45844932760E+01  0.47571502602E+01  0.12700000000E+01 0.  1.
          4   -1    0    0  501    0  0.00000000000E+00 -0.00000000000E+00 -0.83610853953E+03  0.83610950406E+03  0.12700000000E+01 0.  1.
         25    2    1    2    0    0  0.00000000000E+00  0.00000000000E+00 -0.83152404626E+03  0.84086665432E+03  0.12499796336E+03 0.  0.
    9000005    1    3    3    0    0  0.72647280723E+01 -0.55258680055E+02 -0.22563233312E+03  0.23241610904E+03  0.10000000000E+01 0.  0.
    9000005    1    3    3    0    0 -0.72647280723E+01  0.55258680055E+02 -0.60589171314E+03  0.60845054528E+03  0.10000000000E+01 0.  0.
<mgrwt>
<rscale>  0 0.12499796E+03</rscale>
<asrwt>0</asrwt>
<pdfrwt beam="2">  1        4 0.12864532E+00 0.12499796E+03</pdfrwt>
<pdfrwt beam="1">  1       -4 0.71866282E-03 0.12499796E+03</pdfrwt>
<totfact> 0.36505666E+03</totfact>
</mgrwt>
</event>
<event>
 5    1  0.3227866E-002  0.1250010E+03  0.7818608E-02  0.1235068E+00
         -4   -1    0    0    0  501 -0.00000000000E+00  0.00000000000E+00  0.36205033131E+02  0.36227300811E+02  0.12700000000E+01 0.  1.
          4   -1    0    0  501    0  0.00000000000E+00 -0.00000000000E+00 -0.10783504778E+03  0.10784252608E+03  0.12700000000E+01 0.  1.
         25    2    1    2    0    0  0.00000000000E+00  0.00000000000E+00 -0.71630014652E+02  0.14406982689E+03  0.12500102408E+03 0.  0.
    9000005    1    3    3    0    0  0.24537060744E+02 -0.26338361154E+02 -0.94691404320E+02  0.10130764369E+03  0.10000000000E+01 0.  0.
    9000005    1    3    3    0    0 -0.24537060744E+02  0.26338361154E+02  0.23061389668E+02  0.42762183195E+02  0.10000000000E+01 0.  0.
<mgrwt>
<rscale>  0 0.12500102E+03</rscale>
<asrwt>0</asrwt>
<pdfrwt beam="2">  1        4 0.16592295E-01 0.12500102E+03</pdfrwt>
<pdfrwt beam="1">  1       -4 0.55722933E-02 0.12500102E+03</pdfrwt>
<totfact> 0.10049690E+04</totfact>
</mgrwt>
</event>
<event>
 5    1  0.3227866E-002  0.1249996E+03  0.7818608E-02  0.1235070E+00
         -4   -1    0    0    0  501 -0.00000000000E+00  0.00000000000E+00  0.79099406016E+03  0.79099507970E+03  0.12700000000E+01 0. -1.
          4   -1    0    0  501    0  0.00000000000E+00 -0.00000000000E+00 -0.48556796225E+01  0.50190162976E+01  0.12700000000E+01 0. -1.
         25    2    1    2    0    0  0.00000000000E+00  0.00000000000E+00  0.78613838054E+03  0.79601409600E+03  0.12499955069E+03 0.  0.
    9000005    1    3    3    0    0 -0.16925001326E+02 -0.28253317740E+02  0.54866847073E+02  0.64000597973E+02  0.10000000000E+01 0.  0.
    9000005    1    3    3    0    0  0.16925001326E+02  0.28253317740E+02  0.73127153347E+03  0.73201349802E+03  0.10000000000E+01 0.  0.
<mgrwt>
<rscale>  0 0.12499955E+03</rscale>
<asrwt>0</asrwt>
<pdfrwt beam="2">  1        4 0.75967041E-03 0.12499955E+03</pdfrwt>
<pdfrwt beam="1">  1       -4 0.12170404E+00 0.12499955E+03</pdfrwt>
<totfact> 0.38443663E+03</totfact>
</mgrwt>
</event>
<event>
 5    1  0.3227866E-002  0.1250016E+03  0.7818608E-02  0.1235067E+00
          4   -1    0    0  501    0  0.00000000000E+00  0.00000000000E+00  0.29346540981E+03  0.29346815782E+03  0.12700000000E+01 0.  1.
         -4   -1    0    0    0  501 -0.00000000000E+00 -0.00000000000E+00 -0.13277998068E+02  0.13338595604E+02  0.12700000000E+01 0.  1.
         25    2    1    2    0    0  0.00000000000E+00  0.00000000000E+00  0.28018741174E+03  0.30680675342E+03  0.12500159298E+03 0.  0.
    9000005    1    3    3    0    0  0.40693820863E+02  0.10166811533E+02  0.25379464959E+03  0.25723933462E+03  0.10000000000E+01 0.  0.
    9000005    1    3    3    0    0 -0.40693820863E+02 -0.10166811533E+02  0.26392762148E+02  0.49567418805E+02  0.10000000000E+01 0.  0.
<mgrwt>
<rscale>  0 0.12500159E+03</rscale>
<asrwt>0</asrwt>
<pdfrwt beam="1">  1        4 0.45153395E-01 0.12500159E+03</pdfrwt>
<pdfrwt beam="2">  1       -4 0.20476418E-02 0.12500159E+03</pdfrwt>
<totfact> 0.74750227E+03</totfact>
</mgrwt>
</event>
<event>
 5    1  0.3227866E-002  0.1250006E+03  0.7818608E-02  0.1235068E+00
         -4   -1    0    0    0  501 -0.00000000000E+00  0.00000000000E+00  0.52678464053E+01  0.54187734544E+01  0.12700000000E+01 0. -1.
          4   -1    0    0  501    0  0.00000000000E+00 -0.00000000000E+00 -0.73090962806E+03  0.73091073141E+03  0.12700000000E+01 0. -1.
         25    2    1    2    0    0  0.00000000000E+00  0.00000000000E+00 -0.72564178165E+03  0.73632950487E+03  0.12500057780E+03 0.  0.
    9000005    1    3    3    0    0  0.19679960888E+02  0.55586664242E+02 -0.48470212964E+03  0.48827690154E+03  0.10000000000E+01 0.  0.
    9000005    1    3    3    0    0 -0.19679960888E+02 -0.55586664242E+02 -0.24093965202E+03  0.24805260333E+03  0.10000000000E+01 0.  0.
<mgrwt>
<rscale>  0 0.12500058E+03</rscale>
<asrwt>0</asrwt>
<pdfrwt beam="2">  1        4 0.11245925E+00 0.12500058E+03</pdfrwt>
<pdfrwt beam="1">  1       -4 0.82213313E-03 0.12500058E+03</pdfrwt>
<totfact> 0.41236192E+03</totfact>
</mgrwt>
</event>
<event>
 5    1  0.3227866E-002  0.1250004E+03  0.7818608E-02  0.1235069E+00
          4   -1    0    0  501    0  0.00000000000E+00  0.00000000000E+00  0.53624823657E+03  0.53624974044E+03  0.12700000000E+01 0. -1.
         -4   -1    0    0    0  501 -0.00000000000E+00 -0.00000000000E+00 -0.72275673373E+01  0.73382988230E+01  0.12700000000E+01 0. -1.
         25    2    1    2    0    0  0.00000000000E+00  0.00000000000E+00  0.52902066923E+03  0.54358803927E+03  0.12500035183E+03 0.  0.
    9000005    1    3    3    0    0  0.52527527521E+02 -0.27624614182E+02  0.17940347168E+03  0.18896789703E+03  0.10000000000E+01 0.  0.
    9000005    1    3    3    0    0 -0.52527527521E+02  0.27624614182E+02  0.34961719755E+03  0.35462014224E+03  0.10000000000E+01 0.  0.
<mgrwt>
<rscale>  0 0.12500035E+03</rscale>
<asrwt>0</asrwt>
<pdfrwt beam="1">  1        4 0.82508336E-01 0.12500035E+03</pdfrwt>
<pdfrwt beam="2">  1       -4 0.11205673E-02 0.12500035E+03</pdfrwt>
<totfact> 0.52633878E+03</totfact>
</mgrwt>
</event>
<event>
 5    1  0.3227866E-002  0.1249957E+03  0.7818608E-02  0.1235076E+00
         -4   -1    0    0    0  501 -0.00000000000E+00  0.00000000000E+00  0.80634063680E+02  0.80644064417E+02  0.12700000000E+01 0. -1.
          4   -1    0    0  501    0  0.00000000000E+00 -0.00000000000E+00 -0.48419468096E+02  0.48436120723E+02  0.12700000000E+01 0. -1.
         25    2    1    2    0    0  0.00000000000E+00  0.00000000000E+00  0.32214595584E+02  0.12908018514E+03  0.12499565603E+03 0.  0.
    9000005    1    3    3    0    0 -0.40282535119E+02 -0.70943811634E-01  0.65441732108E+02  0.76852507896E+02  0.10000000000E+01 0.  0.
    9000005    1    3    3    0    0  0.40282535119E+02  0.70943811634E-01 -0.33227136524E+02  0.52227677243E+02  0.10000000000E+01 0.  0.
<mgrwt>
<rscale>  0 0.12499566E+03</rscale>
<asrwt>0</asrwt>
<pdfrwt beam="2">  1        4 0.74511993E-02 0.12499566E+03</pdfrwt>
<pdfrwt beam="1">  1       -4 0.12407291E-01 0.12499566E+03</pdfrwt>
<totfact> 0.10365240E+04</totfact>
</mgrwt>
</event>
<event>
 5    1  0.3227866E-002  0.1249942E+03  0.7818608E-02  0.1235078E+00
          4   -1    0    0  501    0  0.00000000000E+00  0.00000000000E+00  0.18127932474E+03  0.18128377334E+03  0.12700000000E+01 0.  1.
         -4   -1    0    0    0  501 -0.00000000000E+00 -0.00000000000E+00 -0.21522795117E+02  0.21560232133E+02  0.12700000000E+01 0.  1.
         25    2    1    2    0    0  0.00000000000E+00  0.00000000000E+00  0.15975652962E+03  0.20284400548E+03  0.12499416707E+03 0.  0.
    9000005    1    3    3    0    0  0.21794335604E+02  0.15381772927E+02 -0.11826488272E+02  0.29196880444E+02  0.10000000000E+01 0.  0.
    9000005    1    3    3    0    0 -0.21794335604E+02 -0.15381772927E+02  0.17158301789E+03  0.17364712503E+03  0.10000000000E+01 0.  0.
<mgrwt>
<rscale>  0 0.12499417E+03</rscale>
<asrwt>0</asrwt>
<pdfrwt beam="1">  1        4 0.27892349E-01 0.12499417E+03</pdfrwt>
<pdfrwt beam="2">  1       -4 0.33144213E-02 0.12499417E+03</pdfrwt>
<totfact> 0.89669749E+03</totfact>
</mgrwt>
</event>
<event>
 5    1  0.3227866E-002  0.1250020E+03  0.7818608E-02  0.1235066E+00
         -4   -1    0    0    0  501 -0.00000000000E+00  0.00000000000E+00  0.20271227445E+02  0.20310971472E+02  0.12700000000E+01 0. -1.
          4   -1    0    0  501    0  0.00000000000E+00 -0.00000000000E+00 -0.19247489602E+03  0.19247908587E+03  0.12700000000E+01 0. -1.
         25    2    1    2    0    0  0.00000000000E+00  0.00000000000E+00 -0.17220366857E+03  0.21279005734E+03  0.12500202012E+03 0.  0.
    9000005    1    3    3    0    0  0.29041088420E+02 -0.15808234354E+02 -0.17637298909E+03  0.17944836687E+03  0.10000000000E+01 0.  0.
    9000005    1    3    3    0    0 -0.29041088420E+02  0.15808234354E+02  0.41693205196E+01  0.33341690473E+02  0.10000000000E+01 0.  0.
<mgrwt>
<rscale>  0 0.12500202E+03</rscale>
<asrwt>0</asrwt>
<pdfrwt beam="2">  1        4 0.29614901E-01 0.12500202E+03</pdfrwt>
<pdfrwt beam="1">  1       -4 0.31220300E-02 0.12500202E+03</pdfrwt>
<totfact> 0.88018272E+03</totfact>
</mgrwt>
</event>
<event>
 5    1  0.3227866E-002  0.1249998E+03  0.7818608E-02  0.1235070E+00
          4   -1    0    0  501    0  0.00000000000E+00  0.00000000000E+00  0.24547419984E+03  0.24547748509E+03  0.12700000000E+01 0. -1.
         -4   -1    0    0    0  501 -0.00000000000E+00 -0.00000000000E+00 -0.15884293573E+02  0.15934982972E+02  0.12700000000E+01 0. -1.
         25    2    1    2    0    0  0.00000000000E+00  0.00000000000E+00  0.22958990627E+03  0.26141246807E+03  0.12499981360E+03 0.  0.
    9000005    1    3    3    0    0 -0.53798925584E+02 -0.19585956103E+02  0.16717381497E+03  0.17670885230E+03  0.10000000000E+01 0.  0.
    9000005    1    3    3    0    0  0.53798925584E+02  0.19585956103E+02  0.62416091299E+02  0.84703615764E+02  0.10000000000E+01 0.  0.
<mgrwt>
<rscale>  0 0.12499981E+03</rscale>
<asrwt>0</asrwt>
<pdfrwt beam="1">  1        4 0.37769413E-01 0.12499981E+03</pdfrwt>
<pdfrwt beam="2">  1       -4 0.24478894E-02 0.12499981E+03</pdfrwt>
<totfact> 0.80708583E+03</totfact>
</mgrwt>
</event>
<event>
 5    1  0.3227866E-002  0.1249977E+03  0.7818608E-02  0.1235073E+00
         -4   -1    0    0    0  501 -0.00000000000E+00  0.00000000000E+00  0.11648396682E+03  0.11649088988E+03  0.12700000000E+01 0.  1.
          4   -1    0    0  501    0  0.00000000000E+00 -0.00000000000E+00 -0.33513475198E+02  0.33537530020E+02  0.12700000000E+01 0.  1.
         25    2    1    2    0    0  0.00000000000E+00  0.00000000000E+00  0.82970491621E+02  0.15002841990E+03  0.12499769717E+03 0.  0.
    9000005    1    3    3    0    0 -0.44554897291E+02 -0.34645248674E+02  0.73684025574E+02  0.92821160050E+02  0.10000000000E+01 0.  0.
    9000005    1    3    3    0    0  0.44554897291E+02  0.34645248674E+02  0.92864660479E+01  0.57207259854E+02  0.10000000000E+01 0.  0.
<mgrwt>
<rscale>  0 0.12499770E+03</rscale>
<asrwt>0</asrwt>
<pdfrwt beam="2">  1        4 0.51583023E-02 0.12499770E+03</pdfrwt>
<pdfrwt beam="1">  1       -4 0.17922993E-01 0.12499770E+03</pdfrwt>
<totfact> 0.99303180E+03</totfact>
</mgrwt>
</event>
<event>
 4    1  0.3227866E-002  0.1248655E+03  0.7818608E-02  0.1235280E+00
         -4   -1    0    0    0  501 -0.00000000000E+00  0.00000000000E+00  0.50043251866E+03  0.50043413016E+03  0.12700000000E+01 0. -1.
          4   -1    0    0  501    0  0.00000000000E+00 -0.00000000000E+00 -0.77355589648E+01  0.78391180944E+01  0.12700000000E+01 0. -1.
    9000005    1    1    2    0    0  0.62402581572E+02  0.15779116304E+01  0.24420144151E+03  0.25205538286E+03  0.10000000000E+01 0.  0.
    9000005    1    1    2    0    0 -0.62402581572E+02 -0.15779116304E+01  0.24849551818E+03  0.25621786540E+03  0.10000000000E+01 0.  0.
<mgrwt>
<rscale>  0 0.12486553E+03</rscale>
<asrwt>0</asrwt>
<pdfrwt beam="2">  1        4 0.11981755E-02 0.12486553E+03</pdfrwt>
<pdfrwt beam="1">  1       -4 0.76997744E-01 0.12486553E+03</pdfrwt>
<totfact> 0.55391683E+03</totfact>
</mgrwt>
</event>
<event>
 5    1  0.3227866E-002  0.1250063E+03  0.7818608E-02  0.1235059E+00
         -4   -1    0    0    0  501 -0.00000000000E+00  0.00000000000E+00  0.67303545903E+02  0.67315527117E+02  0.12700000000E+01 0. -1.
          4   -1    0    0  501    0  0.00000000000E+00 -0.00000000000E+00 -0.58021032677E+02  0.58034930283E+02  0.12700000000E+01 0. -1.
         25    2    1    2    0    0  0.00000000000E+00  0.00000000000E+00  0.92825132254E+01  0.12535045740E+03  0.12500628832E+03 0.  0.
    9000005    1    3    3    0    0  0.11059714563E+02 -0.57170593087E+02 -0.18111499516E+02  0.60990330503E+02  0.10000000000E+01 0.  0.
    9000005    1    3    3    0    0 -0.11059714563E+02  0.57170593087E+02  0.27394012741E+02  0.64360126897E+02  0.10000000000E+01 0.  0.
<mgrwt>
<rscale>  0 0.12500629E+03</rscale>
<asrwt>0</asrwt>
<pdfrwt beam="2">  1        4 0.89283034E-02 0.12500629E+03</pdfrwt>
<pdfrwt beam="1">  1       -4 0.10356382E-01 0.12500629E+03</pdfrwt>
<totfact> 0.10443771E+04</totfact>
</mgrwt>
</event>
<event>
 5    1  0.3227866E-002  0.1250051E+03  0.7818608E-02  0.1235061E+00
         -4   -1    0    0    0  501 -0.00000000000E+00  0.00000000000E+00  0.57074990037E+02  0.57089117945E+02  0.12700000000E+01 0. -1.
          4   -1    0    0  501    0  0.00000000000E+00 -0.00000000000E+00 -0.68417718358E+02  0.68429504494E+02  0.12700000000E+01 0. -1.
         25    2    1    2    0    0  0.00000000000E+00  0.00000000000E+00 -0.11342728320E+02  0.12551862244E+03  0.12500506827E+03 0.  0.
    9000005    1    3    3    0    0  0.49172088513E+01  0.60385297436E+02  0.97214447437E+01  0.61368310856E+02  0.10000000000E+01 0.  0.
    9000005    1    3    3    0    0 -0.49172088513E+01 -0.60385297436E+02 -0.21064173064E+02  0.64150311583E+02  0.10000000000E+01 0.  0.
<mgrwt>
<rscale>  0 0.12500507E+03</rscale>
<asrwt>0</asrwt>
<pdfrwt beam="2">  1        4 0.10527796E-01 0.12500507E+03</pdfrwt>
<pdfrwt beam="1">  1       -4 0.87827611E-02 0.12500507E+03</pdfrwt>
<totfact> 0.10440349E+04</totfact>
</mgrwt>
</event>
<event>
 5    1  0.3227866E-002  0.1250006E+03  0.7818608E-02  0.1235068E+00
          4   -1    0    0  501    0  0.00000000000E+00  0.00000000000E+00  0.36411135823E+03  0.36411357307E+03  0.12700000000E+01 0. -1.
         -4   -1    0    0    0  501 -0.00000000000E+00 -0.00000000000E+00 -0.10688430315E+02  0.10763616613E+02  0.12700000000E+01 0. -1.
         25    2    1    2    0    0  0.00000000000E+00  0.00000000000E+00  0.35342292792E+03  0.37487718968E+03  0.12500056547E+03 0.  0.
    9000005    1    3    3    0    0  0.12720473306E+02  0.55357447044E+02  0.25486000341E+03  0.26111468500E+03  0.10000000000E+01 0.  0.
    9000005    1    3    3    0    0 -0.12720473306E+02 -0.55357447044E+02  0.98562924511E+02  0.11376250469E+03  0.10000000000E+01 0.  0.
<mgrwt>
<rscale>  0 0.12500057E+03</rscale>
<asrwt>0</asrwt>
<pdfrwt beam="1">  1        4 0.56023085E-01 0.12500057E+03</pdfrwt>
<pdfrwt beam="2">  1       -4 0.16503279E-02 0.12500057E+03</pdfrwt>
<totfact> 0.67070920E+03</totfact>
</mgrwt>
</event>
<event>
 5    1  0.3227866E-002  0.1250055E+03  0.7818608E-02  0.1235061E+00
          4   -1    0    0  501    0  0.00000000000E+00  0.00000000000E+00  0.11476145488E+03  0.11476848185E+03  0.12700000000E+01 0.  1.
         -4   -1    0    0    0  501 -0.00000000000E+00 -0.00000000000E+00 -0.34021083495E+02  0.34044779661E+02  0.12700000000E+01 0.  1.
         25    2    1    2    0    0  0.00000000000E+00  0.00000000000E+00  0.80740371383E+02  0.14881326151E+03  0.12500551680E+03 0.  0.
    9000005    1    3    3    0    0 -0.44007188034E+01 -0.36601327077E+02 -0.19704343870E+02  0.41812493792E+02  0.10000000000E+01 0.  0.
    9000005    1    3    3    0    0  0.44007188034E+01  0.36601327077E+02  0.10044471525E+03  0.10700076772E+03  0.10000000000E+01 0.  0.
<mgrwt>
<rscale>  0 0.12500552E+03</rscale>
<asrwt>0</asrwt>
<pdfrwt beam="1">  1        4 0.17657972E-01 0.12500552E+03</pdfrwt>
<pdfrwt beam="2">  1       -4 0.52363762E-02 0.12500552E+03</pdfrwt>
<totfact> 0.99528425E+03</totfact>
</mgrwt>
</event>
<event>
 5    1  0.3227866E-002  0.1250004E+03  0.7818608E-02  0.1235069E+00
         -4   -1    0    0    0  501 -0.00000000000E+00  0.00000000000E+00  0.70935875689E+01  0.72063780499E+01  0.12700000000E+01 0. -1.
          4   -1    0    0  501    0  0.00000000000E+00 -0.00000000000E+00 -0.54621997918E+03  0.54622145559E+03  0.12700000000E+01 0. -1.
         25    2    1    2    0    0  0.00000000000E+00  0.00000000000E+00 -0.53912639161E+03  0.55342783364E+03  0.12500040370E+03 0.  0.
    9000005    1    3    3    0    0 -0.23429604104E+02 -0.35013481241E+02 -0.47391507276E+03  0.47578502121E+03  0.10000000000E+01 0.  0.
    9000005    1    3    3    0    0  0.23429604104E+02  0.35013481241E+02 -0.65211318847E+02  0.77642812435E+02  0.10000000000E+01 0.  0.
<mgrwt>
<rscale>  0 0.12500040E+03</rscale>
<asrwt>0</asrwt>
<pdfrwt beam="2">  1        4 0.84042600E-01 0.12500040E+03</pdfrwt>
<pdfrwt beam="1">  1       -4 0.11001114E-02 0.12500040E+03</pdfrwt>
<totfact> 0.51945394E+03</totfact>
</mgrwt>
</event>
<event>
 5    1  0.3227866E-002  0.1249991E+03  0.7818608E-02  0.1235071E+00
          4   -1    0    0  501    0  0.00000000000E+00  0.00000000000E+00  0.15648743936E+03  0.15649259273E+03  0.12700000000E+01 0.  1.
         -4   -1    0    0    0  501 -0.00000000000E+00 -0.00000000000E+00 -0.24939978592E+02  0.24972293290E+02  0.12700000000E+01 0.  1.
         25    2    1    2    0    0  0.00000000000E+00  0.00000000000E+00  0.13154746077E+03  0.18146488602E+03  0.12499908169E+03 0.  0.
    9000005    1    3    3    0    0  0.21767478213E+02 -0.58389788206E+02  0.72583276279E+02  0.95668816601E+02  0.10000000000E+01 0.  0.
    9000005    1    3    3    0    0 -0.21767478213E+02  0.58389788206E+02  0.58964184493E+02  0.85796069417E+02  0.10000000000E+01 0.  0.
<mgrwt>
<rscale>  0 0.12499908E+03</rscale>
<asrwt>0</asrwt>
<pdfrwt beam="1">  1        4 0.24077873E-01 0.12499908E+03</pdfrwt>
<pdfrwt beam="2">  1       -4 0.38398019E-02 0.12499908E+03</pdfrwt>
<totfact> 0.93355903E+03</totfact>
</mgrwt>
</event>
<event>
 5    1  0.3227866E-002  0.1250104E+03  0.7818608E-02  0.1235053E+00
         -4   -1    0    0    0  501 -0.00000000000E+00  0.00000000000E+00  0.37918046637E+02  0.37939308912E+02  0.12700000000E+01 0.  1.
          4   -1    0    0  501    0  0.00000000000E+00 -0.00000000000E+00 -0.10298134985E+03  0.10298918059E+03  0.12700000000E+01 0.  1.
         25    2    1    2    0    0  0.00000000000E+00  0.00000000000E+00 -0.65063303217E+02  0.14092848950E+03  0.12501042247E+03 0.  0.
    9000005    1    3    3    0    0 -0.28482590666E+02 -0.68658133229E+01  0.29701919312E+02  0.41732497822E+02  0.10000000000E+01 0.  0.
    9000005    1    3    3    0    0  0.28482590666E+02  0.68658133229E+01 -0.94765222530E+02  0.99195991677E+02  0.10000000000E+01 0.  0.
<mgrwt>
<rscale>  0 0.12501042E+03</rscale>
<asrwt>0</asrwt>
<pdfrwt beam="2">  1        4 0.15845522E-01 0.12501042E+03</pdfrwt>
<pdfrwt beam="1">  1       -4 0.58357836E-02 0.12501042E+03</pdfrwt>
<totfact> 0.10112004E+04</totfact>
</mgrwt>
</event>
<event>
 5    1  0.3227866E-002  0.1249993E+03  0.7818608E-02  0.1235070E+00
          4   -1    0    0  501    0  0.00000000000E+00  0.00000000000E+00  0.73412394000E+02  0.73423378381E+02  0.12700000000E+01 0.  1.
         -4   -1    0    0    0  501 -0.00000000000E+00 -0.00000000000E+00 -0.53186509463E+02  0.53201669982E+02  0.12700000000E+01 0.  1.
         25    2    1    2    0    0  0.00000000000E+00  0.00000000000E+00  0.20225884538E+02  0.12662504836E+03  0.12499926587E+03 0.  0.
    9000005    1    3    3    0    0 -0.58694701100E+02 -0.65983823899E+01  0.30789131916E+02  0.66615142659E+02  0.10000000000E+01 0.  0.
    9000005    1    3    3    0    0  0.58694701100E+02  0.65983823899E+01 -0.10563247378E+02  0.60009905703E+02  0.10000000000E+01 0.  0.
<mgrwt>
<rscale>  0 0.12499927E+03</rscale>
<asrwt>0</asrwt>
<pdfrwt beam="1">  1        4 0.11296226E-01 0.12499927E+03</pdfrwt>
<pdfrwt beam="2">  1       -4 0.81845511E-02 0.12499927E+03</pdfrwt>
<totfact> 0.10417475E+04</totfact>
</mgrwt>
</event>
<event>
 5    1  0.3227866E-002  0.1250064E+03  0.7818608E-02  0.1235059E+00
         -4   -1    0    0    0  501 -0.00000000000E+00  0.00000000000E+00  0.15898837341E+03  0.15899344572E+03  0.12700000000E+01 0. -1.
          4   -1    0    0  501    0  0.00000000000E+00 -0.00000000000E+00 -0.24550041937E+02  0.24582869220E+02  0.12700000000E+01 0. -1.
         25    2    1    2    0    0  0.00000000000E+00  0.00000000000E+00  0.13443833148E+03  0.18357631494E+03  0.12500639358E+03 0.  0.
    9000005    1    3    3    0    0  0.61538715957E+02  0.94887579475E+01  0.59365655891E+02  0.86036801361E+02  0.10000000000E+01 0.  0.
    9000005    1    3    3    0    0 -0.61538715957E+02 -0.94887579475E+01  0.75072675584E+02  0.97539513575E+02  0.10000000000E+01 0.  0.
<mgrwt>
<rscale>  0 0.12500639E+03</rscale>
<asrwt>0</asrwt>
<pdfrwt beam="2">  1        4 0.37798451E-02 0.12500639E+03</pdfrwt>
<pdfrwt beam="1">  1       -4 0.24462664E-01 0.12500639E+03</pdfrwt>
<totfact> 0.92963865E+03</totfact>
</mgrwt>
</event>
<event>
 5    1  0.3227866E-002  0.1250007E+03  0.7818608E-02  0.1235068E+00
         -4   -1    0    0    0  501 -0.00000000000E+00  0.00000000000E+00  0.25639987950E+02  0.25671421505E+02  0.12700000000E+01 0. -1.
          4   -1    0    0  501    0  0.00000000000E+00 -0.00000000000E+00 -0.15222418204E+03  0.15222947973E+03  0.12700000000E+01 0. -1.
         25    2    1    2    0    0  0.00000000000E+00  0.00000000000E+00 -0.12658419409E+03  0.17790090123E+03  0.12500068986E+03 0.  0.
    9000005    1    3    3    0    0  0.59036104907E+02 -0.16922334500E+02 -0.46837916390E+02  0.77242588636E+02  0.10000000000E+01 0.  0.
    9000005    1    3    3    0    0 -0.59036104907E+02  0.16922334500E+02 -0.79746277701E+02  0.10065831260E+03  0.10000000000E+01 0.  0.
<mgrwt>
<rscale>  0 0.12500069E+03</rscale>
<asrwt>0</asrwt>
<pdfrwt beam="2">  1        4 0.23421930E-01 0.12500069E+03</pdfrwt>
<pdfrwt beam="1">  1       -4 0.39474391E-02 0.12500069E+03</pdfrwt>
<totfact> 0.93994764E+03</totfact>
</mgrwt>
</event>
<event>
 5    1  0.3227866E-002  0.1250008E+03  0.7818608E-02  0.1235068E+00
          4   -1    0    0  501    0  0.00000000000E+00  0.00000000000E+00  0.27687098166E+02  0.27716210146E+02  0.12700000000E+01 0.  1.
         -4   -1    0    0    0  501 -0.00000000000E+00 -0.00000000000E+00 -0.14098116811E+03  0.14098688827E+03  0.12700000000E+01 0.  1.
         25    2    1    2    0    0  0.00000000000E+00  0.00000000000E+00 -0.11329406995E+03  0.16870309841E+03  0.12500075651E+03 0.  0.
    9000005    1    3    3    0    0  0.15243957477E+02  0.19309508134E+02 -0.13417733474E+03  0.13641771330E+03  0.10000000000E+01 0.  0.
    9000005    1    3    3    0    0 -0.15243957477E+02 -0.19309508134E+02  0.20883264787E+02  0.32285385116E+02  0.10000000000E+01 0.  0.
<mgrwt>
<rscale>  0 0.12500076E+03</rscale>
<asrwt>0</asrwt>
<pdfrwt beam="1">  1        4 0.42622330E-02 0.12500076E+03</pdfrwt>
<pdfrwt beam="2">  1       -4 0.21692089E-01 0.12500076E+03</pdfrwt>
<totfact> 0.95689019E+03</totfact>
</mgrwt>
</event>
<event>
 5    1  0.3227866E-002  0.1250018E+03  0.7818608E-02  0.1235066E+00
         -4   -1    0    0    0  501 -0.00000000000E+00  0.00000000000E+00  0.35943909290E+02  0.35966338638E+02  0.12700000000E+01 0.  1.
          4   -1    0    0  501    0  0.00000000000E+00 -0.00000000000E+00 -0.10861932633E+03  0.10862675063E+03  0.12700000000E+01 0.  1.
         25    2    1    2    0    0  0.00000000000E+00  0.00000000000E+00 -0.72675417038E+02  0.14459308927E+03  0.12500178087E+03 0.  0.
    9000005    1    3    3    0    0 -0.12784899957E+02  0.28762046234E+02  0.26111180367E+02  0.40908467468E+02  0.10000000000E+01 0.  0.
    9000005    1    3    3    0    0  0.12784899957E+02 -0.28762046234E+02 -0.98786597405E+02  0.10368462180E+03  0.10000000000E+01 0.  0.
<mgrwt>
<rscale>  0 0.12500178E+03</rscale>
<asrwt>0</asrwt>
<pdfrwt beam="2">  1        4 0.16712962E-01 0.12500178E+03</pdfrwt>
<pdfrwt beam="1">  1       -4 0.55321287E-02 0.12500178E+03</pdfrwt>
<totfact> 0.10038860E+04</totfact>
</mgrwt>
</event>
<event>
 5    1  0.3227866E-002  0.1249980E+03  0.7818608E-02  0.1235072E+00
          4   -1    0    0  501    0  0.00000000000E+00  0.00000000000E+00  0.12490115376E+03  0.12490761030E+03  0.12700000000E+01 0. -1.
         -4   -1    0    0    0  501 -0.00000000000E+00 -0.00000000000E+00 -0.31253561042E+02  0.31279353858E+02  0.12700000000E+01 0. -1.
         25    2    1    2    0    0  0.00000000000E+00  0.00000000000E+00  0.93647592722E+02  0.15618696416E+03  0.12499798459E+03 0.  0.
    9000005    1    3    3    0    0  0.51619774309E+02  0.15546797785E+02  0.86313637932E+02  0.10177105735E+03  0.10000000000E+01 0.  0.
    9000005    1    3    3    0    0 -0.51619774309E+02 -0.15546797785E+02  0.73339547893E+01  0.54415906810E+02  0.10000000000E+01 0.  0.
<mgrwt>
<rscale>  0 0.12499798E+03</rscale>
<asrwt>0</asrwt>
<pdfrwt beam="1">  1        4 0.19218043E-01 0.12499798E+03</pdfrwt>
<pdfrwt beam="2">  1       -4 0.48107209E-02 0.12499798E+03</pdfrwt>
<totfact> 0.98087431E+03</totfact>
</mgrwt>
</event>
<event>
 5    1  0.3227866E-002  0.1249932E+03  0.7818608E-02  0.1235080E+00
          4   -1    0    0  501    0  0.00000000000E+00  0.00000000000E+00  0.26927283062E+02  0.26957215604E+02  0.12700000000E+01 0. -1.
         -4   -1    0    0    0  501 -0.00000000000E+00 -0.00000000000E+00 -0.14493744976E+03  0.14494301378E+03  0.12700000000E+01 0. -1.
         25    2    1    2    0    0  0.00000000000E+00  0.00000000000E+00 -0.11801016670E+03  0.17190022939E+03  0.12499315748E+03 0.  0.
    9000005    1    3    3    0    0 -0.33853992623E+02  0.42240464066E+02 -0.16073682174E+02  0.56477543145E+02  0.10000000000E+01 0.  0.
    9000005    1    3    3    0    0  0.33853992623E+02 -0.42240464066E+02 -0.10193648453E+03  0.11542268624E+03  0.10000000000E+01 0.  0.
<mgrwt>
<rscale>  0 0.12499316E+03</rscale>
<asrwt>0</asrwt>
<pdfrwt beam="1">  1        4 0.41453895E-02 0.12499316E+03</pdfrwt>
<pdfrwt beam="2">  1       -4 0.22300799E-01 0.12499316E+03</pdfrwt>
<totfact> 0.95110245E+03</totfact>
</mgrwt>
</event>
<event>
 5    1  0.3227866E-002  0.1249977E+03  0.7818608E-02  0.1235073E+00
         -4   -1    0    0    0  501 -0.00000000000E+00  0.00000000000E+00  0.12444718046E+03  0.12445366055E+03  0.12700000000E+01 0. -1.
          4   -1    0    0  501    0  0.00000000000E+00 -0.00000000000E+00 -0.31367523583E+02  0.31393222767E+02  0.12700000000E+01 0. -1.
         25    2    1    2    0    0  0.00000000000E+00  0.00000000000E+00  0.93079656873E+02  0.15584688331E+03  0.12499771404E+03 0.  0.
    9000005    1    3    3    0    0  0.31188511148E+02  0.49337474566E+02  0.74368778709E+02  0.94544301102E+02  0.10000000000E+01 0.  0.
    9000005    1    3    3    0    0 -0.31188511148E+02 -0.49337474566E+02  0.18710878164E+02  0.61302582212E+02  0.10000000000E+01 0.  0.
<mgrwt>
<rscale>  0 0.12499771E+03</rscale>
<asrwt>0</asrwt>
<pdfrwt beam="2">  1        4 0.48282482E-02 0.12499771E+03</pdfrwt>
<pdfrwt beam="1">  1       -4 0.19148195E-01 0.12499771E+03</pdfrwt>
<totfact> 0.98154547E+03</totfact>
</mgrwt>
</event>
<event>
 5    1  0.3227866E-002  0.1250072E+03  0.7818608E-02  0.1235058E+00
          4   -1    0    0  501    0  0.00000000000E+00  0.00000000000E+00  0.10536925689E+02  0.10613185336E+02  0.12700000000E+01 0.  1.
         -4   -1    0    0    0  501 -0.00000000000E+00 -0.00000000000E+00 -0.36934849008E+03  0.36935067351E+03  0.12700000000E+01 0.  1.
         25    2    1    2    0    0  0.00000000000E+00  0.00000000000E+00 -0.35881156439E+03  0.37996385885E+03  0.12500718096E+03 0.  0.
    9000005    1    3    3    0    0 -0.39851338267E+02 -0.42826201255E+02 -0.24624007326E+03  0.25309560714E+03  0.10000000000E+01 0.  0.
    9000005    1    3    3    0    0  0.39851338267E+02  0.42826201255E+02 -0.11257149113E+03  0.12686825170E+03  0.10000000000E+01 0.  0.
<mgrwt>
<rscale>  0 0.12500718E+03</rscale>
<asrwt>0</asrwt>
<pdfrwt beam="1">  1        4 0.16270999E-02 0.12500718E+03</pdfrwt>
<pdfrwt beam="2">  1       -4 0.56828869E-01 0.12500718E+03</pdfrwt>
<totfact> 0.66538700E+03</totfact>
</mgrwt>
</event>
<event>
 5    1  0.3227866E-002  0.1250013E+03  0.7818608E-02  0.1235067E+00
          4   -1    0    0  501    0  0.00000000000E+00  0.00000000000E+00  0.19540987501E+02  0.19582213678E+02  0.12700000000E+01 0. -1.
         -4   -1    0    0    0  501 -0.00000000000E+00 -0.00000000000E+00 -0.19965048446E+03  0.19965452373E+03  0.12700000000E+01 0. -1.
         25    2    1    2    0    0  0.00000000000E+00  0.00000000000E+00 -0.18010949696E+03  0.21923673741E+03  0.12500126453E+03 0.  0.
    9000005    1    3    3    0    0 -0.56589474269E+02 -0.25367386653E+02 -0.76530995107E+02  0.98508203292E+02  0.10000000000E+01 0.  0.
    9000005    1    3    3    0    0  0.56589474269E+02  0.25367386653E+02 -0.10357850185E+03  0.12072853412E+03  0.10000000000E+01 0.  0.
<mgrwt>
<rscale>  0 0.12500126E+03</rscale>
<asrwt>0</asrwt>
<pdfrwt beam="1">  1        4 0.30097879E-02 0.12500126E+03</pdfrwt>
<pdfrwt beam="2">  1       -4 0.30718940E-01 0.12500126E+03</pdfrwt>
<totfact> 0.86986813E+03</totfact>
</mgrwt>
</event>
<event>
 5    1  0.3227866E-002  0.1249995E+03  0.7818608E-02  0.1235070E+00
          4   -1    0    0  501    0  0.00000000000E+00  0.00000000000E+00  0.20858366757E+03  0.20858753384E+03  0.12700000000E+01 0.  1.
         -4   -1    0    0    0  501 -0.00000000000E+00 -0.00000000000E+00 -0.18701761102E+02  0.18744833110E+02  0.12700000000E+01 0.  1.
         25    2    1    2    0    0  0.00000000000E+00  0.00000000000E+00  0.18988190646E+03  0.22733236695E+03  0.12499946665E+03 0.  0.
    9000005    1    3    3    0    0  0.50404234637E+02  0.32715734767E+02  0.63740853054E+02  0.87605950247E+02  0.10000000000E+01 0.  0.
    9000005    1    3    3    0    0 -0.50404234637E+02 -0.32715734767E+02  0.12614105341E+03  0.13972641671E+03  0.10000000000E+01 0.  0.
<mgrwt>
<rscale>  0 0.12499947E+03</rscale>
<asrwt>0</asrwt>
<pdfrwt beam="1">  1        4 0.32093405E-01 0.12499947E+03</pdfrwt>
<pdfrwt beam="2">  1       -4 0.28808047E-02 0.12499947E+03</pdfrwt>
<totfact> 0.85721925E+03</totfact>
</mgrwt>
</event>
<event>
 5    1  0.3227866E-002  0.1250018E+03  0.7818608E-02  0.1235066E+00
          4   -1    0    0  501    0  0.00000000000E+00  0.00000000000E+00  0.48747605330E+03  0.48747770764E+03  0.12700000000E+01 0.  1.
         -4   -1    0    0    0  501 -0.00000000000E+00 -0.00000000000E+00 -0.79614480331E+01  0.80621061010E+01  0.12700000000E+01 0.  1.
         25    2    1    2    0    0  0.00000000000E+00  0.00000000000E+00  0.47951460527E+03  0.49553981374E+03  0.12500180132E+03 0.  0.
    9000005    1    3    3    0    0 -0.52102367345E+02 -0.91036205436E+01  0.37170409635E+03  0.37544968748E+03  0.10000000000E+01 0.  0.
    9000005    1    3    3    0    0  0.52102367345E+02  0.91036205436E+01  0.10781050892E+03  0.12009012625E+03  0.10000000000E+01 0.  0.
<mgrwt>
<rscale>  0 0.12500180E+03</rscale>
<asrwt>0</asrwt>
<pdfrwt beam="1">  1        4 0.75004177E-01 0.12500180E+03</pdfrwt>
<pdfrwt beam="2">  1       -4 0.12327085E-02 0.12500180E+03</pdfrwt>
<totfact> 0.56209866E+03</totfact>
</mgrwt>
</event>
<event>
 5    1  0.3227866E-002  0.1249993E+03  0.7818608E-02  0.1235070E+00
          4   -1    0    0  501    0  0.00000000000E+00  0.00000000000E+00  0.11390711712E+04  0.11390718792E+04  0.12700000000E+01 0. -1.
         -4   -1    0    0    0  501 -0.00000000000E+00 -0.00000000000E+00 -0.33109759306E+01  0.35461897317E+01  0.12700000000E+01 0. -1.
         25    2    1    2    0    0  0.00000000000E+00  0.00000000000E+00  0.11357601952E+04  0.11426180689E+04  0.12499932106E+03 0.  0.
    9000005    1    3    3    0    0  0.46305361963E+02  0.21487117518E+02  0.23838246591E+03  0.24378901292E+03  0.10000000000E+01 0.  0.
    9000005    1    3    3    0    0 -0.46305361963E+02 -0.21487117518E+02  0.89737772932E+03  0.89882905597E+03  0.10000000000E+01 0.  0.
<mgrwt>
<rscale>  0 0.12499932E+03</rscale>
<asrwt>0</asrwt>
<pdfrwt beam="1">  1        4 0.17526003E+00 0.12499932E+03</pdfrwt>
<pdfrwt beam="2">  1       -4 0.52752825E-03 0.12499932E+03</pdfrwt>
<totfact> 0.26266303E+03</totfact>
</mgrwt>
</event>
<event>
 5    1  0.3227866E-002  0.1250009E+03  0.7818608E-02  0.1235068E+00
         -4   -1    0    0    0  501 -0.00000000000E+00  0.00000000000E+00  0.13699496274E+03  0.13700084933E+03  0.12700000000E+01 0. -1.
          4   -1    0    0  501    0  0.00000000000E+00 -0.00000000000E+00 -0.28493595061E+02  0.28521883871E+02  0.12700000000E+01 0. -1.
         25    2    1    2    0    0  0.00000000000E+00  0.00000000000E+00  0.10850136768E+03  0.16552273320E+03  0.12500091367E+03 0.  0.
    9000005    1    3    3    0    0 -0.47910422529E+02 -0.71369866686E+01  0.19674769829E+01  0.48489340388E+02  0.10000000000E+01 0.  0.
    9000005    1    3    3    0    0  0.47910422529E+02  0.71369866686E+01  0.10653389070E+03  0.11703339281E+03  0.10000000000E+01 0.  0.
<mgrwt>
<rscale>  0 0.12500091E+03</rscale>
<asrwt>0</asrwt>
<pdfrwt beam="2">  1        4 0.43862588E-02 0.12500091E+03</pdfrwt>
<pdfrwt beam="1">  1       -4 0.21078777E-01 0.12500091E+03</pdfrwt>
<totfact> 0.96286510E+03</totfact>
</mgrwt>
</event>
<event>
 5    1  0.3227866E-002  0.1249903E+03  0.7818608E-02  0.1235084E+00
          4   -1    0    0  501    0  0.00000000000E+00  0.00000000000E+00  0.30092736281E+03  0.30093004268E+03  0.12700000000E+01 0.  1.
         -4   -1    0    0    0  501 -0.00000000000E+00 -0.00000000000E+00 -0.12944887042E+02  0.13007036577E+02  0.12700000000E+01 0.  1.
         25    2    1    2    0    0  0.00000000000E+00  0.00000000000E+00  0.28798247576E+03  0.31393707925E+03  0.12499033316E+03 0.  0.
    9000005    1    3    3    0    0 -0.21471127144E+02 -0.54287922840E+02  0.88027407052E+02  0.10563149274E+03  0.10000000000E+01 0.  0.
    9000005    1    3    3    0    0  0.21471127144E+02  0.54287922840E+02  0.19995506871E+03  0.20830558651E+03  0.10000000000E+01 0.  0.
<mgrwt>
<rscale>  0 0.12499033E+03</rscale>
<asrwt>0</asrwt>
<pdfrwt beam="1">  1        4 0.46301506E-01 0.12499033E+03</pdfrwt>
<pdfrwt beam="2">  1       -4 0.19965079E-02 0.12499033E+03</pdfrwt>
<totfact> 0.73898917E+03</totfact>
</mgrwt>
</event>
<event>
 5    1  0.3227866E-002  0.1249985E+03  0.7818608E-02  0.1235072E+00
         -4   -1    0    0    0  501 -0.00000000000E+00  0.00000000000E+00  0.22805081591E+02  0.22840416948E+02  0.12700000000E+01 0.  1.
          4   -1    0    0  501    0  0.00000000000E+00 -0.00000000000E+00 -0.17111419044E+03  0.17111890331E+03  0.12700000000E+01 0.  1.
         25    2    1    2    0    0  0.00000000000E+00  0.00000000000E+00 -0.14830910885E+03  0.19395932026E+03  0.12499850458E+03 0.  0.
    9000005    1    3    3    0    0 -0.60034633281E+01  0.26587584443E+02  0.13102702309E+02  0.30259246955E+02  0.10000000000E+01 0.  0.
    9000005    1    3    3    0    0  0.60034633281E+01 -0.26587584443E+02 -0.16141181115E+03  0.16370007330E+03  0.10000000000E+01 0.  0.
<mgrwt>
<rscale>  0 0.12499850E+03</rscale>
<asrwt>0</asrwt>
<pdfrwt beam="2">  1        4 0.26328340E-01 0.12499850E+03</pdfrwt>
<pdfrwt beam="1">  1       -4 0.35115548E-02 0.12499850E+03</pdfrwt>
<totfact> 0.91165986E+03</totfact>
</mgrwt>
</event>
<event>
 5    1  0.3227866E-002  0.1250036E+03  0.7818608E-02  0.1235064E+00
          4   -1    0    0  501    0  0.00000000000E+00  0.00000000000E+00  0.31925201018E+03  0.31925453623E+03  0.12700000000E+01 0. -1.
         -4   -1    0    0    0  501 -0.00000000000E+00 -0.00000000000E+00 -0.12200795904E+02  0.12266715970E+02  0.12700000000E+01 0. -1.
         25    2    1    2    0    0  0.00000000000E+00  0.00000000000E+00  0.30705121427E+03  0.33152125220E+03  0.12500356984E+03 0.  0.
    9000005    1    3    3    0    0  0.23987980910E+02 -0.39858520725E+01  0.84781102764E+00  0.24352187344E+02  0.10000000000E+01 0.  0.
    9000005    1    3    3    0    0 -0.23987980910E+02  0.39858520725E+01  0.30620340325E+03  0.30716906486E+03  0.10000000000E+01 0.  0.
<mgrwt>
<rscale>  0 0.12500357E+03</rscale>
<asrwt>0</asrwt>
<pdfrwt beam="1">  1        4 0.49120968E-01 0.12500357E+03</pdfrwt>
<pdfrwt beam="2">  1       -4 0.18823103E-02 0.12500357E+03</pdfrwt>
<totfact> 0.71800772E+03</totfact>
</mgrwt>
</event>
<event>
 5    1  0.3227866E-002  0.1250020E+03  0.7818608E-02  0.1235066E+00
          4   -1    0    0  501    0  0.00000000000E+00  0.00000000000E+00  0.80271052277E+01  0.81269501251E+01  0.12700000000E+01 0.  1.
         -4   -1    0    0    0  501 -0.00000000000E+00 -0.00000000000E+00 -0.48353938889E+03  0.48354105670E+03  0.12700000000E+01 0.  1.
         25    2    1    2    0    0  0.00000000000E+00  0.00000000000E+00 -0.47551228367E+03  0.49166800682E+03  0.12500198805E+03 0.  0.
    9000005    1    3    3    0    0 -0.27634878717E+02 -0.56036042005E+02 -0.23270416595E+03  0.24094803044E+03  0.10000000000E+01 0.  0.
    9000005    1    3    3    0    0  0.27634878717E+02  0.56036042005E+02 -0.24280811772E+03  0.25071997638E+03  0.10000000000E+01 0.  0.
<mgrwt>
<rscale>  0 0.12500199E+03</rscale>
<asrwt>0</asrwt>
<pdfrwt beam="1">  1        4 0.12427483E-02 0.12500199E+03</pdfrwt>
<pdfrwt beam="2">  1       -4 0.74398461E-01 0.12500199E+03</pdfrwt>
<totfact> 0.56514210E+03</totfact>
</mgrwt>
</event>
<event>
 5    1  0.3227866E-002  0.1249980E+03  0.7818608E-02  0.1235072E+00
          4   -1    0    0  501    0  0.00000000000E+00  0.00000000000E+00  0.46647500174E+02  0.46664785144E+02  0.12700000000E+01 0.  1.
         -4   -1    0    0    0  501 -0.00000000000E+00 -0.00000000000E+00 -0.83699451547E+02  0.83709086062E+02  0.12700000000E+01 0.  1.
         25    2    1    2    0    0  0.00000000000E+00  0.00000000000E+00 -0.37051951373E+02  0.13037387121E+03  0.12499799675E+03 0.  0.
    9000005    1    3    3    0    0 -0.11230294942E+02  0.53545356344E+02 -0.50022391623E+02  0.74138143854E+02  0.10000000000E+01 0.  0.
    9000005    1    3    3    0    0  0.11230294942E+02 -0.53545356344E+02  0.12970440250E+02  0.56235727352E+02  0.10000000000E+01 0.  0.
<mgrwt>
<rscale>  0 0.12499800E+03</rscale>
<asrwt>0</asrwt>
<pdfrwt beam="1">  1        4 0.71786092E-02 0.12499800E+03</pdfrwt>
<pdfrwt beam="2">  1       -4 0.12878909E-01 0.12499800E+03</pdfrwt>
<totfact> 0.10336984E+04</totfact>
</mgrwt>
</event>
<event>
 5    1  0.3227866E-002  0.1250016E+03  0.7818608E-02  0.1235067E+00
          4   -1    0    0  501    0  0.00000000000E+00  0.00000000000E+00  0.17159187565E+03  0.17159657540E+03  0.12700000000E+01 0.  1.
         -4   -1    0    0    0  501 -0.00000000000E+00 -0.00000000000E+00 -0.22742609600E+02  0.22778041870E+02  0.12700000000E+01 0.  1.
         25    2    1    2    0    0  0.00000000000E+00  0.00000000000E+00  0.14884926605E+03  0.19437461727E+03  0.12500155133E+03 0.  0.
    9000005    1    3    3    0    0 -0.73578941176E+01  0.41657320733E+02  0.28977577599E+01  0.42413063749E+02  0.10000000000E+01 0.  0.
    9000005    1    3    3    0    0  0.73578941176E+01 -0.41657320733E+02  0.14595150829E+03  0.15196155352E+03  0.10000000000E+01 0.  0.
<mgrwt>
<rscale>  0 0.12500155E+03</rscale>
<asrwt>0</asrwt>
<pdfrwt beam="1">  1        4 0.26401836E-01 0.12500155E+03</pdfrwt>
<pdfrwt beam="2">  1       -4 0.35019502E-02 0.12500155E+03</pdfrwt>
<totfact> 0.91088505E+03</totfact>
</mgrwt>
</event>
<event>
 5    1  0.3227866E-002  0.1249656E+03  0.7818608E-02  0.1235123E+00
          4   -1    0    0  501    0  0.00000000000E+00  0.00000000000E+00  0.53625679887E+03  0.53625830272E+03  0.12700000000E+01 0. -1.
         -4   -1    0    0    0  501 -0.00000000000E+00 -0.00000000000E+00 -0.72233736784E+01  0.73341684804E+01  0.12700000000E+01 0. -1.
         25    2    1    2    0    0  0.00000000000E+00  0.00000000000E+00  0.52903342519E+03  0.54359247120E+03  0.12496563437E+03 0.  0.
    9000005    1    3    3    0    0  0.26348209808E+01  0.46955914985E+02  0.85623673090E+02  0.97694491284E+02  0.10000000000E+01 0.  0.
    9000005    1    3    3    0    0 -0.26348209808E+01 -0.46955914985E+02  0.44340975210E+03  0.44589797992E+03  0.10000000000E+01 0.  0.
<mgrwt>
<rscale>  0 0.12496563E+03</rscale>
<asrwt>0</asrwt>
<pdfrwt beam="1">  1        4 0.82509674E-01 0.12496563E+03</pdfrwt>
<pdfrwt beam="2">  1       -4 0.11199268E-02 0.12496563E+03</pdfrwt>
<totfact> 0.52673703E+03</totfact>
</mgrwt>
</event>
<event>
 5    1  0.3227866E-002  0.1249975E+03  0.7818608E-02  0.1235073E+00
          4   -1    0    0  501    0  0.00000000000E+00  0.00000000000E+00  0.90508606779E+03  0.90508695881E+03  0.12700000000E+01 0.  1.
         -4   -1    0    0    0  501 -0.00000000000E+00 -0.00000000000E+00 -0.42213718761E+01  0.44082740972E+01  0.12700000000E+01 0.  1.
         25    2    1    2    0    0  0.00000000000E+00  0.00000000000E+00  0.90086469592E+03  0.90949523291E+03  0.12499751332E+03 0.  0.
    9000005    1    3    3    0    0  0.21974435636E+02 -0.55050643451E+02  0.59442674010E+03  0.59737559250E+03  0.10000000000E+01 0.  0.
    9000005    1    3    3    0    0 -0.21974435636E+02  0.55050643451E+02  0.30643795582E+03  0.31211964041E+03  0.10000000000E+01 0.  0.
<mgrwt>
<rscale>  0 0.12499751E+03</rscale>
<asrwt>0</asrwt>
<pdfrwt beam="1">  1        4 0.13925844E+00 0.12499751E+03</pdfrwt>
<pdfrwt beam="2">  1       -4 0.66388753E-03 0.12499751E+03</pdfrwt>
<totfact> 0.33800774E+03</totfact>
</mgrwt>
</event>
<event>
 5    1  0.3227866E-002  0.1249998E+03  0.7818608E-02  0.1235070E+00
          4   -1    0    0  501    0  0.00000000000E+00  0.00000000000E+00  0.22800323528E+02  0.22835666248E+02  0.12700000000E+01 0. -1.
         -4   -1    0    0    0  501 -0.00000000000E+00 -0.00000000000E+00 -0.17115328520E+03  0.17115799699E+03  0.12700000000E+01 0. -1.
         25    2    1    2    0    0  0.00000000000E+00  0.00000000000E+00 -0.14835296167E+03  0.19399366324E+03  0.12499976056E+03 0.  0.
    9000005    1    3    3    0    0 -0.57213068571E+02 -0.10987303553E+02 -0.10926498518E+03  0.12383009747E+03  0.10000000000E+01 0.  0.
    9000005    1    3    3    0    0  0.57213068571E+02  0.10987303553E+02 -0.39087976493E+02  0.70163565766E+02  0.10000000000E+01 0.  0.
<mgrwt>
<rscale>  0 0.12499976E+03</rscale>
<asrwt>0</asrwt>
<pdfrwt beam="1">  1        4 0.35108233E-02 0.12499976E+03</pdfrwt>
<pdfrwt beam="2">  1       -4 0.26334355E-01 0.12499976E+03</pdfrwt>
<totfact> 0.91157526E+03</totfact>
</mgrwt>
</event>
<event>
 5    1  0.3227866E-002  0.1250000E+03  0.7818608E-02  0.1235069E+00
          4   -1    0    0  501    0  0.00000000000E+00  0.00000000000E+00  0.33643697302E+03  0.33643937004E+03  0.12700000000E+01 0. -1.
         -4   -1    0    0    0  501 -0.00000000000E+00 -0.00000000000E+00 -0.11573463427E+02  0.11642935871E+02  0.12700000000E+01 0. -1.
         25    2    1    2    0    0  0.00000000000E+00  0.00000000000E+00  0.32486350959E+03  0.34808230591E+03  0.12499996730E+03 0.  0.
    9000005    1    3    3    0    0  0.43010869037E+02  0.12776730850E+02  0.28355861142E+03  0.28708825440E+03  0.10000000000E+01 0.  0.
    9000005    1    3    3    0    0 -0.43010869037E+02 -0.12776730850E+02  0.41304898173E+02  0.60994051510E+02  0.10000000000E+01 0.  0.
<mgrwt>
<rscale>  0 0.12499997E+03</rscale>
<asrwt>0</asrwt>
<pdfrwt beam="1">  1        4 0.51765067E-01 0.12499997E+03</pdfrwt>
<pdfrwt beam="2">  1       -4 0.17860611E-02 0.12499997E+03</pdfrwt>
<totfact> 0.69936088E+03</totfact>
</mgrwt>
</event>
<event>
 5    1  0.3227866E-002  0.1250060E+03  0.7818608E-02  0.1235060E+00
          4   -1    0    0  501    0  0.00000000000E+00  0.00000000000E+00  0.25216228893E+02  0.25248190026E+02  0.12700000000E+01 0. -1.
         -4   -1    0    0    0  501 -0.00000000000E+00 -0.00000000000E+00 -0.15479235698E+03  0.15479756677E+03  0.12700000000E+01 0. -1.
         25    2    1    2    0    0  0.00000000000E+00  0.00000000000E+00 -0.12957612808E+03  0.18004575680E+03  0.12500600614E+03 0.  0.
    9000005    1    3    3    0    0  0.58741817188E+02 -0.68698090797E+01 -0.35701554285E+02  0.69089770167E+02  0.10000000000E+01 0.  0.
    9000005    1    3    3    0    0 -0.58741817188E+02  0.68698090797E+01 -0.93874573799E+02  0.11095598663E+03  0.10000000000E+01 0.  0.
<mgrwt>
<rscale>  0 0.12500601E+03</rscale>
<asrwt>0</asrwt>
<pdfrwt beam="1">  1        4 0.38822792E-02 0.12500601E+03</pdfrwt>
<pdfrwt beam="2">  1       -4 0.23817068E-01 0.12500601E+03</pdfrwt>
<totfact> 0.93596163E+03</totfact>
</mgrwt>
</event>
<event>
 5    1  0.3227866E-002  0.1250131E+03  0.7818608E-02  0.1235049E+00
          4   -1    0    0  501    0  0.00000000000E+00  0.00000000000E+00  0.14302847821E+02  0.14359120996E+02  0.12700000000E+01 0.  1.
         -4   -1    0    0    0  501 -0.00000000000E+00 -0.00000000000E+00 -0.27257291364E+03  0.27257587229E+03  0.12700000000E+01 0.  1.
         25    2    1    2    0    0  0.00000000000E+00  0.00000000000E+00 -0.25827006582E+03  0.28693499328E+03  0.12501305319E+03 0.  0.
    9000005    1    3    3    0    0 -0.42473565125E+01 -0.57841297222E+02 -0.75679573774E+02  0.95352260530E+02  0.10000000000E+01 0.  0.
    9000005    1    3    3    0    0  0.42473565125E+01  0.57841297222E+02 -0.18259049205E+03  0.19158273275E+03  0.10000000000E+01 0.  0.
<mgrwt>
<rscale>  0 0.12501305E+03</rscale>
<asrwt>0</asrwt>
<pdfrwt beam="1">  1        4 0.22049946E-02 0.12501305E+03</pdfrwt>
<pdfrwt beam="2">  1       -4 0.41938847E-01 0.12501305E+03</pdfrwt>
<totfact> 0.77245068E+03</totfact>
</mgrwt>
</event>
<event>
 5    1  0.3227866E-002  0.1249985E+03  0.7818608E-02  0.1235072E+00
         -4   -1    0    0    0  501 -0.00000000000E+00  0.00000000000E+00  0.64966898438E+02  0.64979310497E+02  0.12700000000E+01 0. -1.
          4   -1    0    0  501    0  0.00000000000E+00 -0.00000000000E+00 -0.60100440631E+02  0.60113857505E+02  0.12700000000E+01 0. -1.
         25    2    1    2    0    0  0.00000000000E+00  0.00000000000E+00  0.48664578070E+01  0.12509316800E+03  0.12499847307E+03 0.  0.
    9000005    1    3    3    0    0 -0.28985914527E+02 -0.30260002156E+02 -0.43962474774E+02  0.60741667410E+02  0.10000000000E+01 0.  0.
    9000005    1    3    3    0    0  0.28985914527E+02  0.30260002156E+02  0.48828932581E+02  0.64351500592E+02  0.10000000000E+01 0.  0.
<mgrwt>
<rscale>  0 0.12499847E+03</rscale>
<asrwt>0</asrwt>
<pdfrwt beam="2">  1        4 0.92482085E-02 0.12499847E+03</pdfrwt>
<pdfrwt beam="1">  1       -4 0.99968943E-02 0.12499847E+03</pdfrwt>
<totfact> 0.10451200E+04</totfact>
</mgrwt>
</event>
<event>
 5    1  0.3227866E-002  0.1249965E+03  0.7818608E-02  0.1235075E+00
          4   -1    0    0  501    0  0.00000000000E+00  0.00000000000E+00  0.30165334384E+02  0.30192056877E+02  0.12700000000E+01 0.  1.
         -4   -1    0    0    0  501 -0.00000000000E+00 -0.00000000000E+00 -0.12940017518E+03  0.12940640725E+03  0.12700000000E+01 0.  1.
         25    2    1    2    0    0  0.00000000000E+00  0.00000000000E+00 -0.99234840799E+02  0.15959846413E+03  0.12499646444E+03 0.  0.
    9000005    1    3    3    0    0  0.26919815003E+02  0.50087920245E+02 -0.16529378080E+02  0.59225809694E+02  0.10000000000E+01 0.  0.
    9000005    1    3    3    0    0 -0.26919815003E+02 -0.50087920245E+02 -0.82705462720E+02  0.10037265443E+03  0.10000000000E+01 0.  0.
<mgrwt>
<rscale>  0 0.12499646E+03</rscale>
<asrwt>0</asrwt>
<pdfrwt beam="1">  1        4 0.46433557E-02 0.12499646E+03</pdfrwt>
<pdfrwt beam="2">  1       -4 0.19910254E-01 0.12499646E+03</pdfrwt>
<totfact> 0.97427997E+03</totfact>
</mgrwt>
</event>
<event>
 5    1  0.3227866E-002  0.1249979E+03  0.7818608E-02  0.1235073E+00
         -4   -1    0    0    0  501 -0.00000000000E+00  0.00000000000E+00  0.14819316033E+03  0.14819860211E+03  0.12700000000E+01 0.  1.
          4   -1    0    0  501    0  0.00000000000E+00 -0.00000000000E+00 -0.26337059976E+02  0.26367662547E+02  0.12700000000E+01 0.  1.
         25    2    1    2    0    0  0.00000000000E+00  0.00000000000E+00  0.12185610035E+03  0.17456626466E+03  0.12499788624E+03 0.  0.
    9000005    1    3    3    0    0  0.90533068703E+01  0.46440929618E+02  0.11793748071E+03  0.12707860427E+03  0.10000000000E+01 0.  0.
    9000005    1    3    3    0    0 -0.90533068703E+01 -0.46440929618E+02  0.39186196477E+01  0.47487660387E+02  0.10000000000E+01 0.  0.
<mgrwt>
<rscale>  0 0.12499789E+03</rscale>
<asrwt>0</asrwt>
<pdfrwt beam="2">  1        4 0.40546280E-02 0.12499789E+03</pdfrwt>
<pdfrwt beam="1">  1       -4 0.22801720E-01 0.12499789E+03</pdfrwt>
<totfact> 0.94608824E+03</totfact>
</mgrwt>
</event>
<event>
 5    1  0.3227866E-002  0.1249974E+03  0.7818608E-02  0.1235073E+00
         -4   -1    0    0    0  501 -0.00000000000E+00  0.00000000000E+00  0.10530863713E+03  0.10531629482E+03  0.12700000000E+01 0.  1.
          4   -1    0    0  501    0  0.00000000000E+00 -0.00000000000E+00 -0.37071936997E+02  0.37093684269E+02  0.12700000000E+01 0.  1.
         25    2    1    2    0    0  0.00000000000E+00  0.00000000000E+00  0.68236700137E+02  0.14240997909E+03  0.12499741957E+03 0.  0.
    9000005    1    3    3    0    0 -0.67034360805E+01 -0.41031224741E+02  0.87271354308E+02  0.96673609335E+02  0.10000000000E+01 0.  0.
    9000005    1    3    3    0    0  0.67034360805E+01  0.41031224741E+02 -0.19034654171E+02  0.45736369756E+02  0.10000000000E+01 0.  0.
<mgrwt>
<rscale>  0 0.12499742E+03</rscale>
<asrwt>0</asrwt>
<pdfrwt beam="2">  1        4 0.57056369E-02 0.12499742E+03</pdfrwt>
<pdfrwt beam="1">  1       -4 0.16203591E-01 0.12499742E+03</pdfrwt>
<totfact> 0.10084466E+04</totfact>
</mgrwt>
</event>
<event>
 5    1  0.3227866E-002  0.1250037E+03  0.7818608E-02  0.1235063E+00
         -4   -1    0    0    0  501 -0.00000000000E+00  0.00000000000E+00  0.14942308092E+01  0.19610266982E+01  0.12700000000E+01 0.  1.
          4   -1    0    0  501    0  0.00000000000E+00 -0.00000000000E+00 -0.22607152248E+04  0.22607155815E+04  0.12700000000E+01 0.  1.
         25    2    1    2    0    0  0.00000000000E+00  0.00000000000E+00 -0.22592209940E+04  0.22626766082E+04  0.12500373476E+03 0.  0.
    9000005    1    3    3    0    0  0.17752154093E+02  0.47202131329E+02 -0.17977026866E+04  0.17984101672E+04  0.10000000000E+01 0.  0.
    9000005    1    3    3    0    0 -0.17752154093E+02 -0.47202131329E+02 -0.46151830741E+03  0.46426644102E+03  0.10000000000E+01 0.  0.
<mgrwt>
<rscale>  0 0.12500373E+03</rscale>
<asrwt>0</asrwt>
<pdfrwt beam="2">  1        4 0.34783591E+00 0.12500373E+03</pdfrwt>
<pdfrwt beam="1">  1       -4 0.26581829E-03 0.12500373E+03</pdfrwt>
<totfact> 0.68100812E+02</totfact>
</mgrwt>
</event>
<event>
 5    1  0.3227866E-002  0.1250005E+03  0.7818608E-02  0.1235069E+00
          4   -1    0    0  501    0  0.00000000000E+00  0.00000000000E+00  0.80200472009E+01  0.81199788857E+01  0.12700000000E+01 0.  1.
         -4   -1    0    0    0  501 -0.00000000000E+00 -0.00000000000E+00 -0.48394798778E+03  0.48394965417E+03  0.12700000000E+01 0.  1.
         25    2    1    2    0    0  0.00000000000E+00  0.00000000000E+00 -0.47592794058E+03  0.49206963306E+03  0.12500047663E+03 0.  0.
    9000005    1    3    3    0    0 -0.68141132366E-01 -0.44510351041E+02 -0.65289097940E+02  0.79024314630E+02  0.10000000000E+01 0.  0.
    9000005    1    3    3    0    0  0.68141132366E-01  0.44510351041E+02 -0.41063884264E+03  0.41304531843E+03  0.10000000000E+01 0.  0.
<mgrwt>
<rscale>  0 0.12500048E+03</rscale>
<asrwt>0</asrwt>
<pdfrwt beam="1">  1        4 0.12416690E-02 0.12500048E+03</pdfrwt>
<pdfrwt beam="2">  1       -4 0.74461329E-01 0.12500048E+03</pdfrwt>
<totfact> 0.56484376E+03</totfact>
</mgrwt>
</event>
<event>
 5    1  0.3227866E-002  0.1250014E+03  0.7818608E-02  0.1235067E+00
          4   -1    0    0  501    0  0.00000000000E+00  0.00000000000E+00  0.28192909449E+03  0.28193195495E+03  0.12700000000E+01 0.  1.
         -4   -1    0    0    0  501 -0.00000000000E+00 -0.00000000000E+00 -0.13823712069E+02  0.13881927653E+02  0.12700000000E+01 0.  1.
         25    2    1    2    0    0  0.00000000000E+00  0.00000000000E+00  0.26810538242E+03  0.29581388260E+03  0.12500142821E+03 0.  0.
    9000005    1    3    3    0    0 -0.10046219060E+02  0.58643407870E+02  0.88818572633E+02  0.10690984355E+03  0.10000000000E+01 0.  0.
    9000005    1    3    3    0    0  0.10046219060E+02 -0.58643407870E+02  0.17928680979E+03  0.18890403905E+03  0.10000000000E+01 0.  0.
<mgrwt>
<rscale>  0 0.12500143E+03</rscale>
<asrwt>0</asrwt>
<pdfrwt beam="1">  1        4 0.43378401E-01 0.12500143E+03</pdfrwt>
<pdfrwt beam="2">  1       -4 0.21314233E-02 0.12500143E+03</pdfrwt>
<totfact> 0.76124543E+03</totfact>
</mgrwt>
</event>
<event>
 5    1  0.3227866E-002  0.1250049E+03  0.7818608E-02  0.1235062E+00
          4   -1    0    0  501    0  0.00000000000E+00  0.00000000000E+00  0.53696857848E+02  0.53711874318E+02  0.12700000000E+01 0. -1.
         -4   -1    0    0    0  501 -0.00000000000E+00 -0.00000000000E+00 -0.72721280652E+02  0.72732369408E+02  0.12700000000E+01 0. -1.
         25    2    1    2    0    0  0.00000000000E+00  0.00000000000E+00 -0.19024422804E+02  0.12644424373E+03  0.12500487234E+03 0.  0.
    9000005    1    3    3    0    0  0.45723530421E+02 -0.39844685241E+02  0.57383401183E+01  0.60927569485E+02  0.10000000000E+01 0.  0.
    9000005    1    3    3    0    0 -0.45723530421E+02  0.39844685241E+02 -0.24762762923E+02  0.65516674241E+02  0.10000000000E+01 0.  0.
<mgrwt>
<rscale>  0 0.12500487E+03</rscale>
<asrwt>0</asrwt>
<pdfrwt beam="1">  1        4 0.82630631E-02 0.12500487E+03</pdfrwt>
<pdfrwt beam="2">  1       -4 0.11189898E-01 0.12500487E+03</pdfrwt>
<totfact> 0.10420098E+04</totfact>
</mgrwt>
</event>
<event>
 5    1  0.3227866E-002  0.1249977E+03  0.7818608E-02  0.1235073E+00
          4   -1    0    0  501    0  0.00000000000E+00  0.00000000000E+00  0.10813990317E+04  0.10813997775E+04  0.12700000000E+01 0. -1.
         -4   -1    0    0    0  501 -0.00000000000E+00 -0.00000000000E+00 -0.34996853259E+01  0.37229957535E+01  0.12700000000E+01 0. -1.
         25    2    1    2    0    0  0.00000000000E+00  0.00000000000E+00  0.10778993464E+04  0.10851227732E+04  0.12499772800E+03 0.  0.
    9000005    1    3    3    0    0 -0.34525798185E+02  0.18232830230E+02  0.11538110189E+03  0.12181241936E+03  0.10000000000E+01 0.  0.
    9000005    1    3    3    0    0  0.34525798185E+02 -0.18232830230E+02  0.96251824450E+03  0.96331035385E+03  0.10000000000E+01 0.  0.
<mgrwt>
<rscale>  0 0.12499773E+03</rscale>
<asrwt>0</asrwt>
<pdfrwt beam="1">  1        4 0.16638656E+00 0.12499773E+03</pdfrwt>
<pdfrwt beam="2">  1       -4 0.55564742E-03 0.12499773E+03</pdfrwt>
<totfact> 0.27924267E+03</totfact>
</mgrwt>
</event>
<event>
 5    1  0.3227866E-002  0.1249939E+03  0.7818608E-02  0.1235079E+00
          4   -1    0    0  501    0  0.00000000000E+00  0.00000000000E+00  0.12364487820E+03  0.12365140034E+03  0.12700000000E+01 0.  1.
         -4   -1    0    0    0  501 -0.00000000000E+00 -0.00000000000E+00 -0.31569298672E+02  0.31594833733E+02  0.12700000000E+01 0.  1.
         25    2    1    2    0    0  0.00000000000E+00  0.00000000000E+00  0.92075579533E+02  0.15524623407E+03  0.12499392324E+03 0.  0.
    9000005    1    3    3    0    0  0.12988264888E+02 -0.32270863109E+00  0.12195491207E+03  0.12264909189E+03  0.10000000000E+01 0.  0.
    9000005    1    3    3    0    0 -0.12988264888E+02  0.32270863109E+00 -0.29879332532E+02  0.32597142179E+02  0.10000000000E+01 0.  0.
<mgrwt>
<rscale>  0 0.12499392E+03</rscale>
<asrwt>0</asrwt>
<pdfrwt beam="1">  1        4 0.19024755E-01 0.12499392E+03</pdfrwt>
<pdfrwt beam="2">  1       -4 0.48592811E-02 0.12499392E+03</pdfrwt>
<totfact> 0.98280612E+03</totfact>
</mgrwt>
</event>
<event>
 5    1  0.3227866E-002  0.1249947E+03  0.7818608E-02  0.1235078E+00
          4   -1    0    0  501    0  0.00000000000E+00  0.00000000000E+00  0.74155603691E+02  0.74166477999E+02  0.12700000000E+01 0. -1.
         -4   -1    0    0    0  501 -0.00000000000E+00 -0.00000000000E+00 -0.52649523550E+02  0.52664838650E+02  0.12700000000E+01 0. -1.
         25    2    1    2    0    0  0.00000000000E+00  0.00000000000E+00  0.21506080141E+02  0.12683131665E+03  0.12499468549E+03 0.  0.
    9000005    1    3    3    0    0 -0.27902177800E+02 -0.46915325144E+02  0.41619391040E+02  0.68649493588E+02  0.10000000000E+01 0.  0.
    9000005    1    3    3    0    0  0.27902177800E+02  0.46915325144E+02 -0.20113310898E+02  0.58181823061E+02  0.10000000000E+01 0.  0.
<mgrwt>
<rscale>  0 0.12499469E+03</rscale>
<asrwt>0</asrwt>
<pdfrwt beam="1">  1        4 0.11410569E-01 0.12499469E+03</pdfrwt>
<pdfrwt beam="2">  1       -4 0.81019413E-02 0.12499469E+03</pdfrwt>
<totfact> 0.10414062E+04</totfact>
</mgrwt>
</event>
<event>
 5    1  0.3227866E-002  0.1250020E+03  0.7818608E-02  0.1235066E+00
         -4   -1    0    0    0  501 -0.00000000000E+00  0.00000000000E+00  0.18604961914E+03  0.18605395369E+03  0.12700000000E+01 0. -1.
          4   -1    0    0  501    0  0.00000000000E+00 -0.00000000000E+00 -0.20972641295E+02  0.21011058586E+02  0.12700000000E+01 0. -1.
         25    2    1    2    0    0  0.00000000000E+00  0.00000000000E+00  0.16507697785E+03  0.20706501227E+03  0.12500204276E+03 0.  0.
    9000005    1    3    3    0    0  0.16043632781E+02 -0.41564126286E+02  0.99469853744E+01  0.45660894262E+02  0.10000000000E+01 0.  0.
    9000005    1    3    3    0    0 -0.16043632781E+02  0.41564126286E+02  0.15512999247E+03  0.16140411801E+03  0.10000000000E+01 0.  0.
<mgrwt>
<rscale>  0 0.12500204E+03</rscale>
<asrwt>0</asrwt>
<pdfrwt beam="2">  1        4 0.32298487E-02 0.12500204E+03</pdfrwt>
<pdfrwt beam="1">  1       -4 0.28626308E-01 0.12500204E+03</pdfrwt>
<totfact> 0.88953392E+03</totfact>
</mgrwt>
</event>
<event>
 5    1  0.3227866E-002  0.1249991E+03  0.7818608E-02  0.1235071E+00
         -4   -1    0    0    0  501 -0.00000000000E+00  0.00000000000E+00  0.17701288950E+03  0.17701744533E+03  0.12700000000E+01 0.  1.
          4   -1    0    0  501    0  0.00000000000E+00 -0.00000000000E+00 -0.22044163727E+02  0.22080716801E+02  0.12700000000E+01 0.  1.
         25    2    1    2    0    0  0.00000000000E+00  0.00000000000E+00  0.15496872578E+03  0.19909816213E+03  0.12499908877E+03 0.  0.
    9000005    1    3    3    0    0  0.60905758676E+02  0.13424901118E+02  0.71222900426E+02  0.94675450646E+02  0.10000000000E+01 0.  0.
    9000005    1    3    3    0    0 -0.60905758676E+02 -0.13424901118E+02  0.83745825349E+02  0.10442271148E+03  0.10000000000E+01 0.  0.
<mgrwt>
<rscale>  0 0.12499909E+03</rscale>
<asrwt>0</asrwt>
<pdfrwt beam="2">  1        4 0.33945721E-02 0.12499909E+03</pdfrwt>
<pdfrwt beam="1">  1       -4 0.27235914E-01 0.12499909E+03</pdfrwt>
<totfact> 0.90289673E+03</totfact>
</mgrwt>
</event>
<event>
 5    1  0.3227866E-002  0.1249981E+03  0.7818608E-02  0.1235072E+00
         -4   -1    0    0    0  501 -0.00000000000E+00  0.00000000000E+00  0.55323004723E+01  0.56762001829E+01  0.12700000000E+01 0.  1.
          4   -1    0    0  501    0  0.00000000000E+00 -0.00000000000E+00 -0.69685017243E+03  0.69685132971E+03  0.12700000000E+01 0.  1.
         25    2    1    2    0    0  0.00000000000E+00  0.00000000000E+00 -0.69131787196E+03  0.70252752989E+03  0.12499812065E+03 0.  0.
    9000005    1    3    3    0    0 -0.47678145314E+01 -0.54626956428E+02 -0.17720947506E+03  0.18550211447E+03  0.10000000000E+01 0.  0.
    9000005    1    3    3    0    0  0.47678145314E+01  0.54626956428E+02 -0.51410839690E+03  0.51702541542E+03  0.10000000000E+01 0.  0.
<mgrwt>
<rscale>  0 0.12499812E+03</rscale>
<asrwt>0</asrwt>
<pdfrwt beam="2">  1        4 0.10721881E+00 0.12499812E+03</pdfrwt>
<pdfrwt beam="1">  1       -4 0.86228193E-03 0.12499812E+03</pdfrwt>
<totfact> 0.42955391E+03</totfact>
</mgrwt>
</event>
<event>
 5    1  0.3227866E-002  0.1249988E+03  0.7818608E-02  0.1235071E+00
          4   -1    0    0  501    0  0.00000000000E+00  0.00000000000E+00  0.29498527286E+01  0.32116243741E+01  0.12700000000E+01 0.  1.
         -4   -1    0    0    0  501 -0.00000000000E+00 -0.00000000000E+00 -0.12676722707E+04  0.12676729069E+04  0.12700000000E+01 0.  1.
         25    2    1    2    0    0  0.00000000000E+00  0.00000000000E+00 -0.12647224180E+04  0.12708845312E+04  0.12499878890E+03 0.  0.
    9000005    1    3    3    0    0 -0.31443416565E+02 -0.41152358179E+02 -0.27680516783E+03  0.28161020217E+03  0.10000000000E+01 0.  0.
    9000005    1    3    3    0    0  0.31443416565E+02  0.41152358179E+02 -0.98791725013E+03  0.98927432906E+03  0.10000000000E+01 0.  0.
<mgrwt>
<rscale>  0 0.12499879E+03</rscale>
<asrwt>0</asrwt>
<pdfrwt beam="1">  1        4 0.47400973E-03 0.12499879E+03</pdfrwt>
<pdfrwt beam="2">  1       -4 0.19504627E+00 0.12499879E+03</pdfrwt>
<totfact> 0.22926965E+03</totfact>
</mgrwt>
</event>
<event>
 5    1  0.3227866E-002  0.1250020E+03  0.7818608E-02  0.1235066E+00
         -4   -1    0    0    0  501 -0.00000000000E+00  0.00000000000E+00  0.15500986041E+04  0.15500991243E+04  0.12700000000E+01 0.  1.
          4   -1    0    0  501    0  0.00000000000E+00 -0.00000000000E+00 -0.23595231926E+01  0.26795987939E+01  0.12700000000E+01 0.  1.
         25    2    1    2    0    0  0.00000000000E+00  0.00000000000E+00  0.15477390809E+04  0.15527787231E+04  0.12500200199E+03 0.  0.
    9000005    1    3    3    0    0  0.38242061283E+01  0.58801673856E+02  0.10323892004E+04  0.10340699795E+04  0.10000000000E+01 0.  0.
    9000005    1    3    3    0    0 -0.38242061283E+01 -0.58801673856E+02  0.51534988051E+03  0.51870874365E+03  0.10000000000E+01 0.  0.
<mgrwt>
<rscale>  0 0.12500200E+03</rscale>
<asrwt>0</asrwt>
<pdfrwt beam="2">  1        4 0.38766555E-03 0.12500200E+03</pdfrwt>
<pdfrwt beam="1">  1       -4 0.23850090E+00 0.12500200E+03</pdfrwt>
<totfact> 0.16915274E+03</totfact>
</mgrwt>
</event>
<event>
 5    1  0.3227866E-002  0.1250026E+03  0.7818608E-02  0.1235065E+00
         -4   -1    0    0    0  501 -0.00000000000E+00  0.00000000000E+00  0.16583012361E+03  0.16583498665E+03  0.12700000000E+01 0. -1.
          4   -1    0    0  501    0  0.00000000000E+00 -0.00000000000E+00 -0.23534380047E+02  0.23568622026E+02  0.12700000000E+01 0. -1.
         25    2    1    2    0    0  0.00000000000E+00  0.00000000000E+00  0.14229574356E+03  0.18940360867E+03  0.12500259334E+03 0.  0.
    9000005    1    3    3    0    0 -0.20996401262E+02  0.27243370007E+02  0.15020520563E+03  0.15409624874E+03  0.10000000000E+01 0.  0.
    9000005    1    3    3    0    0  0.20996401262E+02 -0.27243370007E+02 -0.79094620727E+01  0.35307359935E+02  0.10000000000E+01 0.  0.
<mgrwt>
<rscale>  0 0.12500259E+03</rscale>
<asrwt>0</asrwt>
<pdfrwt beam="2">  1        4 0.36236819E-02 0.12500259E+03</pdfrwt>
<pdfrwt beam="1">  1       -4 0.25515335E-01 0.12500259E+03</pdfrwt>
<totfact> 0.91945846E+03</totfact>
</mgrwt>
</event>
<event>
 5    1  0.3227866E-002  0.1249832E+03  0.7818608E-02  0.1235096E+00
         -4   -1    0    0    0  501 -0.00000000000E+00  0.00000000000E+00  0.14324445006E+03  0.14325007984E+03  0.12700000000E+01 0.  1.
          4   -1    0    0  501    0  0.00000000000E+00 -0.00000000000E+00 -0.27241517604E+02  0.27271105246E+02  0.12700000000E+01 0.  1.
         25    2    1    2    0    0  0.00000000000E+00  0.00000000000E+00  0.11600293246E+03  0.17052118509E+03  0.12498317576E+03 0.  0.
    9000005    1    3    3    0    0 -0.21059926977E+01 -0.43537643873E+02  0.11908178785E+03  0.12681259337E+03  0.10000000000E+01 0.  0.
    9000005    1    3    3    0    0  0.21059926977E+01  0.43537643873E+02 -0.30788553917E+01  0.43708591716E+02  0.10000000000E+01 0.  0.
<mgrwt>
<rscale>  0 0.12498318E+03</rscale>
<asrwt>0</asrwt>
<pdfrwt beam="2">  1        4 0.41937118E-02 0.12498318E+03</pdfrwt>
<pdfrwt beam="1">  1       -4 0.22040317E-01 0.12498318E+03</pdfrwt>
<totfact> 0.95387597E+03</totfact>
</mgrwt>
</event>
<event>
 5    1  0.3227866E-002  0.1249990E+03  0.7818608E-02  0.1235071E+00
          4   -1    0    0  501    0  0.00000000000E+00  0.00000000000E+00  0.26572900839E+02  0.26603232116E+02  0.12700000000E+01 0.  1.
         -4   -1    0    0    0  501 -0.00000000000E+00 -0.00000000000E+00 -0.14688199711E+03  0.14688748747E+03  0.12700000000E+01 0.  1.
         25    2    1    2    0    0  0.00000000000E+00  0.00000000000E+00 -0.12030909627E+03  0.17349071958E+03  0.12499900454E+03 0.  0.
    9000005    1    3    3    0    0  0.48674711452E+02  0.39187812466E+02 -0.60883186244E+02  0.87250642107E+02  0.10000000000E+01 0.  0.
    9000005    1    3    3    0    0 -0.48674711452E+02 -0.39187812466E+02 -0.59425910025E+02  0.86240077477E+02  0.10000000000E+01 0.  0.
<mgrwt>
<rscale>  0 0.12499900E+03</rscale>
<asrwt>0</asrwt>
<pdfrwt beam="1">  1        4 0.40908942E-02 0.12499900E+03</pdfrwt>
<pdfrwt beam="2">  1       -4 0.22599985E-01 0.12499900E+03</pdfrwt>
<totfact> 0.94804108E+03</totfact>
</mgrwt>
</event>
<event>
 5    1  0.3227866E-002  0.1250003E+03  0.7818608E-02  0.1235069E+00
          4   -1    0    0  501    0  0.00000000000E+00  0.00000000000E+00  0.52474052776E+02  0.52489419074E+02  0.12700000000E+01 0.  1.
         -4   -1    0    0    0  501 -0.00000000000E+00 -0.00000000000E+00 -0.74410169756E+02  0.74421006867E+02  0.12700000000E+01 0.  1.
         25    2    1    2    0    0  0.00000000000E+00  0.00000000000E+00 -0.21936116980E+02  0.12691042594E+03  0.12500025194E+03 0.  0.
    9000005    1    3    3    0    0  0.28802895776E+00 -0.58971714767E+02  0.10024455449E+02  0.59826714855E+02  0.10000000000E+01 0.  0.
    9000005    1    3    3    0    0 -0.28802895776E+00  0.58971714767E+02 -0.31960572428E+02  0.67083711087E+02  0.10000000000E+01 0.  0.
<mgrwt>
<rscale>  0 0.12500025E+03</rscale>
<asrwt>0</asrwt>
<pdfrwt beam="1">  1        4 0.80749468E-02 0.12500025E+03</pdfrwt>
<pdfrwt beam="2">  1       -4 0.11449734E-01 0.12500025E+03</pdfrwt>
<totfact> 0.10411033E+04</totfact>
</mgrwt>
</event>
<event>
 5    1  0.3227866E-002  0.1249961E+03  0.7818608E-02  0.1235075E+00
         -4   -1    0    0    0  501 -0.00000000000E+00  0.00000000000E+00  0.10794676981E+02  0.10869128351E+02  0.12700000000E+01 0.  1.
          4   -1    0    0  501    0  0.00000000000E+00 -0.00000000000E+00 -0.36052625982E+03  0.36052849669E+03  0.12700000000E+01 0.  1.
         25    2    1    2    0    0  0.00000000000E+00  0.00000000000E+00 -0.34973158284E+03  0.37139762504E+03  0.12499606332E+03 0.  0.
    9000005    1    3    3    0    0  0.41434495612E+02 -0.41002905290E+02 -0.10796602226E+03  0.12270174258E+03  0.10000000000E+01 0.  0.
    9000005    1    3    3    0    0 -0.41434495612E+02  0.41002905290E+02 -0.24176556058E+03  0.24869588246E+03  0.10000000000E+01 0.  0.
<mgrwt>
<rscale>  0 0.12499606E+03</rscale>
<asrwt>0</asrwt>
<pdfrwt beam="2">  1        4 0.55471468E-01 0.12499606E+03</pdfrwt>
<pdfrwt beam="1">  1       -4 0.16666189E-02 0.12499606E+03</pdfrwt>
<totfact> 0.67438845E+03</totfact>
</mgrwt>
</event>
<event>
 5    1  0.3227866E-002  0.1250033E+03  0.7818608E-02  0.1235064E+00
         -4   -1    0    0    0  501 -0.00000000000E+00  0.00000000000E+00  0.25386303709E+03  0.25386621378E+03  0.12700000000E+01 0. -1.
          4   -1    0    0  501    0  0.00000000000E+00 -0.00000000000E+00 -0.15358565688E+02  0.15410984394E+02  0.12700000000E+01 0. -1.
         25    2    1    2    0    0  0.00000000000E+00  0.00000000000E+00  0.23850447140E+03  0.26927719817E+03  0.12500330627E+03 0.  0.
    9000005    1    3    3    0    0 -0.32599438463E+02  0.13528741093E+02  0.23034734247E+03  0.23303786904E+03  0.10000000000E+01 0.  0.
    9000005    1    3    3    0    0  0.32599438463E+02 -0.13528741093E+02  0.81571289267E+01  0.36239329133E+02  0.10000000000E+01 0.  0.
<mgrwt>
<rscale>  0 0.12500331E+03</rscale>
<asrwt>0</asrwt>
<pdfrwt beam="2">  1        4 0.23671329E-02 0.12500331E+03</pdfrwt>
<pdfrwt beam="1">  1       -4 0.39060127E-01 0.12500331E+03</pdfrwt>
<totfact> 0.79615656E+03</totfact>
</mgrwt>
</event>
<event>
 5    1  0.3227866E-002  0.1249974E+03  0.7818608E-02  0.1235073E+00
         -4   -1    0    0    0  501 -0.00000000000E+00  0.00000000000E+00  0.41310102938E+02  0.41329620186E+02  0.12700000000E+01 0. -1.
          4   -1    0    0  501    0  0.00000000000E+00 -0.00000000000E+00 -0.94509164571E+02  0.94517697221E+02  0.12700000000E+01 0. -1.
         25    2    1    2    0    0  0.00000000000E+00  0.00000000000E+00 -0.53199061633E+02  0.13584731741E+03  0.12499741393E+03 0.  0.
    9000005    1    3    3    0    0  0.81821360052E+01  0.61598215251E+02 -0.19406837259E+02  0.65106933610E+02  0.10000000000E+01 0.  0.
    9000005    1    3    3    0    0 -0.81821360052E+01 -0.61598215251E+02 -0.33792224374E+02  0.70740383797E+02  0.10000000000E+01 0.  0.
<mgrwt>
<rscale>  0 0.12499741E+03</rscale>
<asrwt>0</asrwt>
<pdfrwt beam="2">  1        4 0.14542029E-01 0.12499741E+03</pdfrwt>
<pdfrwt beam="1">  1       -4 0.63575582E-02 0.12499741E+03</pdfrwt>
<totfact> 0.10220838E+04</totfact>
</mgrwt>
</event>
<event>
 5    1  0.3227866E-002  0.1250011E+03  0.7818608E-02  0.1235068E+00
          4   -1    0    0  501    0  0.00000000000E+00  0.00000000000E+00  0.73124692819E+02  0.73135720410E+02  0.12700000000E+01 0.  1.
         -4   -1    0    0    0  501 -0.00000000000E+00 -0.00000000000E+00 -0.53397323160E+02  0.53412423841E+02  0.12700000000E+01 0.  1.
         25    2    1    2    0    0  0.00000000000E+00  0.00000000000E+00  0.19727369660E+02  0.12654814425E+03  0.12500105479E+03 0.  0.
    9000005    1    3    3    0    0 -0.45575683142E+02 -0.32673232770E+02 -0.18057230640E+02  0.58921529274E+02  0.10000000000E+01 0.  0.
    9000005    1    3    3    0    0  0.45575683142E+02  0.32673232770E+02  0.37784600300E+02  0.67626614978E+02  0.10000000000E+01 0.  0.
<mgrwt>
<rscale>  0 0.12500105E+03</rscale>
<asrwt>0</asrwt>
<pdfrwt beam="1">  1        4 0.11251963E-01 0.12500105E+03</pdfrwt>
<pdfrwt beam="2">  1       -4 0.82169826E-02 0.12500105E+03</pdfrwt>
<totfact> 0.10418730E+04</totfact>
</mgrwt>
</event>
<event>
 5    1  0.3227866E-002  0.1249989E+03  0.7818608E-02  0.1235071E+00
         -4   -1    0    0    0  501 -0.00000000000E+00  0.00000000000E+00  0.21406266283E+03  0.21406643015E+03  0.12700000000E+01 0. -1.
          4   -1    0    0  501    0  0.00000000000E+00 -0.00000000000E+00 -0.18221808974E+02  0.18266012764E+02  0.12700000000E+01 0. -1.
         25    2    1    2    0    0  0.00000000000E+00  0.00000000000E+00  0.19584085386E+03  0.23233244292E+03  0.12499889596E+03 0.  0.
    9000005    1    3    3    0    0  0.29237492850E+01  0.11669427470E+01  0.21392430731E+03  0.21394980562E+03  0.10000000000E+01 0.  0.
    9000005    1    3    3    0    0 -0.29237492850E+01 -0.11669427470E+01 -0.18083453454E+02  0.18382637299E+02  0.10000000000E+01 0.  0.
<mgrwt>
<rscale>  0 0.12499890E+03</rscale>
<asrwt>0</asrwt>
<pdfrwt beam="2">  1        4 0.28070453E-02 0.12499890E+03</pdfrwt>
<pdfrwt beam="1">  1       -4 0.32936407E-01 0.12499890E+03</pdfrwt>
<totfact> 0.84954822E+03</totfact>
</mgrwt>
</event>
<event>
 5    1  0.3227866E-002  0.1249983E+03  0.7818608E-02  0.1235072E+00
          4   -1    0    0  501    0  0.00000000000E+00  0.00000000000E+00  0.18507890929E+03  0.18508326657E+03  0.12700000000E+01 0. -1.
         -4   -1    0    0    0  501 -0.00000000000E+00 -0.00000000000E+00 -0.21081558869E+02  0.21119778038E+02  0.12700000000E+01 0. -1.
         25    2    1    2    0    0  0.00000000000E+00  0.00000000000E+00  0.16399735042E+03  0.20620304461E+03  0.12499825863E+03 0.  0.
    9000005    1    3    3    0    0 -0.43053189807E+02  0.15059918283E+02  0.11530288538E+02  0.47056623817E+02  0.10000000000E+01 0.  0.
    9000005    1    3    3    0    0  0.43053189807E+02 -0.15059918283E+02  0.15246706189E+03  0.15914642079E+03  0.10000000000E+01 0.  0.
<mgrwt>
<rscale>  0 0.12499826E+03</rscale>
<asrwt>0</asrwt>
<pdfrwt beam="1">  1        4 0.28476954E-01 0.12499826E+03</pdfrwt>
<pdfrwt beam="2">  1       -4 0.32465918E-02 0.12499826E+03</pdfrwt>
<totfact> 0.89103221E+03</totfact>
</mgrwt>
</event>
<event>
 5    1  0.3227866E-002  0.1250021E+03  0.7818608E-02  0.1235066E+00
          4   -1    0    0  501    0  0.00000000000E+00  0.00000000000E+00  0.28459085249E+03  0.28459368619E+03  0.12700000000E+01 0. -1.
         -4   -1    0    0    0  501 -0.00000000000E+00 -0.00000000000E+00 -0.13694028685E+02  0.13752793230E+02  0.12700000000E+01 0. -1.
         25    2    1    2    0    0  0.00000000000E+00  0.00000000000E+00  0.27089682380E+03  0.29834647942E+03  0.12500213053E+03 0.  0.
    9000005    1    3    3    0    0 -0.39431404188E+02 -0.17543424134E+02  0.24332168432E+03  0.24712152765E+03  0.10000000000E+01 0.  0.
    9000005    1    3    3    0    0  0.39431404188E+02  0.17543424134E+02  0.27575139482E+02  0.51224951772E+02  0.10000000000E+01 0.  0.
<mgrwt>
<rscale>  0 0.12500213E+03</rscale>
<asrwt>0</asrwt>
<pdfrwt beam="1">  1        4 0.43787942E-01 0.12500213E+03</pdfrwt>
<pdfrwt beam="2">  1       -4 0.21115122E-02 0.12500213E+03</pdfrwt>
<totfact> 0.75803139E+03</totfact>
</mgrwt>
</event>
<event>
 5    1  0.3227866E-002  0.1250010E+03  0.7818608E-02  0.1235068E+00
          4   -1    0    0  501    0  0.00000000000E+00  0.00000000000E+00  0.56626406948E+02  0.56640646746E+02  0.12700000000E+01 0. -1.
         -4   -1    0    0    0  501 -0.00000000000E+00 -0.00000000000E+00 -0.68955215594E+02  0.68966909874E+02  0.12700000000E+01 0. -1.
         25    2    1    2    0    0  0.00000000000E+00  0.00000000000E+00 -0.12328808646E+02  0.12560755662E+03  0.12500103503E+03 0.  0.
    9000005    1    3    3    0    0 -0.34593557818E+02  0.34801330964E+02 -0.45049297145E+02  0.66620462718E+02  0.10000000000E+01 0.  0.
    9000005    1    3    3    0    0  0.34593557818E+02 -0.34801330964E+02  0.32720488500E+02  0.58987093902E+02  0.10000000000E+01 0.  0.
<mgrwt>
<rscale>  0 0.12500104E+03</rscale>
<asrwt>0</asrwt>
<pdfrwt beam="1">  1        4 0.87137499E-02 0.12500104E+03</pdfrwt>
<pdfrwt beam="2">  1       -4 0.10610490E-01 0.12500104E+03</pdfrwt>
<totfact> 0.10439337E+04</totfact>
</mgrwt>
</event>
<event>
 5    1  0.3227866E-002  0.1249997E+03  0.7818608E-02  0.1235070E+00
         -4   -1    0    0    0  501 -0.00000000000E+00  0.00000000000E+00  0.60754901499E+01  0.62068092093E+01  0.12700000000E+01 0.  1.
          4   -1    0    0  501    0  0.00000000000E+00 -0.00000000000E+00 -0.63594263052E+03  0.63594389864E+03  0.12700000000E+01 0.  1.
         25    2    1    2    0    0  0.00000000000E+00  0.00000000000E+00 -0.62986714037E+03  0.64215070785E+03  0.12499966827E+03 0.  0.
    9000005    1    3    3    0    0 -0.23992249088E+02 -0.28190928252E+02 -0.57357982373E+03  0.57477401702E+03  0.10000000000E+01 0.  0.
    9000005    1    3    3    0    0  0.23992249088E+02  0.28190928252E+02 -0.56287316644E+02  0.67376690829E+02  0.10000000000E+01 0.  0.
<mgrwt>
<rscale>  0 0.12499967E+03</rscale>
<asrwt>0</asrwt>
<pdfrwt beam="2">  1        4 0.97847475E-01 0.12499967E+03</pdfrwt>
<pdfrwt beam="1">  1       -4 0.94489031E-03 0.12499967E+03</pdfrwt>
<totfact> 0.46310904E+03</totfact>
</mgrwt>
</event>
<event>
 5    1  0.3227866E-002  0.1250006E+03  0.7818608E-02  0.1235068E+00
         -4   -1    0    0    0  501 -0.00000000000E+00  0.00000000000E+00  0.11516355134E+03  0.11517055377E+03  0.12700000000E+01 0. -1.
          4   -1    0    0  501    0  0.00000000000E+00 -0.00000000000E+00 -0.33899571496E+02  0.33923352541E+02  0.12700000000E+01 0. -1.
         25    2    1    2    0    0  0.00000000000E+00  0.00000000000E+00  0.81263979842E+02  0.14909390632E+03  0.12500063392E+03 0.  0.
    9000005    1    3    3    0    0  0.28866953121E+02 -0.13008559862E+02  0.10489390923E+03  0.10957306150E+03  0.10000000000E+01 0.  0.
    9000005    1    3    3    0    0 -0.28866953121E+02  0.13008559862E+02 -0.23629929390E+02  0.39520844818E+02  0.10000000000E+01 0.  0.
<mgrwt>
<rscale>  0 0.12500063E+03</rscale>
<asrwt>0</asrwt>
<pdfrwt beam="2">  1        4 0.52176866E-02 0.12500063E+03</pdfrwt>
<pdfrwt beam="1">  1       -4 0.17719838E-01 0.12500063E+03</pdfrwt>
<totfact> 0.99483202E+03</totfact>
</mgrwt>
</event>
<event>
 5    1  0.3227866E-002  0.1249988E+03  0.7818608E-02  0.1235071E+00
         -4   -1    0    0    0  501 -0.00000000000E+00  0.00000000000E+00  0.75948494589E+03  0.75948600773E+03  0.12700000000E+01 0. -1.
          4   -1    0    0  501    0  0.00000000000E+00 -0.00000000000E+00 -0.50637114010E+01  0.52205433772E+01  0.12700000000E+01 0. -1.
         25    2    1    2    0    0  0.00000000000E+00  0.00000000000E+00  0.75442123449E+03  0.76470655111E+03  0.12499884101E+03 0.  0.
    9000005    1    3    3    0    0 -0.32112083117E+02 -0.41297078905E+02  0.58633812665E+03  0.58866801626E+03  0.10000000000E+01 0.  0.
    9000005    1    3    3    0    0  0.32112083117E+02  0.41297078905E+02  0.16808310784E+03  0.17603853484E+03  0.10000000000E+01 0.  0.
<mgrwt>
<rscale>  0 0.12499884E+03</rscale>
<asrwt>0</asrwt>
<pdfrwt beam="2">  1        4 0.79117828E-03 0.12499884E+03</pdfrwt>
<pdfrwt beam="1">  1       -4 0.11685597E+00 0.12499884E+03</pdfrwt>
<totfact> 0.39881421E+03</totfact>
</mgrwt>
</event>
<event>
 5    1  0.3227866E-002  0.1249997E+03  0.7818608E-02  0.1235070E+00
         -4   -1    0    0    0  501 -0.00000000000E+00  0.00000000000E+00  0.22376943259E+02  0.22412953612E+02  0.12700000000E+01 0. -1.
          4   -1    0    0  501    0  0.00000000000E+00 -0.00000000000E+00 -0.17438619824E+03  0.17439082269E+03  0.12700000000E+01 0. -1.
         25    2    1    2    0    0  0.00000000000E+00  0.00000000000E+00 -0.15200925499E+03  0.19680377630E+03  0.12499965106E+03 0.  0.
    9000005    1    3    3    0    0 -0.40626555997E+02  0.47235480829E+02 -0.83640309057E+02  0.10429961170E+03  0.10000000000E+01 0.  0.
    9000005    1    3    3    0    0  0.40626555997E+02 -0.47235480829E+02 -0.68368945929E+02  0.92504164602E+02  0.10000000000E+01 0.  0.
<mgrwt>
<rscale>  0 0.12499965E+03</rscale>
<asrwt>0</asrwt>
<pdfrwt beam="2">  1        4 0.26831771E-01 0.12499965E+03</pdfrwt>
<pdfrwt beam="1">  1       -4 0.34457325E-02 0.12499965E+03</pdfrwt>
<totfact> 0.90677480E+03</totfact>
</mgrwt>
</event>
<event>
 5    1  0.3227866E-002  0.1249916E+03  0.7818608E-02  0.1235082E+00
         -4   -1    0    0    0  501 -0.00000000000E+00  0.00000000000E+00  0.63330178071E+03  0.63330305411E+03  0.12700000000E+01 0. -1.
          4   -1    0    0  501    0  0.00000000000E+00 -0.00000000000E+00 -0.61005673266E+01  0.62313579344E+01  0.12700000000E+01 0. -1.
         25    2    1    2    0    0  0.00000000000E+00  0.00000000000E+00  0.62720121338E+03  0.63953441205E+03  0.12499160822E+03 0.  0.
    9000005    1    3    3    0    0  0.57238777295E+02 -0.23526226597E+01  0.44130233769E+03  0.44500625357E+03  0.10000000000E+01 0.  0.
    9000005    1    3    3    0    0 -0.57238777295E+02  0.23526226597E+01  0.18589887569E+03  0.19452815848E+03  0.10000000000E+01 0.  0.
<mgrwt>
<rscale>  0 0.12499161E+03</rscale>
<asrwt>0</asrwt>
<pdfrwt beam="2">  1        4 0.94870785E-03 0.12499161E+03</pdfrwt>
<pdfrwt beam="1">  1       -4 0.97441175E-01 0.12499161E+03</pdfrwt>
<totfact> 0.46472040E+03</totfact>
</mgrwt>
</event>
<event>
 5    1  0.3227866E-002  0.1250344E+03  0.7818608E-02  0.1235016E+00
          4   -1    0    0  501    0  0.00000000000E+00  0.00000000000E+00  0.30366416308E+03  0.30366681879E+03  0.12700000000E+01 0.  1.
         -4   -1    0    0    0  501 -0.00000000000E+00 -0.00000000000E+00 -0.12836754642E+02  0.12899425171E+02  0.12700000000E+01 0.  1.
         25    2    1    2    0    0  0.00000000000E+00  0.00000000000E+00  0.29082740843E+03  0.31656624396E+03  0.12503441655E+03 0.  0.
    9000005    1    3    3    0    0  0.42956192012E+02 -0.94785699494E+01  0.32972854666E+02  0.54984423842E+02  0.10000000000E+01 0.  0.
    9000005    1    3    3    0    0 -0.42956192012E+02  0.94785699494E+01  0.25785455377E+03  0.26158182012E+03  0.10000000000E+01 0.  0.
<mgrwt>
<rscale>  0 0.12503442E+03</rscale>
<asrwt>0</asrwt>
<pdfrwt beam="1">  1        4 0.46722589E-01 0.12503442E+03</pdfrwt>
<pdfrwt beam="2">  1       -4 0.19799104E-02 0.12503442E+03</pdfrwt>
<totfact> 0.73510284E+03</totfact>
</mgrwt>
</event>
<event>
 5    1  0.3227866E-002  0.1250049E+03  0.7818608E-02  0.1235062E+00
         -4   -1    0    0    0  501 -0.00000000000E+00  0.00000000000E+00  0.10415232565E+04  0.10415240308E+04  0.12700000000E+01 0. -1.
          4   -1    0    0  501    0  0.00000000000E+00 -0.00000000000E+00 -0.36425097472E+01  0.38575610505E+01  0.12700000000E+01 0. -1.
         25    2    1    2    0    0  0.00000000000E+00  0.00000000000E+00  0.10378807468E+04  0.10453815919E+04  0.12500491229E+03 0.  0.
    9000005    1    3    3    0    0 -0.34571234574E+02  0.19129947623E+02  0.11402284552E+03  0.12067864126E+03  0.10000000000E+01 0.  0.
    9000005    1    3    3    0    0  0.34571234574E+02 -0.19129947623E+02  0.92385790128E+03  0.92470295063E+03  0.10000000000E+01 0.  0.
<mgrwt>
<rscale>  0 0.12500491E+03</rscale>
<asrwt>0</asrwt>
<pdfrwt beam="2">  1        4 0.57698871E-03 0.12500491E+03</pdfrwt>
<pdfrwt beam="1">  1       -4 0.16025077E+00 0.12500491E+03</pdfrwt>
<totfact> 0.29136324E+03</totfact>
</mgrwt>
</event>
<event>
 5    1  0.3227866E-002  0.1250050E+03  0.7818608E-02  0.1235061E+00
         -4   -1    0    0    0  501 -0.00000000000E+00  0.00000000000E+00  0.67889354515E+01  0.69067028722E+01  0.12700000000E+01 0. -1.
          4   -1    0    0  501    0  0.00000000000E+00 -0.00000000000E+00 -0.57036438685E+03  0.57036580077E+03  0.12700000000E+01 0. -1.
         25    2    1    2    0    0  0.00000000000E+00  0.00000000000E+00 -0.56357545140E+03  0.57727250364E+03  0.12500501606E+03 0.  0.
    9000005    1    3    3    0    0 -0.15525482624E+01  0.62323155510E+02 -0.30190511821E+03  0.30827631522E+03  0.10000000000E+01 0.  0.
    9000005    1    3    3    0    0  0.15525482624E+01 -0.62323155510E+02 -0.26167033318E+03  0.26899618842E+03  0.10000000000E+01 0.  0.
<mgrwt>
<rscale>  0 0.12500502E+03</rscale>
<asrwt>0</asrwt>
<pdfrwt beam="2">  1        4 0.87757498E-01 0.12500502E+03</pdfrwt>
<pdfrwt beam="1">  1       -4 0.10536199E-02 0.12500502E+03</pdfrwt>
<totfact> 0.50328874E+03</totfact>
</mgrwt>
</event>
<event>
 5    1  0.3227866E-002  0.1250009E+03  0.7818608E-02  0.1235068E+00
         -4   -1    0    0    0  501 -0.00000000000E+00  0.00000000000E+00  0.31914985563E+02  0.31940244262E+02  0.12700000000E+01 0.  1.
          4   -1    0    0  501    0  0.00000000000E+00 -0.00000000000E+00 -0.12232030542E+03  0.12232689818E+03  0.12700000000E+01 0.  1.
         25    2    1    2    0    0  0.00000000000E+00  0.00000000000E+00 -0.90405319853E+02  0.15426714244E+03  0.12500091751E+03 0.  0.
    9000005    1    3    3    0    0 -0.27827470614E+02 -0.55102342278E+02 -0.33194707908E+02  0.70096539704E+02  0.10000000000E+01 0.  0.
    9000005    1    3    3    0    0  0.27827470614E+02  0.55102342278E+02 -0.57210611945E+02  0.84170602733E+02  0.10000000000E+01 0.  0.
<mgrwt>
<rscale>  0 0.12500092E+03</rscale>
<asrwt>0</asrwt>
<pdfrwt beam="2">  1        4 0.18820958E-01 0.12500092E+03</pdfrwt>
<pdfrwt beam="1">  1       -4 0.49124479E-02 0.12500092E+03</pdfrwt>
<totfact> 0.98457528E+03</totfact>
</mgrwt>
</event>
<event>
 5    1  0.3227866E-002  0.1249983E+03  0.7818608E-02  0.1235072E+00
          4   -1    0    0  501    0  0.00000000000E+00  0.00000000000E+00  0.26553588920E+03  0.26553892625E+03  0.12700000000E+01 0. -1.
         -4   -1    0    0    0  501 -0.00000000000E+00 -0.00000000000E+00 -0.14679887270E+02  0.14734720570E+02  0.12700000000E+01 0. -1.
         25    2    1    2    0    0  0.00000000000E+00  0.00000000000E+00  0.25085600193E+03  0.28027364682E+03  0.12499833357E+03 0.  0.
    9000005    1    3    3    0    0 -0.43059322343E+02 -0.18910751019E+01  0.22688598425E+03  0.23094573228E+03  0.10000000000E+01 0.  0.
    9000005    1    3    3    0    0  0.43059322343E+02  0.18910751019E+01  0.23970017676E+02  0.49327914542E+02  0.10000000000E+01 0.  0.
<mgrwt>
<rscale>  0 0.12499833E+03</rscale>
<asrwt>0</asrwt>
<pdfrwt beam="1">  1        4 0.40856127E-01 0.12499833E+03</pdfrwt>
<pdfrwt beam="2">  1       -4 0.22628958E-02 0.12499833E+03</pdfrwt>
<totfact> 0.78144729E+03</totfact>
</mgrwt>
</event>
<event>
 5    1  0.3227866E-002  0.1250021E+03  0.7818608E-02  0.1235066E+00
          4   -1    0    0  501    0  0.00000000000E+00  0.00000000000E+00  0.29105932698E+03  0.29106209770E+03  0.12700000000E+01 0.  1.
         -4   -1    0    0    0  501 -0.00000000000E+00 -0.00000000000E+00 -0.13388364228E+02  0.13448464474E+02  0.12700000000E+01 0.  1.
         25    2    1    2    0    0  0.00000000000E+00  0.00000000000E+00  0.27767096275E+03  0.30451056218E+03  0.12500207568E+03 0.  0.
    9000005    1    3    3    0    0  0.29715160608E+02 -0.81934952010E+01  0.27126434756E+03  0.27301185027E+03  0.10000000000E+01 0.  0.
    9000005    1    3    3    0    0 -0.29715160608E+02  0.81934952010E+01  0.64066151926E+01  0.31498711907E+02  0.10000000000E+01 0.  0.
<mgrwt>
<rscale>  0 0.12500208E+03</rscale>
<asrwt>0</asrwt>
<pdfrwt beam="1">  1        4 0.44783195E-01 0.12500208E+03</pdfrwt>
<pdfrwt beam="2">  1       -4 0.20645846E-02 0.12500208E+03</pdfrwt>
<totfact> 0.75033045E+03</totfact>
</mgrwt>
</event>
<event>
 5    1  0.3227866E-002  0.1249938E+03  0.7818608E-02  0.1235079E+00
         -4   -1    0    0    0  501 -0.00000000000E+00  0.00000000000E+00  0.26446240957E+02  0.26476717334E+02  0.12700000000E+01 0. -1.
          4   -1    0    0  501    0  0.00000000000E+00 -0.00000000000E+00 -0.14757234804E+03  0.14757781271E+03  0.12700000000E+01 0. -1.
         25    2    1    2    0    0  0.00000000000E+00  0.00000000000E+00 -0.12112610708E+03  0.17405453005E+03  0.12499378230E+03 0.  0.
    9000005    1    3    3    0    0  0.44692249704E+02  0.29170124397E+02 -0.15299811211E+02  0.55528169104E+02  0.10000000000E+01 0.  0.
    9000005    1    3    3    0    0 -0.44692249704E+02 -0.29170124397E+02 -0.10582629587E+03  0.11852636094E+03  0.10000000000E+01 0.  0.
<mgrwt>
<rscale>  0 0.12499378E+03</rscale>
<asrwt>0</asrwt>
<pdfrwt beam="2">  1        4 0.22706202E-01 0.12499378E+03</pdfrwt>
<pdfrwt beam="1">  1       -4 0.40714172E-02 0.12499378E+03</pdfrwt>
<totfact> 0.94711498E+03</totfact>
</mgrwt>
</event>
<event>
 5    1  0.3227866E-002  0.1250002E+03  0.7818608E-02  0.1235069E+00
         -4   -1    0    0    0  501 -0.00000000000E+00  0.00000000000E+00  0.23930732626E+03  0.23931069617E+03  0.12700000000E+01 0. -1.
          4   -1    0    0  501    0  0.00000000000E+00 -0.00000000000E+00 -0.16295007689E+02  0.16344423379E+02  0.12700000000E+01 0. -1.
         25    2    1    2    0    0  0.00000000000E+00  0.00000000000E+00  0.22301231857E+03  0.25565511955E+03  0.12500018367E+03 0.  0.
    9000005    1    3    3    0    0 -0.61526896349E+02 -0.26983802604E+01  0.89820728911E+02  0.10891098922E+03  0.10000000000E+01 0.  0.
    9000005    1    3    3    0    0  0.61526896349E+02  0.26983802604E+01  0.13319158966E+03  0.14674413033E+03  0.10000000000E+01 0.  0.
<mgrwt>
<rscale>  0 0.12500018E+03</rscale>
<asrwt>0</asrwt>
<pdfrwt beam="2">  1        4 0.25109849E-02 0.12500018E+03</pdfrwt>
<pdfrwt beam="1">  1       -4 0.36820569E-01 0.12500018E+03</pdfrwt>
<totfact> 0.81519364E+03</totfact>
</mgrwt>
</event>
<event>
 5    1  0.3227866E-002  0.1249973E+03  0.7818608E-02  0.1235074E+00
         -4   -1    0    0    0  501 -0.00000000000E+00  0.00000000000E+00  0.15996206273E+04  0.15996211315E+04  0.12700000000E+01 0. -1.
          4   -1    0    0  501    0  0.00000000000E+00 -0.00000000000E+00 -0.22762120494E+01  0.26065381819E+01  0.12700000000E+01 0. -1.
         25    2    1    2    0    0  0.00000000000E+00  0.00000000000E+00  0.15973444153E+04  0.16022276697E+04  0.12499729759E+03 0.  0.
    9000005    1    3    3    0    0  0.16954891301E+02  0.19386884557E+02  0.68854944861E+02  0.73520902223E+02  0.10000000000E+01 0.  0.
    9000005    1    3    3    0    0 -0.16954891301E+02 -0.19386884557E+02  0.15284894704E+04  0.15287067675E+04  0.10000000000E+01 0.  0.
<mgrwt>
<rscale>  0 0.12499730E+03</rscale>
<asrwt>0</asrwt>
<pdfrwt beam="2">  1        4 0.37563444E-03 0.12499730E+03</pdfrwt>
<pdfrwt beam="1">  1       -4 0.24612126E+00 0.12499730E+03</pdfrwt>
<totfact> 0.16006838E+03</totfact>
</mgrwt>
</event>
<event>
 5    1  0.3227866E-002  0.1249984E+03  0.7818608E-02  0.1235072E+00
          4   -1    0    0  501    0  0.00000000000E+00  0.00000000000E+00  0.53332266851E+03  0.53332418063E+03  0.12700000000E+01 0.  1.
         -4   -1    0    0    0  501 -0.00000000000E+00 -0.00000000000E+00 -0.72675883628E+01  0.73777192012E+01  0.12700000000E+01 0.  1.
         25    2    1    2    0    0  0.00000000000E+00  0.00000000000E+00  0.52605508015E+03  0.54070189984E+03  0.12499838853E+03 0.  0.
    9000005    1    3    3    0    0  0.31960311614E+02  0.39610618202E+02  0.41987035009E+03  0.42294511876E+03  0.10000000000E+01 0.  0.
    9000005    1    3    3    0    0 -0.31960311614E+02 -0.39610618202E+02  0.10618473006E+03  0.11775678108E+03  0.10000000000E+01 0.  0.
<mgrwt>
<rscale>  0 0.12499839E+03</rscale>
<asrwt>0</asrwt>
<pdfrwt beam="1">  1        4 0.82058231E-01 0.12499839E+03</pdfrwt>
<pdfrwt beam="2">  1       -4 0.11266784E-02 0.12499839E+03</pdfrwt>
<totfact> 0.52841009E+03</totfact>
</mgrwt>
</event>
<event>
 5    1  0.3227866E-002  0.1249997E+03  0.7818608E-02  0.1235070E+00
         -4   -1    0    0    0  501 -0.00000000000E+00  0.00000000000E+00  0.54285601621E+03  0.54285750178E+03  0.12700000000E+01 0. -1.
          4   -1    0    0  501    0  0.00000000000E+00 -0.00000000000E+00 -0.71381567469E+01  0.72502539089E+01  0.12700000000E+01 0. -1.
         25    2    1    2    0    0  0.00000000000E+00  0.00000000000E+00  0.53571785947E+03  0.55010775569E+03  0.12499967167E+03 0.  0.
    9000005    1    3    3    0    0 -0.54790033562E+02 -0.26650017799E+01  0.13611324764E+03  0.14675444183E+03  0.10000000000E+01 0.  0.
    9000005    1    3    3    0    0  0.54790033562E+02  0.26650017799E+01  0.39960461183E+03  0.40335331386E+03  0.10000000000E+01 0.  0.
<mgrwt>
<rscale>  0 0.12499967E+03</rscale>
<asrwt>0</asrwt>
<pdfrwt beam="2">  1        4 0.11069150E-02 0.12499967E+03</pdfrwt>
<pdfrwt beam="1">  1       -4 0.83525054E-01 0.12499967E+03</pdfrwt>
<totfact> 0.52176792E+03</totfact>
</mgrwt>
</event>
<event>
 5    1  0.3227866E-002  0.1250013E+03  0.7818608E-02  0.1235067E+00
          4   -1    0    0  501    0  0.00000000000E+00  0.00000000000E+00  0.50992056637E+01  0.52549784396E+01  0.12700000000E+01 0. -1.
         -4   -1    0    0    0  501 -0.00000000000E+00 -0.00000000000E+00 -0.75438512702E+03  0.75438619604E+03  0.12700000000E+01 0. -1.
         25    2    1    2    0    0  0.00000000000E+00  0.00000000000E+00 -0.74928592136E+03  0.75964117447E+03  0.12500128805E+03 0.  0.
    9000005    1    3    3    0    0 -0.19595573817E+02  0.52782962749E+02 -0.20985437424E+03  0.21727836077E+03  0.10000000000E+01 0.  0.
    9000005    1    3    3    0    0  0.19595573817E+02 -0.52782962749E+02 -0.53943154711E+03  0.54236281371E+03  0.10000000000E+01 0.  0.
<mgrwt>
<rscale>  0 0.12500129E+03</rscale>
<asrwt>0</asrwt>
<pdfrwt beam="1">  1        4 0.79655853E-03 0.12500129E+03</pdfrwt>
<pdfrwt beam="2">  1       -4 0.11607123E+00 0.12500129E+03</pdfrwt>
<totfact> 0.40116089E+03</totfact>
</mgrwt>
</event>
<event>
 5    1  0.3227866E-002  0.1249940E+03  0.7818608E-02  0.1235079E+00
         -4   -1    0    0    0  501 -0.00000000000E+00  0.00000000000E+00  0.35996895543E+03  0.35997119576E+03  0.12700000000E+01 0. -1.
          4   -1    0    0  501    0  0.00000000000E+00 -0.00000000000E+00 -0.10811141070E+02  0.10885479835E+02  0.12700000000E+01 0. -1.
         25    2    1    2    0    0  0.00000000000E+00  0.00000000000E+00  0.34915781436E+03  0.37085667559E+03  0.12499397786E+03 0.  0.
    9000005    1    3    3    0    0  0.96861181246E+01  0.25312047895E+02  0.75195445682E+01  0.28143635221E+02  0.10000000000E+01 0.  0.
    9000005    1    3    3    0    0 -0.96861181246E+01 -0.25312047895E+02  0.34163826980E+03  0.34271304037E+03  0.10000000000E+01 0.  0.
<mgrwt>
<rscale>  0 0.12499398E+03</rscale>
<asrwt>0</asrwt>
<pdfrwt beam="2">  1        4 0.16691431E-02 0.12499398E+03</pdfrwt>
<pdfrwt beam="1">  1       -4 0.55385733E-01 0.12499398E+03</pdfrwt>
<totfact> 0.67498390E+03</totfact>
</mgrwt>
</event>
<event>
 5    1  0.3227866E-002  0.1250003E+03  0.7818608E-02  0.1235069E+00
          4   -1    0    0  501    0  0.00000000000E+00  0.00000000000E+00  0.34195640247E+03  0.34195876081E+03  0.12700000000E+01 0. -1.
         -4   -1    0    0    0  501 -0.00000000000E+00 -0.00000000000E+00 -0.11385596944E+02  0.11456208700E+02  0.12700000000E+01 0. -1.
         25    2    1    2    0    0  0.00000000000E+00  0.00000000000E+00  0.33057080553E+03  0.35341496951E+03  0.12500033281E+03 0.  0.
    9000005    1    3    3    0    0  0.10510136750E+02  0.22260469273E+02  0.28864161381E+01  0.24805702265E+02  0.10000000000E+01 0.  0.
    9000005    1    3    3    0    0 -0.10510136750E+02 -0.22260469273E+02  0.32768438939E+03  0.32860926724E+03  0.10000000000E+01 0.  0.
<mgrwt>
<rscale>  0 0.12500033E+03</rscale>
<asrwt>0</asrwt>
<pdfrwt beam="1">  1        4 0.52614284E-01 0.12500033E+03</pdfrwt>
<pdfrwt beam="2">  1       -4 0.17572436E-02 0.12500033E+03</pdfrwt>
<totfact> 0.69349986E+03</totfact>
</mgrwt>
</event>
<event>
 5    1  0.3227866E-002  0.1249892E+03  0.7818608E-02  0.1235086E+00
         -4   -1    0    0    0  501 -0.00000000000E+00  0.00000000000E+00  0.76967868857E+02  0.76978345893E+02  0.12700000000E+01 0.  1.
          4   -1    0    0  501    0  0.00000000000E+00 -0.00000000000E+00 -0.50721045217E+02  0.50736942438E+02  0.12700000000E+01 0.  1.
         25    2    1    2    0    0  0.00000000000E+00  0.00000000000E+00  0.26246823640E+02  0.12771528833E+03  0.12498919602E+03 0.  0.
    9000005    1    3    3    0    0 -0.16165866236E+02  0.21759056867E+02  0.70652193812E+02  0.75680408808E+02  0.10000000000E+01 0.  0.
    9000005    1    3    3    0    0  0.16165866236E+02 -0.21759056867E+02 -0.44405370171E+02  0.52034879523E+02  0.10000000000E+01 0.  0.
<mgrwt>
<rscale>  0 0.12498920E+03</rscale>
<asrwt>0</asrwt>
<pdfrwt beam="2">  1        4 0.78052665E-02 0.12498920E+03</pdfrwt>
<pdfrwt beam="1">  1       -4 0.11843239E-01 0.12498920E+03</pdfrwt>
<totfact> 0.10396176E+04</totfact>
</mgrwt>
</event>
<event>
 5    1  0.3227866E-002  0.1249988E+03  0.7818608E-02  0.1235071E+00
          4   -1    0    0  501    0  0.00000000000E+00  0.00000000000E+00  0.57371258650E+02  0.57385313619E+02  0.12700000000E+01 0.  1.
         -4   -1    0    0    0  501 -0.00000000000E+00 -0.00000000000E+00 -0.68057640012E+02  0.68069488495E+02  0.12700000000E+01 0.  1.
         25    2    1    2    0    0  0.00000000000E+00  0.00000000000E+00 -0.10686381362E+02  0.12545480211E+03  0.12499883450E+03 0.  0.
    9000005    1    3    3    0    0 -0.22784442391E+02 -0.52615421490E+02 -0.30286690407E+02  0.64852116461E+02  0.10000000000E+01 0.  0.
    9000005    1    3    3    0    0  0.22784442391E+02  0.52615421490E+02  0.19600309045E+02  0.60602685653E+02  0.10000000000E+01 0.  0.
<mgrwt>
<rscale>  0 0.12499883E+03</rscale>
<asrwt>0</asrwt>
<pdfrwt beam="1">  1        4 0.88283401E-02 0.12499883E+03</pdfrwt>
<pdfrwt beam="2">  1       -4 0.10472399E-01 0.12499883E+03</pdfrwt>
<totfact> 0.10443228E+04</totfact>
</mgrwt>
</event>
<event>
 5    1  0.3227866E-002  0.1249982E+03  0.7818608E-02  0.1235072E+00
         -4   -1    0    0    0  501 -0.00000000000E+00  0.00000000000E+00  0.44771378873E+01  0.46537795029E+01  0.12700000000E+01 0. -1.
          4   -1    0    0  501    0  0.00000000000E+00 -0.00000000000E+00 -0.85540751703E+03  0.85540845980E+03  0.12700000000E+01 0. -1.
         25    2    1    2    0    0  0.00000000000E+00  0.00000000000E+00 -0.85093037914E+03  0.86006223930E+03  0.12499818127E+03 0.  0.
    9000005    1    3    3    0    0  0.43868243518E+01  0.54753470692E+02 -0.63049656831E+03  0.63288554212E+03  0.10000000000E+01 0.  0.
    9000005    1    3    3    0    0 -0.43868243518E+01 -0.54753470692E+02 -0.22043381084E+03  0.22717669718E+03  0.10000000000E+01 0.  0.
<mgrwt>
<rscale>  0 0.12499818E+03</rscale>
<asrwt>0</asrwt>
<pdfrwt beam="2">  1        4 0.13161469E+00 0.12499818E+03</pdfrwt>
<pdfrwt beam="1">  1       -4 0.70245146E-03 0.12499818E+03</pdfrwt>
<totfact> 0.35720520E+03</totfact>
</mgrwt>
</event>
<event>
 5    1  0.3227866E-002  0.1250003E+03  0.7818608E-02  0.1235069E+00
          4   -1    0    0  501    0  0.00000000000E+00  0.00000000000E+00  0.15106335338E+02  0.15159626227E+02  0.12700000000E+01 0. -1.
         -4   -1    0    0    0  501 -0.00000000000E+00 -0.00000000000E+00 -0.25807464800E+03  0.25807777286E+03  0.12700000000E+01 0. -1.
         25    2    1    2    0    0  0.00000000000E+00  0.00000000000E+00 -0.24296831267E+03  0.27323739908E+03  0.12500030119E+03 0.  0.
    9000005    1    3    3    0    0 -0.39305336545E+02  0.27725906330E+02 -0.34277303502E+02  0.59072573147E+02  0.10000000000E+01 0.  0.
    9000005    1    3    3    0    0  0.39305336545E+02 -0.27725906330E+02 -0.20869100916E+03  0.21416482594E+03  0.10000000000E+01 0.  0.
<mgrwt>
<rscale>  0 0.12500030E+03</rscale>
<asrwt>0</asrwt>
<pdfrwt beam="1">  1        4 0.23283914E-02 0.12500030E+03</pdfrwt>
<pdfrwt beam="2">  1       -4 0.39708128E-01 0.12500030E+03</pdfrwt>
<totfact> 0.79082878E+03</totfact>
</mgrwt>
</event>
<event>
 5    1  0.3227866E-002  0.1249997E+03  0.7818608E-02  0.1235070E+00
          4   -1    0    0  501    0  0.00000000000E+00  0.00000000000E+00  0.61744696452E+03  0.61744827062E+03  0.12700000000E+01 0.  1.
         -4   -1    0    0    0  501 -0.00000000000E+00 -0.00000000000E+00 -0.62613646494E+01  0.63888643179E+01  0.12700000000E+01 0.  1.
         25    2    1    2    0    0  0.00000000000E+00  0.00000000000E+00  0.61118559987E+03  0.62383713494E+03  0.12499973377E+03 0.  0.
    9000005    1    3    3    0    0  0.89409174081E+01 -0.54505330205E+02  0.45147711384E+03  0.45484431990E+03  0.10000000000E+01 0.  0.
    9000005    1    3    3    0    0 -0.89409174081E+01  0.54505330205E+02  0.15970848603E+03  0.16899281504E+03  0.10000000000E+01 0.  0.
<mgrwt>
<rscale>  0 0.12499973E+03</rscale>
<asrwt>0</asrwt>
<pdfrwt beam="1">  1        4 0.95001789E-01 0.12499973E+03</pdfrwt>
<pdfrwt beam="2">  1       -4 0.97319459E-03 0.12499973E+03</pdfrwt>
<totfact> 0.47396962E+03</totfact>
</mgrwt>
</event>
<event>
 5    1  0.3227866E-002  0.1250000E+03  0.7818608E-02  0.1235069E+00
          4   -1    0    0  501    0  0.00000000000E+00  0.00000000000E+00  0.20590730442E+02  0.20629858946E+02  0.12700000000E+01 0.  1.
         -4   -1    0    0    0  501 -0.00000000000E+00 -0.00000000000E+00 -0.18948781336E+03  0.18949206926E+03  0.12700000000E+01 0.  1.
         25    2    1    2    0    0  0.00000000000E+00  0.00000000000E+00 -0.16889708292E+03  0.21012192820E+03  0.12500000038E+03 0.  0.
    9000005    1    3    3    0    0 -0.51478466879E+02 -0.34733875966E+02 -0.96188362554E+02  0.11449749247E+03  0.10000000000E+01 0.  0.
    9000005    1    3    3    0    0  0.51478466879E+02  0.34733875966E+02 -0.72708720365E+02  0.95624435731E+02  0.10000000000E+01 0.  0.
<mgrwt>
<rscale>  0 0.12500000E+03</rscale>
<asrwt>0</asrwt>
<pdfrwt beam="1">  1        4 0.31711421E-02 0.12500000E+03</pdfrwt>
<pdfrwt beam="2">  1       -4 0.29155307E-01 0.12500000E+03</pdfrwt>
<totfact> 0.88455972E+03</totfact>
</mgrwt>
</event>
<event>
 5    1  0.3227866E-002  0.1250048E+03  0.7818608E-02  0.1235062E+00
          4   -1    0    0  501    0  0.00000000000E+00  0.00000000000E+00  0.17941459654E+03  0.17941909138E+03  0.12700000000E+01 0.  1.
         -4   -1    0    0    0  501 -0.00000000000E+00 -0.00000000000E+00 -0.21750565200E+02  0.21787610850E+02  0.12700000000E+01 0.  1.
         25    2    1    2    0    0  0.00000000000E+00  0.00000000000E+00  0.15766403134E+03  0.20120670223E+03  0.12500476089E+03 0.  0.
    9000005    1    3    3    0    0 -0.56562004076E+01 -0.16603683401E+02 -0.17714984258E+02  0.24949861178E+02  0.10000000000E+01 0.  0.
    9000005    1    3    3    0    0  0.56562004076E+01  0.16603683401E+02  0.17537901560E+03  0.17625684106E+03  0.10000000000E+01 0.  0.
<mgrwt>
<rscale>  0 0.12500476E+03</rscale>
<asrwt>0</asrwt>
<pdfrwt beam="1">  1        4 0.27605441E-01 0.12500476E+03</pdfrwt>
<pdfrwt beam="2">  1       -4 0.33494363E-02 0.12500476E+03</pdfrwt>
<totfact> 0.89922805E+03</totfact>
</mgrwt>
</event>
<event>
 5    1  0.3227866E-002  0.1249991E+03  0.7818608E-02  0.1235071E+00
         -4   -1    0    0    0  501 -0.00000000000E+00  0.00000000000E+00  0.66556324830E+02  0.66568440532E+02  0.12700000000E+01 0.  1.
          4   -1    0    0  501    0  0.00000000000E+00 -0.00000000000E+00 -0.58665757152E+02  0.58679502062E+02  0.12700000000E+01 0.  1.
         25    2    1    2    0    0  0.00000000000E+00  0.00000000000E+00  0.78905676775E+01  0.12524794259E+03  0.12499914426E+03 0.  0.
    9000005    1    3    3    0    0 -0.23586822642E+02  0.15462556026E+02 -0.51931002367E+02  0.59103788779E+02  0.10000000000E+01 0.  0.
    9000005    1    3    3    0    0  0.23586822642E+02 -0.15462556026E+02  0.59821570045E+02  0.66144153814E+02  0.10000000000E+01 0.  0.
<mgrwt>
<rscale>  0 0.12499914E+03</rscale>
<asrwt>0</asrwt>
<pdfrwt beam="2">  1        4 0.90274904E-02 0.12499914E+03</pdfrwt>
<pdfrwt beam="1">  1       -4 0.10241424E-01 0.12499914E+03</pdfrwt>
<totfact> 0.10447682E+04</totfact>
</mgrwt>
</event>
<event>
 5    1  0.3227866E-002  0.1249989E+03  0.7818608E-02  0.1235071E+00
         -4   -1    0    0    0  501 -0.00000000000E+00  0.00000000000E+00  0.22617395818E+04  0.22617399384E+04  0.12700000000E+01 0.  1.
          4   -1    0    0  501    0  0.00000000000E+00 -0.00000000000E+00 -0.14931915211E+01  0.19602349142E+01  0.12700000000E+01 0.  1.
         25    2    1    2    0    0  0.00000000000E+00  0.00000000000E+00  0.22602463903E+04  0.22637001733E+04  0.12499891888E+03 0.  0.
    9000005    1    3    3    0    0  0.58855591444E+02  0.18889565697E+02  0.12964828801E+04  0.12979559525E+04  0.10000000000E+01 0.  0.
    9000005    1    3    3    0    0 -0.58855591444E+02 -0.18889565697E+02  0.96376351023E+03  0.96574422079E+03  0.10000000000E+01 0.  0.
<mgrwt>
<rscale>  0 0.12499892E+03</rscale>
<asrwt>0</asrwt>
<pdfrwt beam="2">  1        4 0.26567500E-03 0.12499892E+03</pdfrwt>
<pdfrwt beam="1">  1       -4 0.34799670E+00 0.12499892E+03</pdfrwt>
<totfact> 0.68001399E+02</totfact>
</mgrwt>
</event>
<event>
 5    1  0.3227866E-002  0.1249968E+03  0.7818608E-02  0.1235074E+00
         -4   -1    0    0    0  501 -0.00000000000E+00  0.00000000000E+00  0.44460214763E+02  0.44478349753E+02  0.12700000000E+01 0. -1.
          4   -1    0    0  501    0  0.00000000000E+00 -0.00000000000E+00 -0.87814258446E+02  0.87823441554E+02  0.12700000000E+01 0. -1.
         25    2    1    2    0    0  0.00000000000E+00  0.00000000000E+00 -0.43354043682E+02  0.13230179131E+03  0.12499676348E+03 0.  0.
    9000005    1    3    3    0    0 -0.21352078900E+02 -0.43691296389E+02  0.19862023583E+02  0.52538943978E+02  0.10000000000E+01 0.  0.
    9000005    1    3    3    0    0  0.21352078900E+02  0.43691296389E+02 -0.63216067266E+02  0.79762847329E+02  0.10000000000E+01 0.  0.
<mgrwt>
<rscale>  0 0.12499676E+03</rscale>
<asrwt>0</asrwt>
<pdfrwt beam="2">  1        4 0.13511987E-01 0.12499676E+03</pdfrwt>
<pdfrwt beam="1">  1       -4 0.68421344E-02 0.12499676E+03</pdfrwt>
<totfact> 0.10296013E+04</totfact>
</mgrwt>
</event>
<event>
 5    1  0.3227866E-002  0.1249987E+03  0.7818608E-02  0.1235071E+00
          4   -1    0    0  501    0  0.00000000000E+00  0.00000000000E+00  0.12612448646E+02  0.12676228179E+02  0.12700000000E+01 0.  1.
         -4   -1    0    0    0  501 -0.00000000000E+00 -0.00000000000E+00 -0.30886146336E+03  0.30886407439E+03  0.12700000000E+01 0.  1.
         25    2    1    2    0    0  0.00000000000E+00  0.00000000000E+00 -0.29624901471E+03  0.32154030257E+03  0.12499874982E+03 0.  0.
    9000005    1    3    3    0    0 -0.52144115353E+02  0.14628558831E+02 -0.67919683569E+02  0.86873971450E+02  0.10000000000E+01 0.  0.
    9000005    1    3    3    0    0  0.52144115353E+02 -0.14628558831E+02 -0.22832933114E+03  0.23466633112E+03  0.10000000000E+01 0.  0.
<mgrwt>
<rscale>  0 0.12499875E+03</rscale>
<asrwt>0</asrwt>
<pdfrwt beam="1">  1        4 0.19454839E-02 0.12499875E+03</pdfrwt>
<pdfrwt beam="2">  1       -4 0.47522249E-01 0.12499875E+03</pdfrwt>
<totfact> 0.72975325E+03</totfact>
</mgrwt>
</event>
<event>
 5    1  0.3227866E-002  0.1249995E+03  0.7818608E-02  0.1235070E+00
         -4   -1    0    0    0  501 -0.00000000000E+00  0.00000000000E+00  0.59896511811E+03  0.59896646451E+03  0.12700000000E+01 0. -1.
          4   -1    0    0  501    0  0.00000000000E+00 -0.00000000000E+00 -0.64584158613E+01  0.65820996222E+01  0.12700000000E+01 0. -1.
         25    2    1    2    0    0  0.00000000000E+00  0.00000000000E+00  0.59250670225E+03  0.60554856413E+03  0.12499948527E+03 0.  0.
    9000005    1    3    3    0    0  0.70142585453E+01 -0.29897503259E+02  0.32593007936E+02  0.44792462429E+02  0.10000000000E+01 0.  0.
    9000005    1    3    3    0    0 -0.70142585453E+01  0.29897503259E+02  0.55991369431E+03  0.56075610170E+03  0.10000000000E+01 0.  0.
<mgrwt>
<rscale>  0 0.12499949E+03</rscale>
<asrwt>0</asrwt>
<pdfrwt beam="2">  1        4 0.10032198E-02 0.12499949E+03</pdfrwt>
<pdfrwt beam="1">  1       -4 0.92158130E-01 0.12499949E+03</pdfrwt>
<totfact> 0.48519766E+03</totfact>
</mgrwt>
</event>
<event>
 5    1  0.3227866E-002  0.1250010E+03  0.7818608E-02  0.1235068E+00
         -4   -1    0    0    0  501 -0.00000000000E+00  0.00000000000E+00  0.45262940825E+02  0.45280754324E+02  0.12700000000E+01 0. -1.
          4   -1    0    0  501    0  0.00000000000E+00 -0.00000000000E+00 -0.86263130330E+02  0.86272478546E+02  0.12700000000E+01 0. -1.
         25    2    1    2    0    0  0.00000000000E+00  0.00000000000E+00 -0.41000189505E+02  0.13155323287E+03  0.12500095015E+03 0.  0.
    9000005    1    3    3    0    0 -0.32155619630E+01  0.13365070942E+01  0.45165916477E+02  0.45310993160E+02  0.10000000000E+01 0.  0.
    9000005    1    3    3    0    0  0.32155619630E+01 -0.13365070942E+01 -0.86166105982E+02  0.86242239709E+02  0.10000000000E+01 0.  0.
<mgrwt>
<rscale>  0 0.12500095E+03</rscale>
<asrwt>0</asrwt>
<pdfrwt beam="2">  1        4 0.13273340E-01 0.12500095E+03</pdfrwt>
<pdfrwt beam="1">  1       -4 0.69656187E-02 0.12500095E+03</pdfrwt>
<totfact> 0.10311023E+04</totfact>
</mgrwt>
</event>
<event>
 5    1  0.3227866E-002  0.1250035E+03  0.7818608E-02  0.1235064E+00
         -4   -1    0    0    0  501 -0.00000000000E+00  0.00000000000E+00  0.82134188328E+01  0.83110257443E+01  0.12700000000E+01 0.  1.
          4   -1    0    0  501    0  0.00000000000E+00 -0.00000000000E+00 -0.47271207844E+03  0.47271378444E+03  0.12700000000E+01 0.  1.
         25    2    1    2    0    0  0.00000000000E+00  0.00000000000E+00 -0.46449865960E+03  0.48102481018E+03  0.12500345291E+03 0.  0.
    9000005    1    3    3    0    0  0.21332223133E+02  0.58077959137E+02 -0.19840520513E+03  0.20783103354E+03  0.10000000000E+01 0.  0.
    9000005    1    3    3    0    0 -0.21332223133E+02 -0.58077959137E+02 -0.26609345448E+03  0.27319377664E+03  0.10000000000E+01 0.  0.
<mgrwt>
<rscale>  0 0.12500345E+03</rscale>
<asrwt>0</asrwt>
<pdfrwt beam="2">  1        4 0.72732554E-01 0.12500345E+03</pdfrwt>
<pdfrwt beam="1">  1       -4 0.12712427E-02 0.12500345E+03</pdfrwt>
<totfact> 0.57362913E+03</totfact>
</mgrwt>
</event>
<event>
 5    1  0.3227866E-002  0.1249994E+03  0.7818608E-02  0.1235070E+00
          4   -1    0    0  501    0  0.00000000000E+00  0.00000000000E+00  0.24971158161E+03  0.24971481112E+03  0.12700000000E+01 0.  1.
         -4   -1    0    0    0  501 -0.00000000000E+00 -0.00000000000E+00 -0.15613771590E+02  0.15665336360E+02  0.12700000000E+01 0.  1.
         25    2    1    2    0    0  0.00000000000E+00  0.00000000000E+00  0.23409781002E+03  0.26538014748E+03  0.12499935207E+03 0.  0.
    9000005    1    3    3    0    0 -0.40774198927E+02 -0.17405472961E+01  0.16575705400E+02  0.44060399596E+02  0.10000000000E+01 0.  0.
    9000005    1    3    3    0    0  0.40774198927E+02  0.17405472961E+01  0.21752210462E+03  0.22131974788E+03  0.10000000000E+01 0.  0.
<mgrwt>
<rscale>  0 0.12499935E+03</rscale>
<asrwt>0</asrwt>
<pdfrwt beam="1">  1        4 0.38421380E-01 0.12499935E+03</pdfrwt>
<pdfrwt beam="2">  1       -4 0.24063337E-02 0.12499935E+03</pdfrwt>
<totfact> 0.80158068E+03</totfact>
</mgrwt>
</event>
<event>
 5    1  0.3227866E-002  0.1249949E+03  0.7818608E-02  0.1235077E+00
         -4   -1    0    0    0  501 -0.00000000000E+00  0.00000000000E+00  0.15327814039E+03  0.15328340165E+03  0.12700000000E+01 0. -1.
          4   -1    0    0  501    0  0.00000000000E+00 -0.00000000000E+00 -0.25461094032E+02  0.25492748171E+02  0.12700000000E+01 0. -1.
         25    2    1    2    0    0  0.00000000000E+00  0.00000000000E+00  0.12781704635E+03  0.17877614982E+03  0.12499485751E+03 0.  0.
    9000005    1    3    3    0    0 -0.16631400335E+02  0.23174541799E+02 -0.15613167387E+02  0.32533580506E+02  0.10000000000E+01 0.  0.
    9000005    1    3    3    0    0  0.16631400335E+02 -0.23174541799E+02  0.14343021374E+03  0.14624256931E+03  0.10000000000E+01 0.  0.
<mgrwt>
<rscale>  0 0.12499486E+03</rscale>
<asrwt>0</asrwt>
<pdfrwt beam="2">  1        4 0.39199310E-02 0.12499486E+03</pdfrwt>
<pdfrwt beam="1">  1       -4 0.23584092E-01 0.12499486E+03</pdfrwt>
<totfact> 0.93848587E+03</totfact>
</mgrwt>
</event>
<event>
 5    1  0.3227866E-002  0.1250170E+03  0.7818608E-02  0.1235043E+00
         -4   -1    0    0    0  501 -0.00000000000E+00  0.00000000000E+00  0.38204280960E+01  0.40259869395E+01  0.12700000000E+01 0.  1.
          4   -1    0    0  501    0  0.00000000000E+00 -0.00000000000E+00 -0.99574248443E+03  0.99574329433E+03  0.12700000000E+01 0.  1.
         25    2    1    2    0    0  0.00000000000E+00  0.00000000000E+00 -0.99192205634E+03  0.99976928127E+03  0.12501699854E+03 0.  0.
    9000005    1    3    3    0    0 -0.47813320308E+02 -0.40199763045E+02 -0.47961502903E+03  0.48366694183E+03  0.10000000000E+01 0.  0.
    9000005    1    3    3    0    0  0.47813320308E+02  0.40199763045E+02 -0.51230702731E+03  0.51610233944E+03  0.10000000000E+01 0.  0.
<mgrwt>
<rscale>  0 0.12501700E+03</rscale>
<asrwt>0</asrwt>
<pdfrwt beam="2">  1        4 0.15320682E+00 0.12501700E+03</pdfrwt>
<pdfrwt beam="1">  1       -4 0.60363348E-03 0.12501700E+03</pdfrwt>
<totfact> 0.30600796E+03</totfact>
</mgrwt>
</event>
<event>
 5    1  0.3227866E-002  0.1249924E+03  0.7818608E-02  0.1235081E+00
         -4   -1    0    0    0  501 -0.00000000000E+00  0.00000000000E+00  0.33339773684E+02  0.33363953742E+02  0.12700000000E+01 0. -1.
          4   -1    0    0  501    0  0.00000000000E+00 -0.00000000000E+00 -0.11708052255E+03  0.11708741034E+03  0.12700000000E+01 0. -1.
         25    2    1    2    0    0  0.00000000000E+00  0.00000000000E+00 -0.83740748865E+02  0.15045136408E+03  0.12499239950E+03 0.  0.
    9000005    1    3    3    0    0  0.56624015329E+02 -0.26403544153E+02 -0.43268269766E+02  0.76003746121E+02  0.10000000000E+01 0.  0.
    9000005    1    3    3    0    0 -0.56624015329E+02  0.26403544153E+02 -0.40472479099E+02  0.74447617962E+02  0.10000000000E+01 0.  0.
<mgrwt>
<rscale>  0 0.12499240E+03</rscale>
<asrwt>0</asrwt>
<pdfrwt beam="2">  1        4 0.18014778E-01 0.12499240E+03</pdfrwt>
<pdfrwt beam="1">  1       -4 0.51315858E-02 0.12499240E+03</pdfrwt>
<totfact> 0.99230774E+03</totfact>
</mgrwt>
</event>
<event>
 5    1  0.3227866E-002  0.1249993E+03  0.7818608E-02  0.1235070E+00
          4   -1    0    0  501    0  0.00000000000E+00  0.00000000000E+00  0.82042728948E+03  0.82042827244E+03  0.12700000000E+01 0. -1.
         -4   -1    0    0    0  501 -0.00000000000E+00 -0.00000000000E+00 -0.46754882270E+01  0.48449035244E+01  0.12700000000E+01 0. -1.
         25    2    1    2    0    0  0.00000000000E+00  0.00000000000E+00  0.81575180125E+03  0.82527317596E+03  0.12499925489E+03 0.  0.
    9000005    1    3    3    0    0  0.30983064932E+02 -0.53588820502E+02  0.46447488921E+03  0.46858258045E+03  0.10000000000E+01 0.  0.
    9000005    1    3    3    0    0 -0.30983064932E+02  0.53588820502E+02  0.35127691204E+03  0.35669059552E+03  0.10000000000E+01 0.  0.
<mgrwt>
<rscale>  0 0.12499925E+03</rscale>
<asrwt>0</asrwt>
<pdfrwt beam="1">  1        4 0.12623267E+00 0.12499925E+03</pdfrwt>
<pdfrwt beam="2">  1       -4 0.73241354E-03 0.12499925E+03</pdfrwt>
<totfact> 0.37161667E+03</totfact>
</mgrwt>
</event>
<event>
 5    1  0.3227866E-002  0.1250010E+03  0.7818608E-02  0.1235068E+00
          4   -1    0    0  501    0  0.00000000000E+00  0.00000000000E+00  0.53259224064E+02  0.53274363890E+02  0.12700000000E+01 0. -1.
         -4   -1    0    0    0  501 -0.00000000000E+00 -0.00000000000E+00 -0.73314172774E+02  0.73325171868E+02  0.12700000000E+01 0. -1.
         25    2    1    2    0    0  0.00000000000E+00  0.00000000000E+00 -0.20054948710E+02  0.12659953576E+03  0.12500096594E+03 0.  0.
    9000005    1    3    3    0    0 -0.32387123023E+01  0.50505001367E+02 -0.47157823566E+02  0.69181679251E+02  0.10000000000E+01 0.  0.
    9000005    1    3    3    0    0  0.32387123023E+01 -0.50505001367E+02  0.27102874856E+02  0.57417856508E+02  0.10000000000E+01 0.  0.
<mgrwt>
<rscale>  0 0.12500097E+03</rscale>
<asrwt>0</asrwt>
<pdfrwt beam="1">  1        4 0.81957374E-02 0.12500097E+03</pdfrwt>
<pdfrwt beam="2">  1       -4 0.11281114E-01 0.12500097E+03</pdfrwt>
<totfact> 0.10417631E+04</totfact>
</mgrwt>
</event>
<event>
 5    1  0.3227866E-002  0.1249981E+03  0.7818608E-02  0.1235072E+00
          4   -1    0    0  501    0  0.00000000000E+00  0.00000000000E+00  0.18612598175E+02  0.18655876040E+02  0.12700000000E+01 0. -1.
         -4   -1    0    0    0  501 -0.00000000000E+00 -0.00000000000E+00 -0.20957613414E+03  0.20957998211E+03  0.12700000000E+01 0. -1.
         25    2    1    2    0    0  0.00000000000E+00  0.00000000000E+00 -0.19096353597E+03  0.22823585815E+03  0.12499813949E+03 0.  0.
    9000005    1    3    3    0    0  0.49717623052E+02 -0.35212201485E+02 -0.12087395989E+03  0.13536341956E+03  0.10000000000E+01 0.  0.
    9000005    1    3    3    0    0 -0.49717623052E+02  0.35212201485E+02 -0.70089576080E+02  0.92872438594E+02  0.10000000000E+01 0.  0.
<mgrwt>
<rscale>  0 0.12499814E+03</rscale>
<asrwt>0</asrwt>
<pdfrwt beam="1">  1        4 0.28671019E-02 0.12499814E+03</pdfrwt>
<pdfrwt beam="2">  1       -4 0.32246106E-01 0.12499814E+03</pdfrwt>
<totfact> 0.85584774E+03</totfact>
</mgrwt>
</event>
<event>
 5    1  0.3227866E-002  0.1250059E+03  0.7818608E-02  0.1235060E+00
         -4   -1    0    0    0  501 -0.00000000000E+00  0.00000000000E+00  0.18682219546E+03  0.18682651208E+03  0.12700000000E+01 0. -1.
          4   -1    0    0  501    0  0.00000000000E+00 -0.00000000000E+00 -0.20887056846E+02  0.20925631262E+02  0.12700000000E+01 0. -1.
         25    2    1    2    0    0  0.00000000000E+00  0.00000000000E+00  0.16593513861E+03  0.20775214334E+03  0.12500593121E+03 0.  0.
    9000005    1    3    3    0    0  0.58523027612E+02 -0.14962255693E+02  0.10960045332E+03  0.12514820504E+03  0.10000000000E+01 0.  0.
    9000005    1    3    3    0    0 -0.58523027612E+02  0.14962255693E+02  0.56334685294E+02  0.82603938305E+02  0.10000000000E+01 0.  0.
<mgrwt>
<rscale>  0 0.12500593E+03</rscale>
<asrwt>0</asrwt>
<pdfrwt beam="2">  1        4 0.32166927E-02 0.12500593E+03</pdfrwt>
<pdfrwt beam="1">  1       -4 0.28745175E-01 0.12500593E+03</pdfrwt>
<totfact> 0.88832523E+03</totfact>
</mgrwt>
</event>
<event>
 5    1  0.3227866E-002  0.1249903E+03  0.7818608E-02  0.1235084E+00
          4   -1    0    0  501    0  0.00000000000E+00  0.00000000000E+00  0.81222587028E+02  0.81232515309E+02  0.12700000000E+01 0.  1.
         -4   -1    0    0    0  501 -0.00000000000E+00 -0.00000000000E+00 -0.48064442389E+02  0.48081217977E+02  0.12700000000E+01 0.  1.
         25    2    1    2    0    0  0.00000000000E+00  0.00000000000E+00  0.33158144639E+02  0.12931373329E+03  0.12499031587E+03 0.  0.
    9000005    1    3    3    0    0 -0.58497108786E+01 -0.62080274564E+02  0.20777157376E+02  0.65733323938E+02  0.10000000000E+01 0.  0.
    9000005    1    3    3    0    0  0.58497108786E+01  0.62080274564E+02  0.12380987263E+02  0.63580409348E+02  0.10000000000E+01 0.  0.
<mgrwt>
<rscale>  0 0.12499032E+03</rscale>
<asrwt>0</asrwt>
<pdfrwt beam="1">  1        4 0.12497837E-01 0.12499032E+03</pdfrwt>
<pdfrwt beam="2">  1       -4 0.73965839E-02 0.12499032E+03</pdfrwt>
<totfact> 0.10361475E+04</totfact>
</mgrwt>
</event>
<event>
 5    1  0.3227866E-002  0.1250169E+03  0.7818608E-02  0.1235043E+00
         -4   -1    0    0    0  501 -0.00000000000E+00  0.00000000000E+00  0.79282454060E+01  0.80293197232E+01  0.12700000000E+01 0. -1.
          4   -1    0    0  501    0  0.00000000000E+00 -0.00000000000E+00 -0.48961026599E+03  0.48961191311E+03  0.12700000000E+01 0. -1.
         25    2    1    2    0    0  0.00000000000E+00  0.00000000000E+00 -0.48168202058E+03  0.49764123283E+03  0.12501690952E+03 0.  0.
    9000005    1    3    3    0    0 -0.23972042874E+01 -0.23402909394E+02 -0.47133286249E+03  0.47192066072E+03  0.10000000000E+01 0.  0.
    9000005    1    3    3    0    0  0.23972042874E+01  0.23402909394E+02 -0.10349158095E+02  0.25720572112E+02  0.10000000000E+01 0.  0.
<mgrwt>
<rscale>  0 0.12501691E+03</rscale>
<asrwt>0</asrwt>
<pdfrwt beam="2">  1        4 0.75332535E-01 0.12501691E+03</pdfrwt>
<pdfrwt beam="1">  1       -4 0.12276321E-02 0.12501691E+03</pdfrwt>
<totfact> 0.56027018E+03</totfact>
</mgrwt>
</event>
<event>
 5    1  0.3227866E-002  0.1249798E+03  0.7818608E-02  0.1235101E+00
         -4   -1    0    0    0  501 -0.00000000000E+00  0.00000000000E+00  0.72264681370E+01  0.73372162115E+01  0.12700000000E+01 0. -1.
          4   -1    0    0  501    0  0.00000000000E+00 -0.00000000000E+00 -0.53615207235E+03  0.53615357649E+03  0.12700000000E+01 0. -1.
         25    2    1    2    0    0  0.00000000000E+00  0.00000000000E+00 -0.52892560421E+03  0.54349079270E+03  0.12497978621E+03 0.  0.
    9000005    1    3    3    0    0 -0.58425256665E+02 -0.57374823600E+01 -0.17144304203E+03  0.18121850342E+03  0.10000000000E+01 0.  0.
    9000005    1    3    3    0    0  0.58425256665E+02  0.57374823600E+01 -0.35748256218E+03  0.36227228929E+03  0.10000000000E+01 0.  0.
<mgrwt>
<rscale>  0 0.12497979E+03</rscale>
<asrwt>0</asrwt>
<pdfrwt beam="2">  1        4 0.82493538E-01 0.12497979E+03</pdfrwt>
<pdfrwt beam="1">  1       -4 0.11203995E-02 0.12497979E+03</pdfrwt>
<totfact> 0.52664543E+03</totfact>
</mgrwt>
</event>
<event>
 5    1  0.3227866E-002  0.1249904E+03  0.7818608E-02  0.1235084E+00
          4   -1    0    0  501    0  0.00000000000E+00  0.00000000000E+00  0.24534746327E+03  0.24535075022E+03  0.12700000000E+01 0. -1.
         -4   -1    0    0    0  501 -0.00000000000E+00 -0.00000000000E+00 -0.15890132925E+02  0.15940803755E+02  0.12700000000E+01 0. -1.
         25    2    1    2    0    0  0.00000000000E+00  0.00000000000E+00  0.22945733035E+03  0.26129155397E+03  0.12499043855E+03 0.  0.
    9000005    1    3    3    0    0 -0.24301973296E+02  0.76483559565E+01 -0.45498004892E+01  0.25899496895E+02  0.10000000000E+01 0.  0.
    9000005    1    3    3    0    0  0.24301973296E+02 -0.76483559565E+01  0.23400713083E+03  0.23539205708E+03  0.10000000000E+01 0.  0.
<mgrwt>
<rscale>  0 0.12499044E+03</rscale>
<asrwt>0</asrwt>
<pdfrwt beam="1">  1        4 0.37749912E-01 0.12499044E+03</pdfrwt>
<pdfrwt beam="2">  1       -4 0.24487865E-02 0.12499044E+03</pdfrwt>
<totfact> 0.80742333E+03</totfact>
</mgrwt>
</event>
<event>
 5    1  0.3227866E-002  0.1249919E+03  0.7818608E-02  0.1235082E+00
          4   -1    0    0  501    0  0.00000000000E+00  0.00000000000E+00  0.63748875585E+02  0.63761524749E+02  0.12700000000E+01 0.  1.
         -4   -1    0    0    0  501 -0.00000000000E+00 -0.00000000000E+00 -0.61242315128E+02  0.61255481895E+02  0.12700000000E+01 0.  1.
         25    2    1    2    0    0  0.00000000000E+00  0.00000000000E+00  0.25065604575E+01  0.12501700664E+03  0.12499187616E+03 0.  0.
    9000005    1    3    3    0    0  0.62072537777E+02 -0.71916800397E+01  0.14018642704E+01  0.62511482396E+02  0.10000000000E+01 0.  0.
    9000005    1    3    3    0    0 -0.62072537777E+02  0.71916800397E+01  0.11046961871E+01  0.62505524248E+02  0.10000000000E+01 0.  0.
<mgrwt>
<rscale>  0 0.12499188E+03</rscale>
<asrwt>0</asrwt>
<pdfrwt beam="1">  1        4 0.98095052E-02 0.12499188E+03</pdfrwt>
<pdfrwt beam="2">  1       -4 0.94238804E-02 0.12499188E+03</pdfrwt>
<totfact> 0.10454413E+04</totfact>
</mgrwt>
</event>
<event>
 5    1  0.3227866E-002  0.1249947E+03  0.7818608E-02  0.1235078E+00
         -4   -1    0    0    0  501 -0.00000000000E+00  0.00000000000E+00  0.48864582645E+01  0.50487992999E+01  0.12700000000E+01 0. -1.
          4   -1    0    0  501    0  0.00000000000E+00 -0.00000000000E+00 -0.78611123775E+03  0.78611226362E+03  0.12700000000E+01 0. -1.
         25    2    1    2    0    0  0.00000000000E+00  0.00000000000E+00 -0.78122477948E+03  0.79116106292E+03  0.12499468549E+03 0.  0.
    9000005    1    3    3    0    0  0.28357725441E+02  0.50887267050E+02 -0.24749672363E+03  0.25426227158E+03  0.10000000000E+01 0.  0.
    9000005    1    3    3    0    0 -0.28357725441E+02 -0.50887267050E+02 -0.53372805585E+03  0.53689879134E+03  0.10000000000E+01 0.  0.
<mgrwt>
<rscale>  0 0.12499469E+03</rscale>
<asrwt>0</asrwt>
<pdfrwt beam="2">  1        4 0.12095266E+00 0.12499469E+03</pdfrwt>
<pdfrwt beam="1">  1       -4 0.76433012E-03 0.12499469E+03</pdfrwt>
<totfact> 0.38666897E+03</totfact>
</mgrwt>
</event>
<event>
 5    1  0.3227866E-002  0.1250017E+03  0.7818608E-02  0.1235067E+00
         -4   -1    0    0    0  501 -0.00000000000E+00  0.00000000000E+00  0.66154103077E+02  0.66166292429E+02  0.12700000000E+01 0. -1.
          4   -1    0    0  501    0  0.00000000000E+00 -0.00000000000E+00 -0.59024857981E+02  0.59038519288E+02  0.12700000000E+01 0. -1.
         25    2    1    2    0    0  0.00000000000E+00  0.00000000000E+00  0.71292450956E+01  0.12520481172E+03  0.12500167495E+03 0.  0.
    9000005    1    3    3    0    0 -0.48093369113E+02 -0.57367271213E+01  0.43118953843E+02  0.64854655740E+02  0.10000000000E+01 0.  0.
    9000005    1    3    3    0    0  0.48093369113E+02  0.57367271213E+01 -0.35989708747E+02  0.60350155977E+02  0.10000000000E+01 0.  0.
<mgrwt>
<rscale>  0 0.12500167E+03</rscale>
<asrwt>0</asrwt>
<pdfrwt beam="2">  1        4 0.90827359E-02 0.12500167E+03</pdfrwt>
<pdfrwt beam="1">  1       -4 0.10179543E-01 0.12500167E+03</pdfrwt>
<totfact> 0.10448020E+04</totfact>
</mgrwt>
</event>
<event>
 5    1  0.3227866E-002  0.1250028E+03  0.7818608E-02  0.1235065E+00
         -4   -1    0    0    0  501 -0.00000000000E+00  0.00000000000E+00  0.52724365916E+02  0.52739659283E+02  0.12700000000E+01 0.  1.
          4   -1    0    0  501    0  0.00000000000E+00 -0.00000000000E+00 -0.74059942844E+02  0.74070831195E+02  0.12700000000E+01 0.  1.
         25    2    1    2    0    0  0.00000000000E+00  0.00000000000E+00 -0.21335576928E+02  0.12681049048E+03  0.12500277458E+03 0.  0.
    9000005    1    3    3    0    0  0.18704424410E+02 -0.40949692019E+02 -0.54638466830E+02  0.70803211979E+02  0.10000000000E+01 0.  0.
    9000005    1    3    3    0    0 -0.18704424410E+02  0.40949692019E+02  0.33302889903E+02  0.56007278499E+02  0.10000000000E+01 0.  0.
<mgrwt>
<rscale>  0 0.12500277E+03</rscale>
<asrwt>0</asrwt>
<pdfrwt beam="2">  1        4 0.11395851E-01 0.12500277E+03</pdfrwt>
<pdfrwt beam="1">  1       -4 0.81134549E-02 0.12500277E+03</pdfrwt>
<totfact> 0.10412613E+04</totfact>
</mgrwt>
</event>
<event>
 5    1  0.3227866E-002  0.1249959E+03  0.7818608E-02  0.1235076E+00
         -4   -1    0    0    0  501 -0.00000000000E+00  0.00000000000E+00  0.13286607720E+04  0.13286613790E+04  0.12700000000E+01 0. -1.
          4   -1    0    0  501    0  0.00000000000E+00 -0.00000000000E+00 -0.28020016810E+01  0.30763799213E+01  0.12700000000E+01 0. -1.
         25    2    1    2    0    0  0.00000000000E+00  0.00000000000E+00  0.13258587704E+04  0.13317377589E+04  0.12499591838E+03 0.  0.
    9000005    1    3    3    0    0 -0.45536606382E+02  0.41580229414E+02  0.77079381570E+03  0.77325713984E+03  0.10000000000E+01 0.  0.
    9000005    1    3    3    0    0  0.45536606382E+02 -0.41580229414E+02  0.55506495465E+03  0.55848061907E+03  0.10000000000E+01 0.  0.
<mgrwt>
<rscale>  0 0.12499592E+03</rscale>
<asrwt>0</asrwt>
<pdfrwt beam="2">  1        4 0.45223011E-03 0.12499592E+03</pdfrwt>
<pdfrwt beam="1">  1       -4 0.20443040E+00 0.12499592E+03</pdfrwt>
<totfact> 0.21493549E+03</totfact>
</mgrwt>
</event>
<event>
 5    1  0.3227866E-002  0.1249985E+03  0.7818608E-02  0.1235072E+00
          4   -1    0    0  501    0  0.00000000000E+00  0.00000000000E+00  0.51774632661E+02  0.51790206480E+02  0.12700000000E+01 0. -1.
         -4   -1    0    0    0  501 -0.00000000000E+00 -0.00000000000E+00 -0.75413162179E+02  0.75423855178E+02  0.12700000000E+01 0. -1.
         25    2    1    2    0    0  0.00000000000E+00  0.00000000000E+00 -0.23638529518E+02  0.12721406166E+03  0.12499854961E+03 0.  0.
    9000005    1    3    3    0    0 -0.40659818947E+02  0.44958897789E+02  0.36366131640E+01  0.60735066663E+02  0.10000000000E+01 0.  0.
    9000005    1    3    3    0    0  0.40659818947E+02 -0.44958897789E+02 -0.27275142682E+02  0.66478994995E+02  0.10000000000E+01 0.  0.
<mgrwt>
<rscale>  0 0.12499855E+03</rscale>
<asrwt>0</asrwt>
<pdfrwt beam="1">  1        4 0.79673486E-02 0.12499855E+03</pdfrwt>
<pdfrwt beam="2">  1       -4 0.11604046E-01 0.12499855E+03</pdfrwt>
<totfact> 0.10404839E+04</totfact>
</mgrwt>
</event>
<event>
 5    1  0.3227866E-002  0.1249989E+03  0.7818608E-02  0.1235071E+00
          4   -1    0    0  501    0  0.00000000000E+00  0.00000000000E+00  0.26164622340E+03  0.26164930560E+03  0.12700000000E+01 0. -1.
         -4   -1    0    0    0  501 -0.00000000000E+00 -0.00000000000E+00 -0.14899062960E+02  0.14953092559E+02  0.12700000000E+01 0. -1.
         25    2    1    2    0    0  0.00000000000E+00  0.00000000000E+00  0.24674716044E+03  0.27660239816E+03  0.12499890192E+03 0.  0.
    9000005    1    3    3    0    0 -0.48263915553E+02  0.39084180109E+02  0.10801024932E+03  0.12459611807E+03  0.10000000000E+01 0.  0.
    9000005    1    3    3    0    0  0.48263915553E+02 -0.39084180109E+02  0.13873691112E+03  0.15200628009E+03  0.10000000000E+01 0.  0.
<mgrwt>
<rscale>  0 0.12499890E+03</rscale>
<asrwt>0</asrwt>
<pdfrwt beam="1">  1        4 0.40257660E-01 0.12499890E+03</pdfrwt>
<pdfrwt beam="2">  1       -4 0.22965566E-02 0.12499890E+03</pdfrwt>
<totfact> 0.78632686E+03</totfact>
</mgrwt>
</event>
<event>
 5    1  0.3227866E-002  0.1249998E+03  0.7818608E-02  0.1235070E+00
          4   -1    0    0  501    0  0.00000000000E+00  0.00000000000E+00  0.23189912649E+03  0.23190260405E+03  0.12700000000E+01 0. -1.
         -4   -1    0    0    0  501 -0.00000000000E+00 -0.00000000000E+00 -0.16817008204E+02  0.16864894454E+02  0.12700000000E+01 0. -1.
         25    2    1    2    0    0  0.00000000000E+00  0.00000000000E+00  0.21508211828E+03  0.24876749850E+03  0.12499980283E+03 0.  0.
    9000005    1    3    3    0    0  0.57335541417E+02 -0.80962530713E+01  0.15431255820E+03  0.16482196226E+03  0.10000000000E+01 0.  0.
    9000005    1    3    3    0    0 -0.57335541417E+02  0.80962530713E+01  0.60769560082E+02  0.83945536248E+02  0.10000000000E+01 0.  0.
<mgrwt>
<rscale>  0 0.12499980E+03</rscale>
<asrwt>0</asrwt>
<pdfrwt beam="1">  1        4 0.35680738E-01 0.12499980E+03</pdfrwt>
<pdfrwt beam="2">  1       -4 0.25911832E-02 0.12499980E+03</pdfrwt>
<totfact> 0.82509053E+03</totfact>
</mgrwt>
</event>
<event>
 5    1  0.3227866E-002  0.1249932E+03  0.7818608E-02  0.1235080E+00
         -4   -1    0    0    0  501 -0.00000000000E+00  0.00000000000E+00  0.26963309031E+03  0.26963608120E+03  0.12700000000E+01 0.  1.
          4   -1    0    0  501    0  0.00000000000E+00 -0.00000000000E+00 -0.14454784269E+02  0.14510468230E+02  0.12700000000E+01 0.  1.
         25    2    1    2    0    0  0.00000000000E+00  0.00000000000E+00  0.25517830604E+03  0.28414654944E+03  0.12499317455E+03 0.  0.
    9000005    1    3    3    0    0 -0.12200451593E+02  0.53869203298E+02  0.19402549385E+03  0.20173654688E+03  0.10000000000E+01 0.  0.
    9000005    1    3    3    0    0  0.12200451593E+02 -0.53869203298E+02  0.61152812188E+02  0.82410002558E+02  0.10000000000E+01 0.  0.
<mgrwt>
<rscale>  0 0.12499317E+03</rscale>
<asrwt>0</asrwt>
<pdfrwt beam="2">  1        4 0.22283263E-02 0.12499317E+03</pdfrwt>
<pdfrwt beam="1">  1       -4 0.41486529E-01 0.12499317E+03</pdfrwt>
<totfact> 0.77643270E+03</totfact>
</mgrwt>
</event>
<event>
 5    1  0.3227866E-002  0.1250009E+03  0.7818608E-02  0.1235068E+00
         -4   -1    0    0    0  501 -0.00000000000E+00  0.00000000000E+00  0.72506601876E+03  0.72506713100E+03  0.12700000000E+01 0. -1.
          4   -1    0    0  501    0  0.00000000000E+00 -0.00000000000E+00 -0.53115408533E+01  0.54612604988E+01  0.12700000000E+01 0. -1.
         25    2    1    2    0    0  0.00000000000E+00  0.00000000000E+00  0.71975447791E+03  0.73052839150E+03  0.12500088929E+03 0.  0.
    9000005    1    3    3    0    0 -0.21963586551E+02  0.22727476640E+02  0.67494162667E+03  0.67568197900E+03  0.10000000000E+01 0.  0.
    9000005    1    3    3    0    0  0.21963586551E+02 -0.22727476640E+02  0.44812851232E+02  0.54846412501E+02  0.10000000000E+01 0.  0.
<mgrwt>
<rscale>  0 0.12500089E+03</rscale>
<asrwt>0</asrwt>
<pdfrwt beam="2">  1        4 0.82876229E-03 0.12500089E+03</pdfrwt>
<pdfrwt beam="1">  1       -4 0.11156026E+00 0.12500089E+03</pdfrwt>
<totfact> 0.41522406E+03</totfact>
</mgrwt>
</event>
<event>
 5    1  0.3227866E-002  0.1250000E+03  0.7818608E-02  0.1235069E+00
         -4   -1    0    0    0  501 -0.00000000000E+00  0.00000000000E+00  0.14901395839E+02  0.14955417010E+02  0.12700000000E+01 0.  1.
          4   -1    0    0  501    0  0.00000000000E+00 -0.00000000000E+00 -0.26161000425E+03  0.26161308688E+03  0.12700000000E+01 0.  1.
         25    2    1    2    0    0  0.00000000000E+00  0.00000000000E+00 -0.24670860842E+03  0.27656850389E+03  0.12499999951E+03 0.  0.
    9000005    1    3    3    0    0 -0.70515908377E+01  0.61967945094E+02 -0.11464382634E+03  0.13051420640E+03  0.10000000000E+01 0.  0.
    9000005    1    3    3    0    0  0.70515908377E+01 -0.61967945094E+02 -0.13206478207E+03  0.14605429749E+03  0.10000000000E+01 0.  0.
<mgrwt>
<rscale>  0 0.12500000E+03</rscale>
<asrwt>0</asrwt>
<pdfrwt beam="2">  1        4 0.40252082E-01 0.12500000E+03</pdfrwt>
<pdfrwt beam="1">  1       -4 0.22969152E-02 0.12500000E+03</pdfrwt>
<totfact> 0.78635310E+03</totfact>
</mgrwt>
</event>
<event>
 5    1  0.3227866E-002  0.1249967E+03  0.7818608E-02  0.1235074E+00
          4   -1    0    0  501    0  0.00000000000E+00  0.00000000000E+00  0.38871732200E+03  0.38871939664E+03  0.12700000000E+01 0. -1.
         -4   -1    0    0    0  501 -0.00000000000E+00 -0.00000000000E+00 -0.10006314983E+02  0.10086587110E+02  0.12700000000E+01 0. -1.
         25    2    1    2    0    0  0.00000000000E+00  0.00000000000E+00  0.37871100702E+03  0.39880598375E+03  0.12499674331E+03 0.  0.
    9000005    1    3    3    0    0 -0.28187022107E+02 -0.23287770365E+02  0.35104392096E+03  0.35294427734E+03  0.10000000000E+01 0.  0.
    9000005    1    3    3    0    0  0.28187022107E+02  0.23287770365E+02  0.27667086057E+02  0.45861706409E+02  0.10000000000E+01 0.  0.
<mgrwt>
<rscale>  0 0.12499674E+03</rscale>
<asrwt>0</asrwt>
<pdfrwt beam="1">  1        4 0.59809000E-01 0.12499674E+03</pdfrwt>
<pdfrwt beam="2">  1       -4 0.15457674E-02 0.12499674E+03</pdfrwt>
<totfact> 0.64673731E+03</totfact>
</mgrwt>
</event>
<event>
 5    1  0.3227866E-002  0.1250000E+03  0.7818608E-02  0.1235069E+00
          4   -1    0    0  501    0  0.00000000000E+00  0.00000000000E+00  0.58564174824E+02  0.58577943569E+02  0.12700000000E+01 0. -1.
         -4   -1    0    0    0  501 -0.00000000000E+00 -0.00000000000E+00 -0.66672672312E+02  0.66684766875E+02  0.12700000000E+01 0. -1.
         25    2    1    2    0    0  0.00000000000E+00  0.00000000000E+00 -0.81084974880E+01  0.12526271044E+03  0.12499999559E+03 0.  0.
    9000005    1    3    3    0    0 -0.19817472208E+02  0.57122547689E+02  0.11775535199E+02  0.61606662695E+02  0.10000000000E+01 0.  0.
    9000005    1    3    3    0    0  0.19817472208E+02 -0.57122547689E+02 -0.19884032687E+02  0.63656047749E+02  0.10000000000E+01 0.  0.
<mgrwt>
<rscale>  0 0.12500000E+03</rscale>
<asrwt>0</asrwt>
<pdfrwt beam="1">  1        4 0.90118625E-02 0.12500000E+03</pdfrwt>
<pdfrwt beam="2">  1       -4 0.10259324E-01 0.12500000E+03</pdfrwt>
<totfact> 0.10447160E+04</totfact>
</mgrwt>
</event>
<event>
 5    1  0.3227866E-002  0.1250019E+03  0.7818608E-02  0.1235066E+00
         -4   -1    0    0    0  501 -0.00000000000E+00  0.00000000000E+00  0.44693830752E+03  0.44694011191E+03  0.12700000000E+01 0.  1.
          4   -1    0    0  501    0  0.00000000000E+00 -0.00000000000E+00 -0.86923272297E+01  0.87846145430E+01  0.12700000000E+01 0.  1.
         25    2    1    2    0    0  0.00000000000E+00  0.00000000000E+00  0.43824598029E+03  0.45572472645E+03  0.12500194820E+03 0.  0.
    9000005    1    3    3    0    0 -0.10081599216E+02  0.61232650302E+02  0.19225913351E+03  0.20202883587E+03  0.10000000000E+01 0.  0.
    9000005    1    3    3    0    0  0.10081599216E+02 -0.61232650302E+02  0.24598684678E+03  0.25369589058E+03  0.10000000000E+01 0.  0.
<mgrwt>
<rscale>  0 0.12500195E+03</rscale>
<asrwt>0</asrwt>
<pdfrwt beam="2">  1        4 0.13445187E-02 0.12500195E+03</pdfrwt>
<pdfrwt beam="1">  1       -4 0.68766992E-01 0.12500195E+03</pdfrwt>
<totfact> 0.59468490E+03</totfact>
</mgrwt>
</event>
<event>
 5    1  0.3227866E-002  0.1250010E+03  0.7818608E-02  0.1235068E+00
          4   -1    0    0  501    0  0.00000000000E+00  0.00000000000E+00  0.16401448358E+02  0.16450544315E+02  0.12700000000E+01 0. -1.
         -4   -1    0    0    0  501 -0.00000000000E+00 -0.00000000000E+00 -0.23776197995E+03  0.23776537176E+03  0.12700000000E+01 0. -1.
         25    2    1    2    0    0  0.00000000000E+00  0.00000000000E+00 -0.22136053159E+03  0.25421591608E+03  0.12500098816E+03 0.  0.
    9000005    1    3    3    0    0 -0.26643554351E+02  0.54089734767E+02 -0.77279484465E+02  0.98023961942E+02  0.10000000000E+01 0.  0.
    9000005    1    3    3    0    0  0.26643554351E+02 -0.54089734767E+02 -0.14408104713E+03  0.15619195414E+03  0.10000000000E+01 0.  0.
<mgrwt>
<rscale>  0 0.12500099E+03</rscale>
<asrwt>0</asrwt>
<pdfrwt beam="1">  1        4 0.25273374E-02 0.12500099E+03</pdfrwt>
<pdfrwt beam="2">  1       -4 0.36582801E-01 0.12500099E+03</pdfrwt>
<totfact> 0.81722892E+03</totfact>
</mgrwt>
</event>
<event>
 5    1  0.3227866E-002  0.1249678E+03  0.7818608E-02  0.1235120E+00
          4   -1    0    0  501    0  0.00000000000E+00  0.00000000000E+00  0.11417909387E+01  0.17078016711E+01  0.12700000000E+01 0. -1.
         -4   -1    0    0    0  501 -0.00000000000E+00 -0.00000000000E+00 -0.27396420040E+04  0.27396422983E+04  0.12700000000E+01 0. -1.
         25    2    1    2    0    0  0.00000000000E+00  0.00000000000E+00 -0.27385002130E+04  0.27413501000E+04  0.12496781194E+03 0.  0.
    9000005    1    3    3    0    0  0.28820127912E+02  0.31888938422E+02 -0.23638532615E+04  0.23642442230E+04  0.10000000000E+01 0.  0.
    9000005    1    3    3    0    0 -0.28820127912E+02 -0.31888938422E+02 -0.37464695155E+03  0.37710587700E+03  0.10000000000E+01 0.  0.
<mgrwt>
<rscale>  0 0.12496781E+03</rscale>
<asrwt>0</asrwt>
<pdfrwt beam="1">  1        4 0.21922427E-03 0.12496781E+03</pdfrwt>
<pdfrwt beam="2">  1       -4 0.42152273E+00 0.12496781E+03</pdfrwt>
<totfact> 0.30409897E+02</totfact>
</mgrwt>
</event>
<event>
 5    1  0.3227866E-002  0.1250066E+03  0.7818608E-02  0.1235059E+00
         -4   -1    0    0    0  501 -0.00000000000E+00  0.00000000000E+00  0.56807459576E+02  0.56821654001E+02  0.12700000000E+01 0. -1.
          4   -1    0    0  501    0  0.00000000000E+00 -0.00000000000E+00 -0.68741610369E+02  0.68753340981E+02  0.12700000000E+01 0. -1.
         25    2    1    2    0    0  0.00000000000E+00  0.00000000000E+00 -0.11934150793E+02  0.12557499498E+03  0.12500662146E+03 0.  0.
    9000005    1    3    3    0    0  0.34954832293E+02 -0.81753494486E+01  0.45422017542E+02  0.57903681375E+02  0.10000000000E+01 0.  0.
    9000005    1    3    3    0    0 -0.34954832293E+02  0.81753494486E+01 -0.57356168335E+02  0.67671313607E+02  0.10000000000E+01 0.  0.
<mgrwt>
<rscale>  0 0.12500662E+03</rscale>
<asrwt>0</asrwt>
<pdfrwt beam="2">  1        4 0.10577627E-01 0.12500662E+03</pdfrwt>
<pdfrwt beam="1">  1       -4 0.87416033E-02 0.12500662E+03</pdfrwt>
<totfact> 0.10438739E+04</totfact>
</mgrwt>
</event>
<event>
 5    1  0.3227866E-002  0.1250041E+03  0.7818608E-02  0.1235063E+00
          4   -1    0    0  501    0  0.00000000000E+00  0.00000000000E+00  0.10214902656E+04  0.10214910551E+04  0.12700000000E+01 0. -1.
         -4   -1    0    0    0  501 -0.00000000000E+00 -0.00000000000E+00 -0.37180681717E+01  0.39289859925E+01  0.12700000000E+01 0. -1.
         25    2    1    2    0    0  0.00000000000E+00  0.00000000000E+00  0.10177721974E+04  0.10254200411E+04  0.12500405906E+03 0.  0.
    9000005    1    3    3    0    0  0.29799070359E+02 -0.51786255431E+02  0.35858740718E+03  0.36353229490E+03  0.10000000000E+01 0.  0.
    9000005    1    3    3    0    0 -0.29799070359E+02  0.51786255431E+02  0.65918479026E+03  0.66188774619E+03  0.10000000000E+01 0.  0.
<mgrwt>
<rscale>  0 0.12500406E+03</rscale>
<asrwt>0</asrwt>
<pdfrwt beam="1">  1        4 0.15716870E+00 0.12500406E+03</pdfrwt>
<pdfrwt beam="2">  1       -4 0.58829541E-03 0.12500406E+03</pdfrwt>
<totfact> 0.29772174E+03</totfact>
</mgrwt>
</event>
<event>
 5    1  0.3227866E-002  0.1249987E+03  0.7818608E-02  0.1235071E+00
         -4   -1    0    0    0  501 -0.00000000000E+00  0.00000000000E+00  0.25370369141E+03  0.25370687010E+03  0.12700000000E+01 0.  1.
          4   -1    0    0  501    0  0.00000000000E+00 -0.00000000000E+00 -0.15367109765E+02  0.15419499425E+02  0.12700000000E+01 0.  1.
         25    2    1    2    0    0  0.00000000000E+00  0.00000000000E+00  0.23833658165E+03  0.26912636953E+03  0.12499870648E+03 0.  0.
    9000005    1    3    3    0    0 -0.47209648409E+02 -0.23985263748E+02  0.19061284321E+03  0.19783402077E+03  0.10000000000E+01 0.  0.
    9000005    1    3    3    0    0  0.47209648409E+02  0.23985263748E+02  0.47723738444E+02  0.71292348755E+02  0.10000000000E+01 0.  0.
<mgrwt>
<rscale>  0 0.12499871E+03</rscale>
<asrwt>0</asrwt>
<pdfrwt beam="2">  1        4 0.23684453E-02 0.12499871E+03</pdfrwt>
<pdfrwt beam="1">  1       -4 0.39035610E-01 0.12499871E+03</pdfrwt>
<totfact> 0.79644414E+03</totfact>
</mgrwt>
</event>
<event>
 5    1  0.3227866E-002  0.1250006E+03  0.7818608E-02  0.1235068E+00
          4   -1    0    0  501    0  0.00000000000E+00  0.00000000000E+00  0.11530861000E+03  0.11531560363E+03  0.12700000000E+01 0. -1.
         -4   -1    0    0    0  501 -0.00000000000E+00 -0.00000000000E+00 -0.33856885963E+02  0.33880696969E+02  0.12700000000E+01 0. -1.
         25    2    1    2    0    0  0.00000000000E+00  0.00000000000E+00  0.81451724036E+02  0.14919630060E+03  0.12500061105E+03 0.  0.
    9000005    1    3    3    0    0 -0.14255221846E+02  0.44005645674E+02 -0.94262951392E+01  0.47218251144E+02  0.10000000000E+01 0.  0.
    9000005    1    3    3    0    0  0.14255221846E+02 -0.44005645674E+02  0.90878019175E+02  0.10197804945E+03  0.10000000000E+01 0.  0.
<mgrwt>
<rscale>  0 0.12500061E+03</rscale>
<asrwt>0</asrwt>
<pdfrwt beam="1">  1        4 0.17742156E-01 0.12500061E+03</pdfrwt>
<pdfrwt beam="2">  1       -4 0.52111212E-02 0.12500061E+03</pdfrwt>
<totfact> 0.99462777E+03</totfact>
</mgrwt>
</event>
<event>
 5    1  0.3227866E-002  0.1249975E+03  0.7818608E-02  0.1235073E+00
         -4   -1    0    0    0  501 -0.00000000000E+00  0.00000000000E+00  0.17591321536E+03  0.17591779967E+03  0.12700000000E+01 0. -1.
          4   -1    0    0  501    0  0.00000000000E+00 -0.00000000000E+00 -0.22181615959E+02  0.22217942896E+02  0.12700000000E+01 0. -1.
         25    2    1    2    0    0  0.00000000000E+00  0.00000000000E+00  0.15373159941E+03  0.19813574256E+03  0.12499747128E+03 0.  0.
    9000005    1    3    3    0    0  0.56006710339E+02 -0.13681222024E+02  0.11507880065E+03  0.12871696779E+03  0.10000000000E+01 0.  0.
    9000005    1    3    3    0    0 -0.56006710339E+02  0.13681222024E+02  0.38652798757E+02  0.69418774771E+02  0.10000000000E+01 0.  0.
<mgrwt>
<rscale>  0 0.12499747E+03</rscale>
<asrwt>0</asrwt>
<pdfrwt beam="2">  1        4 0.34157032E-02 0.12499747E+03</pdfrwt>
<pdfrwt beam="1">  1       -4 0.27066720E-01 0.12499747E+03</pdfrwt>
<totfact> 0.90455793E+03</totfact>
</mgrwt>
</event>
<event>
 5    1  0.3227866E-002  0.1250147E+03  0.7818608E-02  0.1235046E+00
          4   -1    0    0  501    0  0.00000000000E+00  0.00000000000E+00  0.24971003873E+02  0.25003278473E+02  0.12700000000E+01 0.  1.
         -4   -1    0    0    0  501 -0.00000000000E+00 -0.00000000000E+00 -0.15633232196E+03  0.15633748044E+03  0.12700000000E+01 0.  1.
         25    2    1    2    0    0  0.00000000000E+00  0.00000000000E+00 -0.13136131809E+03  0.18134075891E+03  0.12501469895E+03 0.  0.
    9000005    1    3    3    0    0 -0.25530886341E+02  0.34616049632E+02 -0.13145454123E+03  0.13831628053E+03  0.10000000000E+01 0.  0.
    9000005    1    3    3    0    0  0.25530886341E+02 -0.34616049632E+02  0.93223140911E-01  0.43024478382E+02  0.10000000000E+01 0.  0.
<mgrwt>
<rscale>  0 0.12501470E+03</rscale>
<asrwt>0</asrwt>
<pdfrwt beam="1">  1        4 0.38445725E-02 0.12501470E+03</pdfrwt>
<pdfrwt beam="2">  1       -4 0.24054005E-01 0.12501470E+03</pdfrwt>
<totfact> 0.93345454E+03</totfact>
</mgrwt>
</event>
<event>
 5    1  0.3227866E-002  0.1250018E+03  0.7818608E-02  0.1235066E+00
          4   -1    0    0  501    0  0.00000000000E+00  0.00000000000E+00  0.18597738415E+02  0.18641050779E+02  0.12700000000E+01 0. -1.
         -4   -1    0    0    0  501 -0.00000000000E+00 -0.00000000000E+00 -0.20975546118E+03  0.20975930586E+03  0.12700000000E+01 0. -1.
         25    2    1    2    0    0  0.00000000000E+00  0.00000000000E+00 -0.19115772277E+03  0.22840035664E+03  0.12500179175E+03 0.  0.
    9000005    1    3    3    0    0  0.59575278447E+02 -0.42731560103E+01 -0.12916554551E+03  0.14231026601E+03  0.10000000000E+01 0.  0.
    9000005    1    3    3    0    0 -0.59575278447E+02  0.42731560103E+01 -0.61992177259E+02  0.86090090636E+02  0.10000000000E+01 0.  0.
<mgrwt>
<rscale>  0 0.12500179E+03</rscale>
<asrwt>0</asrwt>
<pdfrwt beam="1">  1        4 0.28648181E-02 0.12500179E+03</pdfrwt>
<pdfrwt beam="2">  1       -4 0.32273697E-01 0.12500179E+03</pdfrwt>
<totfact> 0.85552410E+03</totfact>
</mgrwt>
</event>
<event>
 5    1  0.3227866E-002  0.1249845E+03  0.7818608E-02  0.1235094E+00
          4   -1    0    0  501    0  0.00000000000E+00  0.00000000000E+00  0.17097823043E+02  0.17144924987E+02  0.12700000000E+01 0. -1.
         -4   -1    0    0    0  501 -0.00000000000E+00 -0.00000000000E+00 -0.22804505249E+03  0.22804858882E+03  0.12700000000E+01 0. -1.
         25    2    1    2    0    0  0.00000000000E+00  0.00000000000E+00 -0.21094722944E+03  0.24519351381E+03  0.12498450146E+03 0.  0.
    9000005    1    3    3    0    0  0.18210443449E+02  0.40575623776E+02 -0.19371758877E+02  0.48520784591E+02  0.10000000000E+01 0.  0.
    9000005    1    3    3    0    0 -0.18210443449E+02 -0.40575623776E+02 -0.19157547057E+03  0.19667272922E+03  0.10000000000E+01 0.  0.
<mgrwt>
<rscale>  0 0.12498450E+03</rscale>
<asrwt>0</asrwt>
<pdfrwt beam="1">  1        4 0.26343297E-02 0.12498450E+03</pdfrwt>
<pdfrwt beam="2">  1       -4 0.35087747E-01 0.12498450E+03</pdfrwt>
<totfact> 0.83058599E+03</totfact>
</mgrwt>
</event>
<event>
 5    1  0.3227866E-002  0.1250010E+03  0.7818608E-02  0.1235068E+00
         -4   -1    0    0    0  501 -0.00000000000E+00  0.00000000000E+00  0.59149058728E+02  0.59162691355E+02  0.12700000000E+01 0.  1.
          4   -1    0    0  501    0  0.00000000000E+00 -0.00000000000E+00 -0.66014519542E+02  0.66026734664E+02  0.12700000000E+01 0.  1.
         25    2    1    2    0    0  0.00000000000E+00  0.00000000000E+00 -0.68654608141E+01  0.12518942602E+03  0.12500103133E+03 0.  0.
    9000005    1    3    3    0    0 -0.28631014355E+02 -0.37668952808E+02 -0.44318632139E+02  0.64836919601E+02  0.10000000000E+01 0.  0.
    9000005    1    3    3    0    0  0.28631014355E+02  0.37668952808E+02  0.37453171325E+02  0.60352506418E+02  0.10000000000E+01 0.  0.
<mgrwt>
<rscale>  0 0.12500103E+03</rscale>
<asrwt>0</asrwt>
<pdfrwt beam="2">  1        4 0.10158068E-01 0.12500103E+03</pdfrwt>
<pdfrwt beam="1">  1       -4 0.91018435E-02 0.12500103E+03</pdfrwt>
<totfact> 0.10448506E+04</totfact>
</mgrwt>
</event>
<event>
 5    1  0.3227866E-002  0.1250014E+03  0.7818608E-02  0.1235067E+00
          4   -1    0    0  501    0  0.00000000000E+00  0.00000000000E+00  0.33271469147E+02  0.33295698809E+02  0.12700000000E+01 0.  1.
         -4   -1    0    0    0  501 -0.00000000000E+00 -0.00000000000E+00 -0.11733769003E+03  0.11734456272E+03  0.12700000000E+01 0.  1.
         25    2    1    2    0    0  0.00000000000E+00  0.00000000000E+00 -0.84066220879E+02  0.15064026153E+03  0.12500143560E+03 0.  0.
    9000005    1    3    3    0    0  0.57428820171E+01  0.62075173629E+02 -0.36775764336E+02  0.72386219113E+02  0.10000000000E+01 0.  0.
    9000005    1    3    3    0    0 -0.57428820171E+01 -0.62075173629E+02 -0.47290456543E+02  0.78254042419E+02  0.10000000000E+01 0.  0.
<mgrwt>
<rscale>  0 0.12500144E+03</rscale>
<asrwt>0</asrwt>
<pdfrwt beam="1">  1        4 0.51210801E-02 0.12500144E+03</pdfrwt>
<pdfrwt beam="2">  1       -4 0.18054345E-01 0.12500144E+03</pdfrwt>
<totfact> 0.99173021E+03</totfact>
</mgrwt>
</event>
<event>
 5    1  0.3227866E-002  0.1250021E+03  0.7818608E-02  0.1235066E+00
         -4   -1    0    0    0  501 -0.00000000000E+00  0.00000000000E+00  0.37634968066E+02  0.37656390179E+02  0.12700000000E+01 0.  1.
          4   -1    0    0  501    0  0.00000000000E+00 -0.00000000000E+00 -0.10374176087E+03  0.10374953420E+03  0.12700000000E+01 0.  1.
         25    2    1    2    0    0  0.00000000000E+00  0.00000000000E+00 -0.66106792800E+02  0.14140592438E+03  0.12500210957E+03 0.  0.
    9000005    1    3    3    0    0  0.21034561653E+02  0.51532135423E+02 -0.65196369991E+02  0.85729693953E+02  0.10000000000E+01 0.  0.
    9000005    1    3    3    0    0 -0.21034561653E+02 -0.51532135423E+02 -0.91042280908E+00  0.55676230430E+02  0.10000000000E+01 0.  0.
<mgrwt>
<rscale>  0 0.12500211E+03</rscale>
<asrwt>0</asrwt>
<pdfrwt beam="2">  1        4 0.15962517E-01 0.12500211E+03</pdfrwt>
<pdfrwt beam="1">  1       -4 0.57922409E-02 0.12500211E+03</pdfrwt>
<totfact> 0.10104050E+04</totfact>
</mgrwt>
</event>
<event>
 5    1  0.3227866E-002  0.1250017E+03  0.7818608E-02  0.1235067E+00
         -4   -1    0    0    0  501 -0.00000000000E+00  0.00000000000E+00  0.16141495151E+02  0.16191379365E+02  0.12700000000E+01 0. -1.
          4   -1    0    0  501    0  0.00000000000E+00 -0.00000000000E+00 -0.24158230918E+03  0.24158564735E+03  0.12700000000E+01 0. -1.
         25    2    1    2    0    0  0.00000000000E+00  0.00000000000E+00 -0.22544081403E+03  0.25777702672E+03  0.12500173949E+03 0.  0.
    9000005    1    3    3    0    0  0.54541247333E+02 -0.23973065419E+02 -0.73816421448E+02  0.94864743723E+02  0.10000000000E+01 0.  0.
    9000005    1    3    3    0    0 -0.54541247333E+02  0.23973065419E+02 -0.15162439258E+03  0.16291228300E+03  0.10000000000E+01 0.  0.
<mgrwt>
<rscale>  0 0.12500174E+03</rscale>
<asrwt>0</asrwt>
<pdfrwt beam="2">  1        4 0.37170601E-01 0.12500174E+03</pdfrwt>
<pdfrwt beam="1">  1       -4 0.24874011E-02 0.12500174E+03</pdfrwt>
<totfact> 0.81215895E+03</totfact>
</mgrwt>
</event>
<event>
 5    1  0.3227866E-002  0.1249985E+03  0.7818608E-02  0.1235072E+00
         -4   -1    0    0    0  501 -0.00000000000E+00  0.00000000000E+00  0.32555460269E+01  0.34944928005E+01  0.12700000000E+01 0. -1.
          4   -1    0    0  501    0  0.00000000000E+00 -0.00000000000E+00 -0.11571339111E+04  0.11571346080E+04  0.12700000000E+01 0. -1.
         25    2    1    2    0    0  0.00000000000E+00  0.00000000000E+00 -0.11538783650E+04  0.11606291008E+04  0.12499851330E+03 0.  0.
    9000005    1    3    3    0    0  0.26098755278E+02 -0.41782440399E+02 -0.93393328610E+03  0.93523221728E+03  0.10000000000E+01 0.  0.
    9000005    1    3    3    0    0 -0.26098755278E+02  0.41782440399E+02 -0.21994507893E+03  0.22539688352E+03  0.10000000000E+01 0.  0.
<mgrwt>
<rscale>  0 0.12499851E+03</rscale>
<asrwt>0</asrwt>
<pdfrwt beam="2">  1        4 0.17803872E+00 0.12499851E+03</pdfrwt>
<pdfrwt beam="1">  1       -4 0.51928829E-03 0.12499851E+03</pdfrwt>
<totfact> 0.25768041E+03</totfact>
</mgrwt>
</event>
<event>
 5    1  0.3227866E-002  0.1249993E+03  0.7818608E-02  0.1235070E+00
          4   -1    0    0  501    0  0.00000000000E+00  0.00000000000E+00  0.11985827088E+03  0.11986499905E+03  0.12700000000E+01 0. -1.
         -4   -1    0    0    0  501 -0.00000000000E+00 -0.00000000000E+00 -0.32570212172E+02  0.32594963122E+02  0.12700000000E+01 0. -1.
         25    2    1    2    0    0  0.00000000000E+00  0.00000000000E+00  0.87288058706E+02  0.15245996217E+03  0.12499933949E+03 0.  0.
    9000005    1    3    3    0    0 -0.26977414391E+02  0.15552453142E+02 -0.22439428396E+02  0.38395151161E+02  0.10000000000E+01 0.  0.
    9000005    1    3    3    0    0  0.26977414391E+02 -0.15552453142E+02  0.10972748710E+03  0.11406481101E+03  0.10000000000E+01 0.  0.
<mgrwt>
<rscale>  0 0.12499934E+03</rscale>
<asrwt>0</asrwt>
<pdfrwt beam="1">  1        4 0.18442155E-01 0.12499934E+03</pdfrwt>
<pdfrwt beam="2">  1       -4 0.50132233E-02 0.12499934E+03</pdfrwt>
<totfact> 0.98817051E+03</totfact>
</mgrwt>
</event>
<event>
 5    1  0.3227866E-002  0.1249975E+03  0.7818608E-02  0.1235073E+00
         -4   -1    0    0    0  501 -0.00000000000E+00  0.00000000000E+00  0.32087397675E+02  0.32112520760E+02  0.12700000000E+01 0. -1.
          4   -1    0    0  501    0  0.00000000000E+00 -0.00000000000E+00 -0.12165695938E+03  0.12166358809E+03  0.12700000000E+01 0. -1.
         25    2    1    2    0    0  0.00000000000E+00  0.00000000000E+00 -0.89569561706E+02  0.15377610885E+03  0.12499754105E+03 0.  0.
    9000005    1    3    3    0    0  0.46728387147E+02  0.36757447820E+02 -0.21106575297E+02  0.63096272920E+02  0.10000000000E+01 0.  0.
    9000005    1    3    3    0    0 -0.46728387147E+02 -0.36757447820E+02 -0.68462986409E+02  0.90679835926E+02  0.10000000000E+01 0.  0.
<mgrwt>
<rscale>  0 0.12499754E+03</rscale>
<asrwt>0</asrwt>
<pdfrwt beam="2">  1        4 0.18718897E-01 0.12499754E+03</pdfrwt>
<pdfrwt beam="1">  1       -4 0.49389652E-02 0.12499754E+03</pdfrwt>
<totfact> 0.98561695E+03</totfact>
</mgrwt>
</event>
<event>
 5    1  0.3227866E-002  0.1250001E+03  0.7818608E-02  0.1235069E+00
          4   -1    0    0  501    0  0.00000000000E+00  0.00000000000E+00  0.31409776494E+02  0.31435441136E+02  0.12700000000E+01 0. -1.
         -4   -1    0    0    0  501 -0.00000000000E+00 -0.00000000000E+00 -0.12428471702E+03  0.12429120558E+03  0.12700000000E+01 0. -1.
         25    2    1    2    0    0  0.00000000000E+00  0.00000000000E+00 -0.92874940527E+02  0.15572664672E+03  0.12500013568E+03 0.  0.
    9000005    1    3    3    0    0 -0.45783174528E+02 -0.35548985106E+02 -0.17342254156E+02  0.60511017106E+02  0.10000000000E+01 0.  0.
    9000005    1    3    3    0    0  0.45783174528E+02  0.35548985106E+02 -0.75532686371E+02  0.95215629612E+02  0.10000000000E+01 0.  0.
<mgrwt>
<rscale>  0 0.12500014E+03</rscale>
<asrwt>0</asrwt>
<pdfrwt beam="1">  1        4 0.48347467E-02 0.12500014E+03</pdfrwt>
<pdfrwt beam="2">  1       -4 0.19123199E-01 0.12500014E+03</pdfrwt>
<totfact> 0.98172738E+03</totfact>
</mgrwt>
</event>
<event>
 5    1  0.3227866E-002  0.1249979E+03  0.7818608E-02  0.1235073E+00
         -4   -1    0    0    0  501 -0.00000000000E+00  0.00000000000E+00  0.12917221328E+03  0.12917845634E+03  0.12700000000E+01 0. -1.
          4   -1    0    0  501    0  0.00000000000E+00 -0.00000000000E+00 -0.30219288820E+02  0.30245963644E+02  0.12700000000E+01 0. -1.
         25    2    1    2    0    0  0.00000000000E+00  0.00000000000E+00  0.98952924456E+02  0.15942441999E+03  0.12499785770E+03 0.  0.
    9000005    1    3    3    0    0 -0.27112978485E+02 -0.15769242449E+02 -0.19459024303E+02  0.36924737461E+02  0.10000000000E+01 0.  0.
    9000005    1    3    3    0    0  0.27112978485E+02  0.15769242449E+02  0.11841194876E+03  0.12249968252E+03  0.10000000000E+01 0.  0.
<mgrwt>
<rscale>  0 0.12499786E+03</rscale>
<asrwt>0</asrwt>
<pdfrwt beam="2">  1        4 0.46516536E-02 0.12499786E+03</pdfrwt>
<pdfrwt beam="1">  1       -4 0.19875180E-01 0.12499786E+03</pdfrwt>
<totfact> 0.97458561E+03</totfact>
</mgrwt>
</event>
<event>
 5    1  0.3227866E-002  0.1249997E+03  0.7818608E-02  0.1235070E+00
         -4   -1    0    0    0  501 -0.00000000000E+00  0.00000000000E+00  0.82907049012E+02  0.82916775600E+02  0.12700000000E+01 0.  1.
          4   -1    0    0  501    0  0.00000000000E+00 -0.00000000000E+00 -0.47094732392E+02  0.47111853276E+02  0.12700000000E+01 0.  1.
         25    2    1    2    0    0  0.00000000000E+00  0.00000000000E+00  0.35812316621E+02  0.13002862888E+03  0.12499968922E+03 0.  0.
    9000005    1    3    3    0    0 -0.54537138014E+02 -0.21582864577E+02 -0.45279290465E+01  0.58835547143E+02  0.10000000000E+01 0.  0.
    9000005    1    3    3    0    0  0.54537138014E+02  0.21582864577E+02  0.40340245667E+02  0.71193081733E+02  0.10000000000E+01 0.  0.
<mgrwt>
<rscale>  0 0.12499969E+03</rscale>
<asrwt>0</asrwt>
<pdfrwt beam="2">  1        4 0.72474086E-02 0.12499969E+03</pdfrwt>
<pdfrwt beam="1">  1       -4 0.12756996E-01 0.12499969E+03</pdfrwt>
<totfact> 0.10343968E+04</totfact>
</mgrwt>
</event>
<event>
 5    1  0.3227866E-002  0.1250060E+03  0.7818608E-02  0.1235060E+00
         -4   -1    0    0    0  501 -0.00000000000E+00  0.00000000000E+00  0.12667092918E+04  0.12667099285E+04  0.12700000000E+01 0. -1.
          4   -1    0    0  501    0  0.00000000000E+00 -0.00000000000E+00 -0.29526667860E+01  0.32142092573E+01  0.12700000000E+01 0. -1.
         25    2    1    2    0    0  0.00000000000E+00  0.00000000000E+00  0.12637566250E+04  0.12699241377E+04  0.12500603291E+03 0.  0.
    9000005    1    3    3    0    0 -0.56177039742E+02 -0.56710327011E+01  0.90401684300E+03  0.90577893155E+03  0.10000000000E+01 0.  0.
    9000005    1    3    3    0    0  0.56177039742E+02  0.56710327011E+01  0.35973978203E+03  0.36414520617E+03  0.10000000000E+01 0.  0.
<mgrwt>
<rscale>  0 0.12500603E+03</rscale>
<asrwt>0</asrwt>
<pdfrwt beam="2">  1        4 0.47442309E-03 0.12500603E+03</pdfrwt>
<pdfrwt beam="1">  1       -4 0.19489892E+00 0.12500603E+03</pdfrwt>
<totfact> 0.22946594E+03</totfact>
</mgrwt>
</event>
<event>
 5    1  0.3227866E-002  0.1250087E+03  0.7818608E-02  0.1235056E+00
          4   -1    0    0  501    0  0.00000000000E+00  0.00000000000E+00  0.71848543800E+02  0.71859767229E+02  0.12700000000E+01 0.  1.
         -4   -1    0    0    0  501 -0.00000000000E+00 -0.00000000000E+00 -0.54352538073E+02  0.54367373442E+02  0.12700000000E+01 0.  1.
         25    2    1    2    0    0  0.00000000000E+00  0.00000000000E+00  0.17496005728E+02  0.12622714067E+03  0.12500872300E+03 0.  0.
    9000005    1    3    3    0    0  0.51565222820E+02  0.68879644852E+01  0.43717600597E+02  0.67960612572E+02  0.10000000000E+01 0.  0.
    9000005    1    3    3    0    0 -0.51565222820E+02 -0.68879644852E+01 -0.26221594869E+02  0.58266528099E+02  0.10000000000E+01 0.  0.
<mgrwt>
<rscale>  0 0.12500872E+03</rscale>
<asrwt>0</asrwt>
<pdfrwt beam="1">  1        4 0.11055627E-01 0.12500872E+03</pdfrwt>
<pdfrwt beam="2">  1       -4 0.83639334E-02 0.12500872E+03</pdfrwt>
<totfact> 0.10423933E+04</totfact>
</mgrwt>
</event>
<event>
 5    1  0.3227866E-002  0.1250064E+03  0.7818608E-02  0.1235059E+00
         -4   -1    0    0    0  501 -0.00000000000E+00  0.00000000000E+00  0.49686612360E+02  0.49702840440E+02  0.12700000000E+01 0. -1.
          4   -1    0    0  501    0  0.00000000000E+00 -0.00000000000E+00 -0.78591567698E+02  0.78601828307E+02  0.12700000000E+01 0. -1.
         25    2    1    2    0    0  0.00000000000E+00  0.00000000000E+00 -0.28904955338E+02  0.12830466875E+03  0.12500636616E+03 0.  0.
    9000005    1    3    3    0    0  0.58514902451E+02 -0.12561337785E+02 -0.32923613293E+02  0.68313580846E+02  0.10000000000E+01 0.  0.
    9000005    1    3    3    0    0 -0.58514902451E+02  0.12561337785E+02  0.40186579549E+01  0.59991087901E+02  0.10000000000E+01 0.  0.
<mgrwt>
<rscale>  0 0.12500637E+03</rscale>
<asrwt>0</asrwt>
<pdfrwt beam="2">  1        4 0.12093048E-01 0.12500637E+03</pdfrwt>
<pdfrwt beam="1">  1       -4 0.76461318E-02 0.12500637E+03</pdfrwt>
<totfact> 0.10379421E+04</totfact>
</mgrwt>
</event>
<event>
 5    1  0.3227866E-002  0.1250279E+03  0.7818608E-02  0.1235026E+00
          4   -1    0    0  501    0  0.00000000000E+00  0.00000000000E+00  0.32141656065E+03  0.32141906969E+03  0.12700000000E+01 0. -1.
         -4   -1    0    0    0  501 -0.00000000000E+00 -0.00000000000E+00 -0.12122926926E+02  0.12189268118E+02  0.12700000000E+01 0. -1.
         25    2    1    2    0    0  0.00000000000E+00  0.00000000000E+00  0.30929363372E+03  0.33360833781E+03  0.12502788166E+03 0.  0.
    9000005    1    3    3    0    0 -0.20873640864E+02  0.58242222112E+02  0.17838206011E+03  0.18880949311E+03  0.10000000000E+01 0.  0.
    9000005    1    3    3    0    0  0.20873640864E+02 -0.58242222112E+02  0.13091157362E+03  0.14479884470E+03  0.10000000000E+01 0.  0.
<mgrwt>
<rscale>  0 0.12502788E+03</rscale>
<asrwt>0</asrwt>
<pdfrwt beam="1">  1        4 0.49453994E-01 0.12502788E+03</pdfrwt>
<pdfrwt beam="2">  1       -4 0.18703620E-02 0.12502788E+03</pdfrwt>
<totfact> 0.71522121E+03</totfact>
</mgrwt>
</event>
<event>
 5    1  0.3227866E-002  0.1250013E+03  0.7818608E-02  0.1235067E+00
          4   -1    0    0  501    0  0.00000000000E+00  0.00000000000E+00  0.10342318273E+02  0.10420002267E+02  0.12700000000E+01 0. -1.
         -4   -1    0    0    0  501 -0.00000000000E+00 -0.00000000000E+00 -0.37621170089E+03  0.37621384450E+03  0.12700000000E+01 0. -1.
         25    2    1    2    0    0  0.00000000000E+00  0.00000000000E+00 -0.36586938262E+03  0.38663384676E+03  0.12500130528E+03 0.  0.
    9000005    1    3    3    0    0  0.24518754393E+02  0.31759594532E+02 -0.33112611304E+03  0.33354961235E+03  0.10000000000E+01 0.  0.
    9000005    1    3    3    0    0 -0.24518754393E+02 -0.31759594532E+02 -0.34743269579E+02  0.53084234409E+02  0.10000000000E+01 0.  0.
<mgrwt>
<rscale>  0 0.12500131E+03</rscale>
<asrwt>0</asrwt>
<pdfrwt beam="1">  1        4 0.15972668E-02 0.12500131E+03</pdfrwt>
<pdfrwt beam="2">  1       -4 0.57884853E-01 0.12500131E+03</pdfrwt>
<totfact> 0.65871967E+03</totfact>
</mgrwt>
</event>
<event>
 5    1  0.3227866E-002  0.1249962E+03  0.7818608E-02  0.1235075E+00
          4   -1    0    0  501    0  0.00000000000E+00  0.00000000000E+00  0.86339565990E+02  0.86348905930E+02  0.12700000000E+01 0. -1.
         -4   -1    0    0    0  501 -0.00000000000E+00 -0.00000000000E+00 -0.45219437677E+02  0.45237268306E+02  0.12700000000E+01 0. -1.
         25    2    1    2    0    0  0.00000000000E+00  0.00000000000E+00  0.41120128313E+02  0.13158617424E+03  0.12499622513E+03 0.  0.
    9000005    1    3    3    0    0 -0.14798188028E+02  0.52389624854E+02 -0.11739008957E+02  0.55699762051E+02  0.10000000000E+01 0.  0.
    9000005    1    3    3    0    0  0.14798188028E+02 -0.52389624854E+02  0.52859137271E+02  0.75886412185E+02  0.10000000000E+01 0.  0.
<mgrwt>
<rscale>  0 0.12499623E+03</rscale>
<asrwt>0</asrwt>
<pdfrwt beam="1">  1        4 0.13285100E-01 0.12499623E+03</pdfrwt>
<pdfrwt beam="2">  1       -4 0.69589266E-02 0.12499623E+03</pdfrwt>
<totfact> 0.10311417E+04</totfact>
</mgrwt>
</event>
<event>
 5    1  0.3227866E-002  0.1249930E+03  0.7818608E-02  0.1235080E+00
         -4   -1    0    0    0  501 -0.00000000000E+00  0.00000000000E+00  0.51507108083E+02  0.51522762766E+02  0.12700000000E+01 0. -1.
          4   -1    0    0  501    0  0.00000000000E+00 -0.00000000000E+00 -0.75798030325E+02  0.75808669037E+02  0.12700000000E+01 0. -1.
         25    2    1    2    0    0  0.00000000000E+00  0.00000000000E+00 -0.24290922242E+02  0.12733143180E+03  0.12499297829E+03 0.  0.
    9000005    1    3    3    0    0  0.18880856926E+02  0.43885174785E+02  0.28887333260E+02  0.55837920333E+02  0.10000000000E+01 0.  0.
    9000005    1    3    3    0    0 -0.18880856926E+02 -0.43885174785E+02 -0.53178255502E+02  0.71493511471E+02  0.10000000000E+01 0.  0.
<mgrwt>
<rscale>  0 0.12499298E+03</rscale>
<asrwt>0</asrwt>
<pdfrwt beam="2">  1        4 0.11663258E-01 0.12499298E+03</pdfrwt>
<pdfrwt beam="1">  1       -4 0.79261931E-02 0.12499298E+03</pdfrwt>
<totfact> 0.10403602E+04</totfact>
</mgrwt>
</event>
<event>
 5    1  0.3227866E-002  0.1249980E+03  0.7818608E-02  0.1235072E+00
         -4   -1    0    0    0  501 -0.00000000000E+00  0.00000000000E+00  0.18931636542E+02  0.18974186732E+02  0.12700000000E+01 0.  1.
          4   -1    0    0  501    0  0.00000000000E+00 -0.00000000000E+00 -0.20605166606E+03  0.20605557984E+03  0.12700000000E+01 0.  1.
         25    2    1    2    0    0  0.00000000000E+00  0.00000000000E+00 -0.18712002952E+03  0.22502976658E+03  0.12499796158E+03 0.  0.
    9000005    1    3    3    0    0  0.16243045820E+02 -0.53506112327E+02 -0.43333454956E+02  0.70749762630E+02  0.10000000000E+01 0.  0.
    9000005    1    3    3    0    0 -0.16243045820E+02  0.53506112327E+02 -0.14378657456E+03  0.15428000395E+03  0.10000000000E+01 0.  0.
<mgrwt>
<rscale>  0 0.12499796E+03</rscale>
<asrwt>0</asrwt>
<pdfrwt beam="2">  1        4 0.31703829E-01 0.12499796E+03</pdfrwt>
<pdfrwt beam="1">  1       -4 0.29161338E-02 0.12499796E+03</pdfrwt>
<totfact> 0.86082577E+03</totfact>
</mgrwt>
</event>
<event>
 5    1  0.3227866E-002  0.1250129E+03  0.7818608E-02  0.1235049E+00
          4   -1    0    0  501    0  0.00000000000E+00  0.00000000000E+00  0.64692591238E+02  0.64705055916E+02  0.12700000000E+01 0.  1.
         -4   -1    0    0    0  501 -0.00000000000E+00 -0.00000000000E+00 -0.60369265854E+02  0.60382622995E+02  0.12700000000E+01 0.  1.
         25    2    1    2    0    0  0.00000000000E+00  0.00000000000E+00  0.43233253836E+01  0.12508767891E+03  0.12501294442E+03 0.  0.
    9000005    1    3    3    0    0 -0.30553839975E+02 -0.37616102118E+02 -0.37327748554E+02  0.61178992210E+02  0.10000000000E+01 0.  0.
    9000005    1    3    3    0    0  0.30553839975E+02  0.37616102118E+02  0.41651073937E+02  0.63908686701E+02  0.10000000000E+01 0.  0.
<mgrwt>
<rscale>  0 0.12501294E+03</rscale>
<asrwt>0</asrwt>
<pdfrwt beam="1">  1        4 0.99546926E-02 0.12501294E+03</pdfrwt>
<pdfrwt beam="2">  1       -4 0.92895657E-02 0.12501294E+03</pdfrwt>
<totfact> 0.10447902E+04</totfact>
</mgrwt>
</event>
<event>
 5    1  0.3227866E-002  0.1249954E+03  0.7818608E-02  0.1235077E+00
         -4   -1    0    0    0  501 -0.00000000000E+00  0.00000000000E+00  0.35985317230E+03  0.35985541335E+03  0.12700000000E+01 0. -1.
          4   -1    0    0  501    0  0.00000000000E+00 -0.00000000000E+00 -0.10814886740E+02  0.10889199933E+02  0.12700000000E+01 0. -1.
         25    2    1    2    0    0  0.00000000000E+00  0.00000000000E+00  0.34903828556E+03  0.37074461328E+03  0.12499537387E+03 0.  0.
    9000005    1    3    3    0    0  0.27442256700E+02  0.53312285322E+02  0.12232280289E+03  0.13623195413E+03  0.10000000000E+01 0.  0.
    9000005    1    3    3    0    0 -0.27442256700E+02 -0.53312285322E+02  0.22671548267E+03  0.23451265915E+03  0.10000000000E+01 0.  0.
<mgrwt>
<rscale>  0 0.12499537E+03</rscale>
<asrwt>0</asrwt>
<pdfrwt beam="2">  1        4 0.16697179E-02 0.12499537E+03</pdfrwt>
<pdfrwt beam="1">  1       -4 0.55367904E-01 0.12499537E+03</pdfrwt>
<totfact> 0.67508018E+03</totfact>
</mgrwt>
</event>
<event>
 5    1  0.3227866E-002  0.1249840E+03  0.7818608E-02  0.1235094E+00
         -4   -1    0    0    0  501 -0.00000000000E+00  0.00000000000E+00  0.22296046851E+03  0.22296408549E+03  0.12700000000E+01 0.  1.
          4   -1    0    0  501    0  0.00000000000E+00 -0.00000000000E+00 -0.17488652850E+02  0.17534704973E+02  0.12700000000E+01 0.  1.
         25    2    1    2    0    0  0.00000000000E+00  0.00000000000E+00  0.20547181566E+03  0.24049879046E+03  0.12498400371E+03 0.  0.
    9000005    1    3    3    0    0 -0.43681726532E+02  0.24045232247E+02  0.30276612019E+02  0.58343291491E+02  0.10000000000E+01 0.  0.
    9000005    1    3    3    0    0  0.43681726532E+02 -0.24045232247E+02  0.17519520364E+03  0.18215549897E+03  0.10000000000E+01 0.  0.
<mgrwt>
<rscale>  0 0.12498400E+03</rscale>
<asrwt>0</asrwt>
<pdfrwt beam="2">  1        4 0.26943827E-02 0.12498400E+03</pdfrwt>
<pdfrwt beam="1">  1       -4 0.34305431E-01 0.12498400E+03</pdfrwt>
<totfact> 0.83753000E+03</totfact>
</mgrwt>
</event>
<event>
 5    1  0.3227866E-002  0.1250054E+03  0.7818608E-02  0.1235061E+00
          4   -1    0    0  501    0  0.00000000000E+00  0.00000000000E+00  0.10697716809E+03  0.10698470635E+03  0.12700000000E+01 0.  1.
         -4   -1    0    0    0  501 -0.00000000000E+00 -0.00000000000E+00 -0.36498062381E+02  0.36520151390E+02  0.12700000000E+01 0.  1.
         25    2    1    2    0    0  0.00000000000E+00  0.00000000000E+00  0.70479105711E+02  0.14350485774E+03  0.12500535930E+03 0.  0.
    9000005    1    3    3    0    0 -0.44845412116E+02  0.43109830567E+02  0.42129067476E+02  0.75136055299E+02  0.10000000000E+01 0.  0.
    9000005    1    3    3    0    0  0.44845412116E+02 -0.43109830567E+02  0.28350038235E+02  0.68368802442E+02  0.10000000000E+01 0.  0.
<mgrwt>
<rscale>  0 0.12500536E+03</rscale>
<asrwt>0</asrwt>
<pdfrwt beam="1">  1        4 0.16460304E-01 0.12500536E+03</pdfrwt>
<pdfrwt beam="2">  1       -4 0.56173657E-02 0.12500536E+03</pdfrwt>
<totfact> 0.10060241E+04</totfact>
</mgrwt>
</event>
<event>
 5    1  0.3227866E-002  0.1250022E+03  0.7818608E-02  0.1235066E+00
         -4   -1    0    0    0  501 -0.00000000000E+00  0.00000000000E+00  0.14698091244E+04  0.14698096731E+04  0.12700000000E+01 0.  1.
          4   -1    0    0  501    0  0.00000000000E+00 -0.00000000000E+00 -0.25054531234E+01  0.28089491547E+01  0.12700000000E+01 0.  1.
         25    2    1    2    0    0  0.00000000000E+00  0.00000000000E+00  0.14673036713E+04  0.14726186222E+04  0.12500217118E+03 0.  0.
    9000005    1    3    3    0    0 -0.36901908644E+02 -0.50217047518E+02  0.78876126753E+03  0.79121984295E+03  0.10000000000E+01 0.  0.
    9000005    1    3    3    0    0  0.36901908644E+02  0.50217047518E+02  0.67854240373E+03  0.68139877926E+03  0.10000000000E+01 0.  0.
<mgrwt>
<rscale>  0 0.12500217E+03</rscale>
<asrwt>0</asrwt>
<pdfrwt beam="2">  1        4 0.40884185E-03 0.12500217E+03</pdfrwt>
<pdfrwt beam="1">  1       -4 0.22614816E+00 0.12500217E+03</pdfrwt>
<totfact> 0.18473260E+03</totfact>
</mgrwt>
</event>
<event>
 5    1  0.3227866E-002  0.1249983E+03  0.7818608E-02  0.1235072E+00
         -4   -1    0    0    0  501 -0.00000000000E+00  0.00000000000E+00  0.37954584419E+01  0.40022999368E+01  0.12700000000E+01 0.  1.
          4   -1    0    0  501    0  0.00000000000E+00 -0.00000000000E+00 -0.10016560633E+04  0.10016568685E+04  0.12700000000E+01 0.  1.
         25    2    1    2    0    0  0.00000000000E+00  0.00000000000E+00 -0.99786060490E+03  0.10056591684E+04  0.12499830465E+03 0.  0.
    9000005    1    3    3    0    0  0.63790794647E+01 -0.58727952232E+02 -0.33493883942E+03  0.34010982224E+03  0.10000000000E+01 0.  0.
    9000005    1    3    3    0    0 -0.63790794647E+01  0.58727952232E+02 -0.66292176548E+03  0.66554934616E+03  0.10000000000E+01 0.  0.
<mgrwt>
<rscale>  0 0.12499830E+03</rscale>
<asrwt>0</asrwt>
<pdfrwt beam="2">  1        4 0.15411670E+00 0.12499830E+03</pdfrwt>
<pdfrwt beam="1">  1       -4 0.59989030E-03 0.12499830E+03</pdfrwt>
<totfact> 0.30419522E+03</totfact>
</mgrwt>
</event>
<event>
 5    1  0.3227866E-002  0.1250192E+03  0.7818608E-02  0.1235039E+00
          4   -1    0    0  501    0  0.00000000000E+00  0.00000000000E+00  0.32398545796E+02  0.32423427791E+02  0.12700000000E+01 0.  1.
         -4   -1    0    0    0  501 -0.00000000000E+00 -0.00000000000E+00 -0.12053114790E+03  0.12053783852E+03  0.12700000000E+01 0.  1.
         25    2    1    2    0    0  0.00000000000E+00  0.00000000000E+00 -0.88132602104E+02  0.15296126631E+03  0.12501917228E+03 0.  0.
    9000005    1    3    3    0    0  0.24529584159E+02  0.56758185154E+02 -0.55230134465E+02  0.82912965415E+02  0.10000000000E+01 0.  0.
    9000005    1    3    3    0    0 -0.24529584159E+02 -0.56758185154E+02 -0.32902467639E+02  0.70048300891E+02  0.10000000000E+01 0.  0.
<mgrwt>
<rscale>  0 0.12501917E+03</rscale>
<asrwt>0</asrwt>
<pdfrwt beam="1">  1        4 0.49868204E-02 0.12501917E+03</pdfrwt>
<pdfrwt beam="2">  1       -4 0.18545682E-01 0.12501917E+03</pdfrwt>
<totfact> 0.98674087E+03</totfact>
</mgrwt>
</event>
<event>
 5    1  0.3227866E-002  0.1250016E+03  0.7818608E-02  0.1235067E+00
          4   -1    0    0  501    0  0.00000000000E+00  0.00000000000E+00  0.64553354699E+02  0.64565846257E+02  0.12700000000E+01 0.  1.
         -4   -1    0    0    0  501 -0.00000000000E+00 -0.00000000000E+00 -0.60488494747E+02  0.60501825566E+02  0.12700000000E+01 0.  1.
         25    2    1    2    0    0  0.00000000000E+00  0.00000000000E+00  0.40648599518E+01  0.12506767182E+03  0.12500159778E+03 0.  0.
    9000005    1    3    3    0    0  0.28107454378E+02  0.34568330162E+02 -0.41812548037E+02  0.61108817818E+02  0.10000000000E+01 0.  0.
    9000005    1    3    3    0    0 -0.28107454378E+02 -0.34568330162E+02  0.45877407988E+02  0.63958854004E+02  0.10000000000E+01 0.  0.
<mgrwt>
<rscale>  0 0.12500160E+03</rscale>
<asrwt>0</asrwt>
<pdfrwt beam="1">  1        4 0.99332717E-02 0.12500160E+03</pdfrwt>
<pdfrwt beam="2">  1       -4 0.93079086E-02 0.12500160E+03</pdfrwt>
<totfact> 0.10451016E+04</totfact>
</mgrwt>
</event>
<event>
 5    1  0.3227866E-002  0.1249991E+03  0.7818608E-02  0.1235071E+00
          4   -1    0    0  501    0  0.00000000000E+00  0.00000000000E+00  0.86275511304E+02  0.86284858178E+02  0.12700000000E+01 0. -1.
         -4   -1    0    0    0  501 -0.00000000000E+00 -0.00000000000E+00 -0.45255133541E+02  0.45272950112E+02  0.12700000000E+01 0. -1.
         25    2    1    2    0    0  0.00000000000E+00  0.00000000000E+00  0.41020377763E+02  0.13155780829E+03  0.12499914212E+03 0.  0.
    9000005    1    3    3    0    0 -0.33643249544E+02 -0.27357703154E+00  0.75935018452E+02  0.83060641170E+02  0.10000000000E+01 0.  0.
    9000005    1    3    3    0    0  0.33643249544E+02  0.27357703154E+00 -0.34914640688E+02  0.48497167120E+02  0.10000000000E+01 0.  0.
<mgrwt>
<rscale>  0 0.12499914E+03</rscale>
<asrwt>0</asrwt>
<pdfrwt beam="1">  1        4 0.13275245E-01 0.12499914E+03</pdfrwt>
<pdfrwt beam="2">  1       -4 0.69644178E-02 0.12499914E+03</pdfrwt>
<totfact> 0.10311345E+04</totfact>
</mgrwt>
</event>
<event>
 5    1  0.3227866E-002  0.1250046E+03  0.7818608E-02  0.1235062E+00
          4   -1    0    0  501    0  0.00000000000E+00  0.00000000000E+00  0.15513384039E+03  0.15513903872E+03  0.12700000000E+01 0.  1.
         -4   -1    0    0    0  501 -0.00000000000E+00 -0.00000000000E+00 -0.25160082428E+02  0.25192114794E+02  0.12700000000E+01 0.  1.
         25    2    1    2    0    0  0.00000000000E+00  0.00000000000E+00  0.12997375796E+03  0.18033115351E+03  0.12500458859E+03 0.  0.
    9000005    1    3    3    0    0 -0.13624513156E+02  0.10585041361E+02  0.15163716990E+03  0.15261881193E+03  0.10000000000E+01 0.  0.
    9000005    1    3    3    0    0  0.13624513156E+02 -0.10585041361E+02 -0.21663411936E+02  0.27712341584E+02  0.10000000000E+01 0.  0.
<mgrwt>
<rscale>  0 0.12500459E+03</rscale>
<asrwt>0</asrwt>
<pdfrwt beam="1">  1        4 0.23869609E-01 0.12500459E+03</pdfrwt>
<pdfrwt beam="2">  1       -4 0.38736458E-02 0.12500459E+03</pdfrwt>
<totfact> 0.93547803E+03</totfact>
</mgrwt>
</event>
<event>
 5    1  0.3227866E-002  0.1250009E+03  0.7818608E-02  0.1235068E+00
         -4   -1    0    0    0  501 -0.00000000000E+00  0.00000000000E+00  0.73487260812E+01  0.74576588161E+01  0.12700000000E+01 0. -1.
          4   -1    0    0  501    0  0.00000000000E+00 -0.00000000000E+00 -0.52754165774E+03  0.52754318643E+03  0.12700000000E+01 0. -1.
         25    2    1    2    0    0  0.00000000000E+00  0.00000000000E+00 -0.52019293166E+03  0.53500084525E+03  0.12500087307E+03 0.  0.
    9000005    1    3    3    0    0  0.13239224612E+02 -0.48782093004E+02 -0.41737236186E+03  0.42042318931E+03  0.10000000000E+01 0.  0.
    9000005    1    3    3    0    0 -0.13239224612E+02  0.48782093004E+02 -0.10282056980E+03  0.11457765594E+03  0.10000000000E+01 0.  0.
<mgrwt>
<rscale>  0 0.12500087E+03</rscale>
<asrwt>0</asrwt>
<pdfrwt beam="2">  1        4 0.81168723E-01 0.12500087E+03</pdfrwt>
<pdfrwt beam="1">  1       -4 0.11390707E-02 0.12500087E+03</pdfrwt>
<totfact> 0.53246436E+03</totfact>
</mgrwt>
</event>
<event>
 5    1  0.3227866E-002  0.1249942E+03  0.7818608E-02  0.1235078E+00
          4   -1    0    0  501    0  0.00000000000E+00  0.00000000000E+00  0.49977878571E+03  0.49978039933E+03  0.12700000000E+01 0. -1.
         -4   -1    0    0    0  501 -0.00000000000E+00 -0.00000000000E+00 -0.77620036157E+01  0.78652145635E+01  0.12700000000E+01 0. -1.
         25    2    1    2    0    0  0.00000000000E+00  0.00000000000E+00  0.49201678210E+03  0.50764561389E+03  0.12499422160E+03 0.  0.
    9000005    1    3    3    0    0 -0.59296033643E+02  0.19402929657E+02  0.23170944547E+03  0.23996408149E+03  0.10000000000E+01 0.  0.
    9000005    1    3    3    0    0  0.59296033643E+02 -0.19402929657E+02  0.26030733663E+03  0.26768153240E+03  0.10000000000E+01 0.  0.
<mgrwt>
<rscale>  0 0.12499422E+03</rscale>
<asrwt>0</asrwt>
<pdfrwt beam="1">  1        4 0.76897131E-01 0.12499422E+03</pdfrwt>
<pdfrwt beam="2">  1       -4 0.12022175E-02 0.12499422E+03</pdfrwt>
<totfact> 0.55283012E+03</totfact>
</mgrwt>
</event>
<event>
 5    1  0.3227866E-002  0.1250040E+03  0.7818608E-02  0.1235063E+00
          4   -1    0    0  501    0  0.00000000000E+00  0.00000000000E+00  0.14560063089E+02  0.14615345948E+02  0.12700000000E+01 0.  1.
         -4   -1    0    0    0  501 -0.00000000000E+00 -0.00000000000E+00 -0.26773705315E+03  0.26774006523E+03  0.12700000000E+01 0.  1.
         25    2    1    2    0    0  0.00000000000E+00  0.00000000000E+00 -0.25317699006E+03  0.28235541118E+03  0.12500395964E+03 0.  0.
    9000005    1    3    3    0    0 -0.55844705476E+02 -0.25757960855E+02 -0.10149743428E+03  0.11867953843E+03  0.10000000000E+01 0.  0.
    9000005    1    3    3    0    0  0.55844705476E+02  0.25757960855E+02 -0.15167955578E+03  0.16367587274E+03  0.10000000000E+01 0.  0.
<mgrwt>
<rscale>  0 0.12500396E+03</rscale>
<asrwt>0</asrwt>
<pdfrwt beam="1">  1        4 0.22444941E-02 0.12500396E+03</pdfrwt>
<pdfrwt beam="2">  1       -4 0.41194796E-01 0.12500396E+03</pdfrwt>
<totfact> 0.77859978E+03</totfact>
</mgrwt>
</event>
<event>
 5    1  0.3227866E-002  0.1250023E+03  0.7818608E-02  0.1235066E+00
         -4   -1    0    0    0  501 -0.00000000000E+00  0.00000000000E+00  0.46942965901E+03  0.46943137694E+03  0.12700000000E+01 0. -1.
          4   -1    0    0  501    0  0.00000000000E+00 -0.00000000000E+00 -0.82713764633E+01  0.83683073914E+01  0.12700000000E+01 0. -1.
         25    2    1    2    0    0  0.00000000000E+00  0.00000000000E+00  0.46115828255E+03  0.47779968434E+03  0.12500230713E+03 0.  0.
    9000005    1    3    3    0    0  0.21165742943E+02  0.57077892545E+02  0.17658822136E+03  0.18678938517E+03  0.10000000000E+01 0.  0.
    9000005    1    3    3    0    0 -0.21165742943E+02 -0.57077892545E+02  0.28457006119E+03  0.29101029916E+03  0.10000000000E+01 0.  0.
<mgrwt>
<rscale>  0 0.12500231E+03</rscale>
<asrwt>0</asrwt>
<pdfrwt beam="2">  1        4 0.12801078E-02 0.12500231E+03</pdfrwt>
<pdfrwt beam="1">  1       -4 0.72227539E-01 0.12500231E+03</pdfrwt>
<totfact> 0.57626012E+03</totfact>
</mgrwt>
</event>
<event>
 5    1  0.3227866E-002  0.1250053E+03  0.7818608E-02  0.1235061E+00
         -4   -1    0    0    0  501 -0.00000000000E+00  0.00000000000E+00  0.16611325333E+02  0.16659802799E+02  0.12700000000E+01 0.  1.
          4   -1    0    0  501    0  0.00000000000E+00 -0.00000000000E+00 -0.23478302412E+03  0.23478645897E+03  0.12700000000E+01 0.  1.
         25    2    1    2    0    0  0.00000000000E+00  0.00000000000E+00 -0.21817169879E+03  0.25144626177E+03  0.12500532951E+03 0.  0.
    9000005    1    3    3    0    0  0.54112274675E+01 -0.53447416398E+02 -0.44854414368E+02  0.69991615145E+02  0.10000000000E+01 0.  0.
    9000005    1    3    3    0    0 -0.54112274675E+01  0.53447416398E+02 -0.17331728442E+03  0.18145464662E+03  0.10000000000E+01 0.  0.
<mgrwt>
<rscale>  0 0.12500533E+03</rscale>
<asrwt>0</asrwt>
<pdfrwt beam="2">  1        4 0.36124456E-01 0.12500533E+03</pdfrwt>
<pdfrwt beam="1">  1       -4 0.25595819E-02 0.12500533E+03</pdfrwt>
<totfact> 0.82111900E+03</totfact>
</mgrwt>
</event>
<event>
 5    1  0.3227866E-002  0.1249983E+03  0.7818608E-02  0.1235072E+00
          4   -1    0    0  501    0  0.00000000000E+00  0.00000000000E+00  0.38943312008E+02  0.38964014810E+02  0.12700000000E+01 0. -1.
         -4   -1    0    0    0  501 -0.00000000000E+00 -0.00000000000E+00 -0.10025200740E+03  0.10026005130E+03  0.12700000000E+01 0. -1.
         25    2    1    2    0    0  0.00000000000E+00  0.00000000000E+00 -0.61308695392E+02  0.13922406612E+03  0.12499833781E+03 0.  0.
    9000005    1    3    3    0    0 -0.26692350421E+02 -0.47271607948E+02  0.38208166030E+01  0.54430553263E+02  0.10000000000E+01 0.  0.
    9000005    1    3    3    0    0  0.26692350421E+02  0.47271607948E+02 -0.65129511995E+02  0.84793512852E+02  0.10000000000E+01 0.  0.
<mgrwt>
<rscale>  0 0.12499834E+03</rscale>
<asrwt>0</asrwt>
<pdfrwt beam="1">  1        4 0.59934901E-02 0.12499834E+03</pdfrwt>
<pdfrwt beam="2">  1       -4 0.15425597E-01 0.12499834E+03</pdfrwt>
<totfact> 0.10150073E+04</totfact>
</mgrwt>
</event>
<event>
 5    1  0.3227866E-002  0.1249975E+03  0.7818608E-02  0.1235073E+00
          4   -1    0    0  501    0  0.00000000000E+00  0.00000000000E+00  0.13713687834E+02  0.13772368496E+02  0.12700000000E+01 0.  1.
         -4   -1    0    0    0  501 -0.00000000000E+00 -0.00000000000E+00 -0.28416333641E+03  0.28416617437E+03  0.12700000000E+01 0.  1.
         25    2    1    2    0    0  0.00000000000E+00  0.00000000000E+00 -0.27044964857E+03  0.29793854287E+03  0.12499745163E+03 0.  0.
    9000005    1    3    3    0    0  0.29876325506E+02 -0.24606750073E+02 -0.18284602218E+02  0.42818379852E+02  0.10000000000E+01 0.  0.
    9000005    1    3    3    0    0 -0.29876325506E+02  0.24606750073E+02 -0.25216504635E+03  0.25512016302E+03  0.10000000000E+01 0.  0.
<mgrwt>
<rscale>  0 0.12499745E+03</rscale>
<asrwt>0</asrwt>
<pdfrwt beam="1">  1        4 0.21145305E-02 0.12499745E+03</pdfrwt>
<pdfrwt beam="2">  1       -4 0.43722164E-01 0.12499745E+03</pdfrwt>
<totfact> 0.75862448E+03</totfact>
</mgrwt>
</event>
<event>
 5    1  0.3227866E-002  0.1250000E+03  0.7818608E-02  0.1235069E+00
          4   -1    0    0  501    0  0.00000000000E+00  0.00000000000E+00  0.86833873489E+01  0.87757686758E+01  0.12700000000E+01 0.  1.
         -4   -1    0    0    0  501 -0.00000000000E+00 -0.00000000000E+00 -0.44737944653E+03  0.44738124914E+03  0.12700000000E+01 0.  1.
         25    2    1    2    0    0  0.00000000000E+00  0.00000000000E+00 -0.43869605918E+03  0.45615701781E+03  0.12499997023E+03 0.  0.
    9000005    1    3    3    0    0  0.47746032889E+02 -0.38868242338E+02 -0.25845203133E+03  0.26568567221E+03  0.10000000000E+01 0.  0.
    9000005    1    3    3    0    0 -0.47746032889E+02  0.38868242338E+02 -0.18024402785E+03  0.19047134560E+03  0.10000000000E+01 0.  0.
<mgrwt>
<rscale>  0 0.12499997E+03</rscale>
<asrwt>0</asrwt>
<pdfrwt beam="1">  1        4 0.13431510E-02 0.12499997E+03</pdfrwt>
<pdfrwt beam="2">  1       -4 0.68834834E-01 0.12499997E+03</pdfrwt>
<totfact> 0.59434146E+03</totfact>
</mgrwt>
</event>
<event>
 5    1  0.3227866E-002  0.1250029E+03  0.7818608E-02  0.1235065E+00
          4   -1    0    0  501    0  0.00000000000E+00  0.00000000000E+00  0.40894534636E+01  0.42821174238E+01  0.12700000000E+01 0. -1.
         -4   -1    0    0    0  501 -0.00000000000E+00 -0.00000000000E+00 -0.93306878068E+03  0.93306964498E+03  0.12700000000E+01 0. -1.
         25    2    1    2    0    0  0.00000000000E+00  0.00000000000E+00 -0.92897932722E+03  0.93735176241E+03  0.12500294430E+03 0.  0.
    9000005    1    3    3    0    0  0.30188741382E+02  0.53645002407E+02 -0.38362679947E+03  0.38853528497E+03  0.10000000000E+01 0.  0.
    9000005    1    3    3    0    0 -0.30188741382E+02 -0.53645002407E+02 -0.54535252775E+03  0.54881647744E+03  0.10000000000E+01 0.  0.
<mgrwt>
<rscale>  0 0.12500294E+03</rscale>
<asrwt>0</asrwt>
<pdfrwt beam="1">  1        4 0.64403422E-03 0.12500294E+03</pdfrwt>
<pdfrwt beam="2">  1       -4 0.14356376E+00 0.12500294E+03</pdfrwt>
<totfact> 0.32767268E+03</totfact>
</mgrwt>
</event>
<event>
 5    1  0.3227866E-002  0.1249963E+03  0.7818608E-02  0.1235075E+00
         -4   -1    0    0    0  501 -0.00000000000E+00  0.00000000000E+00  0.91579655765E+02  0.91588461337E+02  0.12700000000E+01 0.  1.
          4   -1    0    0  501    0  0.00000000000E+00 -0.00000000000E+00 -0.42631257688E+02  0.42650170364E+02  0.12700000000E+01 0.  1.
         25    2    1    2    0    0  0.00000000000E+00  0.00000000000E+00  0.48948398077E+02  0.13423863170E+03  0.12499625821E+03 0.  0.
    9000005    1    3    3    0    0 -0.22137290807E+02  0.53603028319E+02  0.49468939897E+02  0.76233328038E+02  0.10000000000E+01 0.  0.
    9000005    1    3    3    0    0  0.22137290807E+02 -0.53603028319E+02 -0.52054181996E+00  0.58005303663E+02  0.10000000000E+01 0.  0.
<mgrwt>
<rscale>  0 0.12499626E+03</rscale>
<asrwt>0</asrwt>
<pdfrwt beam="2">  1        4 0.65607873E-02 0.12499626E+03</pdfrwt>
<pdfrwt beam="1">  1       -4 0.14091310E-01 0.12499626E+03</pdfrwt>
<totfact> 0.10255009E+04</totfact>
</mgrwt>
</event>
<event>
 5    1  0.3227866E-002  0.1250010E+03  0.7818608E-02  0.1235068E+00
          4   -1    0    0  501    0  0.00000000000E+00  0.00000000000E+00  0.42298564151E+01  0.44163995848E+01  0.12700000000E+01 0.  1.
         -4   -1    0    0    0  501 -0.00000000000E+00 -0.00000000000E+00 -0.90339841872E+03  0.90339931140E+03  0.12700000000E+01 0.  1.
         25    2    1    2    0    0  0.00000000000E+00  0.00000000000E+00 -0.89916856230E+03  0.90781571099E+03  0.12500104672E+03 0.  0.
    9000005    1    3    3    0    0  0.13125841670E+02 -0.15145885798E+02 -0.19708326420E+02  0.28126565848E+02  0.10000000000E+01 0.  0.
    9000005    1    3    3    0    0 -0.13125841670E+02  0.15145885798E+02 -0.87946023588E+03  0.87968914514E+03  0.10000000000E+01 0.  0.
<mgrwt>
<rscale>  0 0.12500105E+03</rscale>
<asrwt>0</asrwt>
<pdfrwt beam="1">  1        4 0.66516600E-03 0.12500105E+03</pdfrwt>
<pdfrwt beam="2">  1       -4 0.13899864E+00 0.12500105E+03</pdfrwt>
<totfact> 0.33861671E+03</totfact>
</mgrwt>
</event>
<event>
 5    1  0.3227866E-002  0.1249786E+03  0.7818608E-02  0.1235103E+00
          4   -1    0    0  501    0  0.00000000000E+00  0.00000000000E+00  0.27352257236E+02  0.27381725217E+02  0.12700000000E+01 0. -1.
         -4   -1    0    0    0  501 -0.00000000000E+00 -0.00000000000E+00 -0.14265462507E+03  0.14266027812E+03  0.12700000000E+01 0. -1.
         25    2    1    2    0    0  0.00000000000E+00  0.00000000000E+00 -0.11530236783E+03  0.17004200334E+03  0.12497858565E+03 0.  0.
    9000005    1    3    3    0    0 -0.11526921824E+02 -0.26929440907E+02 -0.13273989499E+03  0.13593728126E+03  0.10000000000E+01 0.  0.
    9000005    1    3    3    0    0  0.11526921824E+02  0.26929440907E+02  0.17437527161E+02  0.34104722075E+02  0.10000000000E+01 0.  0.
<mgrwt>
<rscale>  0 0.12497859E+03</rscale>
<asrwt>0</asrwt>
<pdfrwt beam="1">  1        4 0.42107413E-02 0.12497859E+03</pdfrwt>
<pdfrwt beam="2">  1       -4 0.21949566E-01 0.12497859E+03</pdfrwt>
<totfact> 0.95486696E+03</totfact>
</mgrwt>
</event>
<event>
 5    1  0.3227866E-002  0.1250004E+03  0.7818608E-02  0.1235069E+00
         -4   -1    0    0    0  501 -0.00000000000E+00  0.00000000000E+00  0.88024302547E+02  0.88033463744E+02  0.12700000000E+01 0. -1.
          4   -1    0    0  501    0  0.00000000000E+00 -0.00000000000E+00 -0.44356668562E+02  0.44374845869E+02  0.12700000000E+01 0. -1.
         25    2    1    2    0    0  0.00000000000E+00  0.00000000000E+00  0.43667633985E+02  0.13240830961E+03  0.12500039279E+03 0.  0.
    9000005    1    3    3    0    0 -0.54653859725E+02  0.44478642656E+01  0.53584276512E+02  0.76675306120E+02  0.10000000000E+01 0.  0.
    9000005    1    3    3    0    0  0.54653859725E+02 -0.44478642656E+01 -0.99166425267E+01  0.55733003493E+02  0.10000000000E+01 0.  0.
<mgrwt>
<rscale>  0 0.12500039E+03</rscale>
<asrwt>0</asrwt>
<pdfrwt beam="2">  1        4 0.68262059E-02 0.12500039E+03</pdfrwt>
<pdfrwt beam="1">  1       -4 0.13544303E-01 0.12500039E+03</pdfrwt>
<totfact> 0.10292900E+04</totfact>
</mgrwt>
</event>
<event>
 5    1  0.3227866E-002  0.1249831E+03  0.7818608E-02  0.1235096E+00
         -4   -1    0    0    0  501 -0.00000000000E+00  0.00000000000E+00  0.11518686792E+04  0.11518693793E+04  0.12700000000E+01 0. -1.
          4   -1    0    0  501    0  0.00000000000E+00 -0.00000000000E+00 -0.32706524882E+01  0.35085706062E+01  0.12700000000E+01 0. -1.
         25    2    1    2    0    0  0.00000000000E+00  0.00000000000E+00  0.11485980267E+04  0.11553779499E+04  0.12498311972E+03 0.  0.
    9000005    1    3    3    0    0  0.55292710250E+02  0.23129714876E+02  0.73756644908E+03  0.73999833401E+03  0.10000000000E+01 0.  0.
    9000005    1    3    3    0    0 -0.55292710250E+02 -0.23129714876E+02  0.41103157759E+03  0.41537961588E+03  0.10000000000E+01 0.  0.
<mgrwt>
<rscale>  0 0.12498312E+03</rscale>
<asrwt>0</asrwt>
<pdfrwt beam="2">  1        4 0.52153241E-03 0.12498312E+03</pdfrwt>
<pdfrwt beam="1">  1       -4 0.17722897E+00 0.12498312E+03</pdfrwt>
<totfact> 0.25921018E+03</totfact>
</mgrwt>
</event>
<event>
 5    1  0.3227866E-002  0.1249935E+03  0.7818608E-02  0.1235079E+00
          4   -1    0    0  501    0  0.00000000000E+00  0.00000000000E+00  0.58255531114E+02  0.58269372791E+02  0.12700000000E+01 0. -1.
         -4   -1    0    0    0  501 -0.00000000000E+00 -0.00000000000E+00 -0.67018974446E+02  0.67031006525E+02  0.12700000000E+01 0. -1.
         25    2    1    2    0    0  0.00000000000E+00  0.00000000000E+00 -0.87634433317E+01  0.12530037932E+03  0.12499354830E+03 0.  0.
    9000005    1    3    3    0    0  0.10786181933E+02 -0.54183851867E+02 -0.33652976342E+02  0.64697405979E+02  0.10000000000E+01 0.  0.
    9000005    1    3    3    0    0 -0.10786181933E+02  0.54183851867E+02  0.24889533010E+02  0.60602973337E+02  0.10000000000E+01 0.  0.
<mgrwt>
<rscale>  0 0.12499355E+03</rscale>
<asrwt>0</asrwt>
<pdfrwt beam="1">  1        4 0.89643797E-02 0.12499355E+03</pdfrwt>
<pdfrwt beam="2">  1       -4 0.10312602E-01 0.12499355E+03</pdfrwt>
<totfact> 0.10447865E+04</totfact>
</mgrwt>
</event>
<event>
 5    1  0.3227866E-002  0.1249996E+03  0.7818608E-02  0.1235070E+00
          4   -1    0    0  501    0  0.00000000000E+00  0.00000000000E+00  0.10713463548E+04  0.10713471075E+04  0.12700000000E+01 0.  1.
         -4   -1    0    0    0  501 -0.00000000000E+00 -0.00000000000E+00 -0.35347224195E+01  0.37559502902E+01  0.12700000000E+01 0.  1.
         25    2    1    2    0    0  0.00000000000E+00  0.00000000000E+00  0.10678116323E+04  0.10751030578E+04  0.12499961087E+03 0.  0.
    9000005    1    3    3    0    0  0.12801729934E+02 -0.58209059533E+02  0.69551184646E+03  0.69806153559E+03  0.10000000000E+01 0.  0.
    9000005    1    3    3    0    0 -0.12801729934E+02  0.58209059533E+02  0.37229978587E+03  0.37704152220E+03  0.10000000000E+01 0.  0.
<mgrwt>
<rscale>  0 0.12499961E+03</rscale>
<asrwt>0</asrwt>
<pdfrwt beam="1">  1        4 0.16483960E+00 0.12499961E+03</pdfrwt>
<pdfrwt beam="2">  1       -4 0.56087885E-03 0.12499961E+03</pdfrwt>
<totfact> 0.28223957E+03</totfact>
</mgrwt>
</event>
<event>
 5    1  0.3227866E-002  0.1250006E+03  0.7818608E-02  0.1235068E+00
         -4   -1    0    0    0  501 -0.00000000000E+00  0.00000000000E+00  0.49961912552E+02  0.49978051241E+02  0.12700000000E+01 0.  1.
          4   -1    0    0  501    0  0.00000000000E+00 -0.00000000000E+00 -0.78151337518E+02  0.78161655918E+02  0.12700000000E+01 0.  1.
         25    2    1    2    0    0  0.00000000000E+00  0.00000000000E+00 -0.28189424966E+02  0.12813970716E+03  0.12500056348E+03 0.  0.
    9000005    1    3    3    0    0  0.30252271250E+02  0.19718980681E+02 -0.66377960686E+02  0.75571633433E+02  0.10000000000E+01 0.  0.
    9000005    1    3    3    0    0 -0.30252271250E+02 -0.19718980681E+02  0.38188535720E+02  0.52568073727E+02  0.10000000000E+01 0.  0.
<mgrwt>
<rscale>  0 0.12500056E+03</rscale>
<asrwt>0</asrwt>
<pdfrwt beam="2">  1        4 0.12025318E-01 0.12500056E+03</pdfrwt>
<pdfrwt beam="1">  1       -4 0.76884833E-02 0.12500056E+03</pdfrwt>
<totfact> 0.10384339E+04</totfact>
</mgrwt>
</event>
<event>
 5    1  0.3227866E-002  0.1250007E+03  0.7818608E-02  0.1235068E+00
          4   -1    0    0  501    0  0.00000000000E+00  0.00000000000E+00  0.14548060582E+02  0.14603388878E+02  0.12700000000E+01 0. -1.
         -4   -1    0    0    0  501 -0.00000000000E+00 -0.00000000000E+00 -0.26794292507E+03  0.26794593484E+03  0.12700000000E+01 0. -1.
         25    2    1    2    0    0  0.00000000000E+00  0.00000000000E+00 -0.25339486449E+03  0.28254932372E+03  0.12500065193E+03 0.  0.
    9000005    1    3    3    0    0  0.57710847320E+02  0.16289237049E+02 -0.16645766232E+03  0.17693228786E+03  0.10000000000E+01 0.  0.
    9000005    1    3    3    0    0 -0.57710847320E+02 -0.16289237049E+02 -0.86937202171E+02  0.10561703586E+03  0.10000000000E+01 0.  0.
<mgrwt>
<rscale>  0 0.12500065E+03</rscale>
<asrwt>0</asrwt>
<pdfrwt beam="1">  1        4 0.22426509E-02 0.12500065E+03</pdfrwt>
<pdfrwt beam="2">  1       -4 0.41226472E-01 0.12500065E+03</pdfrwt>
<totfact> 0.77840167E+03</totfact>
</mgrwt>
</event>
<event>
 5    1  0.3227866E-002  0.1249948E+03  0.7818608E-02  0.1235077E+00
         -4   -1    0    0    0  501 -0.00000000000E+00  0.00000000000E+00  0.59029406451E+02  0.59043066705E+02  0.12700000000E+01 0. -1.
          4   -1    0    0  501    0  0.00000000000E+00 -0.00000000000E+00 -0.66141731771E+02  0.66153923404E+02  0.12700000000E+01 0. -1.
         25    2    1    2    0    0  0.00000000000E+00  0.00000000000E+00 -0.71123253204E+01  0.12519699011E+03  0.12499480454E+03 0.  0.
    9000005    1    3    3    0    0 -0.16347200892E+02  0.46227456042E+02 -0.42357909031E+02  0.64802786411E+02  0.10000000000E+01 0.  0.
    9000005    1    3    3    0    0  0.16347200892E+02 -0.46227456042E+02  0.35245583711E+02  0.60394203698E+02  0.10000000000E+01 0.  0.
<mgrwt>
<rscale>  0 0.12499480E+03</rscale>
<asrwt>0</asrwt>
<pdfrwt beam="2">  1        4 0.10177640E-01 0.12499480E+03</pdfrwt>
<pdfrwt beam="1">  1       -4 0.90834358E-02 0.12499480E+03</pdfrwt>
<totfact> 0.10449812E+04</totfact>
</mgrwt>
</event>
<event>
 5    1  0.3227866E-002  0.1250004E+03  0.7818608E-02  0.1235069E+00
         -4   -1    0    0    0  501 -0.00000000000E+00  0.00000000000E+00  0.15534687144E+03  0.15535206264E+03  0.12700000000E+01 0. -1.
          4   -1    0    0  501    0  0.00000000000E+00 -0.00000000000E+00 -0.25123850638E+02  0.25155929140E+02  0.12700000000E+01 0. -1.
         25    2    1    2    0    0  0.00000000000E+00  0.00000000000E+00  0.13022302080E+03  0.18050799178E+03  0.12500039980E+03 0.  0.
    9000005    1    3    3    0    0 -0.19671830558E+02  0.59199326115E+02  0.70463081475E+02  0.94114754322E+02  0.10000000000E+01 0.  0.
    9000005    1    3    3    0    0  0.19671830558E+02 -0.59199326115E+02  0.59759939324E+02  0.86393237455E+02  0.10000000000E+01 0.  0.
<mgrwt>
<rscale>  0 0.12500040E+03</rscale>
<asrwt>0</asrwt>
<pdfrwt beam="2">  1        4 0.38680747E-02 0.12500040E+03</pdfrwt>
<pdfrwt beam="1">  1       -4 0.23902385E-01 0.12500040E+03</pdfrwt>
<totfact> 0.93524804E+03</totfact>
</mgrwt>
</event>
<event>
 5    1  0.3227866E-002  0.1250239E+03  0.7818608E-02  0.1235032E+00
         -4   -1    0    0    0  501 -0.00000000000E+00  0.00000000000E+00  0.43229933603E+02  0.43248584478E+02  0.12700000000E+01 0.  1.
          4   -1    0    0  501    0  0.00000000000E+00 -0.00000000000E+00 -0.90351804991E+02  0.90360730216E+02  0.12700000000E+01 0.  1.
         25    2    1    2    0    0  0.00000000000E+00  0.00000000000E+00 -0.47121871388E+02  0.13360931469E+03  0.12502391055E+03 0.  0.
    9000005    1    3    3    0    0 -0.31124653987E+02  0.48779154055E+02  0.16966609072E+01  0.57896706421E+02  0.10000000000E+01 0.  0.
    9000005    1    3    3    0    0  0.31124653987E+02 -0.48779154055E+02 -0.48818532295E+02  0.75712608273E+02  0.10000000000E+01 0.  0.
<mgrwt>
<rscale>  0 0.12502391E+03</rscale>
<asrwt>0</asrwt>
<pdfrwt beam="2">  1        4 0.13902399E-01 0.12502391E+03</pdfrwt>
<pdfrwt beam="1">  1       -4 0.66528803E-02 0.12502391E+03</pdfrwt>
<totfact> 0.10261931E+04</totfact>
</mgrwt>
</event>
<event>
 5    1  0.3227866E-002  0.1249968E+03  0.7818608E-02  0.1235074E+00
         -4   -1    0    0    0  501 -0.00000000000E+00  0.00000000000E+00  0.73657922594E+03  0.73658032080E+03  0.12700000000E+01 0. -1.
          4   -1    0    0  501    0  0.00000000000E+00 -0.00000000000E+00 -0.52258058501E+01  0.53779128650E+01  0.12700000000E+01 0. -1.
         25    2    1    2    0    0  0.00000000000E+00  0.00000000000E+00  0.73135342009E+03  0.74195823367E+03  0.12499678165E+03 0.  0.
    9000005    1    3    3    0    0  0.33828555358E+01 -0.32929733656E+01  0.73554830765E+03  0.73556413742E+03  0.10000000000E+01 0.  0.
    9000005    1    3    3    0    0 -0.33828555358E+01  0.32929733656E+01 -0.41948875525E+01  0.63940962411E+01  0.10000000000E+01 0.  0.
<mgrwt>
<rscale>  0 0.12499678E+03</rscale>
<asrwt>0</asrwt>
<pdfrwt beam="2">  1        4 0.81575536E-03 0.12499678E+03</pdfrwt>
<pdfrwt beam="1">  1       -4 0.11333160E+00 0.12499678E+03</pdfrwt>
<totfact> 0.40964661E+03</totfact>
</mgrwt>
</event>
<event>
 5    1  0.3227866E-002  0.1249972E+03  0.7818608E-02  0.1235074E+00
          4   -1    0    0  501    0  0.00000000000E+00  0.00000000000E+00  0.85892628375E+02  0.85902016909E+02  0.12700000000E+01 0. -1.
         -4   -1    0    0    0  501 -0.00000000000E+00 -0.00000000000E+00 -0.45455495470E+02  0.45473233538E+02  0.12700000000E+01 0. -1.
         25    2    1    2    0    0  0.00000000000E+00  0.00000000000E+00  0.40437132905E+02  0.13137525045E+03  0.12499717882E+03 0.  0.
    9000005    1    3    3    0    0 -0.32689254172E+00  0.25516508420E+02  0.80171957566E+02  0.84141201801E+02  0.10000000000E+01 0.  0.
    9000005    1    3    3    0    0  0.32689254172E+00 -0.25516508420E+02 -0.39734824661E+02  0.47234048646E+02  0.10000000000E+01 0.  0.
<mgrwt>
<rscale>  0 0.12499718E+03</rscale>
<asrwt>0</asrwt>
<pdfrwt beam="1">  1        4 0.13216337E-01 0.12499718E+03</pdfrwt>
<pdfrwt beam="2">  1       -4 0.69952398E-02 0.12499718E+03</pdfrwt>
<totfact> 0.10315708E+04</totfact>
</mgrwt>
</event>
<event>
 5    1  0.3227866E-002  0.1250150E+03  0.7818608E-02  0.1235046E+00
         -4   -1    0    0    0  501 -0.00000000000E+00  0.00000000000E+00  0.82090660563E+02  0.82100483870E+02  0.12700000000E+01 0.  1.
          4   -1    0    0  501    0  0.00000000000E+00 -0.00000000000E+00 -0.47574853903E+02  0.47591802066E+02  0.12700000000E+01 0.  1.
         25    2    1    2    0    0  0.00000000000E+00  0.00000000000E+00  0.34515806660E+02  0.12969228594E+03  0.12501499159E+03 0.  0.
    9000005    1    3    3    0    0  0.10000024664E+02  0.25575310288E+01 -0.46689599980E+02  0.47827400144E+02  0.10000000000E+01 0.  0.
    9000005    1    3    3    0    0 -0.10000024664E+02 -0.25575310288E+01  0.81205406640E+02  0.81864885792E+02  0.10000000000E+01 0.  0.
<mgrwt>
<rscale>  0 0.12501499E+03</rscale>
<asrwt>0</asrwt>
<pdfrwt beam="2">  1        4 0.73212678E-02 0.12501499E+03</pdfrwt>
<pdfrwt beam="1">  1       -4 0.12631392E-01 0.12501499E+03</pdfrwt>
<totfact> 0.10347592E+04</totfact>
</mgrwt>
</event>
<event>
 5    1  0.3227866E-002  0.1249984E+03  0.7818608E-02  0.1235072E+00
         -4   -1    0    0    0  501 -0.00000000000E+00  0.00000000000E+00  0.13917509911E+02  0.13975334777E+02  0.12700000000E+01 0.  1.
          4   -1    0    0  501    0  0.00000000000E+00 -0.00000000000E+00 -0.28002353273E+03  0.28002641265E+03  0.12700000000E+01 0.  1.
         25    2    1    2    0    0  0.00000000000E+00  0.00000000000E+00 -0.26610602282E+03  0.29400174742E+03  0.12499844843E+03 0.  0.
    9000005    1    3    3    0    0 -0.31509134840E+02  0.30974740972E+02 -0.29112583739E+02  0.52922610372E+02  0.10000000000E+01 0.  0.
    9000005    1    3    3    0    0  0.31509134840E+02 -0.30974740972E+02 -0.23699343908E+03  0.24107913705E+03  0.10000000000E+01 0.  0.
<mgrwt>
<rscale>  0 0.12499845E+03</rscale>
<asrwt>0</asrwt>
<pdfrwt beam="2">  1        4 0.43085209E-01 0.12499845E+03</pdfrwt>
<pdfrwt beam="1">  1       -4 0.21458252E-02 0.12499845E+03</pdfrwt>
<totfact> 0.76360095E+03</totfact>
</mgrwt>
</event>
<event>
 5    1  0.3227866E-002  0.1250013E+03  0.7818608E-02  0.1235067E+00
         -4   -1    0    0    0  501 -0.00000000000E+00  0.00000000000E+00  0.10407629719E+03  0.10408404554E+03  0.12700000000E+01 0. -1.
          4   -1    0    0  501    0  0.00000000000E+00 -0.00000000000E+00 -0.37513446690E+02  0.37534938159E+02  0.12700000000E+01 0. -1.
         25    2    1    2    0    0  0.00000000000E+00  0.00000000000E+00  0.66562850496E+02  0.14161898370E+03  0.12500129390E+03 0.  0.
    9000005    1    3    3    0    0 -0.61829227527E+02 -0.80100646650E+01  0.28432711857E+02  0.68530530540E+02  0.10000000000E+01 0.  0.
    9000005    1    3    3    0    0  0.61829227527E+02  0.80100646650E+01  0.38130138639E+02  0.73088453159E+02  0.10000000000E+01 0.  0.
<mgrwt>
<rscale>  0 0.12500129E+03</rscale>
<asrwt>0</asrwt>
<pdfrwt beam="2">  1        4 0.57735487E-02 0.12500129E+03</pdfrwt>
<pdfrwt beam="1">  1       -4 0.16013987E-01 0.12500129E+03</pdfrwt>
<totfact> 0.10099847E+04</totfact>
</mgrwt>
</event>
<event>
 5    1  0.3227866E-002  0.1250002E+03  0.7818608E-02  0.1235069E+00
          4   -1    0    0  501    0  0.00000000000E+00  0.00000000000E+00  0.99059635802E+02  0.99067776523E+02  0.12700000000E+01 0.  1.
         -4   -1    0    0    0  501 -0.00000000000E+00 -0.00000000000E+00 -0.39413428225E+02  0.39433884217E+02  0.12700000000E+01 0.  1.
         25    2    1    2    0    0  0.00000000000E+00  0.00000000000E+00  0.59646207577E+02  0.13850166074E+03  0.12500015980E+03 0.  0.
    9000005    1    3    3    0    0 -0.12839104886E+02  0.49955151999E+02 -0.92710371627E+01  0.52414806645E+02  0.10000000000E+01 0.  0.
    9000005    1    3    3    0    0  0.12839104886E+02 -0.49955151999E+02  0.68917244739E+02  0.86086854095E+02  0.10000000000E+01 0.  0.
<mgrwt>
<rscale>  0 0.12500016E+03</rscale>
<asrwt>0</asrwt>
<pdfrwt beam="1">  1        4 0.15242143E-01 0.12500016E+03</pdfrwt>
<pdfrwt beam="2">  1       -4 0.60658042E-02 0.12500016E+03</pdfrwt>
<totfact> 0.10164698E+04</totfact>
</mgrwt>
</event>
<event>
 5    1  0.3227866E-002  0.1249987E+03  0.7818608E-02  0.1235071E+00
         -4   -1    0    0    0  501 -0.00000000000E+00  0.00000000000E+00  0.26440825269E+02  0.26471307880E+02  0.12700000000E+01 0.  1.
          4   -1    0    0  501    0  0.00000000000E+00 -0.00000000000E+00 -0.14761411411E+03  0.14761957724E+03  0.12700000000E+01 0.  1.
         25    2    1    2    0    0  0.00000000000E+00  0.00000000000E+00 -0.12117328884E+03  0.17409088512E+03  0.12499868141E+03 0.  0.
    9000005    1    3    3    0    0 -0.62042233343E+02 -0.66242758434E+01 -0.55752437989E+02  0.83680667363E+02  0.10000000000E+01 0.  0.
    9000005    1    3    3    0    0  0.62042233343E+02  0.66242758434E+01 -0.65420850851E+02  0.90410217756E+02  0.10000000000E+01 0.  0.
<mgrwt>
<rscale>  0 0.12499868E+03</rscale>
<asrwt>0</asrwt>
<pdfrwt beam="2">  1        4 0.22712628E-01 0.12499868E+03</pdfrwt>
<pdfrwt beam="1">  1       -4 0.40705844E-02 0.12499868E+03</pdfrwt>
<totfact> 0.94694409E+03</totfact>
</mgrwt>
</event>
<event>
 5    1  0.3227866E-002  0.1250011E+03  0.7818608E-02  0.1235068E+00
          4   -1    0    0  501    0  0.00000000000E+00  0.00000000000E+00  0.53252770065E+02  0.53267911725E+02  0.12700000000E+01 0.  1.
         -4   -1    0    0    0  501 -0.00000000000E+00 -0.00000000000E+00 -0.73323239338E+02  0.73334237073E+02  0.12700000000E+01 0.  1.
         25    2    1    2    0    0  0.00000000000E+00  0.00000000000E+00 -0.20070469273E+02  0.12660214880E+03  0.12500112137E+03 0.  0.
    9000005    1    3    3    0    0  0.58653656508E+02  0.79983416127E+01  0.10248639072E+02  0.60085434950E+02  0.10000000000E+01 0.  0.
    9000005    1    3    3    0    0 -0.58653656508E+02 -0.79983416127E+01 -0.30319108345E+02  0.66516713848E+02  0.10000000000E+01 0.  0.
<mgrwt>
<rscale>  0 0.12500112E+03</rscale>
<asrwt>0</asrwt>
<pdfrwt beam="1">  1        4 0.81947446E-02 0.12500112E+03</pdfrwt>
<pdfrwt beam="2">  1       -4 0.11282509E-01 0.12500112E+03</pdfrwt>
<totfact> 0.10417538E+04</totfact>
</mgrwt>
</event>
<event>
 5    1  0.3227866E-002  0.1250452E+03  0.7818608E-02  0.1234999E+00
         -4   -1    0    0    0  501 -0.00000000000E+00  0.00000000000E+00  0.20023986158E+03  0.20024388896E+03  0.12700000000E+01 0.  1.
          4   -1    0    0  501    0  0.00000000000E+00 -0.00000000000E+00 -0.19497070366E+02  0.19538389208E+02  0.12700000000E+01 0.  1.
         25    2    1    2    0    0  0.00000000000E+00  0.00000000000E+00  0.18074279122E+03  0.21978227817E+03  0.12504516472E+03 0.  0.
    9000005    1    3    3    0    0  0.53037287220E+02 -0.31018465403E+02  0.11063933426E+03  0.12655892429E+03  0.10000000000E+01 0.  0.
    9000005    1    3    3    0    0 -0.53037287220E+02  0.31018465403E+02  0.70103456956E+02  0.93223353880E+02  0.10000000000E+01 0.  0.
<mgrwt>
<rscale>  0 0.12504516E+03</rscale>
<asrwt>0</asrwt>
<pdfrwt beam="2">  1        4 0.30030373E-02 0.12504516E+03</pdfrwt>
<pdfrwt beam="1">  1       -4 0.30809622E-01 0.12504516E+03</pdfrwt>
<totfact> 0.86815198E+03</totfact>
</mgrwt>
</event>
<event>
 5    1  0.3227866E-002  0.1250223E+03  0.7818608E-02  0.1235034E+00
          4   -1    0    0  501    0  0.00000000000E+00  0.00000000000E+00  0.58667776278E+01  0.60026643863E+01  0.12700000000E+01 0. -1.
         -4   -1    0    0    0  501 -0.00000000000E+00 -0.00000000000E+00 -0.65830085300E+03  0.65830207805E+03  0.12700000000E+01 0. -1.
         25    2    1    2    0    0  0.00000000000E+00  0.00000000000E+00 -0.65243407538E+03  0.66430474244E+03  0.12502227046E+03 0.  0.
    9000005    1    3    3    0    0 -0.61187714112E+01 -0.28001910853E+02 -0.31086405487E+02  0.42295519634E+02  0.10000000000E+01 0.  0.
    9000005    1    3    3    0    0  0.61187714112E+01  0.28001910853E+02 -0.62134766989E+03  0.62200922280E+03  0.10000000000E+01 0.  0.
<mgrwt>
<rscale>  0 0.12502227E+03</rscale>
<asrwt>0</asrwt>
<pdfrwt beam="1">  1        4 0.91312876E-03 0.12502227E+03</pdfrwt>
<pdfrwt beam="2">  1       -4 0.10128754E+00 0.12502227E+03</pdfrwt>
<totfact> 0.45017154E+03</totfact>
</mgrwt>
</event>
<event>
 5    1  0.3227866E-002  0.1249979E+03  0.7818608E-02  0.1235073E+00
          4   -1    0    0  501    0  0.00000000000E+00  0.00000000000E+00  0.37321283809E+02  0.37342885871E+02  0.12700000000E+01 0.  1.
         -4   -1    0    0    0  501 -0.00000000000E+00 -0.00000000000E+00 -0.10460620250E+03  0.10461391161E+03  0.12700000000E+01 0.  1.
         25    2    1    2    0    0  0.00000000000E+00  0.00000000000E+00 -0.67284918693E+02  0.14195679748E+03  0.12499788825E+03 0.  0.
    9000005    1    3    3    0    0 -0.12646254072E+02 -0.41912746866E+02  0.17000329878E+02  0.46974645373E+02  0.10000000000E+01 0.  0.
    9000005    1    3    3    0    0  0.12646254072E+02  0.41912746866E+02 -0.84285248572E+02  0.94982152106E+02  0.10000000000E+01 0.  0.
<mgrwt>
<rscale>  0 0.12499789E+03</rscale>
<asrwt>0</asrwt>
<pdfrwt beam="1">  1        4 0.57439907E-02 0.12499789E+03</pdfrwt>
<pdfrwt beam="2">  1       -4 0.16095516E-01 0.12499789E+03</pdfrwt>
<totfact> 0.10093670E+04</totfact>
</mgrwt>
</event>
<event>
 5    1  0.3227866E-002  0.1249951E+03  0.7818608E-02  0.1235077E+00
         -4   -1    0    0    0  501 -0.00000000000E+00  0.00000000000E+00  0.11443537583E+03  0.11444242282E+03  0.12700000000E+01 0.  1.
          4   -1    0    0  501    0  0.00000000000E+00 -0.00000000000E+00 -0.34112414979E+02  0.34136047746E+02  0.12700000000E+01 0.  1.
         25    2    1    2    0    0  0.00000000000E+00  0.00000000000E+00  0.80322960853E+02  0.14857847057E+03  0.12499513541E+03 0.  0.
    9000005    1    3    3    0    0 -0.28615069354E+02 -0.84486713984E+00  0.10618812263E+03  0.10998387783E+03  0.10000000000E+01 0.  0.
    9000005    1    3    3    0    0  0.28615069354E+02  0.84486713984E+00 -0.25865161780E+02  0.38594592737E+02  0.10000000000E+01 0.  0.
<mgrwt>
<rscale>  0 0.12499514E+03</rscale>
<asrwt>0</asrwt>
<pdfrwt beam="2">  1        4 0.52504239E-02 0.12499514E+03</pdfrwt>
<pdfrwt beam="1">  1       -4 0.17607802E-01 0.12499514E+03</pdfrwt>
<totfact> 0.99598722E+03</totfact>
</mgrwt>
</event>
<event>
 5    1  0.3227866E-002  0.1249986E+03  0.7818608E-02  0.1235071E+00
         -4   -1    0    0    0  501 -0.00000000000E+00  0.00000000000E+00  0.20906884738E+03  0.20907270468E+03  0.12700000000E+01 0.  1.
          4   -1    0    0  501    0  0.00000000000E+00 -0.00000000000E+00 -0.18658016458E+02  0.18701189218E+02  0.12700000000E+01 0.  1.
         25    2    1    2    0    0  0.00000000000E+00  0.00000000000E+00  0.19041083092E+03  0.22777389390E+03  0.12499864884E+03 0.  0.
    9000005    1    3    3    0    0  0.55969935436E+02  0.13789296637E+02  0.51230548895E+02  0.77125530887E+02  0.10000000000E+01 0.  0.
    9000005    1    3    3    0    0 -0.55969935436E+02 -0.13789296637E+02  0.13918028202E+03  0.15064836301E+03  0.10000000000E+01 0.  0.
<mgrwt>
<rscale>  0 0.12499865E+03</rscale>
<asrwt>0</asrwt>
<pdfrwt beam="2">  1        4 0.28740815E-02 0.12499865E+03</pdfrwt>
<pdfrwt beam="1">  1       -4 0.32168059E-01 0.12499865E+03</pdfrwt>
<totfact> 0.85655173E+03</totfact>
</mgrwt>
</event>
<event>
 5    1  0.3227866E-002  0.1250016E+03  0.7818608E-02  0.1235067E+00
         -4   -1    0    0    0  501 -0.00000000000E+00  0.00000000000E+00  0.38656150853E+03  0.38656359474E+03  0.12700000000E+01 0.  1.
          4   -1    0    0  501    0  0.00000000000E+00 -0.00000000000E+00 -0.10063351050E+02  0.10143171809E+02  0.12700000000E+01 0.  1.
         25    2    1    2    0    0  0.00000000000E+00  0.00000000000E+00  0.37649815748E+03  0.39670676655E+03  0.12500158414E+03 0.  0.
    9000005    1    3    3    0    0  0.62111775747E+02  0.66406350328E+01  0.18241593710E+03  0.19281738725E+03  0.10000000000E+01 0.  0.
    9000005    1    3    3    0    0 -0.62111775747E+02 -0.66406350328E+01  0.19408222038E+03  0.20388937929E+03  0.10000000000E+01 0.  0.
<mgrwt>
<rscale>  0 0.12500158E+03</rscale>
<asrwt>0</asrwt>
<pdfrwt beam="2">  1        4 0.15545086E-02 0.12500158E+03</pdfrwt>
<pdfrwt beam="1">  1       -4 0.59477294E-01 0.12500158E+03</pdfrwt>
<totfact> 0.64872084E+03</totfact>
</mgrwt>
</event>
<event>
 5    1  0.3227866E-002  0.1250047E+03  0.7818608E-02  0.1235062E+00
          4   -1    0    0  501    0  0.00000000000E+00  0.00000000000E+00  0.87978218273E+02  0.87987384269E+02  0.12700000000E+01 0. -1.
         -4   -1    0    0    0  501 -0.00000000000E+00 -0.00000000000E+00 -0.44383002408E+02  0.44401168935E+02  0.12700000000E+01 0. -1.
         25    2    1    2    0    0  0.00000000000E+00  0.00000000000E+00  0.43595215865E+02  0.13238855320E+03  0.12500474460E+03 0.  0.
    9000005    1    3    3    0    0 -0.62053396940E+02 -0.74106274241E+01  0.21873037312E+02  0.66219115306E+02  0.10000000000E+01 0.  0.
    9000005    1    3    3    0    0  0.62053396940E+02  0.74106274241E+01  0.21722178553E+02  0.66169437898E+02  0.10000000000E+01 0.  0.
<mgrwt>
<rscale>  0 0.12500474E+03</rscale>
<asrwt>0</asrwt>
<pdfrwt beam="1">  1        4 0.13537213E-01 0.12500474E+03</pdfrwt>
<pdfrwt beam="2">  1       -4 0.68302568E-02 0.12500474E+03</pdfrwt>
<totfact> 0.10292310E+04</totfact>
</mgrwt>
</event>
<event>
 5    1  0.3227866E-002  0.1249984E+03  0.7818608E-02  0.1235072E+00
          4   -1    0    0  501    0  0.00000000000E+00  0.00000000000E+00  0.47009460306E+02  0.47026612235E+02  0.12700000000E+01 0. -1.
         -4   -1    0    0    0  501 -0.00000000000E+00 -0.00000000000E+00 -0.83055705158E+02  0.83065414339E+02  0.12700000000E+01 0. -1.
         25    2    1    2    0    0  0.00000000000E+00  0.00000000000E+00 -0.36046244852E+02  0.13009202657E+03  0.12499841443E+03 0.  0.
    9000005    1    3    3    0    0  0.62044995834E+02 -0.40256928338E+01 -0.24552793847E+02  0.66855272017E+02  0.10000000000E+01 0.  0.
    9000005    1    3    3    0    0 -0.62044995834E+02  0.40256928338E+01 -0.11493451005E+02  0.63236754557E+02  0.10000000000E+01 0.  0.
<mgrwt>
<rscale>  0 0.12499841E+03</rscale>
<asrwt>0</asrwt>
<pdfrwt beam="1">  1        4 0.72342909E-02 0.12499841E+03</pdfrwt>
<pdfrwt beam="2">  1       -4 0.12779867E-01 0.12499841E+03</pdfrwt>
<totfact> 0.10342909E+04</totfact>
</mgrwt>
</event>
<event>
 5    1  0.3227866E-002  0.1249994E+03  0.7818608E-02  0.1235070E+00
         -4   -1    0    0    0  501 -0.00000000000E+00  0.00000000000E+00  0.37197413540E+02  0.37219087497E+02  0.12700000000E+01 0.  1.
          4   -1    0    0  501    0  0.00000000000E+00 -0.00000000000E+00 -0.10495684649E+03  0.10496452985E+03  0.12700000000E+01 0.  1.
         25    2    1    2    0    0  0.00000000000E+00  0.00000000000E+00 -0.67759432954E+02  0.14218361734E+03  0.12499936115E+03 0.  0.
    9000005    1    3    3    0    0  0.48303692431E+02 -0.33513651678E+02 -0.57976965955E+02  0.82575663077E+02  0.10000000000E+01 0.  0.
    9000005    1    3    3    0    0 -0.48303692431E+02  0.33513651678E+02 -0.97824669993E+01  0.59607954267E+02  0.10000000000E+01 0.  0.
<mgrwt>
<rscale>  0 0.12499936E+03</rscale>
<asrwt>0</asrwt>
<pdfrwt beam="2">  1        4 0.16149465E-01 0.12499936E+03</pdfrwt>
<pdfrwt beam="1">  1       -4 0.57249373E-02 0.12499936E+03</pdfrwt>
<totfact> 0.10088673E+04</totfact>
</mgrwt>
</event>
<event>
 5    1  0.3227866E-002  0.1249958E+03  0.7818608E-02  0.1235076E+00
          4   -1    0    0  501    0  0.00000000000E+00  0.00000000000E+00  0.19900376649E+03  0.19900781889E+03  0.12700000000E+01 0. -1.
         -4   -1    0    0    0  501 -0.00000000000E+00 -0.00000000000E+00 -0.19602919452E+02  0.19644015655E+02  0.12700000000E+01 0. -1.
         25    2    1    2    0    0  0.00000000000E+00  0.00000000000E+00  0.17940084704E+03  0.21865183454E+03  0.12499584325E+03 0.  0.
    9000005    1    3    3    0    0 -0.54075097095E+02 -0.26238604171E+02  0.59787871507E+02  0.84783076460E+02  0.10000000000E+01 0.  0.
    9000005    1    3    3    0    0  0.54075097095E+02  0.26238604171E+02  0.11961297553E+03  0.13386875808E+03  0.10000000000E+01 0.  0.
<mgrwt>
<rscale>  0 0.12499584E+03</rscale>
<asrwt>0</asrwt>
<pdfrwt beam="1">  1        4 0.30619438E-01 0.12499584E+03</pdfrwt>
<pdfrwt beam="2">  1       -4 0.30193066E-02 0.12499584E+03</pdfrwt>
<totfact> 0.87090215E+03</totfact>
</mgrwt>
</event>
<event>
 5    1  0.3227866E-002  0.1249899E+03  0.7818608E-02  0.1235085E+00
         -4   -1    0    0    0  501 -0.00000000000E+00  0.00000000000E+00  0.57930055960E+01  0.59305829254E+01  0.12700000000E+01 0. -1.
          4   -1    0    0  501    0  0.00000000000E+00 -0.00000000000E+00 -0.66614579575E+03  0.66614700637E+03  0.12700000000E+01 0. -1.
         25    2    1    2    0    0  0.00000000000E+00  0.00000000000E+00 -0.66035279016E+03  0.67207758930E+03  0.12498991387E+03 0.  0.
    9000005    1    3    3    0    0 -0.59908024208E+02  0.12715965414E+02 -0.26345919381E+03  0.27048551522E+03  0.10000000000E+01 0.  0.
    9000005    1    3    3    0    0  0.59908024208E+02 -0.12715965414E+02 -0.39689359635E+03  0.40159207408E+03  0.10000000000E+01 0.  0.
<mgrwt>
<rscale>  0 0.12498991E+03</rscale>
<asrwt>0</asrwt>
<pdfrwt beam="2">  1        4 0.10249458E+00 0.12498991E+03</pdfrwt>
<pdfrwt beam="1">  1       -4 0.90190815E-03 0.12498991E+03</pdfrwt>
<totfact> 0.44612096E+03</totfact>
</mgrwt>
</event>
<event>
 5    1  0.3227866E-002  0.1250028E+03  0.7818608E-02  0.1235065E+00
         -4   -1    0    0    0  501 -0.00000000000E+00  0.00000000000E+00  0.58714003545E+02  0.58727737163E+02  0.12700000000E+01 0.  1.
          4   -1    0    0  501    0  0.00000000000E+00 -0.00000000000E+00 -0.66505499359E+02  0.66517624319E+02  0.12700000000E+01 0.  1.
         25    2    1    2    0    0  0.00000000000E+00  0.00000000000E+00 -0.77914958136E+01  0.12524536148E+03  0.12500277263E+03 0.  0.
    9000005    1    3    3    0    0  0.37112299644E+02 -0.39000155896E+01 -0.54121769247E+02  0.65747234260E+02  0.10000000000E+01 0.  0.
    9000005    1    3    3    0    0 -0.37112299644E+02  0.39000155896E+01  0.46330273433E+02  0.59498127222E+02  0.10000000000E+01 0.  0.
<mgrwt>
<rscale>  0 0.12500277E+03</rscale>
<asrwt>0</asrwt>
<pdfrwt beam="2">  1        4 0.10233604E-01 0.12500277E+03</pdfrwt>
<pdfrwt beam="1">  1       -4 0.90349127E-02 0.12500277E+03</pdfrwt>
<totfact> 0.10446881E+04</totfact>
</mgrwt>
</event>
<event>
 5    1  0.3227866E-002  0.1249986E+03  0.7818608E-02  0.1235071E+00
         -4   -1    0    0    0  501 -0.00000000000E+00  0.00000000000E+00  0.63148895018E+02  0.63161664338E+02  0.12700000000E+01 0.  1.
          4   -1    0    0  501    0  0.00000000000E+00 -0.00000000000E+00 -0.61830829427E+02  0.61843870898E+02  0.12700000000E+01 0.  1.
         25    2    1    2    0    0  0.00000000000E+00  0.00000000000E+00  0.13180655909E+01  0.12500553524E+03  0.12499858616E+03 0.  0.
    9000005    1    3    3    0    0  0.16305041741E+02  0.28432512507E+02  0.53868188478E+02  0.63063808032E+02  0.10000000000E+01 0.  0.
    9000005    1    3    3    0    0 -0.16305041741E+02 -0.28432512507E+02 -0.52550122887E+02  0.61941727204E+02  0.10000000000E+01 0.  0.
<mgrwt>
<rscale>  0 0.12499859E+03</rscale>
<asrwt>0</asrwt>
<pdfrwt beam="2">  1        4 0.95144208E-02 0.12499859E+03</pdfrwt>
<pdfrwt beam="1">  1       -4 0.97172000E-02 0.12499859E+03</pdfrwt>
<totfact> 0.10453076E+04</totfact>
</mgrwt>
</event>
<event>
 5    1  0.3227866E-002  0.1250002E+03  0.7818608E-02  0.1235069E+00
         -4   -1    0    0    0  501 -0.00000000000E+00  0.00000000000E+00  0.20775420944E+03  0.20775809115E+03  0.12700000000E+01 0. -1.
          4   -1    0    0  501    0  0.00000000000E+00 -0.00000000000E+00 -0.18776830571E+02  0.18819730771E+02  0.12700000000E+01 0. -1.
         25    2    1    2    0    0  0.00000000000E+00  0.00000000000E+00  0.18897737886E+03  0.22657782192E+03  0.12500023866E+03 0.  0.
    9000005    1    3    3    0    0  0.37586969872E+02  0.27999026986E+02  0.16941235497E+03  0.17577904264E+03  0.10000000000E+01 0.  0.
    9000005    1    3    3    0    0 -0.37586969872E+02 -0.27999026986E+02  0.19565023898E+02  0.50798779281E+02  0.10000000000E+01 0.  0.
<mgrwt>
<rscale>  0 0.12500024E+03</rscale>
<asrwt>0</asrwt>
<pdfrwt beam="2">  1        4 0.28923417E-02 0.12500024E+03</pdfrwt>
<pdfrwt beam="1">  1       -4 0.31965786E-01 0.12500024E+03</pdfrwt>
<totfact> 0.85837402E+03</totfact>
</mgrwt>
</event>
<event>
 5    1  0.3227866E-002  0.1250080E+03  0.7818608E-02  0.1235057E+00
         -4   -1    0    0    0  501 -0.00000000000E+00  0.00000000000E+00  0.46518751076E+01  0.48221200749E+01  0.12700000000E+01 0. -1.
          4   -1    0    0  501    0  0.00000000000E+00 -0.00000000000E+00 -0.82456048307E+03  0.82456146110E+03  0.12700000000E+01 0. -1.
         25    2    1    2    0    0  0.00000000000E+00  0.00000000000E+00 -0.81990860796E+03  0.82938358118E+03  0.12500799703E+03 0.  0.
    9000005    1    3    3    0    0 -0.32934897441E+02  0.21196674306E+02 -0.73306511071E+03  0.73411134238E+03  0.10000000000E+01 0.  0.
    9000005    1    3    3    0    0  0.32934897441E+02 -0.21196674306E+02 -0.86843497255E+02  0.95272238803E+02  0.10000000000E+01 0.  0.
<mgrwt>
<rscale>  0 0.12500800E+03</rscale>
<asrwt>0</asrwt>
<pdfrwt beam="2">  1        4 0.12686852E+00 0.12500800E+03</pdfrwt>
<pdfrwt beam="1">  1       -4 0.72884475E-03 0.12500800E+03</pdfrwt>
<totfact> 0.36979699E+03</totfact>
</mgrwt>
</event>
<event>
 5    1  0.3227866E-002  0.1250005E+03  0.7818608E-02  0.1235068E+00
         -4   -1    0    0    0  501 -0.00000000000E+00  0.00000000000E+00  0.27129267293E+02  0.27158977224E+02  0.12700000000E+01 0. -1.
          4   -1    0    0  501    0  0.00000000000E+00 -0.00000000000E+00 -0.14387646853E+03  0.14388207358E+03  0.12700000000E+01 0. -1.
         25    2    1    2    0    0  0.00000000000E+00  0.00000000000E+00 -0.11674720124E+03  0.17104105081E+03  0.12500052825E+03 0.  0.
    9000005    1    3    3    0    0 -0.61515874031E+02  0.48786288128E+01 -0.71869399247E+02  0.94732329883E+02  0.10000000000E+01 0.  0.
    9000005    1    3    3    0    0  0.61515874031E+02 -0.48786288128E+01 -0.44877801995E+02  0.76308720923E+02  0.10000000000E+01 0.  0.
<mgrwt>
<rscale>  0 0.12500053E+03</rscale>
<asrwt>0</asrwt>
<pdfrwt beam="2">  1        4 0.22137557E-01 0.12500053E+03</pdfrwt>
<pdfrwt beam="1">  1       -4 0.41764501E-02 0.12500053E+03</pdfrwt>
<totfact> 0.95253825E+03</totfact>
</mgrwt>
</event>
<event>
 5    1  0.3227866E-002  0.1249751E+03  0.7818608E-02  0.1235108E+00
         -4   -1    0    0    0  501 -0.00000000000E+00  0.00000000000E+00  0.74596975004E+02  0.74607784981E+02  0.12700000000E+01 0. -1.
          4   -1    0    0  501    0  0.00000000000E+00 -0.00000000000E+00 -0.52321533081E+02  0.52336944159E+02  0.12700000000E+01 0. -1.
         25    2    1    2    0    0  0.00000000000E+00  0.00000000000E+00  0.22275441923E+02  0.12694472914E+03  0.12497507329E+03 0.  0.
    9000005    1    3    3    0    0  0.35755010018E+02 -0.28810491894E+02  0.54175610352E+02  0.71024375686E+02  0.10000000000E+01 0.  0.
    9000005    1    3    3    0    0 -0.35755010018E+02  0.28810491894E+02 -0.31900168429E+02  0.55920353454E+02  0.10000000000E+01 0.  0.
<mgrwt>
<rscale>  0 0.12497507E+03</rscale>
<asrwt>0</asrwt>
<pdfrwt beam="2">  1        4 0.80514836E-02 0.12497507E+03</pdfrwt>
<pdfrwt beam="1">  1       -4 0.11478475E-01 0.12497507E+03</pdfrwt>
<totfact> 0.10416206E+04</totfact>
</mgrwt>
</event>
<event>
 5    1  0.3227866E-002  0.1250010E+03  0.7818608E-02  0.1235068E+00
         -4   -1    0    0    0  501 -0.00000000000E+00  0.00000000000E+00  0.42048104377E+02  0.42067279229E+02  0.12700000000E+01 0.  1.
          4   -1    0    0  501    0  0.00000000000E+00 -0.00000000000E+00 -0.92856395959E+02  0.92865080469E+02  0.12700000000E+01 0.  1.
         25    2    1    2    0    0  0.00000000000E+00  0.00000000000E+00 -0.50808291583E+02  0.13493235970E+03  0.12500103680E+03 0.  0.
    9000005    1    3    3    0    0  0.52658381526E+01 -0.46371179011E+02  0.19458648946E+02  0.50573256896E+02  0.10000000000E+01 0.  0.
    9000005    1    3    3    0    0 -0.52658381526E+01  0.46371179011E+02 -0.70266940528E+02  0.84359102802E+02  0.10000000000E+01 0.  0.
<mgrwt>
<rscale>  0 0.12500104E+03</rscale>
<asrwt>0</asrwt>
<pdfrwt beam="2">  1        4 0.14287742E-01 0.12500104E+03</pdfrwt>
<pdfrwt beam="1">  1       -4 0.64710822E-02 0.12500104E+03</pdfrwt>
<totfact> 0.10239257E+04</totfact>
</mgrwt>
</event>
<event>
 5    1  0.3227866E-002  0.1249980E+03  0.7818608E-02  0.1235072E+00
         -4   -1    0    0    0  501 -0.00000000000E+00  0.00000000000E+00  0.25150113718E+03  0.25150434371E+03  0.12700000000E+01 0.  1.
          4   -1    0    0  501    0  0.00000000000E+00 -0.00000000000E+00 -0.15501963415E+02  0.15553898859E+02  0.12700000000E+01 0.  1.
         25    2    1    2    0    0  0.00000000000E+00  0.00000000000E+00  0.23599917376E+03  0.26705824256E+03  0.12499797960E+03 0.  0.
    9000005    1    3    3    0    0 -0.31823859370E+02  0.52012789357E+02  0.88780613629E+02  0.10770833597E+03  0.10000000000E+01 0.  0.
    9000005    1    3    3    0    0  0.31823859370E+02 -0.52012789357E+02  0.14721856014E+03  0.15934990659E+03  0.10000000000E+01 0.  0.
<mgrwt>
<rscale>  0 0.12499798E+03</rscale>
<asrwt>0</asrwt>
<pdfrwt beam="2">  1        4 0.23891594E-02 0.12499798E+03</pdfrwt>
<pdfrwt beam="1">  1       -4 0.38696721E-01 0.12499798E+03</pdfrwt>
<totfact> 0.79929223E+03</totfact>
</mgrwt>
</event>
<event>
 5    1  0.3227866E-002  0.1250119E+03  0.7818608E-02  0.1235051E+00
         -4   -1    0    0    0  501 -0.00000000000E+00  0.00000000000E+00  0.35601726718E+01  0.37799113023E+01  0.12700000000E+01 0.  1.
          4   -1    0    0  501    0  0.00000000000E+00 -0.00000000000E+00 -0.10643433769E+04  0.10643441346E+04  0.12700000000E+01 0.  1.
         25    2    1    2    0    0  0.00000000000E+00  0.00000000000E+00 -0.10607832042E+04  0.10681240459E+04  0.12501188366E+03 0.  0.
    9000005    1    3    3    0    0 -0.57340011221E+01 -0.52141049642E+02 -0.24008745308E+03  0.24575303244E+03  0.10000000000E+01 0.  0.
    9000005    1    3    3    0    0  0.57340011221E+01  0.52141049642E+02 -0.82069575113E+03  0.82237101344E+03  0.10000000000E+01 0.  0.
<mgrwt>
<rscale>  0 0.12501188E+03</rscale>
<asrwt>0</asrwt>
<pdfrwt beam="2">  1        4 0.16376185E+00 0.12501188E+03</pdfrwt>
<pdfrwt beam="1">  1       -4 0.56468098E-03 0.12501188E+03</pdfrwt>
<totfact> 0.28428228E+03</totfact>
</mgrwt>
</event>
<event>
 5    1  0.3227866E-002  0.1249991E+03  0.7818608E-02  0.1235071E+00
         -4   -1    0    0    0  501 -0.00000000000E+00  0.00000000000E+00  0.17632880950E+02  0.17678557367E+02  0.12700000000E+01 0.  1.
          4   -1    0    0  501    0  0.00000000000E+00 -0.00000000000E+00 -0.22119506760E+03  0.22119871345E+03  0.12700000000E+01 0.  1.
         25    2    1    2    0    0  0.00000000000E+00  0.00000000000E+00 -0.20356218665E+03  0.23887727081E+03  0.12499914671E+03 0.  0.
    9000005    1    3    3    0    0  0.16073367500E+02  0.34354560163E+02 -0.19669237184E+03  0.20031844170E+03  0.10000000000E+01 0.  0.
    9000005    1    3    3    0    0 -0.16073367500E+02 -0.34354560163E+02 -0.68698148100E+01  0.38558829109E+02  0.10000000000E+01 0.  0.
<mgrwt>
<rscale>  0 0.12499915E+03</rscale>
<asrwt>0</asrwt>
<pdfrwt beam="2">  1        4 0.34033802E-01 0.12499915E+03</pdfrwt>
<pdfrwt beam="1">  1       -4 0.27165451E-02 0.12499915E+03</pdfrwt>
<totfact> 0.83966461E+03</totfact>
</mgrwt>
</event>
<event>
 5    1  0.3227866E-002  0.1249979E+03  0.7818608E-02  0.1235072E+00
         -4   -1    0    0    0  501 -0.00000000000E+00  0.00000000000E+00  0.11189588457E+02  0.11261429298E+02  0.12700000000E+01 0. -1.
          4   -1    0    0  501    0  0.00000000000E+00 -0.00000000000E+00 -0.34789534488E+03  0.34789766296E+03  0.12700000000E+01 0. -1.
         25    2    1    2    0    0  0.00000000000E+00  0.00000000000E+00 -0.33670575643E+03  0.35915909226E+03  0.12499794854E+03 0.  0.
    9000005    1    3    3    0    0 -0.52043779995E+01  0.52981006932E+02 -0.26238769397E+03  0.26773564312E+03  0.10000000000E+01 0.  0.
    9000005    1    3    3    0    0  0.52043779995E+01 -0.52981006932E+02 -0.74318062452E+02  0.91423449139E+02  0.10000000000E+01 0.  0.
<mgrwt>
<rscale>  0 0.12499795E+03</rscale>
<asrwt>0</asrwt>
<pdfrwt beam="2">  1        4 0.53528057E-01 0.12499795E+03</pdfrwt>
<pdfrwt beam="1">  1       -4 0.17271799E-02 0.12499795E+03</pdfrwt>
<totfact> 0.68731682E+03</totfact>
</mgrwt>
</event>
<event>
 5    1  0.3227866E-002  0.1249983E+03  0.7818608E-02  0.1235072E+00
         -4   -1    0    0    0  501 -0.00000000000E+00  0.00000000000E+00  0.65778814280E+03  0.65778936880E+03  0.12700000000E+01 0.  1.
          4   -1    0    0  501    0  0.00000000000E+00 -0.00000000000E+00 -0.58691503681E+01  0.60049834341E+01  0.12700000000E+01 0.  1.
         25    2    1    2    0    0  0.00000000000E+00  0.00000000000E+00  0.65191899243E+03  0.66379435224E+03  0.12499827745E+03 0.  0.
    9000005    1    3    3    0    0  0.26203541712E+02  0.50767483099E+02  0.46042760790E+03  0.46395963732E+03  0.10000000000E+01 0.  0.
    9000005    1    3    3    0    0 -0.26203541712E+02 -0.50767483099E+02  0.19149138453E+03  0.19983471492E+03  0.10000000000E+01 0.  0.
<mgrwt>
<rscale>  0 0.12499828E+03</rscale>
<asrwt>0</asrwt>
<pdfrwt beam="2">  1        4 0.91349016E-03 0.12499828E+03</pdfrwt>
<pdfrwt beam="1">  1       -4 0.10120861E+00 0.12499828E+03</pdfrwt>
<totfact> 0.45069738E+03</totfact>
</mgrwt>
</event>
<event>
 5    1  0.3227866E-002  0.1249970E+03  0.7818608E-02  0.1235074E+00
          4   -1    0    0  501    0  0.00000000000E+00  0.00000000000E+00  0.92235932305E+02  0.92244675229E+02  0.12700000000E+01 0.  1.
         -4   -1    0    0    0  501 -0.00000000000E+00 -0.00000000000E+00 -0.42328290926E+02  0.42347338909E+02  0.12700000000E+01 0.  1.
         25    2    1    2    0    0  0.00000000000E+00  0.00000000000E+00  0.49907641379E+02  0.13459201414E+03  0.12499695037E+03 0.  0.
    9000005    1    3    3    0    0  0.29896821286E+02 -0.33173117895E+02 -0.22114168156E+02  0.49842874186E+02  0.10000000000E+01 0.  0.
    9000005    1    3    3    0    0 -0.29896821286E+02  0.33173117895E+02  0.72021809535E+02  0.84749139952E+02  0.10000000000E+01 0.  0.
<mgrwt>
<rscale>  0 0.12499695E+03</rscale>
<asrwt>0</asrwt>
<pdfrwt beam="1">  1        4 0.14192281E-01 0.12499695E+03</pdfrwt>
<pdfrwt beam="2">  1       -4 0.65141827E-02 0.12499695E+03</pdfrwt>
<totfact> 0.10247382E+04</totfact>
</mgrwt>
</event>
<event>
 5    1  0.3227866E-002  0.1249976E+03  0.7818608E-02  0.1235073E+00
          4   -1    0    0  501    0  0.00000000000E+00  0.00000000000E+00  0.18670765990E+03  0.18671197917E+03  0.12700000000E+01 0.  1.
         -4   -1    0    0    0  501 -0.00000000000E+00 -0.00000000000E+00 -0.20897108675E+02  0.20935664569E+02  0.12700000000E+01 0.  1.
         25    2    1    2    0    0  0.00000000000E+00  0.00000000000E+00  0.16581055123E+03  0.20764764374E+03  0.12499762019E+03 0.  0.
    9000005    1    3    3    0    0  0.58218814805E+02 -0.89154752337E+01  0.11759978170E+03  0.13152803790E+03  0.10000000000E+01 0.  0.
    9000005    1    3    3    0    0 -0.58218814805E+02  0.89154752337E+01  0.48210769524E+02  0.76119605846E+02  0.10000000000E+01 0.  0.
<mgrwt>
<rscale>  0 0.12499762E+03</rscale>
<asrwt>0</asrwt>
<pdfrwt beam="1">  1        4 0.28727553E-01 0.12499762E+03</pdfrwt>
<pdfrwt beam="2">  1       -4 0.32182379E-02 0.12499762E+03</pdfrwt>
<totfact> 0.88866227E+03</totfact>
</mgrwt>
</event>
<event>
 5    1  0.3227866E-002  0.1249965E+03  0.7818608E-02  0.1235075E+00
          4   -1    0    0  501    0  0.00000000000E+00  0.00000000000E+00  0.29141706348E+03  0.29141983081E+03  0.12700000000E+01 0. -1.
         -4   -1    0    0    0  501 -0.00000000000E+00 -0.00000000000E+00 -0.13370664459E+02  0.13430843907E+02  0.12700000000E+01 0. -1.
         25    2    1    2    0    0  0.00000000000E+00  0.00000000000E+00  0.27804639902E+03  0.30485067471E+03  0.12499653541E+03 0.  0.
    9000005    1    3    3    0    0  0.14516769684E+02  0.44795637484E+02  0.23921451626E+03  0.24380724052E+03  0.10000000000E+01 0.  0.
    9000005    1    3    3    0    0 -0.14516769684E+02 -0.44795637484E+02  0.38831882763E+02  0.61043434197E+02  0.10000000000E+01 0.  0.
<mgrwt>
<rscale>  0 0.12499654E+03</rscale>
<asrwt>0</asrwt>
<pdfrwt beam="1">  1        4 0.44838237E-01 0.12499654E+03</pdfrwt>
<pdfrwt beam="2">  1       -4 0.20618673E-02 0.12499654E+03</pdfrwt>
<totfact> 0.75000144E+03</totfact>
</mgrwt>
</event>
<event>
 5    1  0.3227866E-002  0.1250020E+03  0.7818608E-02  0.1235066E+00
         -4   -1    0    0    0  501 -0.00000000000E+00  0.00000000000E+00  0.11153759543E+02  0.11225829677E+02  0.12700000000E+01 0.  1.
          4   -1    0    0  501    0  0.00000000000E+00 -0.00000000000E+00 -0.34902826794E+03  0.34903057849E+03  0.12700000000E+01 0.  1.
         25    2    1    2    0    0  0.00000000000E+00  0.00000000000E+00 -0.33787450840E+03  0.36025640817E+03  0.12500198479E+03 0.  0.
    9000005    1    3    3    0    0  0.31490816619E+01  0.58158992986E+02 -0.23421253926E+03  0.24134808623E+03  0.10000000000E+01 0.  0.
    9000005    1    3    3    0    0 -0.31490816619E+01 -0.58158992986E+02 -0.10366196914E+03  0.11890832194E+03  0.10000000000E+01 0.  0.
<mgrwt>
<rscale>  0 0.12500198E+03</rscale>
<asrwt>0</asrwt>
<pdfrwt beam="2">  1        4 0.53702370E-01 0.12500198E+03</pdfrwt>
<pdfrwt beam="1">  1       -4 0.17216849E-02 0.12500198E+03</pdfrwt>
<totfact> 0.68607762E+03</totfact>
</mgrwt>
</event>
<event>
 5    1  0.3227866E-002  0.1249861E+03  0.7818608E-02  0.1235091E+00
          4   -1    0    0  501    0  0.00000000000E+00  0.00000000000E+00  0.29831811538E+03  0.29832081869E+03  0.12700000000E+01 0. -1.
         -4   -1    0    0    0  501 -0.00000000000E+00 -0.00000000000E+00 -0.13057769228E+02  0.13119384025E+02  0.12700000000E+01 0. -1.
         25    2    1    2    0    0  0.00000000000E+00  0.00000000000E+00  0.28526034616E+03  0.31144020272E+03  0.12498613835E+03 0.  0.
    9000005    1    3    3    0    0  0.94617554013E+01 -0.58060647316E+02  0.90135369721E+02  0.10763804372E+03  0.10000000000E+01 0.  0.
    9000005    1    3    3    0    0 -0.94617554013E+01  0.58060647316E+02  0.19512497644E+03  0.20380215900E+03  0.10000000000E+01 0.  0.
<mgrwt>
<rscale>  0 0.12498614E+03</rscale>
<asrwt>0</asrwt>
<pdfrwt beam="1">  1        4 0.45900042E-01 0.12498614E+03</pdfrwt>
<pdfrwt beam="2">  1       -4 0.20138351E-02 0.12498614E+03</pdfrwt>
<totfact> 0.74208664E+03</totfact>
</mgrwt>
</event>
<event>
 5    1  0.3227866E-002  0.1250012E+03  0.7818608E-02  0.1235067E+00
          4   -1    0    0  501    0  0.00000000000E+00  0.00000000000E+00  0.15929041602E+04  0.15929046665E+04  0.12700000000E+01 0. -1.
         -4   -1    0    0    0  501 -0.00000000000E+00 -0.00000000000E+00 -0.22873618116E+01  0.26162805769E+01  0.12700000000E+01 0. -1.
         25    2    1    2    0    0  0.00000000000E+00  0.00000000000E+00  0.15906167984E+04  0.15955209471E+04  0.12500117268E+03 0.  0.
    9000005    1    3    3    0    0  0.16297041549E+02 -0.32872415219E+02  0.14410145753E+04  0.14414819442E+04  0.10000000000E+01 0.  0.
    9000005    1    3    3    0    0 -0.16297041549E+02  0.32872415219E+02  0.14960222314E+03  0.15403900290E+03  0.10000000000E+01 0.  0.
<mgrwt>
<rscale>  0 0.12500117E+03</rscale>
<asrwt>0</asrwt>
<pdfrwt beam="1">  1        4 0.24508721E+00 0.12500117E+03</pdfrwt>
<pdfrwt beam="2">  1       -4 0.37724268E-03 0.12500117E+03</pdfrwt>
<totfact> 0.16126788E+03</totfact>
</mgrwt>
</event>
<event>
 5    1  0.3227866E-002  0.1250000E+03  0.7818608E-02  0.1235069E+00
         -4   -1    0    0    0  501 -0.00000000000E+00  0.00000000000E+00  0.13859590554E+04  0.13859596373E+04  0.12700000000E+01 0.  1.
          4   -1    0    0  501    0  0.00000000000E+00 -0.00000000000E+00 -0.26747655474E+01  0.29609577392E+01  0.12700000000E+01 0.  1.
         25    2    1    2    0    0  0.00000000000E+00  0.00000000000E+00  0.13832842899E+04  0.13889205950E+04  0.12499997077E+03 0.  0.
    9000005    1    3    3    0    0  0.10934158664E+01 -0.52004611847E+02  0.10764827071E+04  0.10777391585E+04  0.10000000000E+01 0.  0.
    9000005    1    3    3    0    0 -0.10934158664E+01  0.52004611847E+02  0.30680158283E+03  0.31118143653E+03  0.10000000000E+01 0.  0.
<mgrwt>
<rscale>  0 0.12499997E+03</rscale>
<asrwt>0</asrwt>
<pdfrwt beam="2">  1        4 0.43356009E-03 0.12499997E+03</pdfrwt>
<pdfrwt beam="1">  1       -4 0.21324744E+00 0.12499997E+03</pdfrwt>
<totfact> 0.20219822E+03</totfact>
</mgrwt>
</event>
<event>
 5    1  0.3227866E-002  0.1250090E+03  0.7818608E-02  0.1235055E+00
         -4   -1    0    0    0  501 -0.00000000000E+00  0.00000000000E+00  0.74762774165E+02  0.74773560172E+02  0.12700000000E+01 0.  1.
          4   -1    0    0  501    0  0.00000000000E+00 -0.00000000000E+00 -0.52233879296E+02  0.52249316228E+02  0.12700000000E+01 0.  1.
         25    2    1    2    0    0  0.00000000000E+00  0.00000000000E+00  0.22528894868E+02  0.12702287640E+03  0.12500903977E+03 0.  0.
    9000005    1    3    3    0    0 -0.31846671700E+02 -0.52629403294E+02  0.22476258018E+02  0.65499975297E+02  0.10000000000E+01 0.  0.
    9000005    1    3    3    0    0  0.31846671700E+02  0.52629403294E+02  0.52636850378E-01  0.61522901103E+02  0.10000000000E+01 0.  0.
<mgrwt>
<rscale>  0 0.12500904E+03</rscale>
<asrwt>0</asrwt>
<pdfrwt beam="2">  1        4 0.80379986E-02 0.12500904E+03</pdfrwt>
<pdfrwt beam="1">  1       -4 0.11503982E-01 0.12500904E+03</pdfrwt>
<totfact> 0.10406525E+04</totfact>
</mgrwt>
</event>
<event>
 5    1  0.3227866E-002  0.1249959E+03  0.7818608E-02  0.1235076E+00
          4   -1    0    0  501    0  0.00000000000E+00  0.00000000000E+00  0.37348067939E+01  0.39448297540E+01  0.12700000000E+01 0. -1.
         -4   -1    0    0    0  501 -0.00000000000E+00 -0.00000000000E+00 -0.10170240930E+04  0.10170248859E+04  0.12700000000E+01 0. -1.
         25    2    1    2    0    0  0.00000000000E+00  0.00000000000E+00 -0.10132892862E+04  0.10209697157E+04  0.12499593131E+03 0.  0.
    9000005    1    3    3    0    0  0.86046264791E+01 -0.61883809590E+02 -0.49715346605E+03  0.50106507990E+03  0.10000000000E+01 0.  0.
    9000005    1    3    3    0    0 -0.86046264791E+01  0.61883809590E+02 -0.51613582015E+03  0.51990463580E+03  0.10000000000E+01 0.  0.
<mgrwt>
<rscale>  0 0.12499593E+03</rscale>
<asrwt>0</asrwt>
<pdfrwt beam="1">  1        4 0.59080308E-03 0.12499593E+03</pdfrwt>
<pdfrwt beam="2">  1       -4 0.15648125E+00 0.12499593E+03</pdfrwt>
<totfact> 0.29921485E+03</totfact>
</mgrwt>
</event>
<event>
 5    1  0.3227866E-002  0.1249982E+03  0.7818608E-02  0.1235072E+00
          4   -1    0    0  501    0  0.00000000000E+00  0.00000000000E+00  0.13168653654E+03  0.13169266041E+03  0.12700000000E+01 0.  1.
         -4   -1    0    0    0  501 -0.00000000000E+00 -0.00000000000E+00 -0.29641983206E+02  0.29669177076E+02  0.12700000000E+01 0.  1.
         25    2    1    2    0    0  0.00000000000E+00  0.00000000000E+00  0.10204455333E+03  0.16136183748E+03  0.12499820691E+03 0.  0.
    9000005    1    3    3    0    0 -0.33960566661E+00  0.62436524826E+02  0.54364462825E+02  0.82794503336E+02  0.10000000000E+01 0.  0.
    9000005    1    3    3    0    0  0.33960566661E+00 -0.62436524826E+02  0.47680090504E+02  0.78567334146E+02  0.10000000000E+01 0.  0.
<mgrwt>
<rscale>  0 0.12499821E+03</rscale>
<asrwt>0</asrwt>
<pdfrwt beam="1">  1        4 0.20262030E-01 0.12499821E+03</pdfrwt>
<pdfrwt beam="2">  1       -4 0.45628680E-02 0.12499821E+03</pdfrwt>
<totfact> 0.97084786E+03</totfact>
</mgrwt>
</event>
<event>
 5    1  0.3227866E-002  0.1250026E+03  0.7818608E-02  0.1235065E+00
          4   -1    0    0  501    0  0.00000000000E+00  0.00000000000E+00  0.53045411330E+03  0.53045563360E+03  0.12700000000E+01 0. -1.
         -4   -1    0    0    0  501 -0.00000000000E+00 -0.00000000000E+00 -0.73079863401E+01  0.74175173979E+01  0.12700000000E+01 0. -1.
         25    2    1    2    0    0  0.00000000000E+00  0.00000000000E+00  0.52314612696E+03  0.53787315100E+03  0.12500262561E+03 0.  0.
    9000005    1    3    3    0    0  0.41824811948E+02  0.33726290943E+02  0.39890462222E+03  0.40250798157E+03  0.10000000000E+01 0.  0.
    9000005    1    3    3    0    0 -0.41824811948E+02 -0.33726290943E+02  0.12424150474E+03  0.13536516943E+03  0.10000000000E+01 0.  0.
<mgrwt>
<rscale>  0 0.12500263E+03</rscale>
<asrwt>0</asrwt>
<pdfrwt beam="1">  1        4 0.81616891E-01 0.12500263E+03</pdfrwt>
<pdfrwt beam="2">  1       -4 0.11328477E-02 0.12500263E+03</pdfrwt>
<totfact> 0.53038058E+03</totfact>
</mgrwt>
</event>
<event>
 5    1  0.3227866E-002  0.1250003E+03  0.7818608E-02  0.1235069E+00
         -4   -1    0    0    0  501 -0.00000000000E+00  0.00000000000E+00  0.19493690676E+02  0.19535016667E+02  0.12700000000E+01 0. -1.
          4   -1    0    0  501    0  0.00000000000E+00 -0.00000000000E+00 -0.20013089937E+03  0.20013492894E+03  0.12700000000E+01 0. -1.
         25    2    1    2    0    0  0.00000000000E+00  0.00000000000E+00 -0.18063720870E+03  0.21966994561E+03  0.12500033536E+03 0.  0.
    9000005    1    3    3    0    0  0.53851696293E+02  0.13798049583E+02 -0.14048422452E+03  0.15108675886E+03  0.10000000000E+01 0.  0.
    9000005    1    3    3    0    0 -0.53851696293E+02 -0.13798049583E+02 -0.40152984178E+02  0.68583186747E+02  0.10000000000E+01 0.  0.
<mgrwt>
<rscale>  0 0.12500034E+03</rscale>
<asrwt>0</asrwt>
<pdfrwt beam="2">  1        4 0.30792857E-01 0.12500034E+03</pdfrwt>
<pdfrwt beam="1">  1       -4 0.30025184E-02 0.12500034E+03</pdfrwt>
<totfact> 0.86919953E+03</totfact>
</mgrwt>
</event>
<event>
 5    1  0.3227866E-002  0.1249996E+03  0.7818608E-02  0.1235070E+00
          4   -1    0    0  501    0  0.00000000000E+00  0.00000000000E+00  0.18180609352E+03  0.18181052923E+03  0.12700000000E+01 0.  1.
         -4   -1    0    0    0  501 -0.00000000000E+00 -0.00000000000E+00 -0.21462199803E+02  0.21499742333E+02  0.12700000000E+01 0.  1.
         25    2    1    2    0    0  0.00000000000E+00  0.00000000000E+00  0.16034389372E+03  0.20331027157E+03  0.12499960909E+03 0.  0.
    9000005    1    3    3    0    0 -0.50597362490E+02 -0.18808599109E+02  0.28960346270E+02  0.61266288834E+02  0.10000000000E+01 0.  0.
    9000005    1    3    3    0    0  0.50597362490E+02  0.18808599109E+02  0.13138354745E+03  0.14204398273E+03  0.10000000000E+01 0.  0.
<mgrwt>
<rscale>  0 0.12499961E+03</rscale>
<asrwt>0</asrwt>
<pdfrwt beam="1">  1        4 0.27973398E-01 0.12499961E+03</pdfrwt>
<pdfrwt beam="2">  1       -4 0.33051060E-02 0.12499961E+03</pdfrwt>
<totfact> 0.89580973E+03</totfact>
</mgrwt>
</event>
<event>
 5    1  0.3227866E-002  0.1250001E+03  0.7818608E-02  0.1235069E+00
          4   -1    0    0  501    0  0.00000000000E+00  0.00000000000E+00  0.14678568276E+03  0.14679117672E+03  0.12700000000E+01 0. -1.
         -4   -1    0    0    0  501 -0.00000000000E+00 -0.00000000000E+00 -0.26590841970E+02  0.26621152805E+02  0.12700000000E+01 0. -1.
         25    2    1    2    0    0  0.00000000000E+00  0.00000000000E+00  0.12019484079E+03  0.17341232953E+03  0.12500014512E+03 0.  0.
    9000005    1    3    3    0    0  0.35358965797E+02  0.44676758390E+02  0.95710442037E+02  0.11139011589E+03  0.10000000000E+01 0.  0.
    9000005    1    3    3    0    0 -0.35358965797E+02 -0.44676758390E+02  0.24484398754E+02  0.62022213640E+02  0.10000000000E+01 0.  0.
<mgrwt>
<rscale>  0 0.12500015E+03</rscale>
<asrwt>0</asrwt>
<pdfrwt beam="1">  1        4 0.22585167E-01 0.12500015E+03</pdfrwt>
<pdfrwt beam="2">  1       -4 0.40936530E-02 0.12500015E+03</pdfrwt>
<totfact> 0.94816117E+03</totfact>
</mgrwt>
</event>
<event>
 5    1  0.3227866E-002  0.1250073E+03  0.7818608E-02  0.1235058E+00
          4   -1    0    0  501    0  0.00000000000E+00  0.00000000000E+00  0.87737018344E+02  0.87746209536E+02  0.12700000000E+01 0.  1.
         -4   -1    0    0    0  501 -0.00000000000E+00 -0.00000000000E+00 -0.44506892656E+02  0.44525008635E+02  0.12700000000E+01 0.  1.
         25    2    1    2    0    0  0.00000000000E+00  0.00000000000E+00  0.43230125688E+02  0.13227121817E+03  0.12500732534E+03 0.  0.
    9000005    1    3    3    0    0  0.58464641302E+02 -0.15127657655E+02  0.38635393924E+02  0.71698354042E+02  0.10000000000E+01 0.  0.
    9000005    1    3    3    0    0 -0.58464641302E+02  0.15127657655E+02  0.45947317640E+01  0.60572864128E+02  0.10000000000E+01 0.  0.
<mgrwt>
<rscale>  0 0.12500733E+03</rscale>
<asrwt>0</asrwt>
<pdfrwt beam="1">  1        4 0.13500103E-01 0.12500733E+03</pdfrwt>
<pdfrwt beam="2">  1       -4 0.68493149E-02 0.12500733E+03</pdfrwt>
<totfact> 0.10294212E+04</totfact>
</mgrwt>
</event>
<event>
 5    1  0.3227866E-002  0.1250007E+03  0.7818608E-02  0.1235068E+00
         -4   -1    0    0    0  501 -0.00000000000E+00  0.00000000000E+00  0.15224252865E+03  0.15224782570E+03  0.12700000000E+01 0.  1.
          4   -1    0    0  501    0  0.00000000000E+00 -0.00000000000E+00 -0.25636881260E+02  0.25668318619E+02  0.12700000000E+01 0.  1.
         25    2    1    2    0    0  0.00000000000E+00  0.00000000000E+00  0.12660564739E+03  0.17791614432E+03  0.12500065783E+03 0.  0.
    9000005    1    3    3    0    0  0.15349181261E+02  0.16547647288E+02 -0.19639945599E+02  0.29935755532E+02  0.10000000000E+01 0.  0.
    9000005    1    3    3    0    0 -0.15349181261E+02 -0.16547647288E+02  0.14624559299E+03  0.14798038879E+03  0.10000000000E+01 0.  0.
<mgrwt>
<rscale>  0 0.12500066E+03</rscale>
<asrwt>0</asrwt>
<pdfrwt beam="2">  1        4 0.39469613E-02 0.12500066E+03</pdfrwt>
<pdfrwt beam="1">  1       -4 0.23424753E-01 0.12500066E+03</pdfrwt>
<totfact> 0.93992067E+03</totfact>
</mgrwt>
</event>
<event>
 5    1  0.3227866E-002  0.1250005E+03  0.7818608E-02  0.1235069E+00
         -4   -1    0    0    0  501 -0.00000000000E+00  0.00000000000E+00  0.44644281900E+02  0.44662342151E+02  0.12700000000E+01 0.  1.
          4   -1    0    0  501    0  0.00000000000E+00 -0.00000000000E+00 -0.87457486062E+02  0.87466706627E+02  0.12700000000E+01 0.  1.
         25    2    1    2    0    0  0.00000000000E+00  0.00000000000E+00 -0.42813204161E+02  0.13212904878E+03  0.12500046032E+03 0.  0.
    9000005    1    3    3    0    0 -0.38748702182E+02  0.45095799573E+02 -0.41744053159E+02  0.72654380694E+02  0.10000000000E+01 0.  0.
    9000005    1    3    3    0    0  0.38748702182E+02 -0.45095799573E+02 -0.10691510021E+01  0.59474668084E+02  0.10000000000E+01 0.  0.
<mgrwt>
<rscale>  0 0.12500046E+03</rscale>
<asrwt>0</asrwt>
<pdfrwt beam="2">  1        4 0.13457096E-01 0.12500046E+03</pdfrwt>
<pdfrwt beam="1">  1       -4 0.68704496E-02 0.12500046E+03</pdfrwt>
<totfact> 0.10298838E+04</totfact>
</mgrwt>
</event>
<event>
 5    1  0.3227866E-002  0.1250008E+03  0.7818608E-02  0.1235068E+00
         -4   -1    0    0    0  501 -0.00000000000E+00  0.00000000000E+00  0.25472878155E+03  0.25473194745E+03  0.12700000000E+01 0.  1.
          4   -1    0    0  501    0  0.00000000000E+00 -0.00000000000E+00 -0.15305581675E+02  0.15358181220E+02  0.12700000000E+01 0.  1.
         25    2    1    2    0    0  0.00000000000E+00  0.00000000000E+00  0.23942319988E+03  0.27009012867E+03  0.12500083586E+03 0.  0.
    9000005    1    3    3    0    0 -0.36614898255E+02 -0.16040222551E+02  0.22350117435E+03  0.22705002632E+03  0.10000000000E+01 0.  0.
    9000005    1    3    3    0    0  0.36614898255E+02  0.16040222551E+02  0.15922025527E+02  0.43040102354E+02  0.10000000000E+01 0.  0.
<mgrwt>
<rscale>  0 0.12500084E+03</rscale>
<asrwt>0</asrwt>
<pdfrwt beam="2">  1        4 0.23589947E-02 0.12500084E+03</pdfrwt>
<pdfrwt beam="1">  1       -4 0.39193330E-01 0.12500084E+03</pdfrwt>
<totfact> 0.79509104E+03</totfact>
</mgrwt>
</event>
<event>
 5    1  0.3227866E-002  0.1250028E+03  0.7818608E-02  0.1235065E+00
          4   -1    0    0  501    0  0.00000000000E+00  0.00000000000E+00  0.14953566017E+04  0.14953571410E+04  0.12700000000E+01 0.  1.
         -4   -1    0    0    0  501 -0.00000000000E+00 -0.00000000000E+00 -0.24574462007E+01  0.27662143498E+01  0.12700000000E+01 0.  1.
         25    2    1    2    0    0  0.00000000000E+00  0.00000000000E+00  0.14928991555E+04  0.14981233553E+04  0.12500279742E+03 0.  0.
    9000005    1    3    3    0    0  0.57300423957E+02 -0.20290993959E+02  0.57262495270E+03  0.57584320738E+03  0.10000000000E+01 0.  0.
    9000005    1    3    3    0    0 -0.57300423957E+02  0.20290993959E+02  0.92027420276E+03  0.92228014794E+03  0.10000000000E+01 0.  0.
<mgrwt>
<rscale>  0 0.12500280E+03</rscale>
<asrwt>0</asrwt>
<pdfrwt beam="1">  1        4 0.23007887E+00 0.12500280E+03</pdfrwt>
<pdfrwt beam="2">  1       -4 0.40186115E-03 0.12500280E+03</pdfrwt>
<totfact> 0.17966243E+03</totfact>
</mgrwt>
</event>
<event>
 5    1  0.3227866E-002  0.1250035E+03  0.7818608E-02  0.1235064E+00
          4   -1    0    0  501    0  0.00000000000E+00  0.00000000000E+00  0.10973866558E+02  0.11047110356E+02  0.12700000000E+01 0. -1.
         -4   -1    0    0    0  501 -0.00000000000E+00 -0.00000000000E+00 -0.35472104762E+03  0.35472332109E+03  0.12700000000E+01 0. -1.
         25    2    1    2    0    0  0.00000000000E+00  0.00000000000E+00 -0.34374718107E+03  0.36577043145E+03  0.12500353608E+03 0.  0.
    9000005    1    3    3    0    0  0.21971214585E+02 -0.57794508184E+02 -0.14529105965E+03  0.15790323449E+03  0.10000000000E+01 0.  0.
    9000005    1    3    3    0    0 -0.21971214585E+02  0.57794508184E+02 -0.19845612142E+03  0.20786719696E+03  0.10000000000E+01 0.  0.
<mgrwt>
<rscale>  0 0.12500354E+03</rscale>
<asrwt>0</asrwt>
<pdfrwt beam="1">  1        4 0.16940965E-02 0.12500354E+03</pdfrwt>
<pdfrwt beam="2">  1       -4 0.54578269E-01 0.12500354E+03</pdfrwt>
<totfact> 0.68018448E+03</totfact>
</mgrwt>
</event>
<event>
 5    1  0.3227866E-002  0.1249982E+03  0.7818608E-02  0.1235072E+00
          4   -1    0    0  501    0  0.00000000000E+00  0.00000000000E+00  0.88740094972E+01  0.89644266161E+01  0.12700000000E+01 0.  1.
         -4   -1    0    0    0  501 -0.00000000000E+00 -0.00000000000E+00 -0.43785496879E+03  0.43785681060E+03  0.12700000000E+01 0.  1.
         25    2    1    2    0    0  0.00000000000E+00  0.00000000000E+00 -0.42898095929E+03  0.44682123722E+03  0.12499821837E+03 0.  0.
    9000005    1    3    3    0    0 -0.32632232667E+02 -0.37848460520E+01 -0.40451615991E+03  0.40584912381E+03  0.10000000000E+01 0.  0.
    9000005    1    3    3    0    0  0.32632232667E+02  0.37848460520E+01 -0.24464799376E+02  0.40972113406E+02  0.10000000000E+01 0.  0.
<mgrwt>
<rscale>  0 0.12499822E+03</rscale>
<asrwt>0</asrwt>
<pdfrwt beam="1">  1        4 0.13723294E-02 0.12499822E+03</pdfrwt>
<pdfrwt beam="2">  1       -4 0.67369383E-01 0.12499822E+03</pdfrwt>
<totfact> 0.60242535E+03</totfact>
</mgrwt>
</event>
<event>
 5    1  0.3227866E-002  0.1249909E+03  0.7818608E-02  0.1235083E+00
         -4   -1    0    0    0  501 -0.00000000000E+00  0.00000000000E+00  0.43376675197E+03  0.43376861115E+03  0.12700000000E+01 0.  1.
          4   -1    0    0  501    0  0.00000000000E+00 -0.00000000000E+00 -0.89574352659E+01  0.90470186550E+01  0.12700000000E+01 0.  1.
         25    2    1    2    0    0  0.00000000000E+00  0.00000000000E+00  0.42480931671E+03  0.44281562980E+03  0.12499090542E+03 0.  0.
    9000005    1    3    3    0    0  0.69836937352E+01 -0.56027361247E+02  0.30725894948E+03  0.31240502432E+03  0.10000000000E+01 0.  0.
    9000005    1    3    3    0    0 -0.69836937352E+01  0.56027361247E+02  0.11755036723E+03  0.13041060548E+03  0.10000000000E+01 0.  0.
<mgrwt>
<rscale>  0 0.12499091E+03</rscale>
<asrwt>0</asrwt>
<pdfrwt beam="2">  1        4 0.13851011E-02 0.12499091E+03</pdfrwt>
<pdfrwt beam="1">  1       -4 0.66740374E-01 0.12499091E+03</pdfrwt>
<totfact> 0.60603412E+03</totfact>
</mgrwt>
</event>
<event>
 5    1  0.3227866E-002  0.1250022E+03  0.7818608E-02  0.1235066E+00
         -4   -1    0    0    0  501 -0.00000000000E+00  0.00000000000E+00  0.21962728916E+04  0.21962732588E+04  0.12700000000E+01 0. -1.
          4   -1    0    0  501    0  0.00000000000E+00 -0.00000000000E+00 -0.15515262550E+01  0.20050271121E+01  0.12700000000E+01 0. -1.
         25    2    1    2    0    0  0.00000000000E+00  0.00000000000E+00  0.21947213653E+04  0.21982782859E+04  0.12500220305E+03 0.  0.
    9000005    1    3    3    0    0 -0.47704887761E+02 -0.13203514532E+02  0.42648653633E+03  0.42935050342E+03  0.10000000000E+01 0.  0.
    9000005    1    3    3    0    0  0.47704887761E+02  0.13203514532E+02  0.17682348290E+04  0.17689277824E+04  0.10000000000E+01 0.  0.
<mgrwt>
<rscale>  0 0.12500220E+03</rscale>
<asrwt>0</asrwt>
<pdfrwt beam="2">  1        4 0.27360908E-03 0.12500220E+03</pdfrwt>
<pdfrwt beam="1">  1       -4 0.33792328E+00 0.12500220E+03</pdfrwt>
<totfact> 0.74898617E+02</totfact>
</mgrwt>
</event>
<event>
 5    1  0.3227866E-002  0.1249987E+03  0.7818608E-02  0.1235071E+00
         -4   -1    0    0    0  501 -0.00000000000E+00  0.00000000000E+00  0.36039809698E+02  0.36062179399E+02  0.12700000000E+01 0. -1.
          4   -1    0    0  501    0  0.00000000000E+00 -0.00000000000E+00 -0.10832518151E+03  0.10833262597E+03  0.12700000000E+01 0. -1.
         25    2    1    2    0    0  0.00000000000E+00  0.00000000000E+00 -0.72285371813E+02  0.14439480537E+03  0.12499873935E+03 0.  0.
    9000005    1    3    3    0    0  0.11858538534E+02  0.56406830740E+02 -0.64030313166E+02  0.86158206193E+02  0.10000000000E+01 0.  0.
    9000005    1    3    3    0    0 -0.11858538534E+02 -0.56406830740E+02 -0.82550586474E+01  0.58236599176E+02  0.10000000000E+01 0.  0.
<mgrwt>
<rscale>  0 0.12499874E+03</rscale>
<asrwt>0</asrwt>
<pdfrwt beam="2">  1        4 0.16667706E-01 0.12499874E+03</pdfrwt>
<pdfrwt beam="1">  1       -4 0.55468795E-02 0.12499874E+03</pdfrwt>
<totfact> 0.10043584E+04</totfact>
</mgrwt>
</event>
<event>
 5    1  0.3227866E-002  0.1249895E+03  0.7818608E-02  0.1235086E+00
         -4   -1    0    0    0  501 -0.00000000000E+00  0.00000000000E+00  0.10570517939E+02  0.10646536972E+02  0.12700000000E+01 0. -1.
          4   -1    0    0  501    0  0.00000000000E+00 -0.00000000000E+00 -0.36807871077E+03  0.36808090174E+03  0.12700000000E+01 0. -1.
         25    2    1    2    0    0  0.00000000000E+00  0.00000000000E+00 -0.35750819283E+03  0.37872743871E+03  0.12498945911E+03 0.  0.
    9000005    1    3    3    0    0 -0.26020287819E+01  0.59061299568E+02 -0.11743092015E+03  0.13147634262E+03  0.10000000000E+01 0.  0.
    9000005    1    3    3    0    0  0.26020287819E+01 -0.59061299568E+02 -0.24007727268E+03  0.24725109609E+03  0.10000000000E+01 0.  0.
<mgrwt>
<rscale>  0 0.12498946E+03</rscale>
<asrwt>0</asrwt>
<pdfrwt beam="2">  1        4 0.56633500E-01 0.12498946E+03</pdfrwt>
<pdfrwt beam="1">  1       -4 0.16322500E-02 0.12498946E+03</pdfrwt>
<totfact> 0.66691199E+03</totfact>
</mgrwt>
</event>
<event>
 5    1  0.3227866E-002  0.1249983E+03  0.7818608E-02  0.1235072E+00
         -4   -1    0    0    0  501 -0.00000000000E+00  0.00000000000E+00  0.34509230501E+03  0.34509464192E+03  0.12700000000E+01 0. -1.
          4   -1    0    0  501    0  0.00000000000E+00 -0.00000000000E+00 -0.11281123665E+02  0.11352385262E+02  0.12700000000E+01 0. -1.
         25    2    1    2    0    0  0.00000000000E+00  0.00000000000E+00  0.33381118135E+03  0.35644702718E+03  0.12499831355E+03 0.  0.
    9000005    1    3    3    0    0  0.50471612501E+02  0.85632695263E+01  0.64706674297E+02  0.82514646893E+02  0.10000000000E+01 0.  0.
    9000005    1    3    3    0    0 -0.50471612501E+02 -0.85632695263E+01  0.26910450705E+03  0.27393238029E+03  0.10000000000E+01 0.  0.
<mgrwt>
<rscale>  0 0.12499831E+03</rscale>
<asrwt>0</asrwt>
<pdfrwt beam="2">  1        4 0.17412190E-02 0.12499831E+03</pdfrwt>
<pdfrwt beam="1">  1       -4 0.53096783E-01 0.12499831E+03</pdfrwt>
<totfact> 0.69023654E+03</totfact>
</mgrwt>
</event>
<event>
 5    1  0.3227866E-002  0.1249924E+03  0.7818608E-02  0.1235081E+00
          4   -1    0    0  501    0  0.00000000000E+00  0.00000000000E+00  0.11522779557E+03  0.11523479411E+03  0.12700000000E+01 0.  1.
         -4   -1    0    0    0  501 -0.00000000000E+00 -0.00000000000E+00 -0.33876196210E+02  0.33899993653E+02  0.12700000000E+01 0.  1.
         25    2    1    2    0    0  0.00000000000E+00  0.00000000000E+00  0.81351599364E+02  0.14913478776E+03  0.12499240857E+03 0.  0.
    9000005    1    3    3    0    0  0.74447392964E+01  0.34444435386E+02  0.10224668305E+03  0.10815372147E+03  0.10000000000E+01 0.  0.
    9000005    1    3    3    0    0 -0.74447392964E+01 -0.34444435386E+02 -0.20895083687E+02  0.40981066293E+02  0.10000000000E+01 0.  0.
<mgrwt>
<rscale>  0 0.12499241E+03</rscale>
<asrwt>0</asrwt>
<pdfrwt beam="1">  1        4 0.17729722E-01 0.12499241E+03</pdfrwt>
<pdfrwt beam="2">  1       -4 0.52140913E-02 0.12499241E+03</pdfrwt>
<totfact> 0.99493444E+03</totfact>
</mgrwt>
</event>
<event>
 5    1  0.3227866E-002  0.1249952E+03  0.7818608E-02  0.1235077E+00
          4   -1    0    0  501    0  0.00000000000E+00  0.00000000000E+00  0.12228123245E+03  0.12228782732E+03  0.12700000000E+01 0. -1.
         -4   -1    0    0    0  501 -0.00000000000E+00 -0.00000000000E+00 -0.31922283161E+02  0.31947536090E+02  0.12700000000E+01 0. -1.
         25    2    1    2    0    0  0.00000000000E+00  0.00000000000E+00  0.90358949290E+02  0.15423536341E+03  0.12499523034E+03 0.  0.
    9000005    1    3    3    0    0 -0.19820201757E+02 -0.29330034895E+02 -0.18363254218E+02  0.39891107406E+02  0.10000000000E+01 0.  0.
    9000005    1    3    3    0    0  0.19820201757E+02  0.29330034895E+02  0.10872220351E+03  0.11434425600E+03  0.10000000000E+01 0.  0.
<mgrwt>
<rscale>  0 0.12499523E+03</rscale>
<asrwt>0</asrwt>
<pdfrwt beam="1">  1        4 0.18814947E-01 0.12499523E+03</pdfrwt>
<pdfrwt beam="2">  1       -4 0.49135703E-02 0.12499523E+03</pdfrwt>
<totfact> 0.98476379E+03</totfact>
</mgrwt>
</event>
<event>
 5    1  0.3227866E-002  0.1249671E+03  0.7818608E-02  0.1235121E+00
          4   -1    0    0  501    0  0.00000000000E+00  0.00000000000E+00  0.16571294074E+02  0.16619888306E+02  0.12700000000E+01 0.  1.
         -4   -1    0    0    0  501 -0.00000000000E+00 -0.00000000000E+00 -0.23520461482E+03  0.23520804351E+03  0.12700000000E+01 0.  1.
         25    2    1    2    0    0  0.00000000000E+00  0.00000000000E+00 -0.21863332075E+03  0.25182793182E+03  0.12496710889E+03 0.  0.
    9000005    1    3    3    0    0 -0.13848287692E+02  0.10701671274E+02 -0.23017370777E+03  0.23084028372E+03  0.10000000000E+01 0.  0.
    9000005    1    3    3    0    0  0.13848287692E+02 -0.10701671274E+02  0.11540387022E+02  0.20987648098E+02  0.10000000000E+01 0.  0.
<mgrwt>
<rscale>  0 0.12496711E+03</rscale>
<asrwt>0</asrwt>
<pdfrwt beam="1">  1        4 0.25534318E-02 0.12496711E+03</pdfrwt>
<pdfrwt beam="2">  1       -4 0.36189325E-01 0.12496711E+03</pdfrwt>
<totfact> 0.82126902E+03</totfact>
</mgrwt>
</event>
<event>
 5    1  0.3227866E-002  0.1249914E+03  0.7818608E-02  0.1235083E+00
          4   -1    0    0  501    0  0.00000000000E+00  0.00000000000E+00  0.13130076636E+02  0.13191353701E+02  0.12700000000E+01 0. -1.
         -4   -1    0    0    0  501 -0.00000000000E+00 -0.00000000000E+00 -0.29670805538E+03  0.29671077336E+03  0.12700000000E+01 0. -1.
         25    2    1    2    0    0  0.00000000000E+00  0.00000000000E+00 -0.28357797874E+03  0.30990212706E+03  0.12499143302E+03 0.  0.
    9000005    1    3    3    0    0  0.42740905741E+02  0.42567351156E+02 -0.18222277918E+03  0.19195026872E+03  0.10000000000E+01 0.  0.
    9000005    1    3    3    0    0 -0.42740905741E+02 -0.42567351156E+02 -0.10135519956E+03  0.11795185834E+03  0.10000000000E+01 0.  0.
<mgrwt>
<rscale>  0 0.12499143E+03</rscale>
<asrwt>0</asrwt>
<pdfrwt beam="1">  1        4 0.20249347E-02 0.12499143E+03</pdfrwt>
<pdfrwt beam="2">  1       -4 0.45652311E-01 0.12499143E+03</pdfrwt>
<totfact> 0.74387428E+03</totfact>
</mgrwt>
</event>
<event>
 5    1  0.3227866E-002  0.1249962E+03  0.7818608E-02  0.1235075E+00
          4   -1    0    0  501    0  0.00000000000E+00  0.00000000000E+00  0.34346789318E+02  0.34370260931E+02  0.12700000000E+01 0.  1.
         -4   -1    0    0    0  501 -0.00000000000E+00 -0.00000000000E+00 -0.11365687606E+03  0.11366397131E+03  0.12700000000E+01 0.  1.
         25    2    1    2    0    0  0.00000000000E+00  0.00000000000E+00 -0.79310086739E+02  0.14803423225E+03  0.12499617617E+03 0.  0.
    9000005    1    3    3    0    0  0.25050166959E+02 -0.50198307472E+02 -0.72253274280E+02  0.91481782787E+02  0.10000000000E+01 0.  0.
    9000005    1    3    3    0    0 -0.25050166959E+02  0.50198307472E+02 -0.70568124590E+01  0.56552449459E+02  0.10000000000E+01 0.  0.
<mgrwt>
<rscale>  0 0.12499618E+03</rscale>
<asrwt>0</asrwt>
<pdfrwt beam="1">  1        4 0.52864728E-02 0.12499618E+03</pdfrwt>
<pdfrwt beam="2">  1       -4 0.17488024E-01 0.12499618E+03</pdfrwt>
<totfact> 0.99705579E+03</totfact>
</mgrwt>
</event>
<event>
 5    1  0.3227866E-002  0.1250006E+03  0.7818608E-02  0.1235068E+00
          4   -1    0    0  501    0  0.00000000000E+00  0.00000000000E+00  0.67347584505E+02  0.67359557886E+02  0.12700000000E+01 0. -1.
         -4   -1    0    0    0  501 -0.00000000000E+00 -0.00000000000E+00 -0.57977771486E+02  0.57991679459E+02  0.12700000000E+01 0. -1.
         25    2    1    2    0    0  0.00000000000E+00  0.00000000000E+00  0.93698130190E+01  0.12535123735E+03  0.12500055723E+03 0.  0.
    9000005    1    3    3    0    0  0.42038207571E+01  0.33241969042E+02  0.57583099238E+02  0.66629677567E+02  0.10000000000E+01 0.  0.
    9000005    1    3    3    0    0 -0.42038207571E+01 -0.33241969042E+02 -0.48213286219E+02  0.58721559778E+02  0.10000000000E+01 0.  0.
<mgrwt>
<rscale>  0 0.12500056E+03</rscale>
<asrwt>0</asrwt>
<pdfrwt beam="1">  1        4 0.10363158E-01 0.12500056E+03</pdfrwt>
<pdfrwt beam="2">  1       -4 0.89216480E-02 0.12500056E+03</pdfrwt>
<totfact> 0.10445107E+04</totfact>
</mgrwt>
</event>
<event>
 5    1  0.3227866E-002  0.1249998E+03  0.7818608E-02  0.1235070E+00
         -4   -1    0    0    0  501 -0.00000000000E+00  0.00000000000E+00  0.61319302220E+02  0.61332452460E+02  0.12700000000E+01 0.  1.
          4   -1    0    0  501    0  0.00000000000E+00 -0.00000000000E+00 -0.63676880465E+02  0.63689543928E+02  0.12700000000E+01 0.  1.
         25    2    1    2    0    0  0.00000000000E+00  0.00000000000E+00 -0.23575782447E+01  0.12502199639E+03  0.12499976562E+03 0.  0.
    9000005    1    3    3    0    0 -0.20651445977E+02 -0.10912151361E+02 -0.59151827710E+02  0.63604213616E+02  0.10000000000E+01 0.  0.
    9000005    1    3    3    0    0  0.20651445977E+02  0.10912151361E+02  0.56794249466E+02  0.61417782772E+02  0.10000000000E+01 0.  0.
<mgrwt>
<rscale>  0 0.12499977E+03</rscale>
<asrwt>0</asrwt>
<pdfrwt beam="2">  1        4 0.97984289E-02 0.12499977E+03</pdfrwt>
<pdfrwt beam="1">  1       -4 0.94357244E-02 0.12499977E+03</pdfrwt>
<totfact> 0.10452440E+04</totfact>
</mgrwt>
</event>
<event>
 5    1  0.3227866E-002  0.1250209E+03  0.7818608E-02  0.1235037E+00
         -4   -1    0    0    0  501 -0.00000000000E+00  0.00000000000E+00  0.61825505977E+03  0.61825636416E+03  0.12700000000E+01 0.  1.
          4   -1    0    0  501    0  0.00000000000E+00 -0.00000000000E+00 -0.62551714433E+01  0.63827948255E+01  0.12700000000E+01 0.  1.
         25    2    1    2    0    0  0.00000000000E+00  0.00000000000E+00  0.61199988833E+03  0.62463915899E+03  0.12502086079E+03 0.  0.
    9000005    1    3    3    0    0  0.43765602405E+02  0.37181869272E+02  0.42926075600E+03  0.43308626854E+03  0.10000000000E+01 0.  0.
    9000005    1    3    3    0    0 -0.43765602405E+02 -0.37181869272E+02  0.18273913232E+03  0.19155289045E+03  0.10000000000E+01 0.  0.
<mgrwt>
<rscale>  0 0.12502086E+03</rscale>
<asrwt>0</asrwt>
<pdfrwt beam="2">  1        4 0.97225147E-03 0.12502086E+03</pdfrwt>
<pdfrwt beam="1">  1       -4 0.95126093E-01 0.12502086E+03</pdfrwt>
<totfact> 0.47326713E+03</totfact>
</mgrwt>
</event>
<event>
 5    1  0.3227866E-002  0.1249990E+03  0.7818608E-02  0.1235071E+00
         -4   -1    0    0    0  501 -0.00000000000E+00  0.00000000000E+00  0.11800861072E+03  0.11801544435E+03  0.12700000000E+01 0.  1.
          4   -1    0    0  501    0  0.00000000000E+00 -0.00000000000E+00 -0.33080888987E+02  0.33105258135E+02  0.12700000000E+01 0.  1.
         25    2    1    2    0    0  0.00000000000E+00  0.00000000000E+00  0.84927721738E+02  0.15112070249E+03  0.12499899520E+03 0.  0.
    9000005    1    3    3    0    0 -0.50646090312E+02 -0.24911765622E+02  0.74894264769E+02  0.93785784773E+02  0.10000000000E+01 0.  0.
    9000005    1    3    3    0    0  0.50646090312E+02  0.24911765622E+02  0.10033456969E+02  0.57334917712E+02  0.10000000000E+01 0.  0.
<mgrwt>
<rscale>  0 0.12499900E+03</rscale>
<asrwt>0</asrwt>
<pdfrwt beam="2">  1        4 0.50917678E-02 0.12499900E+03</pdfrwt>
<pdfrwt beam="1">  1       -4 0.18157571E-01 0.12499900E+03</pdfrwt>
<totfact> 0.99083011E+03</totfact>
</mgrwt>
</event>
<event>
 5    1  0.3227866E-002  0.1250050E+03  0.7818608E-02  0.1235061E+00
         -4   -1    0    0    0  501 -0.00000000000E+00  0.00000000000E+00  0.64460691426E+02  0.64473200937E+02  0.12700000000E+01 0.  1.
          4   -1    0    0  501    0  0.00000000000E+00 -0.00000000000E+00 -0.60578756728E+02  0.60592067688E+02  0.12700000000E+01 0.  1.
         25    2    1    2    0    0  0.00000000000E+00  0.00000000000E+00  0.38819346978E+01  0.12506526863E+03  0.12500500790E+03 0.  0.
    9000005    1    3    3    0    0  0.20742443957E+01  0.55254523087E+02  0.31078849246E+02  0.63437052909E+02  0.10000000000E+01 0.  0.
    9000005    1    3    3    0    0 -0.20742443957E+01 -0.55254523087E+02 -0.27196914549E+02  0.61628215716E+02  0.10000000000E+01 0.  0.
<mgrwt>
<rscale>  0 0.12500501E+03</rscale>
<asrwt>0</asrwt>
<pdfrwt beam="2">  1        4 0.93217949E-02 0.12500501E+03</pdfrwt>
<pdfrwt beam="1">  1       -4 0.99190156E-02 0.12500501E+03</pdfrwt>
<totfact> 0.10450262E+04</totfact>
</mgrwt>
</event>
<event>
 5    1  0.3227866E-002  0.1250002E+03  0.7818608E-02  0.1235069E+00
          4   -1    0    0  501    0  0.00000000000E+00  0.00000000000E+00  0.10493211782E+03  0.10493980298E+03  0.12700000000E+01 0. -1.
         -4   -1    0    0    0  501 -0.00000000000E+00 -0.00000000000E+00 -0.37206679822E+02  0.37228348384E+02  0.12700000000E+01 0. -1.
         25    2    1    2    0    0  0.00000000000E+00  0.00000000000E+00  0.67725437997E+02  0.14216815137E+03  0.12500019324E+03 0.  0.
    9000005    1    3    3    0    0 -0.59440937548E+02  0.16560203209E+01  0.55719093369E+02  0.81495919074E+02  0.10000000000E+01 0.  0.
    9000005    1    3    3    0    0  0.59440937548E+02 -0.16560203209E+01  0.12006344628E+02  0.60672232291E+02  0.10000000000E+01 0.  0.
<mgrwt>
<rscale>  0 0.12500019E+03</rscale>
<asrwt>0</asrwt>
<pdfrwt beam="1">  1        4 0.16145660E-01 0.12500019E+03</pdfrwt>
<pdfrwt beam="2">  1       -4 0.57263628E-02 0.12500019E+03</pdfrwt>
<totfact> 0.10088802E+04</totfact>
</mgrwt>
</event>
<event>
 5    1  0.3227866E-002  0.1249954E+03  0.7818608E-02  0.1235076E+00
          4   -1    0    0  501    0  0.00000000000E+00  0.00000000000E+00  0.20684522377E+02  0.20723473791E+02  0.12700000000E+01 0. -1.
         -4   -1    0    0    0  501 -0.00000000000E+00 -0.00000000000E+00 -0.18861638855E+03  0.18862066411E+03  0.12700000000E+01 0. -1.
         25    2    1    2    0    0  0.00000000000E+00  0.00000000000E+00 -0.16793186617E+03  0.20934413790E+03  0.12499542551E+03 0.  0.
    9000005    1    3    3    0    0 -0.49373034603E+02  0.36568100764E+02 -0.10306480738E+03  0.11999282087E+03  0.10000000000E+01 0.  0.
    9000005    1    3    3    0    0  0.49373034603E+02 -0.36568100764E+02 -0.64867058790E+02  0.89351317033E+02  0.10000000000E+01 0.  0.
<mgrwt>
<rscale>  0 0.12499543E+03</rscale>
<asrwt>0</asrwt>
<pdfrwt beam="1">  1        4 0.31855595E-02 0.12499543E+03</pdfrwt>
<pdfrwt beam="2">  1       -4 0.29021230E-01 0.12499543E+03</pdfrwt>
<totfact> 0.88592165E+03</totfact>
</mgrwt>
</event>
<event>
 5    1  0.3227866E-002  0.1249943E+03  0.7818608E-02  0.1235078E+00
         -4   -1    0    0    0  501 -0.00000000000E+00  0.00000000000E+00  0.22789230086E+02  0.22824589983E+02  0.12700000000E+01 0. -1.
          4   -1    0    0  501    0  0.00000000000E+00 -0.00000000000E+00 -0.17122159748E+03  0.17122630739E+03  0.12700000000E+01 0. -1.
         25    2    1    2    0    0  0.00000000000E+00  0.00000000000E+00 -0.14843236739E+03  0.19405089737E+03  0.12499433220E+03 0.  0.
    9000005    1    3    3    0    0  0.72234704842E+00  0.59202328765E+02 -0.43187665588E+02  0.73291281715E+02  0.10000000000E+01 0.  0.
    9000005    1    3    3    0    0 -0.72234704842E+00 -0.59202328765E+02 -0.10524470180E+03  0.12075961566E+03  0.10000000000E+01 0.  0.
<mgrwt>
<rscale>  0 0.12499433E+03</rscale>
<asrwt>0</asrwt>
<pdfrwt beam="2">  1        4 0.26344866E-01 0.12499433E+03</pdfrwt>
<pdfrwt beam="1">  1       -4 0.35091178E-02 0.12499433E+03</pdfrwt>
<totfact> 0.91158779E+03</totfact>
</mgrwt>
</event>
<event>
 5    1  0.3227866E-002  0.1249965E+03  0.7818608E-02  0.1235075E+00
          4   -1    0    0  501    0  0.00000000000E+00  0.00000000000E+00  0.12210063854E+03  0.12210724316E+03  0.12700000000E+01 0. -1.
         -4   -1    0    0    0  501 -0.00000000000E+00 -0.00000000000E+00 -0.31970179167E+02  0.31995394293E+02  0.12700000000E+01 0. -1.
         25    2    1    2    0    0  0.00000000000E+00  0.00000000000E+00  0.90130459377E+02  0.15410263746E+03  0.12499649260E+03 0.  0.
    9000005    1    3    3    0    0  0.15621162748E+02  0.58367003749E+01 -0.29182402739E+02  0.33625889230E+02  0.10000000000E+01 0.  0.
    9000005    1    3    3    0    0 -0.15621162748E+02 -0.58367003749E+01  0.11931286212E+03  0.12047674823E+03  0.10000000000E+01 0.  0.
<mgrwt>
<rscale>  0 0.12499649E+03</rscale>
<asrwt>0</asrwt>
<pdfrwt beam="1">  1        4 0.18787162E-01 0.12499649E+03</pdfrwt>
<pdfrwt beam="2">  1       -4 0.49209367E-02 0.12499649E+03</pdfrwt>
<totfact> 0.98499721E+03</totfact>
</mgrwt>
</event>
<event>
 5    1  0.3227866E-002  0.1250105E+03  0.7818608E-02  0.1235053E+00
          4   -1    0    0  501    0  0.00000000000E+00  0.00000000000E+00  0.14821624846E+03  0.14822168940E+03  0.12700000000E+01 0.  1.
         -4   -1    0    0    0  501 -0.00000000000E+00 -0.00000000000E+00 -0.26338269973E+02  0.26368871139E+02  0.12700000000E+01 0.  1.
         25    2    1    2    0    0  0.00000000000E+00  0.00000000000E+00  0.12187797849E+03  0.17459056054E+03  0.12501048831E+03 0.  0.
    9000005    1    3    3    0    0  0.81924164978E+01  0.61476700319E+02  0.71703305638E+02  0.94809621925E+02  0.10000000000E+01 0.  0.
    9000005    1    3    3    0    0 -0.81924164978E+01 -0.61476700319E+02  0.50174672854E+02  0.79780938615E+02  0.10000000000E+01 0.  0.
<mgrwt>
<rscale>  0 0.12501049E+03</rscale>
<asrwt>0</asrwt>
<pdfrwt beam="1">  1        4 0.22805272E-01 0.12501049E+03</pdfrwt>
<pdfrwt beam="2">  1       -4 0.40548140E-02 0.12501049E+03</pdfrwt>
<totfact> 0.94577626E+03</totfact>
</mgrwt>
</event>
<event>
 5    1  0.3227866E-002  0.1249867E+03  0.7818608E-02  0.1235090E+00
         -4   -1    0    0    0  501 -0.00000000000E+00  0.00000000000E+00  0.40464010103E+02  0.40483935254E+02  0.12700000000E+01 0. -1.
          4   -1    0    0  501    0  0.00000000000E+00 -0.00000000000E+00 -0.96468071664E+02  0.96476431063E+02  0.12700000000E+01 0. -1.
         25    2    1    2    0    0  0.00000000000E+00  0.00000000000E+00 -0.56004061561E+02  0.13696036632E+03  0.12498674742E+03 0.  0.
    9000005    1    3    3    0    0  0.26144705590E+02 -0.56722416654E+02 -0.25968570072E+02  0.67648686706E+02  0.10000000000E+01 0.  0.
    9000005    1    3    3    0    0 -0.26144705590E+02  0.56722416654E+02 -0.30035491489E+02  0.69311679611E+02  0.10000000000E+01 0.  0.
<mgrwt>
<rscale>  0 0.12498675E+03</rscale>
<asrwt>0</asrwt>
<pdfrwt beam="2">  1        4 0.14843418E-01 0.12498675E+03</pdfrwt>
<pdfrwt beam="1">  1       -4 0.62274081E-02 0.12498675E+03</pdfrwt>
<totfact> 0.10199962E+04</totfact>
</mgrwt>
</event>
<event>
 5    1  0.3227866E-002  0.1250003E+03  0.7818608E-02  0.1235069E+00
         -4   -1    0    0    0  501 -0.00000000000E+00  0.00000000000E+00  0.12047171359E+02  0.12113927429E+02  0.12700000000E+01 0.  1.
          4   -1    0    0  501    0  0.00000000000E+00 -0.00000000000E+00 -0.32328401489E+03  0.32328650944E+03  0.12700000000E+01 0.  1.
         25    2    1    2    0    0  0.00000000000E+00  0.00000000000E+00 -0.31123684353E+03  0.33540043686E+03  0.12500032111E+03 0.  0.
    9000005    1    3    3    0    0 -0.33989137619E+02 -0.10531144596E+02 -0.17776692202E+02  0.39789160185E+02  0.10000000000E+01 0.  0.
    9000005    1    3    3    0    0  0.33989137619E+02  0.10531144596E+02 -0.29346015133E+03  0.29561127668E+03  0.10000000000E+01 0.  0.
<mgrwt>
<rscale>  0 0.12500032E+03</rscale>
<asrwt>0</asrwt>
<pdfrwt beam="2">  1        4 0.49741323E-01 0.12500032E+03</pdfrwt>
<pdfrwt beam="1">  1       -4 0.18587382E-02 0.12500032E+03</pdfrwt>
<totfact> 0.71360620E+03</totfact>
</mgrwt>
</event>
<event>
 5    1  0.3227866E-002  0.1250398E+03  0.7818608E-02  0.1235007E+00
          4   -1    0    0  501    0  0.00000000000E+00  0.00000000000E+00  0.65132228062E+02  0.65144608620E+02  0.12700000000E+01 0.  1.
         -4   -1    0    0    0  501 -0.00000000000E+00 -0.00000000000E+00 -0.59987530916E+02  0.60000973037E+02  0.12700000000E+01 0.  1.
         25    2    1    2    0    0  0.00000000000E+00  0.00000000000E+00  0.51446971454E+01  0.12514558166E+03  0.12503978847E+03 0.  0.
    9000005    1    3    3    0    0 -0.52779157149E+02  0.29299855085E+02 -0.13677651587E+02  0.61904758220E+02  0.10000000000E+01 0.  0.
    9000005    1    3    3    0    0  0.52779157149E+02 -0.29299855085E+02  0.18822348732E+02  0.63240823438E+02  0.10000000000E+01 0.  0.
<mgrwt>
<rscale>  0 0.12503979E+03</rscale>
<asrwt>0</asrwt>
<pdfrwt beam="1">  1        4 0.10022329E-01 0.12503979E+03</pdfrwt>
<pdfrwt beam="2">  1       -4 0.92308373E-02 0.12503979E+03</pdfrwt>
<totfact> 0.10440310E+04</totfact>
</mgrwt>
</event>
<event>
 5    1  0.3227866E-002  0.1250020E+03  0.7818608E-02  0.1235066E+00
          4   -1    0    0  501    0  0.00000000000E+00  0.00000000000E+00  0.11385399885E+02  0.11456012856E+02  0.12700000000E+01 0. -1.
         -4   -1    0    0    0  501 -0.00000000000E+00 -0.00000000000E+00 -0.34197129698E+03  0.34197365521E+03  0.12700000000E+01 0. -1.
         25    2    1    2    0    0  0.00000000000E+00  0.00000000000E+00 -0.33058589709E+03  0.35342966806E+03  0.12500197963E+03 0.  0.
    9000005    1    3    3    0    0  0.38859945838E+02 -0.43258719409E+02 -0.10057335014E+03  0.11617835837E+03  0.10000000000E+01 0.  0.
    9000005    1    3    3    0    0 -0.38859945838E+02  0.43258719409E+02 -0.23001254695E+03  0.23725130969E+03  0.10000000000E+01 0.  0.
<mgrwt>
<rscale>  0 0.12500198E+03</rscale>
<asrwt>0</asrwt>
<pdfrwt beam="1">  1        4 0.17572134E-02 0.12500198E+03</pdfrwt>
<pdfrwt beam="2">  1       -4 0.52616574E-01 0.12500198E+03</pdfrwt>
<totfact> 0.69345857E+03</totfact>
</mgrwt>
</event>
<event>
 5    1  0.3227866E-002  0.1249920E+03  0.7818608E-02  0.1235082E+00
         -4   -1    0    0    0  501 -0.00000000000E+00  0.00000000000E+00  0.33818250629E+02  0.33842088819E+02  0.12700000000E+01 0. -1.
          4   -1    0    0  501    0  0.00000000000E+00 -0.00000000000E+00 -0.11542443257E+03  0.11543141918E+03  0.12700000000E+01 0. -1.
         25    2    1    2    0    0  0.00000000000E+00  0.00000000000E+00 -0.81606181940E+02  0.14927350800E+03  0.12499204478E+03 0.  0.
    9000005    1    3    3    0    0  0.13747264265E+02  0.53342080461E+02 -0.55695078409E+01  0.55374942350E+02  0.10000000000E+01 0.  0.
    9000005    1    3    3    0    0 -0.13747264265E+02 -0.53342080461E+02 -0.76036674099E+02  0.93898565648E+02  0.10000000000E+01 0.  0.
<mgrwt>
<rscale>  0 0.12499204E+03</rscale>
<asrwt>0</asrwt>
<pdfrwt beam="2">  1        4 0.17759976E-01 0.12499204E+03</pdfrwt>
<pdfrwt beam="1">  1       -4 0.52051790E-02 0.12499204E+03</pdfrwt>
<totfact> 0.99466519E+03</totfact>
</mgrwt>
</event>
<event>
 5    1  0.3227866E-002  0.1250010E+03  0.7818608E-02  0.1235068E+00
          4   -1    0    0  501    0  0.00000000000E+00  0.00000000000E+00  0.75340952667E+02  0.75351655913E+02  0.12700000000E+01 0.  1.
         -4   -1    0    0    0  501 -0.00000000000E+00 -0.00000000000E+00 -0.51826314453E+02  0.51841872746E+02  0.12700000000E+01 0.  1.
         25    2    1    2    0    0  0.00000000000E+00  0.00000000000E+00  0.23514638214E+02  0.12719352866E+03  0.12500102208E+03 0.  0.
    9000005    1    3    3    0    0 -0.16369340157E+02 -0.21928537967E+02 -0.45410838701E+02  0.53027920439E+02  0.10000000000E+01 0.  0.
    9000005    1    3    3    0    0  0.16369340157E+02  0.21928537967E+02  0.68925476916E+02  0.74165608220E+02  0.10000000000E+01 0.  0.
<mgrwt>
<rscale>  0 0.12500102E+03</rscale>
<asrwt>0</asrwt>
<pdfrwt beam="1">  1        4 0.11592936E-01 0.12500102E+03</pdfrwt>
<pdfrwt beam="2">  1       -4 0.79752993E-02 0.12500102E+03</pdfrwt>
<totfact> 0.10404704E+04</totfact>
</mgrwt>
</event>
<event>
 5    1  0.3227866E-002  0.1250028E+03  0.7818608E-02  0.1235065E+00
          4   -1    0    0  501    0  0.00000000000E+00  0.00000000000E+00  0.41496253723E+03  0.41496448066E+03  0.12700000000E+01 0.  1.
         -4   -1    0    0    0  501 -0.00000000000E+00 -0.00000000000E+00 -0.93691142966E+01  0.94547978668E+01  0.12700000000E+01 0.  1.
         25    2    1    2    0    0  0.00000000000E+00  0.00000000000E+00  0.40559342293E+03  0.42441927852E+03  0.12500279698E+03 0.  0.
    9000005    1    3    3    0    0 -0.27173301697E+02  0.40625290865E+01  0.12221090505E+02  0.30087331567E+02  0.10000000000E+01 0.  0.
    9000005    1    3    3    0    0  0.27173301697E+02 -0.40625290865E+01  0.39337233243E+03  0.39433194695E+03  0.10000000000E+01 0.  0.
<mgrwt>
<rscale>  0 0.12500280E+03</rscale>
<asrwt>0</asrwt>
<pdfrwt beam="1">  1        4 0.63847130E-01 0.12500280E+03</pdfrwt>
<pdfrwt beam="2">  1       -4 0.14481428E-02 0.12500280E+03</pdfrwt>
<totfact> 0.62241287E+03</totfact>
</mgrwt>
</event>
<event>
 5    1  0.3227866E-002  0.1250004E+03  0.7818608E-02  0.1235069E+00
         -4   -1    0    0    0  501 -0.00000000000E+00  0.00000000000E+00  0.34112124057E+03  0.34112360468E+03  0.12700000000E+01 0. -1.
          4   -1    0    0  501    0  0.00000000000E+00 -0.00000000000E+00 -0.11413655291E+02  0.11484094527E+02  0.12700000000E+01 0. -1.
         25    2    1    2    0    0  0.00000000000E+00  0.00000000000E+00  0.32970758528E+03  0.35260769921E+03  0.12500039099E+03 0.  0.
    9000005    1    3    3    0    0  0.54230847966E+02  0.28475573739E+02  0.12991262981E+03  0.14363194128E+03  0.10000000000E+01 0.  0.
    9000005    1    3    3    0    0 -0.54230847966E+02 -0.28475573739E+02  0.19979495547E+03  0.20897575793E+03  0.10000000000E+01 0.  0.
<mgrwt>
<rscale>  0 0.12500039E+03</rscale>
<asrwt>0</asrwt>
<pdfrwt beam="2">  1        4 0.17615473E-02 0.12500039E+03</pdfrwt>
<pdfrwt beam="1">  1       -4 0.52485788E-01 0.12500039E+03</pdfrwt>
<totfact> 0.69438026E+03</totfact>
</mgrwt>
</event>
<event>
 5    1  0.3227866E-002  0.1250013E+03  0.7818608E-02  0.1235067E+00
         -4   -1    0    0    0  501 -0.00000000000E+00  0.00000000000E+00  0.42968401560E+03  0.42968589244E+03  0.12700000000E+01 0.  1.
          4   -1    0    0  501    0  0.00000000000E+00 -0.00000000000E+00 -0.90449170150E+01  0.91336424174E+01  0.12700000000E+01 0.  1.
         25    2    1    2    0    0  0.00000000000E+00  0.00000000000E+00  0.42063909858E+03  0.43881953485E+03  0.12500133165E+03 0.  0.
    9000005    1    3    3    0    0  0.16957950382E+02  0.40318815961E+02  0.36700648663E+03  0.36960511391E+03  0.10000000000E+01 0.  0.
    9000005    1    3    3    0    0 -0.16957950382E+02 -0.40318815961E+02  0.53632611955E+02  0.69214420945E+02  0.10000000000E+01 0.  0.
<mgrwt>
<rscale>  0 0.12500133E+03</rscale>
<asrwt>0</asrwt>
<pdfrwt beam="2">  1        4 0.13984957E-02 0.12500133E+03</pdfrwt>
<pdfrwt beam="1">  1       -4 0.66112175E-01 0.12500133E+03</pdfrwt>
<totfact> 0.60942835E+03</totfact>
</mgrwt>
</event>
<event>
 5    1  0.3227866E-002  0.1249998E+03  0.7818608E-02  0.1235070E+00
          4   -1    0    0  501    0  0.00000000000E+00  0.00000000000E+00  0.44813035693E+01  0.46577872086E+01  0.12700000000E+01 0.  1.
         -4   -1    0    0    0  501 -0.00000000000E+00 -0.00000000000E+00 -0.85466519666E+03  0.85466614024E+03  0.12700000000E+01 0.  1.
         25    2    1    2    0    0  0.00000000000E+00  0.00000000000E+00 -0.85018389309E+03  0.85932392745E+03  0.12499984090E+03 0.  0.
    9000005    1    3    3    0    0  0.47135468343E+02  0.30377410594E+02 -0.23548496458E+03  0.24207170011E+03  0.10000000000E+01 0.  0.
    9000005    1    3    3    0    0 -0.47135468343E+02 -0.30377410594E+02 -0.61469892851E+03  0.61725222734E+03  0.10000000000E+01 0.  0.
<mgrwt>
<rscale>  0 0.12499984E+03</rscale>
<asrwt>0</asrwt>
<pdfrwt beam="1">  1        4 0.70308024E-03 0.12499984E+03</pdfrwt>
<pdfrwt beam="2">  1       -4 0.13150047E+00 0.12499984E+03</pdfrwt>
<totfact> 0.35748945E+03</totfact>
</mgrwt>
</event>
<event>
 5    1  0.3227866E-002  0.1250003E+03  0.7818608E-02  0.1235069E+00
          4   -1    0    0  501    0  0.00000000000E+00  0.00000000000E+00  0.82975273994E+01  0.83941563569E+01  0.12700000000E+01 0. -1.
         -4   -1    0    0    0  501 -0.00000000000E+00 -0.00000000000E+00 -0.46795255092E+03  0.46795427427E+03  0.12700000000E+01 0. -1.
         25    2    1    2    0    0  0.00000000000E+00  0.00000000000E+00 -0.45965502352E+03  0.47634843063E+03  0.12500034687E+03 0.  0.
    9000005    1    3    3    0    0  0.31735106935E+02 -0.24968685300E+02 -0.41157877515E+03  0.41355609101E+03  0.10000000000E+01 0.  0.
    9000005    1    3    3    0    0 -0.31735106935E+02  0.24968685300E+02 -0.48076248371E+02  0.62792339622E+02  0.10000000000E+01 0.  0.
<mgrwt>
<rscale>  0 0.12500035E+03</rscale>
<asrwt>0</asrwt>
<pdfrwt beam="1">  1        4 0.12841086E-02 0.12500035E+03</pdfrwt>
<pdfrwt beam="2">  1       -4 0.72000245E-01 0.12500035E+03</pdfrwt>
<totfact> 0.57746866E+03</totfact>
</mgrwt>
</event>
<event>
 5    1  0.3227866E-002  0.1249984E+03  0.7818608E-02  0.1235072E+00
         -4   -1    0    0    0  501 -0.00000000000E+00  0.00000000000E+00  0.69763003545E+02  0.69774562440E+02  0.12700000000E+01 0.  1.
          4   -1    0    0  501    0  0.00000000000E+00 -0.00000000000E+00 -0.55968333515E+02  0.55982740701E+02  0.12700000000E+01 0.  1.
         25    2    1    2    0    0  0.00000000000E+00  0.00000000000E+00  0.13794670031E+02  0.12575730314E+03  0.12499842548E+03 0.  0.
    9000005    1    3    3    0    0  0.51648202709E+02  0.21694269973E+02 -0.20965084308E+02  0.59822344929E+02  0.10000000000E+01 0.  0.
    9000005    1    3    3    0    0 -0.51648202709E+02 -0.21694269973E+02  0.34759754338E+02  0.65934958212E+02  0.10000000000E+01 0.  0.
<mgrwt>
<rscale>  0 0.12499843E+03</rscale>
<asrwt>0</asrwt>
<pdfrwt beam="2">  1        4 0.86125102E-02 0.12499843E+03</pdfrwt>
<pdfrwt beam="1">  1       -4 0.10734767E-01 0.12499843E+03</pdfrwt>
<totfact> 0.10436655E+04</totfact>
</mgrwt>
</event>
<event>
 5    1  0.3227866E-002  0.1249980E+03  0.7818608E-02  0.1235072E+00
          4   -1    0    0  501    0  0.00000000000E+00  0.00000000000E+00  0.98249278995E+02  0.98257486855E+02  0.12700000000E+01 0. -1.
         -4   -1    0    0    0  501 -0.00000000000E+00 -0.00000000000E+00 -0.39737276941E+02  0.39757566308E+02  0.12700000000E+01 0. -1.
         25    2    1    2    0    0  0.00000000000E+00  0.00000000000E+00  0.58512002054E+02  0.13801505316E+03  0.12499800204E+03 0.  0.
    9000005    1    3    3    0    0 -0.19097151064E+02  0.12830327509E+01 -0.36426552944E+02  0.41161160226E+02  0.10000000000E+01 0.  0.
    9000005    1    3    3    0    0  0.19097151064E+02 -0.12830327509E+01  0.94938554997E+02  0.96853892936E+02  0.10000000000E+01 0.  0.
<mgrwt>
<rscale>  0 0.12499800E+03</rscale>
<asrwt>0</asrwt>
<pdfrwt beam="1">  1        4 0.15117466E-01 0.12499800E+03</pdfrwt>
<pdfrwt beam="2">  1       -4 0.61156194E-02 0.12499800E+03</pdfrwt>
<totfact> 0.10175350E+04</totfact>
</mgrwt>
</event>
<event>
 5    1  0.3227866E-002  0.1250039E+03  0.7818608E-02  0.1235063E+00
         -4   -1    0    0    0  501 -0.00000000000E+00  0.00000000000E+00  0.76096748767E+02  0.76107345723E+02  0.12700000000E+01 0.  1.
          4   -1    0    0  501    0  0.00000000000E+00 -0.00000000000E+00 -0.51313838932E+02  0.51329552560E+02  0.12700000000E+01 0.  1.
         25    2    1    2    0    0  0.00000000000E+00  0.00000000000E+00  0.24782909835E+02  0.12743689828E+03  0.12500388164E+03 0.  0.
    9000005    1    3    3    0    0  0.27298970433E+02 -0.56000150110E+02  0.73720066853E+01  0.62742306951E+02  0.10000000000E+01 0.  0.
    9000005    1    3    3    0    0 -0.27298970433E+02  0.56000150110E+02  0.17410903150E+02  0.64694591331E+02  0.10000000000E+01 0.  0.
<mgrwt>
<rscale>  0 0.12500388E+03</rscale>
<asrwt>0</asrwt>
<pdfrwt beam="2">  1        4 0.78964607E-02 0.12500388E+03</pdfrwt>
<pdfrwt beam="1">  1       -4 0.11709216E-01 0.12500388E+03</pdfrwt>
<totfact> 0.10398756E+04</totfact>
</mgrwt>
</event>
<event>
 5    1  0.3227866E-002  0.1250002E+03  0.7818608E-02  0.1235069E+00
          4   -1    0    0  501    0  0.00000000000E+00  0.00000000000E+00  0.11494449814E+04  0.11494456830E+04  0.12700000000E+01 0.  1.
         -4   -1    0    0    0  501 -0.00000000000E+00 -0.00000000000E+00 -0.32790123444E+01  0.35163648779E+01  0.12700000000E+01 0.  1.
         25    2    1    2    0    0  0.00000000000E+00  0.00000000000E+00  0.11461659690E+04  0.11529620478E+04  0.12500022089E+03 0.  0.
    9000005    1    3    3    0    0 -0.27624359047E+02  0.38902279341E+02  0.94533261855E+03  0.94653645056E+03  0.10000000000E+01 0.  0.
    9000005    1    3    3    0    0  0.27624359047E+02 -0.38902279341E+02  0.20083335048E+03  0.20642559729E+03  0.10000000000E+01 0.  0.
<mgrwt>
<rscale>  0 0.12500022E+03</rscale>
<asrwt>0</asrwt>
<pdfrwt beam="1">  1        4 0.17685599E+00 0.12500022E+03</pdfrwt>
<pdfrwt beam="2">  1       -4 0.52277532E-03 0.12500022E+03</pdfrwt>
<totfact> 0.25978065E+03</totfact>
</mgrwt>
</event>
<event>
 5    1  0.3227866E-002  0.1250047E+03  0.7818608E-02  0.1235062E+00
         -4   -1    0    0    0  501 -0.00000000000E+00  0.00000000000E+00  0.12926710860E+02  0.12988947365E+02  0.12700000000E+01 0. -1.
          4   -1    0    0  501    0  0.00000000000E+00 -0.00000000000E+00 -0.30141761059E+03  0.30142028610E+03  0.12700000000E+01 0. -1.
         25    2    1    2    0    0  0.00000000000E+00  0.00000000000E+00 -0.28849089973E+03  0.31440923347E+03  0.12500466736E+03 0.  0.
    9000005    1    3    3    0    0  0.23160830719E+02 -0.41629091986E+02 -0.24598242195E+03  0.25055489875E+03  0.10000000000E+01 0.  0.
    9000005    1    3    3    0    0 -0.23160830719E+02  0.41629091986E+02 -0.42508477786E+02  0.63854334723E+02  0.10000000000E+01 0.  0.
<mgrwt>
<rscale>  0 0.12500467E+03</rscale>
<asrwt>0</asrwt>
<pdfrwt beam="2">  1        4 0.46376928E-01 0.12500467E+03</pdfrwt>
<pdfrwt beam="1">  1       -4 0.19937182E-02 0.12500467E+03</pdfrwt>
<totfact> 0.73818406E+03</totfact>
</mgrwt>
</event>
<event>
 5    1  0.3227866E-002  0.1250057E+03  0.7818608E-02  0.1235060E+00
          4   -1    0    0  501    0  0.00000000000E+00  0.00000000000E+00  0.78188721581E+02  0.78199035048E+02  0.12700000000E+01 0.  1.
         -4   -1    0    0    0  501 -0.00000000000E+00 -0.00000000000E+00 -0.49942136668E+02  0.49958281745E+02  0.12700000000E+01 0.  1.
         25    2    1    2    0    0  0.00000000000E+00  0.00000000000E+00  0.28246584913E+02  0.12815731679E+03  0.12500571302E+03 0.  0.
    9000005    1    3    3    0    0  0.18200602209E+02  0.57750854533E+02 -0.17321937148E+01  0.60584021121E+02  0.10000000000E+01 0.  0.
    9000005    1    3    3    0    0 -0.18200602209E+02 -0.57750854533E+02  0.29978778628E+02  0.67573295673E+02  0.10000000000E+01 0.  0.
<mgrwt>
<rscale>  0 0.12500571E+03</rscale>
<asrwt>0</asrwt>
<pdfrwt beam="1">  1        4 0.12031069E-01 0.12500571E+03</pdfrwt>
<pdfrwt beam="2">  1       -4 0.76854409E-02 0.12500571E+03</pdfrwt>
<totfact> 0.10382752E+04</totfact>
</mgrwt>
</event>
<event>
 5    1  0.3227866E-002  0.1249984E+03  0.7818608E-02  0.1235072E+00
         -4   -1    0    0    0  501 -0.00000000000E+00  0.00000000000E+00  0.18689694991E+03  0.18690126480E+03  0.12700000000E+01 0. -1.
          4   -1    0    0  501    0  0.00000000000E+00 -0.00000000000E+00 -0.20876157376E+02  0.20914751894E+02  0.12700000000E+01 0. -1.
         25    2    1    2    0    0  0.00000000000E+00  0.00000000000E+00  0.16602079253E+03  0.20781601670E+03  0.12499837296E+03 0.  0.
    9000005    1    3    3    0    0 -0.58785164948E+02  0.16893386148E+02  0.61715074219E+02  0.86895526349E+02  0.10000000000E+01 0.  0.
    9000005    1    3    3    0    0  0.58785164948E+02 -0.16893386148E+02  0.10430571831E+03  0.12092049035E+03  0.10000000000E+01 0.  0.
<mgrwt>
<rscale>  0 0.12499837E+03</rscale>
<asrwt>0</asrwt>
<pdfrwt beam="2">  1        4 0.32150172E-02 0.12499837E+03</pdfrwt>
<pdfrwt beam="1">  1       -4 0.28756678E-01 0.12499837E+03</pdfrwt>
<totfact> 0.88837032E+03</totfact>
</mgrwt>
</event>
<event>
 5    1  0.3227866E-002  0.1249944E+03  0.7818608E-02  0.1235078E+00
         -4   -1    0    0    0  501 -0.00000000000E+00  0.00000000000E+00  0.12481048014E+02  0.12545495587E+02  0.12700000000E+01 0. -1.
          4   -1    0    0  501    0  0.00000000000E+00 -0.00000000000E+00 -0.31207477458E+03  0.31207735872E+03  0.12700000000E+01 0. -1.
         25    2    1    2    0    0  0.00000000000E+00  0.00000000000E+00 -0.29959372656E+03  0.32462285431E+03  0.12499438605E+03 0.  0.
    9000005    1    3    3    0    0  0.27988313339E+02  0.14886349030E+02 -0.28965374607E+03  0.29138504025E+03  0.10000000000E+01 0.  0.
    9000005    1    3    3    0    0 -0.27988313339E+02 -0.14886349030E+02 -0.99399804917E+01  0.33237814055E+02  0.10000000000E+01 0.  0.
<mgrwt>
<rscale>  0 0.12499439E+03</rscale>
<asrwt>0</asrwt>
<pdfrwt beam="2">  1        4 0.48016654E-01 0.12499439E+03</pdfrwt>
<pdfrwt beam="1">  1       -4 0.19253178E-02 0.12499439E+03</pdfrwt>
<totfact> 0.72618688E+03</totfact>
</mgrwt>
</event>
<event>
 5    1  0.3227866E-002  0.1250548E+03  0.7818608E-02  0.1234984E+00
         -4   -1    0    0    0  501 -0.00000000000E+00  0.00000000000E+00  0.16165491556E+02  0.16215301947E+02  0.12700000000E+01 0.  1.
          4   -1    0    0  501    0  0.00000000000E+00 -0.00000000000E+00 -0.24142952056E+03  0.24143286085E+03  0.12700000000E+01 0.  1.
         25    2    1    2    0    0  0.00000000000E+00  0.00000000000E+00 -0.22526402900E+03  0.25764816279E+03  0.12505476012E+03 0.  0.
    9000005    1    3    3    0    0 -0.15497379895E+02  0.90655961653E+01  0.10749843980E+02  0.20950249713E+02  0.10000000000E+01 0.  0.
    9000005    1    3    3    0    0  0.15497379895E+02 -0.90655961653E+01 -0.23601387298E+03  0.23669791308E+03  0.10000000000E+01 0.  0.
<mgrwt>
<rscale>  0 0.12505476E+03</rscale>
<asrwt>0</asrwt>
<pdfrwt beam="2">  1        4 0.37147089E-01 0.12505476E+03</pdfrwt>
<pdfrwt beam="1">  1       -4 0.24910874E-02 0.12505476E+03</pdfrwt>
<totfact> 0.81138284E+03</totfact>
</mgrwt>
</event>
<event>
 5    1  0.3227866E-002  0.1250010E+03  0.7818608E-02  0.1235068E+00
         -4   -1    0    0    0  501 -0.00000000000E+00  0.00000000000E+00  0.16310197448E+03  0.16310691885E+03  0.12700000000E+01 0. -1.
          4   -1    0    0  501    0  0.00000000000E+00 -0.00000000000E+00 -0.23927988069E+02  0.23961667576E+02  0.12700000000E+01 0. -1.
         25    2    1    2    0    0  0.00000000000E+00  0.00000000000E+00  0.13917398641E+03  0.18706858643E+03  0.12500103014E+03 0.  0.
    9000005    1    3    3    0    0  0.19857150699E+02 -0.36871437018E+02  0.17117282815E+00  0.41890793759E+02  0.10000000000E+01 0.  0.
    9000005    1    3    3    0    0 -0.19857150699E+02  0.36871437018E+02  0.13900281358E+03  0.14517779267E+03  0.10000000000E+01 0.  0.
<mgrwt>
<rscale>  0 0.12500103E+03</rscale>
<asrwt>0</asrwt>
<pdfrwt beam="2">  1        4 0.36842000E-02 0.12500103E+03</pdfrwt>
<pdfrwt beam="1">  1       -4 0.25095583E-01 0.12500103E+03</pdfrwt>
<totfact> 0.92357755E+03</totfact>
</mgrwt>
</event>
<event>
 5    1  0.3227866E-002  0.1249975E+03  0.7818608E-02  0.1235073E+00
          4   -1    0    0  501    0  0.00000000000E+00  0.00000000000E+00  0.18053897196E+02  0.18098511098E+02  0.12700000000E+01 0. -1.
         -4   -1    0    0    0  501 -0.00000000000E+00 -0.00000000000E+00 -0.21604400594E+03  0.21604773871E+03  0.12700000000E+01 0. -1.
         25    2    1    2    0    0  0.00000000000E+00  0.00000000000E+00 -0.19799010874E+03  0.23414624981E+03  0.12499753253E+03 0.  0.
    9000005    1    3    3    0    0 -0.43728412838E+02  0.40532247548E+02 -0.13404248176E+03  0.14670863675E+03  0.10000000000E+01 0.  0.
    9000005    1    3    3    0    0  0.43728412838E+02 -0.40532247548E+02 -0.63947626984E+02  0.87437613059E+02  0.10000000000E+01 0.  0.
<mgrwt>
<rscale>  0 0.12499753E+03</rscale>
<asrwt>0</asrwt>
<pdfrwt beam="1">  1        4 0.27812418E-02 0.12499753E+03</pdfrwt>
<pdfrwt beam="2">  1       -4 0.33241256E-01 0.12499753E+03</pdfrwt>
<totfact> 0.84681638E+03</totfact>
</mgrwt>
</event>
<event>
 4    1  0.3227866E-002  0.1250822E+03  0.7818608E-02  0.1234941E+00
          4   -1    0    0  501    0  0.00000000000E+00  0.00000000000E+00  0.46255004919E+03  0.46255179267E+03  0.12700000000E+01 0.  1.
         -4   -1    0    0    0  501 -0.00000000000E+00 -0.00000000000E+00 -0.84066921421E+01  0.85020804966E+01  0.12700000000E+01 0.  1.
    9000005    1    1    2    0    0  0.30195767047E+02  0.47762691327E+02  0.32793539793E+03  0.33276971654E+03  0.10000000000E+01 0.  0.
    9000005    1    1    2    0    0 -0.30195767047E+02 -0.47762691327E+02  0.12620795912E+03  0.13828415663E+03  0.10000000000E+01 0.  0.
<mgrwt>
<rscale>  0 0.12508222E+03</rscale>
<asrwt>0</asrwt>
<pdfrwt beam="1">  1        4 0.71169006E-01 0.12508222E+03</pdfrwt>
<pdfrwt beam="2">  1       -4 0.13008092E-02 0.12508222E+03</pdfrwt>
<totfact> 0.58077157E+03</totfact>
</mgrwt>
</event>
<event>
 5    1  0.3227866E-002  0.1250140E+03  0.7818608E-02  0.1235047E+00
          4   -1    0    0  501    0  0.00000000000E+00  0.00000000000E+00  0.11060883146E+03  0.11061612223E+03  0.12700000000E+01 0. -1.
         -4   -1    0    0    0  501 -0.00000000000E+00 -0.00000000000E+00 -0.35303927666E+02  0.35326763348E+02  0.12700000000E+01 0. -1.
         25    2    1    2    0    0  0.00000000000E+00  0.00000000000E+00  0.75304903797E+02  0.14594288558E+03  0.12501398848E+03 0.  0.
    9000005    1    3    3    0    0 -0.25123258027E+02  0.33398518567E+02 -0.16597509419E+02  0.44979066856E+02  0.10000000000E+01 0.  0.
    9000005    1    3    3    0    0  0.25123258027E+02 -0.33398518567E+02  0.91902413216E+02  0.10096381872E+03  0.10000000000E+01 0.  0.
<mgrwt>
<rscale>  0 0.12501399E+03</rscale>
<asrwt>0</asrwt>
<pdfrwt beam="1">  1        4 0.17019061E-01 0.12501399E+03</pdfrwt>
<pdfrwt beam="2">  1       -4 0.54336909E-02 0.12501399E+03</pdfrwt>
<totfact> 0.10008714E+04</totfact>
</mgrwt>
</event>
<event>
 5    1  0.3227866E-002  0.1249966E+03  0.7818608E-02  0.1235075E+00
         -4   -1    0    0    0  501 -0.00000000000E+00  0.00000000000E+00  0.41454141027E+02  0.41473590492E+02  0.12700000000E+01 0.  1.
          4   -1    0    0  501    0  0.00000000000E+00 -0.00000000000E+00 -0.94179670003E+02  0.94188232502E+02  0.12700000000E+01 0.  1.
         25    2    1    2    0    0  0.00000000000E+00  0.00000000000E+00 -0.52725528976E+02  0.13566182299E+03  0.12499659520E+03 0.  0.
    9000005    1    3    3    0    0  0.31596693946E+02 -0.37504401913E+02 -0.68398672727E+02  0.84168341210E+02  0.10000000000E+01 0.  0.
    9000005    1    3    3    0    0 -0.31596693946E+02  0.37504401913E+02  0.15673143751E+02  0.51493481784E+02  0.10000000000E+01 0.  0.
<mgrwt>
<rscale>  0 0.12499660E+03</rscale>
<asrwt>0</asrwt>
<pdfrwt beam="2">  1        4 0.14491335E-01 0.12499660E+03</pdfrwt>
<pdfrwt beam="1">  1       -4 0.63797150E-02 0.12499660E+03</pdfrwt>
<totfact> 0.10224925E+04</totfact>
</mgrwt>
</event>
<event>
 5    1  0.3227866E-002  0.1249514E+03  0.7818608E-02  0.1235145E+00
         -4   -1    0    0    0  501 -0.00000000000E+00  0.00000000000E+00  0.23626176829E+03  0.23626518164E+03  0.12700000000E+01 0. -1.
          4   -1    0    0  501    0  0.00000000000E+00 -0.00000000000E+00 -0.16492771646E+02  0.16541596554E+02  0.12700000000E+01 0. -1.
         25    2    1    2    0    0  0.00000000000E+00  0.00000000000E+00  0.21976899664E+03  0.25280677819E+03  0.12495141142E+03 0.  0.
    9000005    1    3    3    0    0 -0.29972828013E+02 -0.28797151293E+02  0.15536217612E+02  0.44384911844E+02  0.10000000000E+01 0.  0.
    9000005    1    3    3    0    0  0.29972828013E+02  0.28797151293E+02  0.20423277903E+03  0.20842186635E+03  0.10000000000E+01 0.  0.
<mgrwt>
<rscale>  0 0.12495141E+03</rscale>
<asrwt>0</asrwt>
<pdfrwt beam="2">  1        4 0.25413679E-02 0.12495141E+03</pdfrwt>
<pdfrwt beam="1">  1       -4 0.36351981E-01 0.12495141E+03</pdfrwt>
<totfact> 0.82014966E+03</totfact>
</mgrwt>
</event>
<event>
 5    1  0.3227866E-002  0.1249499E+03  0.7818608E-02  0.1235148E+00
          4   -1    0    0  501    0  0.00000000000E+00  0.00000000000E+00  0.31370707320E+03  0.31370964390E+03  0.12700000000E+01 0. -1.
         -4   -1    0    0    0  501 -0.00000000000E+00 -0.00000000000E+00 -0.12406886218E+02  0.12471717028E+02  0.12700000000E+01 0. -1.
         25    2    1    2    0    0  0.00000000000E+00  0.00000000000E+00  0.30130018698E+03  0.32618136092E+03  0.12494990012E+03 0.  0.
    9000005    1    3    3    0    0  0.22037303924E+02  0.56205511441E+02  0.10876669367E+03  0.12440215405E+03  0.10000000000E+01 0.  0.
    9000005    1    3    3    0    0 -0.22037303924E+02 -0.56205511441E+02  0.19253349331E+03  0.20177920688E+03  0.10000000000E+01 0.  0.
<mgrwt>
<rscale>  0 0.12494990E+03</rscale>
<asrwt>0</asrwt>
<pdfrwt beam="1">  1        4 0.48267812E-01 0.12494990E+03</pdfrwt>
<pdfrwt beam="2">  1       -4 0.19139364E-02 0.12494990E+03</pdfrwt>
<totfact> 0.72507380E+03</totfact>
</mgrwt>
</event>
<event>
 5    1  0.3227866E-002  0.1250060E+03  0.7818608E-02  0.1235060E+00
         -4   -1    0    0    0  501 -0.00000000000E+00  0.00000000000E+00  0.13255493587E+03  0.13256101963E+03  0.12700000000E+01 0.  1.
          4   -1    0    0  501    0  0.00000000000E+00 -0.00000000000E+00 -0.29451296801E+02  0.29478666579E+02  0.12700000000E+01 0.  1.
         25    2    1    2    0    0  0.00000000000E+00  0.00000000000E+00  0.10310363907E+03  0.16203968621E+03  0.12500599792E+03 0.  0.
    9000005    1    3    3    0    0  0.21506793405E+02 -0.57438520527E+02  0.67101431102E+02  0.90913848554E+02  0.10000000000E+01 0.  0.
    9000005    1    3    3    0    0 -0.21506793405E+02  0.57438520527E+02  0.36002207971E+02  0.71125837652E+02  0.10000000000E+01 0.  0.
<mgrwt>
<rscale>  0 0.12500600E+03</rscale>
<asrwt>0</asrwt>
<pdfrwt beam="2">  1        4 0.45335421E-02 0.12500600E+03</pdfrwt>
<pdfrwt beam="1">  1       -4 0.20395640E-01 0.12500600E+03</pdfrwt>
<totfact> 0.96937918E+03</totfact>
</mgrwt>
</event>
<event>
 5    1  0.3227866E-002  0.1250032E+03  0.7818608E-02  0.1235064E+00
         -4   -1    0    0    0  501 -0.00000000000E+00  0.00000000000E+00  0.13830892464E+02  0.13889077951E+02  0.12700000000E+01 0. -1.
          4   -1    0    0  501    0  0.00000000000E+00 -0.00000000000E+00 -0.28179111754E+03  0.28179397940E+03  0.12700000000E+01 0. -1.
         25    2    1    2    0    0  0.00000000000E+00  0.00000000000E+00 -0.26796022508E+03  0.29568305735E+03  0.12500315268E+03 0.  0.
    9000005    1    3    3    0    0 -0.36990622891E+02  0.49538568459E+02 -0.11242102134E+03  0.12830378788E+03  0.10000000000E+01 0.  0.
    9000005    1    3    3    0    0  0.36990622891E+02 -0.49538568459E+02 -0.15553920374E+03  0.16737926947E+03  0.10000000000E+01 0.  0.
<mgrwt>
<rscale>  0 0.12500315E+03</rscale>
<asrwt>0</asrwt>
<pdfrwt beam="2">  1        4 0.43357171E-01 0.12500315E+03</pdfrwt>
<pdfrwt beam="1">  1       -4 0.21325258E-02 0.12500315E+03</pdfrwt>
<totfact> 0.76138230E+03</totfact>
</mgrwt>
</event>
<event>
 4    1  0.3227866E-002  0.1249382E+03  0.7818608E-02  0.1235166E+00
          4   -1    0    0  501    0  0.00000000000E+00  0.00000000000E+00  0.73975822539E+03  0.73975931554E+03  0.12700000000E+01 0.  1.
         -4   -1    0    0    0  501 -0.00000000000E+00 -0.00000000000E+00 -0.51976711064E+01  0.53505779996E+01  0.12700000000E+01 0.  1.
    9000005    1    1    2    0    0  0.13985857448E+02 -0.11175822259E+02  0.72415868820E+03  0.72438063813E+03  0.10000000000E+01 0.  0.
    9000005    1    1    2    0    0 -0.13985857448E+02  0.11175822259E+02  0.10401866087E+02  0.20729255409E+02  0.10000000000E+01 0.  0.
<mgrwt>
<rscale>  0 0.12493817E+03</rscale>
<asrwt>0</asrwt>
<pdfrwt beam="1">  1        4 0.11382071E+00 0.12493817E+03</pdfrwt>
<pdfrwt beam="2">  1       -4 0.81148830E-03 0.12493817E+03</pdfrwt>
<totfact> 0.40864377E+03</totfact>
</mgrwt>
</event>
<event>
 5    1  0.3227866E-002  0.1250001E+03  0.7818608E-02  0.1235069E+00
         -4   -1    0    0    0  501 -0.00000000000E+00  0.00000000000E+00  0.77797724203E+03  0.77797827863E+03  0.12700000000E+01 0. -1.
          4   -1    0    0  501    0  0.00000000000E+00 -0.00000000000E+00 -0.49396754159E+01  0.51003228539E+01  0.12700000000E+01 0. -1.
         25    2    1    2    0    0  0.00000000000E+00  0.00000000000E+00  0.77303756661E+03  0.78307860148E+03  0.12500006681E+03 0.  0.
    9000005    1    3    3    0    0  0.57025857291E+02  0.21136165763E+02  0.47655700735E+03  0.48042300857E+03  0.10000000000E+01 0.  0.
    9000005    1    3    3    0    0 -0.57025857291E+02 -0.21136165763E+02  0.29648055926E+03  0.30265559291E+03  0.10000000000E+01 0.  0.
<mgrwt>
<rscale>  0 0.12500007E+03</rscale>
<asrwt>0</asrwt>
<pdfrwt beam="2">  1        4 0.77238784E-03 0.12500007E+03</pdfrwt>
<pdfrwt beam="1">  1       -4 0.11970116E+00 0.12500007E+03</pdfrwt>
<totfact> 0.39031363E+03</totfact>
</mgrwt>
</event>
<event>
 5    1  0.3227866E-002  0.1250084E+03  0.7818608E-02  0.1235056E+00
          4   -1    0    0  501    0  0.00000000000E+00  0.00000000000E+00  0.32064037531E+01  0.34487570265E+01  0.12700000000E+01 0. -1.
         -4   -1    0    0    0  501 -0.00000000000E+00 -0.00000000000E+00 -0.11738168555E+04  0.11738175425E+04  0.12700000000E+01 0. -1.
         25    2    1    2    0    0  0.00000000000E+00  0.00000000000E+00 -0.11706104517E+04  0.11772662996E+04  0.12500844106E+03 0.  0.
    9000005    1    3    3    0    0 -0.17045814246E+02  0.42158304573E+00 -0.19076457911E+02  0.25605639262E+02  0.10000000000E+01 0.  0.
    9000005    1    3    3    0    0  0.17045814246E+02 -0.42158304573E+00 -0.11515339938E+04  0.11516606603E+04  0.10000000000E+01 0.  0.
<mgrwt>
<rscale>  0 0.12500844E+03</rscale>
<asrwt>0</asrwt>
<pdfrwt beam="1">  1        4 0.51198923E-03 0.12500844E+03</pdfrwt>
<pdfrwt beam="2">  1       -4 0.18060557E+00 0.12500844E+03</pdfrwt>
<totfact> 0.25311074E+03</totfact>
</mgrwt>
</event>
<event>
 5    1  0.3227866E-002  0.1249982E+03  0.7818608E-02  0.1235072E+00
          4   -1    0    0  501    0  0.00000000000E+00  0.00000000000E+00  0.12749955622E+03  0.12750588118E+03  0.12700000000E+01 0. -1.
         -4   -1    0    0    0  501 -0.00000000000E+00 -0.00000000000E+00 -0.30616228481E+02  0.30642557765E+02  0.12700000000E+01 0. -1.
         25    2    1    2    0    0  0.00000000000E+00  0.00000000000E+00  0.96883327740E+02  0.15814843895E+03  0.12499819818E+03 0.  0.
    9000005    1    3    3    0    0 -0.36502577656E+02  0.34255122562E+02  0.95769251526E+02  0.10806757671E+03  0.10000000000E+01 0.  0.
    9000005    1    3    3    0    0  0.36502577656E+02 -0.34255122562E+02  0.11140762142E+01  0.50080862244E+02  0.10000000000E+01 0.  0.
<mgrwt>
<rscale>  0 0.12499820E+03</rscale>
<asrwt>0</asrwt>
<pdfrwt beam="1">  1        4 0.19617829E-01 0.12499820E+03</pdfrwt>
<pdfrwt beam="2">  1       -4 0.47127008E-02 0.12499820E+03</pdfrwt>
<totfact> 0.97704901E+03</totfact>
</mgrwt>
</event>
<event>
 5    1  0.3227866E-002  0.1250070E+03  0.7818608E-02  0.1235058E+00
          4   -1    0    0  501    0  0.00000000000E+00  0.00000000000E+00  0.26158294936E+03  0.26158603230E+03  0.12700000000E+01 0.  1.
         -4   -1    0    0    0  501 -0.00000000000E+00 -0.00000000000E+00 -0.14904627183E+02  0.14958636685E+02  0.12700000000E+01 0.  1.
         25    2    1    2    0    0  0.00000000000E+00  0.00000000000E+00  0.24667832218E+03  0.27654466899E+03  0.12500703706E+03 0.  0.
    9000005    1    3    3    0    0 -0.39250497491E+02  0.12558136494E+02  0.22727600541E+03  0.23098417907E+03  0.10000000000E+01 0.  0.
    9000005    1    3    3    0    0  0.39250497491E+02 -0.12558136494E+02  0.19402316764E+02  0.45560489915E+02  0.10000000000E+01 0.  0.
<mgrwt>
<rscale>  0 0.12500704E+03</rscale>
<asrwt>0</asrwt>
<pdfrwt beam="1">  1        4 0.40247920E-01 0.12500704E+03</pdfrwt>
<pdfrwt beam="2">  1       -4 0.22974114E-02 0.12500704E+03</pdfrwt>
<totfact> 0.78626197E+03</totfact>
</mgrwt>
</event>
<event>
 5    1  0.3227866E-002  0.1250008E+03  0.7818608E-02  0.1235068E+00
          4   -1    0    0  501    0  0.00000000000E+00  0.00000000000E+00  0.34915699379E+03  0.34915930349E+03  0.12700000000E+01 0.  1.
         -4   -1    0    0    0  501 -0.00000000000E+00 -0.00000000000E+00 -0.11149403521E+02  0.11221501632E+02  0.12700000000E+01 0.  1.
         25    2    1    2    0    0  0.00000000000E+00  0.00000000000E+00  0.33800759027E+03  0.36038080512E+03  0.12500077448E+03 0.  0.
    9000005    1    3    3    0    0 -0.47115539415E+01 -0.22262928064E+02  0.33680154939E+03  0.33757091163E+03  0.10000000000E+01 0.  0.
    9000005    1    3    3    0    0  0.47115539415E+01  0.22262928064E+02  0.12060408801E+01  0.22809893492E+02  0.10000000000E+01 0.  0.
<mgrwt>
<rscale>  0 0.12500077E+03</rscale>
<asrwt>0</asrwt>
<pdfrwt beam="1">  1        4 0.53722176E-01 0.12500077E+03</pdfrwt>
<pdfrwt beam="2">  1       -4 0.17210168E-02 0.12500077E+03</pdfrwt>
<totfact> 0.68596267E+03</totfact>
</mgrwt>
</event>
<event>
 5    1  0.3227866E-002  0.1249989E+03  0.7818608E-02  0.1235071E+00
         -4   -1    0    0    0  501 -0.00000000000E+00  0.00000000000E+00  0.65097618111E+03  0.65097741994E+03  0.12700000000E+01 0.  1.
          4   -1    0    0  501    0  0.00000000000E+00 -0.00000000000E+00 -0.59320424232E+01  0.60664674490E+01  0.12700000000E+01 0.  1.
         25    2    1    2    0    0  0.00000000000E+00  0.00000000000E+00  0.64504413869E+03  0.65704388739E+03  0.12499891640E+03 0.  0.
    9000005    1    3    3    0    0  0.44850901962E+02  0.39518235498E+02  0.22676213017E+03  0.23451089106E+03  0.10000000000E+01 0.  0.
    9000005    1    3    3    0    0 -0.44850901962E+02 -0.39518235498E+02  0.41828200851E+03  0.42253299633E+03  0.10000000000E+01 0.  0.
<mgrwt>
<rscale>  0 0.12499892E+03</rscale>
<asrwt>0</asrwt>
<pdfrwt beam="2">  1        4 0.92305796E-03 0.12499892E+03</pdfrwt>
<pdfrwt beam="1">  1       -4 0.10016058E+00 0.12499892E+03</pdfrwt>
<totfact> 0.45454199E+03</totfact>
</mgrwt>
</event>
<event>
 5    1  0.3227866E-002  0.1250025E+03  0.7818608E-02  0.1235065E+00
          4   -1    0    0  501    0  0.00000000000E+00  0.00000000000E+00  0.34653265708E+02  0.34676529876E+02  0.12700000000E+01 0.  1.
         -4   -1    0    0    0  501 -0.00000000000E+00 -0.00000000000E+00 -0.11266378960E+03  0.11267094740E+03  0.12700000000E+01 0.  1.
         25    2    1    2    0    0  0.00000000000E+00  0.00000000000E+00 -0.78010523897E+02  0.14734747728E+03  0.12500254886E+03 0.  0.
    9000005    1    3    3    0    0 -0.48278019886E+02 -0.19956296236E+02 -0.79434838447E+02  0.95078465084E+02  0.10000000000E+01 0.  0.
    9000005    1    3    3    0    0  0.48278019886E+02  0.19956296236E+02  0.14243145508E+01  0.52269012192E+02  0.10000000000E+01 0.  0.
<mgrwt>
<rscale>  0 0.12500255E+03</rscale>
<asrwt>0</asrwt>
<pdfrwt beam="1">  1        4 0.53336118E-02 0.12500255E+03</pdfrwt>
<pdfrwt beam="2">  1       -4 0.17335231E-01 0.12500255E+03</pdfrwt>
<totfact> 0.99829362E+03</totfact>
</mgrwt>
</event>
<event>
 5    1  0.3227866E-002  0.1250016E+03  0.7818608E-02  0.1235067E+00
          4   -1    0    0  501    0  0.00000000000E+00  0.00000000000E+00  0.10233375678E+03  0.10234163706E+03  0.12700000000E+01 0. -1.
         -4   -1    0    0    0  501 -0.00000000000E+00 -0.00000000000E+00 -0.38152755545E+02  0.38173887092E+02  0.12700000000E+01 0. -1.
         25    2    1    2    0    0  0.00000000000E+00  0.00000000000E+00  0.64181001232E+02  0.14051552415E+03  0.12500164642E+03 0.  0.
    9000005    1    3    3    0    0 -0.58061132227E+02 -0.22468639222E+02  0.38187493996E+02  0.73042587041E+02  0.10000000000E+01 0.  0.
    9000005    1    3    3    0    0  0.58061132227E+02  0.22468639222E+02  0.25993507235E+02  0.67472937111E+02  0.10000000000E+01 0.  0.
<mgrwt>
<rscale>  0 0.12500165E+03</rscale>
<asrwt>0</asrwt>
<pdfrwt beam="1">  1        4 0.15745886E-01 0.12500165E+03</pdfrwt>
<pdfrwt beam="2">  1       -4 0.58718865E-02 0.12500165E+03</pdfrwt>
<totfact> 0.10122537E+04</totfact>
</mgrwt>
</event>
<event>
 5    1  0.3227866E-002  0.1249984E+03  0.7818608E-02  0.1235072E+00
          4   -1    0    0  501    0  0.00000000000E+00  0.00000000000E+00  0.56481359267E+02  0.56495635625E+02  0.12700000000E+01 0. -1.
         -4   -1    0    0    0  501 -0.00000000000E+00 -0.00000000000E+00 -0.69129347363E+02  0.69141012192E+02  0.12700000000E+01 0. -1.
         25    2    1    2    0    0  0.00000000000E+00  0.00000000000E+00 -0.12647988096E+02  0.12563664782E+03  0.12499838268E+03 0.  0.
    9000005    1    3    3    0    0  0.47977706477E+02  0.39675546000E+02 -0.89831496772E+00  0.62272114457E+02  0.10000000000E+01 0.  0.
    9000005    1    3    3    0    0 -0.47977706477E+02 -0.39675546000E+02 -0.11749673129E+02  0.63364533359E+02  0.10000000000E+01 0.  0.
<mgrwt>
<rscale>  0 0.12499838E+03</rscale>
<asrwt>0</asrwt>
<pdfrwt beam="1">  1        4 0.86914354E-02 0.12499838E+03</pdfrwt>
<pdfrwt beam="2">  1       -4 0.10637280E-01 0.12499838E+03</pdfrwt>
<totfact> 0.10439320E+04</totfact>
</mgrwt>
</event>
<event>
 5    1  0.3227866E-002  0.1250066E+03  0.7818608E-02  0.1235059E+00
         -4   -1    0    0    0  501 -0.00000000000E+00  0.00000000000E+00  0.34132914908E+01  0.36419031839E+01  0.12700000000E+01 0.  1.
          4   -1    0    0  501    0  0.00000000000E+00 -0.00000000000E+00 -0.11072279622E+04  0.11072286905E+04  0.12700000000E+01 0.  1.
         25    2    1    2    0    0  0.00000000000E+00  0.00000000000E+00 -0.11038146707E+04  0.11108705937E+04  0.12500659483E+03 0.  0.
    9000005    1    3    3    0    0 -0.28695117580E+02  0.34969624404E+01 -0.10442884727E+04  0.10446889742E+04  0.10000000000E+01 0.  0.
    9000005    1    3    3    0    0  0.28695117580E+02 -0.34969624404E+01 -0.59526197959E+02  0.66181619523E+02  0.10000000000E+01 0.  0.
<mgrwt>
<rscale>  0 0.12500659E+03</rscale>
<asrwt>0</asrwt>
<pdfrwt beam="2">  1        4 0.17036013E+00 0.12500659E+03</pdfrwt>
<pdfrwt beam="1">  1       -4 0.54276419E-03 0.12500659E+03</pdfrwt>
<totfact> 0.27163547E+03</totfact>
</mgrwt>
</event>
<event>
 5    1  0.3227866E-002  0.1250058E+03  0.7818608E-02  0.1235060E+00
         -4   -1    0    0    0  501 -0.00000000000E+00  0.00000000000E+00  0.27638280407E+03  0.27638572193E+03  0.12700000000E+01 0. -1.
          4   -1    0    0  501    0  0.00000000000E+00 -0.00000000000E+00 -0.14103264441E+02  0.14160330783E+02  0.12700000000E+01 0. -1.
         25    2    1    2    0    0  0.00000000000E+00  0.00000000000E+00  0.26227953963E+03  0.29054605271E+03  0.12500580722E+03 0.  0.
    9000005    1    3    3    0    0 -0.53811813863E+01 -0.15399379966E+02 -0.90791264186E+01  0.18695682736E+02  0.10000000000E+01 0.  0.
    9000005    1    3    3    0    0  0.53811813863E+01  0.15399379966E+02  0.27135866605E+03  0.27185036997E+03  0.10000000000E+01 0.  0.
<mgrwt>
<rscale>  0 0.12500581E+03</rscale>
<asrwt>0</asrwt>
<pdfrwt beam="2">  1        4 0.21743473E-02 0.12500581E+03</pdfrwt>
<pdfrwt beam="1">  1       -4 0.42525042E-01 0.12500581E+03</pdfrwt>
<totfact> 0.76790331E+03</totfact>
</mgrwt>
</event>
<event>
 5    1  0.3227866E-002  0.1249881E+03  0.7818608E-02  0.1235088E+00
         -4   -1    0    0    0  501 -0.00000000000E+00  0.00000000000E+00  0.11708947152E+02  0.11777620448E+02  0.12700000000E+01 0. -1.
          4   -1    0    0  501    0  0.00000000000E+00 -0.00000000000E+00 -0.33250398397E+03  0.33250640935E+03  0.12700000000E+01 0. -1.
         25    2    1    2    0    0  0.00000000000E+00  0.00000000000E+00 -0.32079503682E+03  0.34428402979E+03  0.12498814953E+03 0.  0.
    9000005    1    3    3    0    0 -0.54471543760E+02  0.26392055875E+02 -0.20314337596E+03  0.21197150962E+03  0.10000000000E+01 0.  0.
    9000005    1    3    3    0    0  0.54471543760E+02 -0.26392055875E+02 -0.11765166085E+03  0.13231252017E+03  0.10000000000E+01 0.  0.
<mgrwt>
<rscale>  0 0.12498815E+03</rscale>
<asrwt>0</asrwt>
<pdfrwt beam="2">  1        4 0.51159921E-01 0.12498815E+03</pdfrwt>
<pdfrwt beam="1">  1       -4 0.18068459E-02 0.12498815E+03</pdfrwt>
<totfact> 0.70376457E+03</totfact>
</mgrwt>
</event>
<event>
 5    1  0.3227866E-002  0.1249967E+03  0.7818608E-02  0.1235074E+00
         -4   -1    0    0    0  501 -0.00000000000E+00  0.00000000000E+00  0.89221409071E+02  0.89230447363E+02  0.12700000000E+01 0. -1.
          4   -1    0    0  501    0  0.00000000000E+00 -0.00000000000E+00 -0.43758772686E+02  0.43777198254E+02  0.12700000000E+01 0. -1.
         25    2    1    2    0    0  0.00000000000E+00  0.00000000000E+00  0.45462636386E+02  0.13300764562E+03  0.12499672990E+03 0.  0.
    9000005    1    3    3    0    0  0.42696323478E+02  0.49772219136E+01  0.70995665190E+02  0.83000802721E+02  0.10000000000E+01 0.  0.
    9000005    1    3    3    0    0 -0.42696323478E+02 -0.49772219136E+01 -0.25533028804E+02  0.50006842896E+02  0.10000000000E+01 0.  0.
<mgrwt>
<rscale>  0 0.12499673E+03</rscale>
<asrwt>0</asrwt>
<pdfrwt beam="2">  1        4 0.67342316E-02 0.12499673E+03</pdfrwt>
<pdfrwt beam="1">  1       -4 0.13728483E-01 0.12499673E+03</pdfrwt>
<totfact> 0.10280996E+04</totfact>
</mgrwt>
</event>
<event>
 5    1  0.3227866E-002  0.1249866E+03  0.7818608E-02  0.1235090E+00
         -4   -1    0    0    0  501 -0.00000000000E+00  0.00000000000E+00  0.88900898620E+03  0.88900989334E+03  0.12700000000E+01 0. -1.
          4   -1    0    0  501    0  0.00000000000E+00 -0.00000000000E+00 -0.43002810926E+01  0.44838953462E+01  0.12700000000E+01 0. -1.
         25    2    1    2    0    0  0.00000000000E+00  0.00000000000E+00  0.88470870511E+03  0.89349378868E+03  0.12498662935E+03 0.  0.
    9000005    1    3    3    0    0  0.11908462762E+02 -0.35268957732E+02  0.83584034438E+02  0.91504107436E+02  0.10000000000E+01 0.  0.
    9000005    1    3    3    0    0 -0.11908462762E+02  0.35268957732E+02  0.80112467067E+03  0.80198968125E+03  0.10000000000E+01 0.  0.
<mgrwt>
<rscale>  0 0.12498663E+03</rscale>
<asrwt>0</asrwt>
<pdfrwt beam="2">  1        4 0.67577523E-03 0.12498663E+03</pdfrwt>
<pdfrwt beam="1">  1       -4 0.13678489E+00 0.12498663E+03</pdfrwt>
<totfact> 0.34420296E+03</totfact>
</mgrwt>
</event>
<event>
 5    1  0.3227866E-002  0.1250052E+03  0.7818608E-02  0.1235061E+00
          4   -1    0    0  501    0  0.00000000000E+00  0.00000000000E+00  0.44708996968E+02  0.44727031088E+02  0.12700000000E+01 0. -1.
         -4   -1    0    0    0  501 -0.00000000000E+00 -0.00000000000E+00 -0.87337573152E+02  0.87346806376E+02  0.12700000000E+01 0. -1.
         25    2    1    2    0    0  0.00000000000E+00  0.00000000000E+00 -0.42628576184E+02  0.13207383746E+03  0.12500521203E+03 0.  0.
    9000005    1    3    3    0    0 -0.55382008217E+02  0.18551746055E+02 -0.44802953573E+02  0.73618195881E+02  0.10000000000E+01 0.  0.
    9000005    1    3    3    0    0  0.55382008217E+02 -0.18551746055E+02  0.21743773888E+01  0.58455641583E+02  0.10000000000E+01 0.  0.
<mgrwt>
<rscale>  0 0.12500521E+03</rscale>
<asrwt>0</asrwt>
<pdfrwt beam="1">  1        4 0.68804047E-02 0.12500521E+03</pdfrwt>
<pdfrwt beam="2">  1       -4 0.13438647E-01 0.12500521E+03</pdfrwt>
<totfact> 0.10298912E+04</totfact>
</mgrwt>
</event>
<event>
 5    1  0.3227866E-002  0.1249999E+03  0.7818608E-02  0.1235069E+00
         -4   -1    0    0    0  501 -0.00000000000E+00  0.00000000000E+00  0.25233245264E+02  0.25265184871E+02  0.12700000000E+01 0.  1.
          4   -1    0    0  501    0  0.00000000000E+00 -0.00000000000E+00 -0.15467289770E+03  0.15467811152E+03  0.12700000000E+01 0.  1.
         25    2    1    2    0    0  0.00000000000E+00  0.00000000000E+00 -0.12943965244E+03  0.17994329639E+03  0.12499986517E+03 0.  0.
    9000005    1    3    3    0    0  0.24370183767E+02 -0.46853271216E+02 -0.16627145713E+02  0.55376862091E+02  0.10000000000E+01 0.  0.
    9000005    1    3    3    0    0 -0.24370183767E+02  0.46853271216E+02 -0.11281250672E+03  0.12456643430E+03  0.10000000000E+01 0.  0.
<mgrwt>
<rscale>  0 0.12499987E+03</rscale>
<asrwt>0</asrwt>
<pdfrwt beam="2">  1        4 0.23798688E-01 0.12499987E+03</pdfrwt>
<pdfrwt beam="1">  1       -4 0.38848958E-02 0.12499987E+03</pdfrwt>
<totfact> 0.93627494E+03</totfact>
</mgrwt>
</event>
<event>
 5    1  0.3227866E-002  0.1249985E+03  0.7818608E-02  0.1235072E+00
          4   -1    0    0  501    0  0.00000000000E+00  0.00000000000E+00  0.11419647037E+03  0.11420353210E+03  0.12700000000E+01 0. -1.
         -4   -1    0    0    0  501 -0.00000000000E+00 -0.00000000000E+00 -0.34185672599E+02  0.34209254757E+02  0.12700000000E+01 0. -1.
         25    2    1    2    0    0  0.00000000000E+00  0.00000000000E+00  0.80010797769E+02  0.14841278686E+03  0.12499851017E+03 0.  0.
    9000005    1    3    3    0    0  0.25066238445E+02 -0.56978335311E+02  0.33468698166E+02  0.70682393575E+02  0.10000000000E+01 0.  0.
    9000005    1    3    3    0    0 -0.25066238445E+02  0.56978335311E+02  0.46542099603E+02  0.77730393284E+02  0.10000000000E+01 0.  0.
<mgrwt>
<rscale>  0 0.12499851E+03</rscale>
<asrwt>0</asrwt>
<pdfrwt beam="1">  1        4 0.17571045E-01 0.12499851E+03</pdfrwt>
<pdfrwt beam="2">  1       -4 0.52616915E-02 0.12499851E+03</pdfrwt>
<totfact> 0.99624371E+03</totfact>
</mgrwt>
</event>
<event>
 5    1  0.3227866E-002  0.1249992E+03  0.7818608E-02  0.1235071E+00
         -4   -1    0    0    0  501 -0.00000000000E+00  0.00000000000E+00  0.25763982792E+03  0.25764295805E+03  0.12700000000E+01 0.  1.
          4   -1    0    0  501    0  0.00000000000E+00 -0.00000000000E+00 -0.15131645386E+02  0.15184847451E+02  0.12700000000E+01 0.  1.
         25    2    1    2    0    0  0.00000000000E+00  0.00000000000E+00  0.24250818254E+03  0.27282780550E+03  0.12499917142E+03 0.  0.
    9000005    1    3    3    0    0  0.47048063651E+02 -0.40316253642E+02  0.13902317056E+03  0.15220828674E+03  0.10000000000E+01 0.  0.
    9000005    1    3    3    0    0 -0.47048063651E+02  0.40316253642E+02  0.10348501198E+03  0.12061951875E+03  0.10000000000E+01 0.  0.
<mgrwt>
<rscale>  0 0.12499917E+03</rscale>
<asrwt>0</asrwt>
<pdfrwt beam="2">  1        4 0.23322788E-02 0.12499917E+03</pdfrwt>
<pdfrwt beam="1">  1       -4 0.39641229E-01 0.12499917E+03</pdfrwt>
<totfact> 0.79140257E+03</totfact>
</mgrwt>
</event>
<event>
 5    1  0.3227866E-002  0.1250016E+03  0.7818608E-02  0.1235067E+00
          4   -1    0    0  501    0  0.00000000000E+00  0.00000000000E+00  0.28029368338E+03  0.28029656052E+03  0.12700000000E+01 0. -1.
         -4   -1    0    0    0  501 -0.00000000000E+00 -0.00000000000E+00 -0.13904738993E+02  0.13962616748E+02  0.12700000000E+01 0. -1.
         25    2    1    2    0    0  0.00000000000E+00  0.00000000000E+00  0.26638894439E+03  0.29425917727E+03  0.12500157486E+03 0.  0.
    9000005    1    3    3    0    0  0.50722023313E+02 -0.36256642804E+02  0.12318476553E+03  0.13806793348E+03  0.10000000000E+01 0.  0.
    9000005    1    3    3    0    0 -0.50722023313E+02  0.36256642804E+02  0.14320417885E+03  0.15619124379E+03  0.10000000000E+01 0.  0.
<mgrwt>
<rscale>  0 0.12500157E+03</rscale>
<asrwt>0</asrwt>
<pdfrwt beam="1">  1        4 0.43126781E-01 0.12500157E+03</pdfrwt>
<pdfrwt beam="2">  1       -4 0.21438640E-02 0.12500157E+03</pdfrwt>
<totfact> 0.76321974E+03</totfact>
</mgrwt>
</event>
<event>
 5    1  0.3227866E-002  0.1250010E+03  0.7818608E-02  0.1235068E+00
          4   -1    0    0  501    0  0.00000000000E+00  0.00000000000E+00  0.23329946862E+02  0.23364488451E+02  0.12700000000E+01 0. -1.
         -4   -1    0    0    0  501 -0.00000000000E+00 -0.00000000000E+00 -0.16727697366E+03  0.16728179463E+03  0.12700000000E+01 0. -1.
         25    2    1    2    0    0  0.00000000000E+00  0.00000000000E+00 -0.14394702680E+03  0.19064628309E+03  0.12500103492E+03 0.  0.
    9000005    1    3    3    0    0 -0.36780461632E+02 -0.43794086524E+02 -0.11039387536E+03  0.12433234531E+03  0.10000000000E+01 0.  0.
    9000005    1    3    3    0    0  0.36780461632E+02  0.43794086524E+02 -0.33553151432E+02  0.66313937776E+02  0.10000000000E+01 0.  0.
<mgrwt>
<rscale>  0 0.12500103E+03</rscale>
<asrwt>0</asrwt>
<pdfrwt beam="1">  1        4 0.35922506E-02 0.12500103E+03</pdfrwt>
<pdfrwt beam="2">  1       -4 0.25737946E-01 0.12500103E+03</pdfrwt>
<totfact> 0.91732859E+03</totfact>
</mgrwt>
</event>
<event>
 5    1  0.3227866E-002  0.1250008E+03  0.7818608E-02  0.1235068E+00
          4   -1    0    0  501    0  0.00000000000E+00  0.00000000000E+00  0.18263002245E+02  0.18307106571E+02  0.12700000000E+01 0.  1.
         -4   -1    0    0    0  501 -0.00000000000E+00 -0.00000000000E+00 -0.21358736618E+03  0.21359114189E+03  0.12700000000E+01 0.  1.
         25    2    1    2    0    0  0.00000000000E+00  0.00000000000E+00 -0.19532436394E+03  0.23189824846E+03  0.12500076196E+03 0.  0.
    9000005    1    3    3    0    0  0.58041135240E+02  0.17110216591E+02 -0.12662696255E+03  0.14034571792E+03  0.10000000000E+01 0.  0.
    9000005    1    3    3    0    0 -0.58041135240E+02 -0.17110216591E+02 -0.68697401385E+02  0.91552530543E+02  0.10000000000E+01 0.  0.
<mgrwt>
<rscale>  0 0.12500076E+03</rscale>
<asrwt>0</asrwt>
<pdfrwt beam="1">  1        4 0.28133759E-02 0.12500076E+03</pdfrwt>
<pdfrwt beam="2">  1       -4 0.32863276E-01 0.12500076E+03</pdfrwt>
<totfact> 0.85017525E+03</totfact>
</mgrwt>
</event>
<event>
 5    1  0.3227866E-002  0.1249994E+03  0.7818608E-02  0.1235070E+00
         -4   -1    0    0    0  501 -0.00000000000E+00  0.00000000000E+00  0.20566445636E+02  0.20605620255E+02  0.12700000000E+01 0.  1.
          4   -1    0    0  501    0  0.00000000000E+00 -0.00000000000E+00 -0.18970922786E+03  0.18971347879E+03  0.12700000000E+01 0.  1.
         25    2    1    2    0    0  0.00000000000E+00  0.00000000000E+00 -0.16914278222E+03  0.21031909904E+03  0.12499937058E+03 0.  0.
    9000005    1    3    3    0    0  0.35715689159E+02 -0.45141228100E+02 -0.12550536922E+03  0.13807946491E+03  0.10000000000E+01 0.  0.
    9000005    1    3    3    0    0 -0.35715689159E+02  0.45141228100E+02 -0.43637413004E+02  0.72239634137E+02  0.10000000000E+01 0.  0.
<mgrwt>
<rscale>  0 0.12499937E+03</rscale>
<asrwt>0</asrwt>
<pdfrwt beam="2">  1        4 0.29189374E-01 0.12499937E+03</pdfrwt>
<pdfrwt beam="1">  1       -4 0.31674091E-02 0.12499937E+03</pdfrwt>
<totfact> 0.88425039E+03</totfact>
</mgrwt>
</event>
<event>
 5    1  0.3227866E-002  0.1249972E+03  0.7818608E-02  0.1235074E+00
          4   -1    0    0  501    0  0.00000000000E+00  0.00000000000E+00  0.29575600103E+02  0.29602854954E+02  0.12700000000E+01 0.  1.
         -4   -1    0    0    0  501 -0.00000000000E+00 -0.00000000000E+00 -0.13197973319E+03  0.13198584346E+03  0.12700000000E+01 0.  1.
         25    2    1    2    0    0  0.00000000000E+00  0.00000000000E+00 -0.10240413309E+03  0.16158869841E+03  0.12499720389E+03 0.  0.
    9000005    1    3    3    0    0  0.51713111266E+02  0.35079469633E+02 -0.51861462978E+02  0.81212230660E+02  0.10000000000E+01 0.  0.
    9000005    1    3    3    0    0 -0.51713111266E+02 -0.35079469633E+02 -0.50542670113E+02  0.80376467754E+02  0.10000000000E+01 0.  0.
<mgrwt>
<rscale>  0 0.12499720E+03</rscale>
<asrwt>0</asrwt>
<pdfrwt beam="1">  1        4 0.45526590E-02 0.12499720E+03</pdfrwt>
<pdfrwt beam="2">  1       -4 0.20307141E-01 0.12499720E+03</pdfrwt>
<totfact> 0.97043466E+03</totfact>
</mgrwt>
</event>
<event>
 5    1  0.3227866E-002  0.1250007E+03  0.7818608E-02  0.1235068E+00
          4   -1    0    0  501    0  0.00000000000E+00  0.00000000000E+00  0.20222931698E+03  0.20223330474E+03  0.12700000000E+01 0.  1.
         -4   -1    0    0    0  501 -0.00000000000E+00 -0.00000000000E+00 -0.19291090023E+02  0.19332849099E+02  0.12700000000E+01 0.  1.
         25    2    1    2    0    0  0.00000000000E+00  0.00000000000E+00  0.18293822696E+03  0.22156615384E+03  0.12500066258E+03 0.  0.
    9000005    1    3    3    0    0  0.62287108454E+02 -0.46016618560E+01  0.87737447740E+02  0.10770199119E+03  0.10000000000E+01 0.  0.
    9000005    1    3    3    0    0 -0.62287108454E+02  0.46016618560E+01  0.95200779221E+02  0.11386416265E+03  0.10000000000E+01 0.  0.
<mgrwt>
<rscale>  0 0.12500066E+03</rscale>
<asrwt>0</asrwt>
<pdfrwt beam="1">  1        4 0.31115719E-01 0.12500066E+03</pdfrwt>
<pdfrwt beam="2">  1       -4 0.29713792E-02 0.12500066E+03</pdfrwt>
<totfact> 0.86619851E+03</totfact>
</mgrwt>
</event>
<event>
 5    1  0.3227866E-002  0.1250025E+03  0.7818608E-02  0.1235065E+00
          4   -1    0    0  501    0  0.00000000000E+00  0.00000000000E+00  0.48336401011E+03  0.48336567852E+03  0.12700000000E+01 0.  1.
         -4   -1    0    0    0  501 -0.00000000000E+00 -0.00000000000E+00 -0.80301248663E+01  0.81299326792E+01  0.12700000000E+01 0.  1.
         25    2    1    2    0    0  0.00000000000E+00  0.00000000000E+00  0.47533388524E+03  0.49149561119E+03  0.12500253344E+03 0.  0.
    9000005    1    3    3    0    0  0.19619168765E+02  0.14217445505E+02  0.11169850091E+02  0.26698559713E+02  0.10000000000E+01 0.  0.
    9000005    1    3    3    0    0 -0.19619168765E+02 -0.14217445505E+02  0.46416403515E+03  0.46479705148E+03  0.10000000000E+01 0.  0.
<mgrwt>
<rscale>  0 0.12500253E+03</rscale>
<asrwt>0</asrwt>
<pdfrwt beam="1">  1        4 0.74371528E-01 0.12500253E+03</pdfrwt>
<pdfrwt beam="2">  1       -4 0.12432092E-02 0.12500253E+03</pdfrwt>
<totfact> 0.56527127E+03</totfact>
</mgrwt>
</event>
<event>
 5    1  0.3227866E-002  0.1250011E+03  0.7818608E-02  0.1235068E+00
          4   -1    0    0  501    0  0.00000000000E+00  0.00000000000E+00  0.32257932213E+02  0.32282922586E+02  0.12700000000E+01 0. -1.
         -4   -1    0    0    0  501 -0.00000000000E+00 -0.00000000000E+00 -0.12102122443E+03  0.12102788795E+03  0.12700000000E+01 0. -1.
         25    2    1    2    0    0  0.00000000000E+00  0.00000000000E+00 -0.88763292216E+02  0.15331081054E+03  0.12500113033E+03 0.  0.
    9000005    1    3    3    0    0 -0.32677655375E+02 -0.31696418650E+02  0.81256624728E+01  0.46254929539E+02  0.10000000000E+01 0.  0.
    9000005    1    3    3    0    0  0.32677655375E+02  0.31696418650E+02 -0.96888954689E+02  0.10705588100E+03  0.10000000000E+01 0.  0.
<mgrwt>
<rscale>  0 0.12500113E+03</rscale>
<asrwt>0</asrwt>
<pdfrwt beam="1">  1        4 0.49651938E-02 0.12500113E+03</pdfrwt>
<pdfrwt beam="2">  1       -4 0.18621085E-01 0.12500113E+03</pdfrwt>
<totfact> 0.98645276E+03</totfact>
</mgrwt>
</event>
<event>
 5    1  0.3227866E-002  0.1249894E+03  0.7818608E-02  0.1235086E+00
         -4   -1    0    0    0  501 -0.00000000000E+00  0.00000000000E+00  0.11650955117E+03  0.11651647272E+03  0.12700000000E+01 0.  1.
          4   -1    0    0  501    0  0.00000000000E+00 -0.00000000000E+00 -0.33501674662E+02  0.33525737951E+02  0.12700000000E+01 0.  1.
         25    2    1    2    0    0  0.00000000000E+00  0.00000000000E+00  0.83007876512E+02  0.15004221067E+03  0.12498942923E+03 0.  0.
    9000005    1    3    3    0    0  0.21215800100E+02  0.50203034311E+02  0.78193699168E+02  0.95318987707E+02  0.10000000000E+01 0.  0.
    9000005    1    3    3    0    0 -0.21215800100E+02 -0.50203034311E+02  0.48141773441E+01  0.54723222962E+02  0.10000000000E+01 0.  0.
<mgrwt>
<rscale>  0 0.12498943E+03</rscale>
<asrwt>0</asrwt>
<pdfrwt beam="2">  1        4 0.51564873E-02 0.12498943E+03</pdfrwt>
<pdfrwt beam="1">  1       -4 0.17926930E-01 0.12498943E+03</pdfrwt>
<totfact> 0.99318911E+03</totfact>
</mgrwt>
</event>
<event>
 5    1  0.3227866E-002  0.1249985E+03  0.7818608E-02  0.1235072E+00
          4   -1    0    0  501    0  0.00000000000E+00  0.00000000000E+00  0.14541794445E+02  0.14597146491E+02  0.12700000000E+01 0. -1.
         -4   -1    0    0    0  501 -0.00000000000E+00 -0.00000000000E+00 -0.26804871097E+03  0.26805171955E+03  0.12700000000E+01 0. -1.
         25    2    1    2    0    0  0.00000000000E+00  0.00000000000E+00 -0.25350691653E+03  0.28264886604E+03  0.12499849898E+03 0.  0.
    9000005    1    3    3    0    0 -0.33453001938E+02  0.45267356418E+02 -0.65369850181E+02  0.86269659837E+02  0.10000000000E+01 0.  0.
    9000005    1    3    3    0    0  0.33453001938E+02 -0.45267356418E+02 -0.18813706635E+03  0.19637920620E+03  0.10000000000E+01 0.  0.
<mgrwt>
<rscale>  0 0.12499850E+03</rscale>
<asrwt>0</asrwt>
<pdfrwt beam="1">  1        4 0.22416886E-02 0.12499850E+03</pdfrwt>
<pdfrwt beam="2">  1       -4 0.41242749E-01 0.12499850E+03</pdfrwt>
<totfact> 0.77830789E+03</totfact>
</mgrwt>
</event>
<event>
 5    1  0.3227866E-002  0.1249965E+03  0.7818608E-02  0.1235075E+00
         -4   -1    0    0    0  501 -0.00000000000E+00  0.00000000000E+00  0.73898438812E+01  0.74981792849E+01  0.12700000000E+01 0. -1.
          4   -1    0    0  501    0  0.00000000000E+00 -0.00000000000E+00 -0.52461239042E+03  0.52461392765E+03  0.12700000000E+01 0. -1.
         25    2    1    2    0    0  0.00000000000E+00  0.00000000000E+00 -0.51722254654E+03  0.53211210694E+03  0.12499652674E+03 0.  0.
    9000005    1    3    3    0    0 -0.40877343341E+02 -0.29278841058E+02 -0.41657035368E+03  0.41959512306E+03  0.10000000000E+01 0.  0.
    9000005    1    3    3    0    0  0.40877343341E+02  0.29278841058E+02 -0.10065219287E+03  0.11251698388E+03  0.10000000000E+01 0.  0.
<mgrwt>
<rscale>  0 0.12499653E+03</rscale>
<asrwt>0</asrwt>
<pdfrwt beam="2">  1        4 0.80718022E-01 0.12499653E+03</pdfrwt>
<pdfrwt beam="1">  1       -4 0.11453512E-02 0.12499653E+03</pdfrwt>
<totfact> 0.53460282E+03</totfact>
</mgrwt>
</event>
<event>
 5    1  0.3227866E-002  0.1250000E+03  0.7818608E-02  0.1235069E+00
          4   -1    0    0  501    0  0.00000000000E+00  0.00000000000E+00  0.21578183947E+03  0.21578557678E+03  0.12700000000E+01 0.  1.
         -4   -1    0    0    0  501 -0.00000000000E+00 -0.00000000000E+00 -0.18076596176E+02  0.18121154193E+02  0.12700000000E+01 0.  1.
         25    2    1    2    0    0  0.00000000000E+00  0.00000000000E+00  0.19770524330E+03  0.23390673097E+03  0.12499998227E+03 0.  0.
    9000005    1    3    3    0    0  0.17138842865E+02  0.33364969006E+02  0.19238328221E+03  0.19600838851E+03  0.10000000000E+01 0.  0.
    9000005    1    3    3    0    0 -0.17138842865E+02 -0.33364969006E+02  0.53219610825E+01  0.37898342461E+02  0.10000000000E+01 0.  0.
<mgrwt>
<rscale>  0 0.12499998E+03</rscale>
<asrwt>0</asrwt>
<pdfrwt beam="1">  1        4 0.33200918E-01 0.12499998E+03</pdfrwt>
<pdfrwt beam="2">  1       -4 0.27847300E-02 0.12499998E+03</pdfrwt>
<totfact> 0.84713338E+03</totfact>
</mgrwt>
</event>
<event>
 5    1  0.3227866E-002  0.1249994E+03  0.7818608E-02  0.1235070E+00
         -4   -1    0    0    0  501 -0.00000000000E+00  0.00000000000E+00  0.10163243690E+02  0.10242285990E+02  0.12700000000E+01 0.  1.
          4   -1    0    0  501    0  0.00000000000E+00 -0.00000000000E+00 -0.38277800045E+03  0.38278010728E+03  0.12700000000E+01 0.  1.
         25    2    1    2    0    0  0.00000000000E+00  0.00000000000E+00 -0.37261475676E+03  0.39302239327E+03  0.12499937862E+03 0.  0.
    9000005    1    3    3    0    0 -0.11565345876E+02 -0.50914741780E+02 -0.78339968739E+02  0.94149980657E+02  0.10000000000E+01 0.  0.
    9000005    1    3    3    0    0  0.11565345876E+02  0.50914741780E+02 -0.29427478802E+03  0.29887241261E+03  0.10000000000E+01 0.  0.
<mgrwt>
<rscale>  0 0.12499938E+03</rscale>
<asrwt>0</asrwt>
<pdfrwt beam="2">  1        4 0.58895155E-01 0.12499938E+03</pdfrwt>
<pdfrwt beam="1">  1       -4 0.15698185E-02 0.12499938E+03</pdfrwt>
<totfact> 0.65238028E+03</totfact>
</mgrwt>
</event>
<event>
 5    1  0.3227866E-002  0.1250058E+03  0.7818608E-02  0.1235060E+00
         -4   -1    0    0    0  501 -0.00000000000E+00  0.00000000000E+00  0.85540630717E+01  0.86478260294E+01  0.12700000000E+01 0.  1.
          4   -1    0    0  501    0  0.00000000000E+00 -0.00000000000E+00 -0.45411283997E+03  0.45411461585E+03  0.12700000000E+01 0.  1.
         25    2    1    2    0    0  0.00000000000E+00  0.00000000000E+00 -0.44555877690E+03  0.46276244188E+03  0.12500581563E+03 0.  0.
    9000005    1    3    3    0    0 -0.32441515854E+02  0.36021823583E+02 -0.36878697550E+03  0.37196082727E+03  0.10000000000E+01 0.  0.
    9000005    1    3    3    0    0  0.32441515854E+02 -0.36021823583E+02 -0.76771801402E+02  0.90801614609E+02  0.10000000000E+01 0.  0.
<mgrwt>
<rscale>  0 0.12500582E+03</rscale>
<asrwt>0</asrwt>
<pdfrwt beam="2">  1        4 0.69870844E-01 0.12500582E+03</pdfrwt>
<pdfrwt beam="1">  1       -4 0.13233592E-02 0.12500582E+03</pdfrwt>
<totfact> 0.58866384E+03</totfact>
</mgrwt>
</event>
<event>
 5    1  0.3227866E-002  0.1250045E+03  0.7818608E-02  0.1235062E+00
          4   -1    0    0  501    0  0.00000000000E+00  0.00000000000E+00  0.51966959208E+02  0.51982475406E+02  0.12700000000E+01 0. -1.
         -4   -1    0    0    0  501 -0.00000000000E+00 -0.00000000000E+00 -0.75141314153E+02  0.75152045831E+02  0.12700000000E+01 0. -1.
         25    2    1    2    0    0  0.00000000000E+00  0.00000000000E+00 -0.23174354945E+02  0.12713452124E+03  0.12500454297E+03 0.  0.
    9000005    1    3    3    0    0  0.54938169625E+02  0.12130549221E+02  0.16082667796E+02  0.58523541499E+02  0.10000000000E+01 0.  0.
    9000005    1    3    3    0    0 -0.54938169625E+02 -0.12130549221E+02 -0.39257022741E+02  0.68610979738E+02  0.10000000000E+01 0.  0.
<mgrwt>
<rscale>  0 0.12500454E+03</rscale>
<asrwt>0</asrwt>
<pdfrwt beam="1">  1        4 0.79969359E-02 0.12500454E+03</pdfrwt>
<pdfrwt beam="2">  1       -4 0.11562221E-01 0.12500454E+03</pdfrwt>
<totfact> 0.10405157E+04</totfact>
</mgrwt>
</event>
<event>
 5    1  0.3227866E-002  0.1250076E+03  0.7818608E-02  0.1235057E+00
         -4   -1    0    0    0  501 -0.00000000000E+00  0.00000000000E+00  0.77473595614E+01  0.78507630313E+01  0.12700000000E+01 0. -1.
          4   -1    0    0  501    0  0.00000000000E+00 -0.00000000000E+00 -0.50081814859E+03  0.50081975886E+03  0.12700000000E+01 0. -1.
         25    2    1    2    0    0  0.00000000000E+00  0.00000000000E+00 -0.49307078903E+03  0.50867052189E+03  0.12500758713E+03 0.  0.
    9000005    1    3    3    0    0  0.15925867911E+01 -0.42145165010E+02 -0.58871303072E+02  0.72426387400E+02  0.10000000000E+01 0.  0.
    9000005    1    3    3    0    0 -0.15925867911E+01  0.42145165010E+02 -0.43419948596E+03  0.43624413449E+03  0.10000000000E+01 0.  0.
<mgrwt>
<rscale>  0 0.12500759E+03</rscale>
<asrwt>0</asrwt>
<pdfrwt beam="2">  1        4 0.77056999E-01 0.12500759E+03</pdfrwt>
<pdfrwt beam="1">  1       -4 0.11999798E-02 0.12500759E+03</pdfrwt>
<totfact> 0.55188667E+03</totfact>
</mgrwt>
</event>
<event>
 5    1  0.3227866E-002  0.1249994E+03  0.7818608E-02  0.1235070E+00
          4   -1    0    0  501    0  0.00000000000E+00  0.00000000000E+00  0.29391512990E+02  0.29418938388E+02  0.12700000000E+01 0. -1.
         -4   -1    0    0    0  501 -0.00000000000E+00 -0.00000000000E+00 -0.13281026859E+03  0.13281634065E+03  0.12700000000E+01 0. -1.
         25    2    1    2    0    0  0.00000000000E+00  0.00000000000E+00 -0.10341875560E+03  0.16223527904E+03  0.12499938701E+03 0.  0.
    9000005    1    3    3    0    0 -0.12195786275E+02  0.61289765719E+02 -0.51966030967E+02  0.81281246048E+02  0.10000000000E+01 0.  0.
    9000005    1    3    3    0    0  0.12195786275E+02 -0.61289765719E+02 -0.51452724634E+02  0.80954032988E+02  0.10000000000E+01 0.  0.
<mgrwt>
<rscale>  0 0.12499939E+03</rscale>
<asrwt>0</asrwt>
<pdfrwt beam="1">  1        4 0.45243480E-02 0.12499939E+03</pdfrwt>
<pdfrwt beam="2">  1       -4 0.20434925E-01 0.12499939E+03</pdfrwt>
<totfact> 0.96914899E+03</totfact>
</mgrwt>
</event>
<event>
 5    1  0.3227866E-002  0.1249982E+03  0.7818608E-02  0.1235072E+00
         -4   -1    0    0    0  501 -0.00000000000E+00  0.00000000000E+00  0.41119765058E+01  0.43036322780E+01  0.12700000000E+01 0.  1.
          4   -1    0    0  501    0  0.00000000000E+00 -0.00000000000E+00 -0.92811603263E+03  0.92811690154E+03  0.12700000000E+01 0.  1.
         25    2    1    2    0    0  0.00000000000E+00  0.00000000000E+00 -0.92400405613E+03  0.93242053382E+03  0.12499822460E+03 0.  0.
    9000005    1    3    3    0    0  0.31680150298E+02 -0.52019162154E+02 -0.35769903141E+03  0.36284875944E+03  0.10000000000E+01 0.  0.
    9000005    1    3    3    0    0 -0.31680150298E+02  0.52019162154E+02 -0.56630502472E+03  0.56957177438E+03  0.10000000000E+01 0.  0.
<mgrwt>
<rscale>  0 0.12499822E+03</rscale>
<asrwt>0</asrwt>
<pdfrwt beam="2">  1        4 0.14280173E+00 0.12499822E+03</pdfrwt>
<pdfrwt beam="1">  1       -4 0.64742210E-03 0.12499822E+03</pdfrwt>
<totfact> 0.32949764E+03</totfact>
</mgrwt>
</event>
<event>
 5    1  0.3227866E-002  0.1249996E+03  0.7818608E-02  0.1235070E+00
          4   -1    0    0  501    0  0.00000000000E+00  0.00000000000E+00  0.16209071270E+03  0.16209568793E+03  0.12700000000E+01 0.  1.
         -4   -1    0    0    0  501 -0.00000000000E+00 -0.00000000000E+00 -0.24076932943E+02  0.24110404392E+02  0.12700000000E+01 0.  1.
         25    2    1    2    0    0  0.00000000000E+00  0.00000000000E+00  0.13801377976E+03  0.18620609232E+03  0.12499962165E+03 0.  0.
    9000005    1    3    3    0    0 -0.38726573083E+02 -0.48804296249E+02  0.76246598263E+02  0.98469033415E+02  0.10000000000E+01 0.  0.
    9000005    1    3    3    0    0  0.38726573083E+02  0.48804296249E+02  0.61767181498E+02  0.87737058905E+02  0.10000000000E+01 0.  0.
<mgrwt>
<rscale>  0 0.12499962E+03</rscale>
<asrwt>0</asrwt>
<pdfrwt beam="1">  1        4 0.24939989E-01 0.12499962E+03</pdfrwt>
<pdfrwt beam="2">  1       -4 0.37071011E-02 0.12499962E+03</pdfrwt>
<totfact> 0.92512449E+03</totfact>
</mgrwt>
</event>
<event>
 5    1  0.3227866E-002  0.1249990E+03  0.7818608E-02  0.1235071E+00
          4   -1    0    0  501    0  0.00000000000E+00  0.00000000000E+00  0.63100729669E+03  0.63100857472E+03  0.12700000000E+01 0. -1.
         -4   -1    0    0    0  501 -0.00000000000E+00 -0.00000000000E+00 -0.61239669317E+01  0.62542682210E+01  0.12700000000E+01 0. -1.
         25    2    1    2    0    0  0.00000000000E+00  0.00000000000E+00  0.62488332975E+03  0.63726284294E+03  0.12499902075E+03 0.  0.
    9000005    1    3    3    0    0 -0.97268702605E+01  0.40549958485E+02  0.54972598807E+03  0.55130624257E+03  0.10000000000E+01 0.  0.
    9000005    1    3    3    0    0  0.97268702605E+01 -0.40549958485E+02  0.75157341684E+02  0.85956600371E+02  0.10000000000E+01 0.  0.
<mgrwt>
<rscale>  0 0.12499902E+03</rscale>
<asrwt>0</asrwt>
<pdfrwt beam="1">  1        4 0.97088142E-01 0.12499902E+03</pdfrwt>
<pdfrwt beam="2">  1       -4 0.95227050E-03 0.12499902E+03</pdfrwt>
<totfact> 0.46597887E+03</totfact>
</mgrwt>
</event>
<event>
 5    1  0.3227866E-002  0.1249986E+03  0.7818608E-02  0.1235071E+00
          4   -1    0    0  501    0  0.00000000000E+00  0.00000000000E+00  0.13558762416E+03  0.13559357184E+03  0.12700000000E+01 0. -1.
         -4   -1    0    0    0  501 -0.00000000000E+00 -0.00000000000E+00 -0.28788556944E+02  0.28816556195E+02  0.12700000000E+01 0. -1.
         25    2    1    2    0    0  0.00000000000E+00  0.00000000000E+00  0.10679906721E+03  0.16441012803E+03  0.12499859776E+03 0.  0.
    9000005    1    3    3    0    0 -0.48613676803E+02 -0.36403419998E+02  0.34039031996E+02  0.69628688478E+02  0.10000000000E+01 0.  0.
    9000005    1    3    3    0    0  0.48613676803E+02  0.36403419998E+02  0.72760035215E+02  0.94781439556E+02  0.10000000000E+01 0.  0.
<mgrwt>
<rscale>  0 0.12499860E+03</rscale>
<asrwt>0</asrwt>
<pdfrwt beam="1">  1        4 0.20862246E-01 0.12499860E+03</pdfrwt>
<pdfrwt beam="2">  1       -4 0.44316200E-02 0.12499860E+03</pdfrwt>
<totfact> 0.96502261E+03</totfact>
</mgrwt>
</event>
<event>
 5    1  0.3227866E-002  0.1250000E+03  0.7818608E-02  0.1235069E+00
          4   -1    0    0  501    0  0.00000000000E+00  0.00000000000E+00  0.18405730723E+02  0.18449493854E+02  0.12700000000E+01 0. -1.
         -4   -1    0    0    0  501 -0.00000000000E+00 -0.00000000000E+00 -0.21193253244E+03  0.21193633763E+03  0.12700000000E+01 0. -1.
         25    2    1    2    0    0  0.00000000000E+00  0.00000000000E+00 -0.19352680172E+03  0.23038583148E+03  0.12500003346E+03 0.  0.
    9000005    1    3    3    0    0  0.57178439995E+02  0.23281346259E+02 -0.11461918752E+03  0.13019198605E+03  0.10000000000E+01 0.  0.
    9000005    1    3    3    0    0 -0.57178439995E+02 -0.23281346259E+02 -0.78907614196E+02  0.10019384543E+03  0.10000000000E+01 0.  0.
<mgrwt>
<rscale>  0 0.12500003E+03</rscale>
<asrwt>0</asrwt>
<pdfrwt beam="1">  1        4 0.28353101E-02 0.12500003E+03</pdfrwt>
<pdfrwt beam="2">  1       -4 0.32608662E-01 0.12500003E+03</pdfrwt>
<totfact> 0.85250324E+03</totfact>
</mgrwt>
</event>
<event>
 5    1  0.3227866E-002  0.1250082E+03  0.7818608E-02  0.1235057E+00
          4   -1    0    0  501    0  0.00000000000E+00  0.00000000000E+00  0.24451512116E+03  0.24451841930E+03  0.12700000000E+01 0. -1.
         -4   -1    0    0    0  501 -0.00000000000E+00 -0.00000000000E+00 -0.15948930888E+02  0.15999415504E+02  0.12700000000E+01 0. -1.
         25    2    1    2    0    0  0.00000000000E+00  0.00000000000E+00  0.22856619028E+03  0.26051783481E+03  0.12500815539E+03 0.  0.
    9000005    1    3    3    0    0 -0.26968135856E+02  0.56371621531E+02  0.11251517066E+03  0.12870782297E+03  0.10000000000E+01 0.  0.
    9000005    1    3    3    0    0  0.26968135856E+02 -0.56371621531E+02  0.11605101962E+03  0.13181001184E+03  0.10000000000E+01 0.  0.
<mgrwt>
<rscale>  0 0.12500816E+03</rscale>
<asrwt>0</asrwt>
<pdfrwt beam="1">  1        4 0.37621851E-01 0.12500816E+03</pdfrwt>
<pdfrwt beam="2">  1       -4 0.24578187E-02 0.12500816E+03</pdfrwt>
<totfact> 0.80818770E+03</totfact>
</mgrwt>
</event>
<event>
 5    1  0.3227866E-002  0.1249978E+03  0.7818608E-02  0.1235073E+00
          4   -1    0    0  501    0  0.00000000000E+00  0.00000000000E+00  0.91976382290E+02  0.91985149884E+02  0.12700000000E+01 0.  1.
         -4   -1    0    0    0  501 -0.00000000000E+00 -0.00000000000E+00 -0.42448345628E+02  0.42467339763E+02  0.12700000000E+01 0.  1.
         25    2    1    2    0    0  0.00000000000E+00  0.00000000000E+00  0.49528036662E+02  0.13445248965E+03  0.12499778221E+03 0.  0.
    9000005    1    3    3    0    0 -0.18714277311E+02  0.51295248096E+02  0.57455034807E+02  0.79268579382E+02  0.10000000000E+01 0.  0.
    9000005    1    3    3    0    0  0.18714277311E+02 -0.51295248096E+02 -0.79269981455E+01  0.55183910265E+02  0.10000000000E+01 0.  0.
<mgrwt>
<rscale>  0 0.12499778E+03</rscale>
<asrwt>0</asrwt>
<pdfrwt beam="1">  1        4 0.14152348E-01 0.12499778E+03</pdfrwt>
<pdfrwt beam="2">  1       -4 0.65326504E-02 0.12499778E+03</pdfrwt>
<totfact> 0.10250137E+04</totfact>
</mgrwt>
</event>
<event>
 4    1  0.3227866E-002  0.1249301E+03  0.7818608E-02  0.1235179E+00
         -4   -1    0    0    0  501 -0.00000000000E+00  0.00000000000E+00  0.12392421779E+03  0.12393072522E+03  0.12700000000E+01 0. -1.
          4   -1    0    0  501    0  0.00000000000E+00 -0.00000000000E+00 -0.31465897947E+02  0.31491516852E+02  0.12700000000E+01 0. -1.
    9000005    1    1    2    0    0 -0.57966500842E+02 -0.23225573257E+02  0.44788700583E+02  0.76854213761E+02  0.10000000000E+01 0.  0.
    9000005    1    1    2    0    0  0.57966500842E+02  0.23225573257E+02  0.47669619259E+02  0.78568028315E+02  0.10000000000E+01 0.  0.
<mgrwt>
<rscale>  0 0.12493011E+03</rscale>
<asrwt>0</asrwt>
<pdfrwt beam="2">  1        4 0.48433786E-02 0.12493011E+03</pdfrwt>
<pdfrwt beam="1">  1       -4 0.19067736E-01 0.12493011E+03</pdfrwt>
<totfact> 0.98387226E+03</totfact>
</mgrwt>
</event>
<event>
 5    1  0.3227866E-002  0.1250006E+03  0.7818608E-02  0.1235068E+00
         -4   -1    0    0    0  501 -0.00000000000E+00  0.00000000000E+00  0.27532600070E+03  0.27532892975E+03  0.12700000000E+01 0.  1.
          4   -1    0    0  501    0  0.00000000000E+00 -0.00000000000E+00 -0.14156433531E+02  0.14213286401E+02  0.12700000000E+01 0.  1.
         25    2    1    2    0    0  0.00000000000E+00  0.00000000000E+00  0.26116956716E+03  0.28954221615E+03  0.12500060849E+03 0.  0.
    9000005    1    3    3    0    0 -0.41331564349E+02  0.35449059512E+02  0.59554188210E+02  0.80700900647E+02  0.10000000000E+01 0.  0.
    9000005    1    3    3    0    0  0.41331564349E+02 -0.35449059512E+02  0.20161537895E+03  0.20884131551E+03  0.10000000000E+01 0.  0.
<mgrwt>
<rscale>  0 0.12500061E+03</rscale>
<asrwt>0</asrwt>
<pdfrwt beam="2">  1        4 0.21825119E-02 0.12500061E+03</pdfrwt>
<pdfrwt beam="1">  1       -4 0.42362437E-01 0.12500061E+03</pdfrwt>
<totfact> 0.76928618E+03</totfact>
</mgrwt>
</event>
<event>
 5    1  0.3227866E-002  0.1249972E+03  0.7818608E-02  0.1235074E+00
         -4   -1    0    0    0  501 -0.00000000000E+00  0.00000000000E+00  0.21759179303E+02  0.21796210312E+02  0.12700000000E+01 0. -1.
          4   -1    0    0  501    0  0.00000000000E+00 -0.00000000000E+00 -0.17932203296E+03  0.17932653012E+03  0.12700000000E+01 0. -1.
         25    2    1    2    0    0  0.00000000000E+00  0.00000000000E+00 -0.15756285365E+03  0.20112274043E+03  0.12499721543E+03 0.  0.
    9000005    1    3    3    0    0  0.30339610564E+02 -0.43335481453E+02 -0.13230684955E+03  0.14249406429E+03  0.10000000000E+01 0.  0.
    9000005    1    3    3    0    0 -0.30339610564E+02  0.43335481453E+02 -0.25256004107E+02  0.58628676135E+02  0.10000000000E+01 0.  0.
<mgrwt>
<rscale>  0 0.12499722E+03</rscale>
<asrwt>0</asrwt>
<pdfrwt beam="2">  1        4 0.27591199E-01 0.12499722E+03</pdfrwt>
<pdfrwt beam="1">  1       -4 0.33507606E-02 0.12499722E+03</pdfrwt>
<totfact> 0.89952097E+03</totfact>
</mgrwt>
</event>
<event>
 5    1  0.3227866E-002  0.1249997E+03  0.7818608E-02  0.1235070E+00
         -4   -1    0    0    0  501 -0.00000000000E+00  0.00000000000E+00  0.39219941479E+01  0.41224917339E+01  0.12700000000E+01 0.  1.
          4   -1    0    0  501    0  0.00000000000E+00 -0.00000000000E+00 -0.97095607839E+03  0.97095690896E+03  0.12700000000E+01 0.  1.
         25    2    1    2    0    0  0.00000000000E+00  0.00000000000E+00 -0.96703408424E+03  0.97507940069E+03  0.12499967031E+03 0.  0.
    9000005    1    3    3    0    0 -0.12489796509E+02 -0.60986564273E+02 -0.44088136956E+03  0.44525581194E+03  0.10000000000E+01 0.  0.
    9000005    1    3    3    0    0  0.12489796509E+02  0.60986564273E+02 -0.52615271468E+03  0.52982358875E+03  0.10000000000E+01 0.  0.
<mgrwt>
<rscale>  0 0.12499967E+03</rscale>
<asrwt>0</asrwt>
<pdfrwt beam="2">  1        4 0.14939316E+00 0.12499967E+03</pdfrwt>
<pdfrwt beam="1">  1       -4 0.61887127E-03 0.12499967E+03</pdfrwt>
<totfact> 0.31442220E+03</totfact>
</mgrwt>
</event>
<event>
 5    1  0.3227866E-002  0.1250059E+03  0.7818608E-02  0.1235060E+00
          4   -1    0    0  501    0  0.00000000000E+00  0.00000000000E+00  0.23321775481E+03  0.23322121271E+03  0.12700000000E+01 0. -1.
         -4   -1    0    0    0  501 -0.00000000000E+00 -0.00000000000E+00 -0.16723280717E+02  0.16771434582E+02  0.12700000000E+01 0. -1.
         25    2    1    2    0    0  0.00000000000E+00  0.00000000000E+00  0.21649447409E+03  0.24999264729E+03  0.12500586541E+03 0.  0.
    9000005    1    3    3    0    0 -0.54297128254E+02  0.23285381701E+02  0.14899848598E+03  0.16028704240E+03  0.10000000000E+01 0.  0.
    9000005    1    3    3    0    0  0.54297128254E+02 -0.23285381701E+02  0.67495988113E+02  0.89705604891E+02  0.10000000000E+01 0.  0.
<mgrwt>
<rscale>  0 0.12500587E+03</rscale>
<asrwt>0</asrwt>
<pdfrwt beam="1">  1        4 0.35883621E-01 0.12500587E+03</pdfrwt>
<pdfrwt beam="2">  1       -4 0.25767828E-02 0.12500587E+03</pdfrwt>
<totfact> 0.82320536E+03</totfact>
</mgrwt>
</event>
<event>
 5    1  0.3227866E-002  0.1249980E+03  0.7818608E-02  0.1235072E+00
          4   -1    0    0  501    0  0.00000000000E+00  0.00000000000E+00  0.46035449680E+01  0.47755131946E+01  0.12700000000E+01 0. -1.
         -4   -1    0    0    0  501 -0.00000000000E+00 -0.00000000000E+00 -0.83277332565E+03  0.83277429404E+03  0.12700000000E+01 0. -1.
         25    2    1    2    0    0  0.00000000000E+00  0.00000000000E+00 -0.82816978068E+03  0.83754980724E+03  0.12499797584E+03 0.  0.
    9000005    1    3    3    0    0  0.54576993800E+02  0.19895637258E+02 -0.56843508697E+03  0.57139647596E+03  0.10000000000E+01 0.  0.
    9000005    1    3    3    0    0 -0.54576993800E+02 -0.19895637258E+02 -0.25973469371E+03  0.26615333128E+03  0.10000000000E+01 0.  0.
<mgrwt>
<rscale>  0 0.12499798E+03</rscale>
<asrwt>0</asrwt>
<pdfrwt beam="1">  1        4 0.72154117E-03 0.12499798E+03</pdfrwt>
<pdfrwt beam="2">  1       -4 0.12813216E+00 0.12499798E+03</pdfrwt>
<totfact> 0.36643935E+03</totfact>
</mgrwt>
</event>
<event>
 5    1  0.3227866E-002  0.1250002E+03  0.7818608E-02  0.1235069E+00
          4   -1    0    0  501    0  0.00000000000E+00  0.00000000000E+00  0.10368409780E+03  0.10369187546E+03  0.12700000000E+01 0.  1.
         -4   -1    0    0    0  501 -0.00000000000E+00 -0.00000000000E+00 -0.37654757994E+02  0.37676168855E+02  0.12700000000E+01 0.  1.
         25    2    1    2    0    0  0.00000000000E+00  0.00000000000E+00  0.66029339808E+02  0.14136804432E+03  0.12500020095E+03 0.  0.
    9000005    1    3    3    0    0 -0.25926580417E+02 -0.50401044880E+02  0.62782522528E+02  0.84587812550E+02  0.10000000000E+01 0.  0.
    9000005    1    3    3    0    0  0.25926580417E+02  0.50401044880E+02  0.32468172799E+01  0.56780231767E+02  0.10000000000E+01 0.  0.
<mgrwt>
<rscale>  0 0.12500020E+03</rscale>
<asrwt>0</asrwt>
<pdfrwt beam="1">  1        4 0.15953644E-01 0.12500020E+03</pdfrwt>
<pdfrwt beam="2">  1       -4 0.57952851E-02 0.12500020E+03</pdfrwt>
<totfact> 0.10105265E+04</totfact>
</mgrwt>
</event>
<event>
 5    1  0.3227866E-002  0.1249981E+03  0.7818608E-02  0.1235072E+00
          4   -1    0    0  501    0  0.00000000000E+00  0.00000000000E+00  0.25360166445E+02  0.25391946403E+02  0.12700000000E+01 0. -1.
         -4   -1    0    0    0  501 -0.00000000000E+00 -0.00000000000E+00 -0.15389547844E+03  0.15390071860E+03  0.12700000000E+01 0. -1.
         25    2    1    2    0    0  0.00000000000E+00  0.00000000000E+00 -0.12853531199E+03  0.17929266500E+03  0.12499813316E+03 0.  0.
    9000005    1    3    3    0    0  0.46030902028E+02 -0.14106735133E+02 -0.12141381622E+03  0.13061454240E+03  0.10000000000E+01 0.  0.
    9000005    1    3    3    0    0 -0.46030902028E+02  0.14106735133E+02 -0.71214957749E+01  0.48678122598E+02  0.10000000000E+01 0.  0.
<mgrwt>
<rscale>  0 0.12499813E+03</rscale>
<asrwt>0</asrwt>
<pdfrwt beam="1">  1        4 0.39044119E-02 0.12499813E+03</pdfrwt>
<pdfrwt beam="2">  1       -4 0.23679075E-01 0.12499813E+03</pdfrwt>
<totfact> 0.93748405E+03</totfact>
</mgrwt>
</event>
<event>
 4    1  0.3227866E-002  0.1263480E+03  0.7818608E-02  0.1232977E+00
          4   -1    0    0  501    0  0.00000000000E+00  0.00000000000E+00  0.28757439732E+03  0.28757720162E+03  0.12700000000E+01 0. -1.
         -4   -1    0    0    0  501 -0.00000000000E+00 -0.00000000000E+00 -0.13846066693E+02  0.13904188681E+02  0.12700000000E+01 0. -1.
    9000005    1    1    2    0    0 -0.20355357529E+02 -0.54094170024E+01 -0.52322340535E+01  0.21725069520E+02  0.10000000000E+01 0.  0.
    9000005    1    1    2    0    0  0.20355357529E+02  0.54094170024E+01  0.27896056468E+03  0.27975632078E+03  0.10000000000E+01 0.  0.
<mgrwt>
<rscale>  0 0.12634805E+03</rscale>
<asrwt>0</asrwt>
<pdfrwt beam="1">  1        4 0.44246905E-01 0.12634805E+03</pdfrwt>
<pdfrwt beam="2">  1       -4 0.21348506E-02 0.12634805E+03</pdfrwt>
<totfact> 0.73200599E+03</totfact>
</mgrwt>
</event>
<event>
 5    1  0.3227866E-002  0.1250003E+03  0.7818608E-02  0.1235069E+00
         -4   -1    0    0    0  501 -0.00000000000E+00  0.00000000000E+00  0.59992740197E+02  0.60006181151E+02  0.12700000000E+01 0. -1.
          4   -1    0    0  501    0  0.00000000000E+00 -0.00000000000E+00 -0.65085475990E+02  0.65097865440E+02  0.12700000000E+01 0. -1.
         25    2    1    2    0    0  0.00000000000E+00  0.00000000000E+00 -0.50927357932E+01  0.12510404659E+03  0.12500034606E+03 0.  0.
    9000005    1    3    3    0    0  0.62131848161E+02  0.49010594156E+01  0.20274003440E+01  0.62365834329E+02  0.10000000000E+01 0.  0.
    9000005    1    3    3    0    0 -0.62131848161E+02 -0.49010594156E+01 -0.71201361372E+01  0.62738212263E+02  0.10000000000E+01 0.  0.
<mgrwt>
<rscale>  0 0.12500035E+03</rscale>
<asrwt>0</asrwt>
<pdfrwt beam="2">  1        4 0.10015137E-01 0.12500035E+03</pdfrwt>
<pdfrwt beam="1">  1       -4 0.92316393E-02 0.12500035E+03</pdfrwt>
<totfact> 0.10450521E+04</totfact>
</mgrwt>
</event>
<event>
 5    1  0.3227866E-002  0.1249977E+03  0.7818608E-02  0.1235073E+00
         -4   -1    0    0    0  501 -0.00000000000E+00  0.00000000000E+00  0.74465788167E+03  0.74465896465E+03  0.12700000000E+01 0.  1.
          4   -1    0    0  501    0  0.00000000000E+00 -0.00000000000E+00 -0.51675326567E+01  0.53213056441E+01  0.12700000000E+01 0.  1.
         25    2    1    2    0    0  0.00000000000E+00  0.00000000000E+00  0.73949034901E+03  0.74998027029E+03  0.12499771816E+03 0.  0.
    9000005    1    3    3    0    0 -0.13656839782E+02  0.60644364603E+02  0.33139278327E+03  0.33717417611E+03  0.10000000000E+01 0.  0.
    9000005    1    3    3    0    0  0.13656839782E+02 -0.60644364603E+02  0.40809756574E+03  0.41280609419E+03  0.10000000000E+01 0.  0.
<mgrwt>
<rscale>  0 0.12499772E+03</rscale>
<asrwt>0</asrwt>
<pdfrwt beam="2">  1        4 0.80691792E-03 0.12499772E+03</pdfrwt>
<pdfrwt beam="1">  1       -4 0.11457454E+00 0.12499772E+03</pdfrwt>
<totfact> 0.40577141E+03</totfact>
</mgrwt>
</event>
<event>
 5    1  0.3227866E-002  0.1249977E+03  0.7818608E-02  0.1235073E+00
         -4   -1    0    0    0  501 -0.00000000000E+00  0.00000000000E+00  0.13728370954E+04  0.13728376829E+04  0.12700000000E+01 0. -1.
          4   -1    0    0  501    0  0.00000000000E+00 -0.00000000000E+00 -0.27029464606E+01  0.29864392793E+01  0.12700000000E+01 0. -1.
         25    2    1    2    0    0  0.00000000000E+00  0.00000000000E+00  0.13701341490E+04  0.13758241222E+04  0.12499771557E+03 0.  0.
    9000005    1    3    3    0    0  0.54469396069E+02 -0.64048584441E+01  0.35538283066E+03  0.35959128694E+03  0.10000000000E+01 0.  0.
    9000005    1    3    3    0    0 -0.54469396069E+02  0.64048584441E+01  0.10147513183E+04  0.10162328352E+04  0.10000000000E+01 0.  0.
<mgrwt>
<rscale>  0 0.12499772E+03</rscale>
<asrwt>0</asrwt>
<pdfrwt beam="2">  1        4 0.43769089E-03 0.12499772E+03</pdfrwt>
<pdfrwt beam="1">  1       -4 0.21122725E+00 0.12499772E+03</pdfrwt>
<totfact> 0.20506796E+03</totfact>
</mgrwt>
</event>
<event>
 5    1  0.3227866E-002  0.1249989E+03  0.7818608E-02  0.1235071E+00
          4   -1    0    0  501    0  0.00000000000E+00  0.00000000000E+00  0.10310378918E+04  0.10310386740E+04  0.12700000000E+01 0.  1.
         -4   -1    0    0    0  501 -0.00000000000E+00 -0.00000000000E+00 -0.36813515798E+01  0.38942585243E+01  0.12700000000E+01 0.  1.
         25    2    1    2    0    0  0.00000000000E+00  0.00000000000E+00  0.10273565403E+04  0.10349329325E+04  0.12499885613E+03 0.  0.
    9000005    1    3    3    0    0 -0.96616885320E+01 -0.61713751648E+02  0.49876787801E+03  0.50266522806E+03  0.10000000000E+01 0.  0.
    9000005    1    3    3    0    0  0.96616885320E+01  0.61713751648E+02  0.52858866224E+03  0.53226770447E+03  0.10000000000E+01 0.  0.
<mgrwt>
<rscale>  0 0.12499886E+03</rscale>
<asrwt>0</asrwt>
<pdfrwt beam="1">  1        4 0.15863776E+00 0.12499886E+03</pdfrwt>
<pdfrwt beam="2">  1       -4 0.58279900E-03 0.12499886E+03</pdfrwt>
<totfact> 0.29470634E+03</totfact>
</mgrwt>
</event>
<event>
 5    1  0.3227866E-002  0.1249947E+03  0.7818608E-02  0.1235078E+00
          4   -1    0    0  501    0  0.00000000000E+00  0.00000000000E+00  0.30635944671E+02  0.30662257025E+02  0.12700000000E+01 0.  1.
         -4   -1    0    0    0  501 -0.00000000000E+00 -0.00000000000E+00 -0.12741043565E+03  0.12741676504E+03  0.12700000000E+01 0.  1.
         25    2    1    2    0    0  0.00000000000E+00  0.00000000000E+00 -0.96774490978E+02  0.15807902206E+03  0.12499470033E+03 0.  0.
    9000005    1    3    3    0    0 -0.86323425400E+01 -0.39932257588E+02  0.11412687101E+02  0.42430554564E+02  0.10000000000E+01 0.  0.
    9000005    1    3    3    0    0  0.86323425400E+01  0.39932257588E+02 -0.10818717808E+03  0.11564846750E+03  0.10000000000E+01 0.  0.
<mgrwt>
<rscale>  0 0.12499470E+03</rscale>
<asrwt>0</asrwt>
<pdfrwt beam="1">  1        4 0.47157332E-02 0.12499470E+03</pdfrwt>
<pdfrwt beam="2">  1       -4 0.19604116E-01 0.12499470E+03</pdfrwt>
<totfact> 0.97726061E+03</totfact>
</mgrwt>
</event>
<event>
 5    1  0.3227866E-002  0.1250002E+03  0.7818608E-02  0.1235069E+00
         -4   -1    0    0    0  501 -0.00000000000E+00  0.00000000000E+00  0.13920978613E+02  0.13978789130E+02  0.12700000000E+01 0.  1.
          4   -1    0    0  501    0  0.00000000000E+00 -0.00000000000E+00 -0.27996203614E+03  0.27996491670E+03  0.12700000000E+01 0.  1.
         25    2    1    2    0    0  0.00000000000E+00  0.00000000000E+00 -0.26604105753E+03  0.29394370583E+03  0.12500023162E+03 0.  0.
    9000005    1    3    3    0    0  0.50875335543E+02 -0.11657823656E+02 -0.21383503088E+03  0.22011502687E+03  0.10000000000E+01 0.  0.
    9000005    1    3    3    0    0 -0.50875335543E+02  0.11657823656E+02 -0.52206026644E+02  0.73828678960E+02  0.10000000000E+01 0.  0.
<mgrwt>
<rscale>  0 0.12500023E+03</rscale>
<asrwt>0</asrwt>
<pdfrwt beam="2">  1        4 0.43075747E-01 0.12500023E+03</pdfrwt>
<pdfrwt beam="1">  1       -4 0.21463578E-02 0.12500023E+03</pdfrwt>
<totfact> 0.76364473E+03</totfact>
</mgrwt>
</event>
<event>
 5    1  0.3227866E-002  0.1249996E+03  0.7818608E-02  0.1235070E+00
          4   -1    0    0  501    0  0.00000000000E+00  0.00000000000E+00  0.62803000612E+02  0.62815840247E+02  0.12700000000E+01 0. -1.
         -4   -1    0    0    0  501 -0.00000000000E+00 -0.00000000000E+00 -0.62172369637E+02  0.62185339480E+02  0.12700000000E+01 0. -1.
         25    2    1    2    0    0  0.00000000000E+00  0.00000000000E+00  0.63063097557E+00  0.12500117973E+03  0.12499958895E+03 0.  0.
    9000005    1    3    3    0    0 -0.68386735823E+01  0.59966450170E+02  0.16516808875E+02  0.62582326401E+02  0.10000000000E+01 0.  0.
    9000005    1    3    3    0    0  0.68386735823E+01 -0.59966450170E+02 -0.15886177899E+02  0.62418853326E+02  0.10000000000E+01 0.  0.
<mgrwt>
<rscale>  0 0.12499959E+03</rscale>
<asrwt>0</asrwt>
<pdfrwt beam="1">  1        4 0.96639855E-02 0.12499959E+03</pdfrwt>
<pdfrwt beam="2">  1       -4 0.95669652E-02 0.12499959E+03</pdfrwt>
<totfact> 0.10452934E+04</totfact>
</mgrwt>
</event>
<event>
 5    1  0.3227866E-002  0.1249981E+03  0.7818608E-02  0.1235072E+00
         -4   -1    0    0    0  501 -0.00000000000E+00  0.00000000000E+00  0.57543305789E+03  0.57543445935E+03  0.12700000000E+01 0.  1.
          4   -1    0    0  501    0  0.00000000000E+00 -0.00000000000E+00 -0.67273337437E+01  0.68461609168E+01  0.12700000000E+01 0.  1.
         25    2    1    2    0    0  0.00000000000E+00  0.00000000000E+00  0.56870572415E+03  0.58228062027E+03  0.12499808025E+03 0.  0.
    9000005    1    3    3    0    0 -0.24064904523E+02  0.38523359313E+02  0.48427883987E+03  0.48640534905E+03  0.10000000000E+01 0.  0.
    9000005    1    3    3    0    0  0.24064904523E+02 -0.38523359313E+02  0.84426884279E+02  0.95875271220E+02  0.10000000000E+01 0.  0.
<mgrwt>
<rscale>  0 0.12499808E+03</rscale>
<asrwt>0</asrwt>
<pdfrwt beam="2">  1        4 0.10442222E-02 0.12499808E+03</pdfrwt>
<pdfrwt beam="1">  1       -4 0.88537460E-01 0.12499808E+03</pdfrwt>
<totfact> 0.50007643E+03</totfact>
</mgrwt>
</event>
<event>
 5    1  0.3227866E-002  0.1250008E+03  0.7818608E-02  0.1235068E+00
         -4   -1    0    0    0  501 -0.00000000000E+00  0.00000000000E+00  0.14990398382E+01  0.19646934713E+01  0.12700000000E+01 0.  1.
          4   -1    0    0  501    0  0.00000000000E+00 -0.00000000000E+00 -0.22550764699E+04  0.22550768275E+04  0.12700000000E+01 0.  1.
         25    2    1    2    0    0  0.00000000000E+00  0.00000000000E+00 -0.22535774300E+04  0.22570415209E+04  0.12500077669E+03 0.  0.
    9000005    1    3    3    0    0 -0.25702767668E+02  0.20951994276E+02 -0.17037472162E+03  0.17357466433E+03  0.10000000000E+01 0.  0.
    9000005    1    3    3    0    0  0.25702767668E+02 -0.20951994276E+02 -0.20832027084E+04  0.20834668566E+04  0.10000000000E+01 0.  0.
<mgrwt>
<rscale>  0 0.12500078E+03</rscale>
<asrwt>0</asrwt>
<pdfrwt beam="2">  1        4 0.34696834E+00 0.12500078E+03</pdfrwt>
<pdfrwt beam="1">  1       -4 0.26647034E-03 0.12500078E+03</pdfrwt>
<totfact> 0.68682792E+02</totfact>
</mgrwt>
</event>
<event>
 5    1  0.3227866E-002  0.1249978E+03  0.7818608E-02  0.1235073E+00
         -4   -1    0    0    0  501 -0.00000000000E+00  0.00000000000E+00  0.80225759769E+01  0.81224765500E+01  0.12700000000E+01 0.  1.
          4   -1    0    0  501    0  0.00000000000E+00 -0.00000000000E+00 -0.48377625108E+03  0.48377791807E+03  0.12700000000E+01 0.  1.
         25    2    1    2    0    0  0.00000000000E+00  0.00000000000E+00 -0.47575367510E+03  0.49190039462E+03  0.12499775538E+03 0.  0.
    9000005    1    3    3    0    0  0.58472841746E+02  0.12316637389E+01 -0.15125436329E+03  0.16217112145E+03  0.10000000000E+01 0.  0.
    9000005    1    3    3    0    0 -0.58472841746E+02 -0.12316637389E+01 -0.32449931181E+03  0.32972927317E+03  0.10000000000E+01 0.  0.
<mgrwt>
<rscale>  0 0.12499776E+03</rscale>
<asrwt>0</asrwt>
<pdfrwt beam="2">  1        4 0.74434906E-01 0.12499776E+03</pdfrwt>
<pdfrwt beam="1">  1       -4 0.12420557E-02 0.12499776E+03</pdfrwt>
<totfact> 0.56501117E+03</totfact>
</mgrwt>
</event>
<event>
 5    1  0.3227866E-002  0.1249976E+03  0.7818608E-02  0.1235073E+00
         -4   -1    0    0    0  501 -0.00000000000E+00  0.00000000000E+00  0.58944212346E+02  0.58957892339E+02  0.12700000000E+01 0. -1.
          4   -1    0    0  501    0  0.00000000000E+00 -0.00000000000E+00 -0.66240333225E+02  0.66252506713E+02  0.12700000000E+01 0. -1.
         25    2    1    2    0    0  0.00000000000E+00  0.00000000000E+00 -0.72961208792E+01  0.12521039905E+03  0.12499764258E+03 0.  0.
    9000005    1    3    3    0    0 -0.30651836119E+02  0.43100836456E+02  0.29693507308E+02  0.60662356836E+02  0.10000000000E+01 0.  0.
    9000005    1    3    3    0    0  0.30651836119E+02 -0.43100836456E+02 -0.36989628187E+02  0.64548042217E+02  0.10000000000E+01 0.  0.
<mgrwt>
<rscale>  0 0.12499764E+03</rscale>
<asrwt>0</asrwt>
<pdfrwt beam="2">  1        4 0.10192809E-01 0.12499764E+03</pdfrwt>
<pdfrwt beam="1">  1       -4 0.90703291E-02 0.12499764E+03</pdfrwt>
<totfact> 0.10448851E+04</totfact>
</mgrwt>
</event>
<event>
 5    1  0.3227866E-002  0.1250033E+03  0.7818608E-02  0.1235064E+00
         -4   -1    0    0    0  501 -0.00000000000E+00  0.00000000000E+00  0.22521035491E+02  0.22556815812E+02  0.12700000000E+01 0. -1.
          4   -1    0    0  501    0  0.00000000000E+00 -0.00000000000E+00 -0.17328223184E+03  0.17328688575E+03  0.12700000000E+01 0. -1.
         25    2    1    2    0    0  0.00000000000E+00  0.00000000000E+00 -0.15076119635E+03  0.19584370156E+03  0.12500326842E+03 0.  0.
    9000005    1    3    3    0    0  0.60270398725E+02 -0.36501020253E+01 -0.10062406559E+03  0.11735436414E+03  0.10000000000E+01 0.  0.
    9000005    1    3    3    0    0 -0.60270398725E+02  0.36501020253E+01 -0.50137130762E+02  0.78489337418E+02  0.10000000000E+01 0.  0.
<mgrwt>
<rscale>  0 0.12500327E+03</rscale>
<asrwt>0</asrwt>
<pdfrwt beam="2">  1        4 0.26661914E-01 0.12500327E+03</pdfrwt>
<pdfrwt beam="1">  1       -4 0.34678851E-02 0.12500327E+03</pdfrwt>
<totfact> 0.90833708E+03</totfact>
</mgrwt>
</event>
<event>
 5    1  0.3227866E-002  0.1249984E+03  0.7818608E-02  0.1235072E+00
         -4   -1    0    0    0  501 -0.00000000000E+00  0.00000000000E+00  0.34341246114E+02  0.34364721513E+02  0.12700000000E+01 0. -1.
          4   -1    0    0  501    0  0.00000000000E+00 -0.00000000000E+00 -0.11367929252E+03  0.11368638638E+03  0.12700000000E+01 0. -1.
         25    2    1    2    0    0  0.00000000000E+00  0.00000000000E+00 -0.79338046410E+02  0.14805110790E+03  0.12499841975E+03 0.  0.
    9000005    1    3    3    0    0 -0.38745301391E+02  0.19629853246E+02  0.13546043346E+02  0.45508513585E+02  0.10000000000E+01 0.  0.
    9000005    1    3    3    0    0  0.38745301391E+02 -0.19629853246E+02 -0.92884089756E+02  0.10254259431E+03  0.10000000000E+01 0.  0.
<mgrwt>
<rscale>  0 0.12499842E+03</rscale>
<asrwt>0</asrwt>
<pdfrwt beam="2">  1        4 0.17491473E-01 0.12499842E+03</pdfrwt>
<pdfrwt beam="1">  1       -4 0.52856202E-02 0.12499842E+03</pdfrwt>
<totfact> 0.99697154E+03</totfact>
</mgrwt>
</event>
<event>
 5    1  0.3227866E-002  0.1250004E+03  0.7818608E-02  0.1235069E+00
         -4   -1    0    0    0  501 -0.00000000000E+00  0.00000000000E+00  0.20830681229E+03  0.20831068371E+03  0.12700000000E+01 0. -1.
          4   -1    0    0  501    0  0.00000000000E+00 -0.00000000000E+00 -0.18726947855E+02  0.18769962066E+02  0.12700000000E+01 0. -1.
         25    2    1    2    0    0  0.00000000000E+00  0.00000000000E+00  0.18957986444E+03  0.22708064578E+03  0.12500037874E+03 0.  0.
    9000005    1    3    3    0    0  0.39472116611E+02 -0.39690728741E+02  0.14526086838E+03  0.15567633673E+03  0.10000000000E+01 0.  0.
    9000005    1    3    3    0    0 -0.39472116611E+02  0.39690728741E+02  0.44318996062E+02  0.71404309042E+02  0.10000000000E+01 0.  0.
<mgrwt>
<rscale>  0 0.12500038E+03</rscale>
<asrwt>0</asrwt>
<pdfrwt beam="2">  1        4 0.28846753E-02 0.12500038E+03</pdfrwt>
<pdfrwt beam="1">  1       -4 0.32050811E-01 0.12500038E+03</pdfrwt>
<totfact> 0.85759164E+03</totfact>
</mgrwt>
</event>
<event>
 5    1  0.3227866E-002  0.1250076E+03  0.7818608E-02  0.1235057E+00
          4   -1    0    0  501    0  0.00000000000E+00  0.00000000000E+00  0.43998694733E+02  0.44017019870E+02  0.12700000000E+01 0. -1.
         -4   -1    0    0    0  501 -0.00000000000E+00 -0.00000000000E+00 -0.88750482538E+02  0.88759568784E+02  0.12700000000E+01 0. -1.
         25    2    1    2    0    0  0.00000000000E+00  0.00000000000E+00 -0.44751787804E+02  0.13277658865E+03  0.12500759970E+03 0.  0.
    9000005    1    3    3    0    0  0.10341127405E+02 -0.40412456420E+02  0.27052461575E+02  0.49728676105E+02  0.10000000000E+01 0.  0.
    9000005    1    3    3    0    0 -0.10341127405E+02  0.40412456420E+02 -0.71804249379E+02  0.83047912549E+02  0.10000000000E+01 0.  0.
<mgrwt>
<rscale>  0 0.12500760E+03</rscale>
<asrwt>0</asrwt>
<pdfrwt beam="1">  1        4 0.67711385E-02 0.12500760E+03</pdfrwt>
<pdfrwt beam="2">  1       -4 0.13656029E-01 0.12500760E+03</pdfrwt>
<totfact> 0.10283387E+04</totfact>
</mgrwt>
</event>
<event>
 5    1  0.3227866E-002  0.1250192E+03  0.7818608E-02  0.1235039E+00
         -4   -1    0    0    0  501 -0.00000000000E+00  0.00000000000E+00  0.36464812017E+02  0.36486921156E+02  0.12700000000E+01 0.  1.
          4   -1    0    0  501    0  0.00000000000E+00 -0.00000000000E+00 -0.10709834851E+03  0.10710587824E+03  0.12700000000E+01 0.  1.
         25    2    1    2    0    0  0.00000000000E+00  0.00000000000E+00 -0.70633536488E+02  0.14359279939E+03  0.12501918077E+03 0.  0.
    9000005    1    3    3    0    0  0.34904109330E+02  0.30040509335E+02 -0.83852622251E+02  0.95671266886E+02  0.10000000000E+01 0.  0.
    9000005    1    3    3    0    0 -0.34904109330E+02 -0.30040509335E+02  0.13219085763E+02  0.47921532505E+02  0.10000000000E+01 0.  0.
<mgrwt>
<rscale>  0 0.12501918E+03</rscale>
<asrwt>0</asrwt>
<pdfrwt beam="2">  1        4 0.16478949E-01 0.12501918E+03</pdfrwt>
<pdfrwt beam="1">  1       -4 0.56122510E-02 0.12501918E+03</pdfrwt>
<totfact> 0.10055314E+04</totfact>
</mgrwt>
</event>
<event>
 5    1  0.3227866E-002  0.1250030E+03  0.7818608E-02  0.1235065E+00
          4   -1    0    0  501    0  0.00000000000E+00  0.00000000000E+00  0.19518558287E+01  0.23286565174E+01  0.12700000000E+01 0.  1.
         -4   -1    0    0    0  501 -0.00000000000E+00 -0.00000000000E+00 -0.18248422297E+04  0.18248426716E+04  0.12700000000E+01 0.  1.
         25    2    1    2    0    0  0.00000000000E+00  0.00000000000E+00 -0.18228903739E+04  0.18271713282E+04  0.12500298895E+03 0.  0.
    9000005    1    3    3    0    0 -0.51910105582E+02 -0.30367590589E+02 -0.11597570110E+04  0.11613157083E+04  0.10000000000E+01 0.  0.
    9000005    1    3    3    0    0  0.51910105582E+02  0.30367590589E+02 -0.66313336286E+03  0.66585561990E+03  0.10000000000E+01 0.  0.
<mgrwt>
<rscale>  0 0.12500299E+03</rscale>
<asrwt>0</asrwt>
<pdfrwt beam="1">  1        4 0.32930563E-03 0.12500299E+03</pdfrwt>
<pdfrwt beam="2">  1       -4 0.28077273E+00 0.12500299E+03</pdfrwt>
<totfact> 0.12288833E+03</totfact>
</mgrwt>
</event>
<event>
 5    1  0.3227866E-002  0.1249944E+03  0.7818608E-02  0.1235078E+00
         -4   -1    0    0    0  501 -0.00000000000E+00  0.00000000000E+00  0.41739920291E+03  0.41740113499E+03  0.12700000000E+01 0.  1.
          4   -1    0    0  501    0  0.00000000000E+00 -0.00000000000E+00 -0.93126584448E+01  0.93988567023E+01  0.12700000000E+01 0.  1.
         25    2    1    2    0    0  0.00000000000E+00  0.00000000000E+00  0.40808654446E+03  0.42679999169E+03  0.12499442041E+03 0.  0.
    9000005    1    3    3    0    0  0.40557557992E+02  0.11419553555E+01  0.41764657085E+02  0.58236639273E+02  0.10000000000E+01 0.  0.
    9000005    1    3    3    0    0 -0.40557557992E+02 -0.11419553555E+01  0.36632188738E+03  0.36856335242E+03  0.10000000000E+01 0.  0.
<mgrwt>
<rscale>  0 0.12499442E+03</rscale>
<asrwt>0</asrwt>
<pdfrwt beam="2">  1        4 0.14394960E-02 0.12499442E+03</pdfrwt>
<pdfrwt beam="1">  1       -4 0.64222039E-01 0.12499442E+03</pdfrwt>
<totfact> 0.62034759E+03</totfact>
</mgrwt>
</event>
<event>
 5    1  0.3227866E-002  0.1249993E+03  0.7818608E-02  0.1235070E+00
         -4   -1    0    0    0  501 -0.00000000000E+00  0.00000000000E+00  0.40414452866E+02  0.40434402437E+02  0.12700000000E+01 0. -1.
          4   -1    0    0  501    0  0.00000000000E+00 -0.00000000000E+00 -0.96605684070E+02  0.96614031562E+02  0.12700000000E+01 0. -1.
         25    2    1    2    0    0  0.00000000000E+00  0.00000000000E+00 -0.56191231204E+02  0.13704843400E+03  0.12499927519E+03 0.  0.
    9000005    1    3    3    0    0  0.29822968197E+02 -0.47511242264E+02  0.20995785594E+01  0.56143884829E+02  0.10000000000E+01 0.  0.
    9000005    1    3    3    0    0 -0.29822968197E+02  0.47511242264E+02 -0.58290809763E+02  0.80904549170E+02  0.10000000000E+01 0.  0.
<mgrwt>
<rscale>  0 0.12499928E+03</rscale>
<asrwt>0</asrwt>
<pdfrwt beam="2">  1        4 0.14864590E-01 0.12499928E+03</pdfrwt>
<pdfrwt beam="1">  1       -4 0.62197849E-02 0.12499928E+03</pdfrwt>
<totfact> 0.10195240E+04</totfact>
</mgrwt>
</event>
<event>
 5    1  0.3227866E-002  0.1249992E+03  0.7818608E-02  0.1235071E+00
         -4   -1    0    0    0  501 -0.00000000000E+00  0.00000000000E+00  0.43496231056E+01  0.45312383694E+01  0.12700000000E+01 0.  1.
          4   -1    0    0  501    0  0.00000000000E+00 -0.00000000000E+00 -0.87950701389E+03  0.87950793083E+03  0.12700000000E+01 0.  1.
         25    2    1    2    0    0  0.00000000000E+00  0.00000000000E+00 -0.87515739079E+03  0.88403916920E+03  0.12499917609E+03 0.  0.
    9000005    1    3    3    0    0  0.30270193493E+02 -0.83900786121E+01 -0.55506240015E+02  0.63785740678E+02  0.10000000000E+01 0.  0.
    9000005    1    3    3    0    0 -0.30270193493E+02  0.83900786121E+01 -0.81965115077E+03  0.82025342852E+03  0.10000000000E+01 0.  0.
<mgrwt>
<rscale>  0 0.12499918E+03</rscale>
<asrwt>0</asrwt>
<pdfrwt beam="2">  1        4 0.13532267E+00 0.12499918E+03</pdfrwt>
<pdfrwt beam="1">  1       -4 0.68321442E-03 0.12499918E+03</pdfrwt>
<totfact> 0.34774074E+03</totfact>
</mgrwt>
</event>
<event>
 5    1  0.3227866E-002  0.1250023E+03  0.7818608E-02  0.1235066E+00
          4   -1    0    0  501    0  0.00000000000E+00  0.00000000000E+00  0.99538677004E+02  0.99546778550E+02  0.12700000000E+01 0.  1.
         -4   -1    0    0    0  501 -0.00000000000E+00 -0.00000000000E+00 -0.39224999682E+02  0.39245553889E+02  0.12700000000E+01 0.  1.
         25    2    1    2    0    0  0.00000000000E+00  0.00000000000E+00  0.60313677322E+02  0.13879233244E+03  0.12500228747E+03 0.  0.
    9000005    1    3    3    0    0  0.28216595125E+02  0.43748402347E+02  0.68543901810E+02  0.86077670877E+02  0.10000000000E+01 0.  0.
    9000005    1    3    3    0    0 -0.28216595125E+02 -0.43748402347E+02 -0.82302244876E+01  0.52714661561E+02  0.10000000000E+01 0.  0.
<mgrwt>
<rscale>  0 0.12500229E+03</rscale>
<asrwt>0</asrwt>
<pdfrwt beam="1">  1        4 0.15315847E-01 0.12500229E+03</pdfrwt>
<pdfrwt beam="2">  1       -4 0.60368197E-02 0.12500229E+03</pdfrwt>
<totfact> 0.10158153E+04</totfact>
</mgrwt>
</event>
<event>
 5    1  0.3227866E-002  0.1250056E+03  0.7818608E-02  0.1235060E+00
          4   -1    0    0  501    0  0.00000000000E+00  0.00000000000E+00  0.46091672690E+02  0.46109166023E+02  0.12700000000E+01 0. -1.
         -4   -1    0    0    0  501 -0.00000000000E+00 -0.00000000000E+00 -0.84718886000E+02  0.84728404594E+02  0.12700000000E+01 0. -1.
         25    2    1    2    0    0  0.00000000000E+00  0.00000000000E+00 -0.38627213310E+02  0.13083757062E+03  0.12500563298E+03 0.  0.
    9000005    1    3    3    0    0 -0.62311391144E+02 -0.40519912564E+01 -0.21976711233E+02  0.66205014433E+02  0.10000000000E+01 0.  0.
    9000005    1    3    3    0    0  0.62311391144E+02  0.40519912564E+01 -0.16650502078E+02  0.64632556184E+02  0.10000000000E+01 0.  0.
<mgrwt>
<rscale>  0 0.12500563E+03</rscale>
<asrwt>0</asrwt>
<pdfrwt beam="1">  1        4 0.70931044E-02 0.12500563E+03</pdfrwt>
<pdfrwt beam="2">  1       -4 0.13035753E-01 0.12500563E+03</pdfrwt>
<totfact> 0.10325260E+04</totfact>
</mgrwt>
</event>
<event>
 5    1  0.3227866E-002  0.1249974E+03  0.7818608E-02  0.1235073E+00
          4   -1    0    0  501    0  0.00000000000E+00  0.00000000000E+00  0.32482486687E+02  0.32507304431E+02  0.12700000000E+01 0. -1.
         -4   -1    0    0    0  501 -0.00000000000E+00 -0.00000000000E+00 -0.12017803265E+03  0.12018474293E+03  0.12700000000E+01 0. -1.
         25    2    1    2    0    0  0.00000000000E+00  0.00000000000E+00 -0.87695545966E+02  0.15269204736E+03  0.12499741015E+03 0.  0.
    9000005    1    3    3    0    0 -0.10299089580E+02  0.13568327480E+02  0.29597625480E+02  0.34164165302E+02  0.10000000000E+01 0.  0.
    9000005    1    3    3    0    0  0.10299089580E+02 -0.13568327480E+02 -0.11729317145E+03  0.11852788206E+03  0.10000000000E+01 0.  0.
<mgrwt>
<rscale>  0 0.12499741E+03</rscale>
<asrwt>0</asrwt>
<pdfrwt beam="1">  1        4 0.49997309E-02 0.12499741E+03</pdfrwt>
<pdfrwt beam="2">  1       -4 0.18491353E-01 0.12499741E+03</pdfrwt>
<totfact> 0.98775516E+03</totfact>
</mgrwt>
</event>
<event>
 5    1  0.3227866E-002  0.1249964E+03  0.7818608E-02  0.1235075E+00
          4   -1    0    0  501    0  0.00000000000E+00  0.00000000000E+00  0.59843419801E+01  0.61176179134E+01  0.12700000000E+01 0. -1.
         -4   -1    0    0    0  501 -0.00000000000E+00 -0.00000000000E+00 -0.64538598226E+03  0.64538723182E+03  0.12700000000E+01 0. -1.
         25    2    1    2    0    0  0.00000000000E+00  0.00000000000E+00 -0.63940164028E+03  0.65150484974E+03  0.12499644649E+03 0.  0.
    9000005    1    3    3    0    0 -0.30354798346E+02  0.33496398468E+02 -0.54458753644E+03  0.54646135027E+03  0.10000000000E+01 0.  0.
    9000005    1    3    3    0    0  0.30354798346E+02 -0.33496398468E+02 -0.94814103844E+02  0.10504349947E+03  0.10000000000E+01 0.  0.
<mgrwt>
<rscale>  0 0.12499645E+03</rscale>
<asrwt>0</asrwt>
<pdfrwt beam="1">  1        4 0.93101662E-03 0.12499645E+03</pdfrwt>
<pdfrwt beam="2">  1       -4 0.99300445E-01 0.12499645E+03</pdfrwt>
<totfact> 0.45773300E+03</totfact>
</mgrwt>
</event>
<event>
 5    1  0.3227866E-002  0.1250010E+03  0.7818608E-02  0.1235068E+00
         -4   -1    0    0    0  501 -0.00000000000E+00  0.00000000000E+00  0.12929258908E+02  0.12991483207E+02  0.12700000000E+01 0.  1.
          4   -1    0    0  501    0  0.00000000000E+00 -0.00000000000E+00 -0.30134060435E+03  0.30134328055E+03  0.12700000000E+01 0.  1.
         25    2    1    2    0    0  0.00000000000E+00  0.00000000000E+00 -0.28841134545E+03  0.31433476376E+03  0.12500095809E+03 0.  0.
    9000005    1    3    3    0    0 -0.17910857042E+02  0.43098572838E+02 -0.24870855568E+03  0.25305183550E+03  0.10000000000E+01 0.  0.
    9000005    1    3    3    0    0  0.17910857042E+02 -0.43098572838E+02 -0.39702789764E+02  0.61282928257E+02  0.10000000000E+01 0.  0.
<mgrwt>
<rscale>  0 0.12500096E+03</rscale>
<asrwt>0</asrwt>
<pdfrwt beam="2">  1        4 0.46365080E-01 0.12500096E+03</pdfrwt>
<pdfrwt beam="1">  1       -4 0.19941093E-02 0.12500096E+03</pdfrwt>
<totfact> 0.73833469E+03</totfact>
</mgrwt>
</event>
<event>
 5    1  0.3227866E-002  0.1249986E+03  0.7818608E-02  0.1235072E+00
          4   -1    0    0  501    0  0.00000000000E+00  0.00000000000E+00  0.23222827712E+03  0.23223174975E+03  0.12700000000E+01 0.  1.
         -4   -1    0    0    0  501 -0.00000000000E+00 -0.00000000000E+00 -0.16792771152E+02  0.16840726319E+02  0.12700000000E+01 0.  1.
         25    2    1    2    0    0  0.00000000000E+00  0.00000000000E+00  0.21543550596E+03  0.24907247607E+03  0.12499856441E+03 0.  0.
    9000005    1    3    3    0    0 -0.47542919872E+02  0.25881625472E+02  0.16993587498E+03  0.17835186955E+03  0.10000000000E+01 0.  0.
    9000005    1    3    3    0    0  0.47542919872E+02 -0.25881625472E+02  0.45499630988E+02  0.70720606523E+02  0.10000000000E+01 0.  0.
<mgrwt>
<rscale>  0 0.12499856E+03</rscale>
<asrwt>0</asrwt>
<pdfrwt beam="1">  1        4 0.35731381E-01 0.12499856E+03</pdfrwt>
<pdfrwt beam="2">  1       -4 0.25874594E-02 0.12499856E+03</pdfrwt>
<totfact> 0.82467107E+03</totfact>
</mgrwt>
</event>
<event>
 5    1  0.3227866E-002  0.1250012E+03  0.7818608E-02  0.1235067E+00
         -4   -1    0    0    0  501 -0.00000000000E+00  0.00000000000E+00  0.22253351161E+02  0.22289561187E+02  0.12700000000E+01 0.  1.
          4   -1    0    0  501    0  0.00000000000E+00 -0.00000000000E+00 -0.17535743369E+03  0.17536203252E+03  0.12700000000E+01 0.  1.
         25    2    1    2    0    0  0.00000000000E+00  0.00000000000E+00 -0.15310408253E+03  0.19765159371E+03  0.12500116963E+03 0.  0.
    9000005    1    3    3    0    0  0.51092043550E+02 -0.35954204897E+02 -0.74195399400E+02  0.97000304412E+02  0.10000000000E+01 0.  0.
    9000005    1    3    3    0    0 -0.51092043550E+02  0.35954204897E+02 -0.78908683130E+02  0.10065128930E+03  0.10000000000E+01 0.  0.
<mgrwt>
<rscale>  0 0.12500117E+03</rscale>
<asrwt>0</asrwt>
<pdfrwt beam="2">  1        4 0.26981205E-01 0.12500117E+03</pdfrwt>
<pdfrwt beam="1">  1       -4 0.34267317E-02 0.12500117E+03</pdfrwt>
<totfact> 0.90530373E+03</totfact>
</mgrwt>
</event>
<event>
 5    1  0.3227866E-002  0.1250043E+03  0.7818608E-02  0.1235063E+00
         -4   -1    0    0    0  501 -0.00000000000E+00  0.00000000000E+00  0.31939065154E+02  0.31964304825E+02  0.12700000000E+01 0.  1.
          4   -1    0    0  501    0  0.00000000000E+00 -0.00000000000E+00 -0.12223470666E+03  0.12224130404E+03  0.12700000000E+01 0.  1.
         25    2    1    2    0    0  0.00000000000E+00  0.00000000000E+00 -0.90295641510E+02  0.15420560886E+03  0.12500426764E+03 0.  0.
    9000005    1    3    3    0    0  0.59517090182E+02 -0.18992511621E+02 -0.47105020463E+02  0.78248849667E+02  0.10000000000E+01 0.  0.
    9000005    1    3    3    0    0 -0.59517090182E+02  0.18992511621E+02 -0.43190621047E+02  0.75956759197E+02  0.10000000000E+01 0.  0.
<mgrwt>
<rscale>  0 0.12500427E+03</rscale>
<asrwt>0</asrwt>
<pdfrwt beam="2">  1        4 0.18807788E-01 0.12500427E+03</pdfrwt>
<pdfrwt beam="1">  1       -4 0.49161514E-02 0.12500427E+03</pdfrwt>
<totfact> 0.98462222E+03</totfact>
</mgrwt>
</event>
<event>
 5    1  0.3227866E-002  0.1249959E+03  0.7818608E-02  0.1235076E+00
         -4   -1    0    0    0  501 -0.00000000000E+00  0.00000000000E+00  0.17510781100E+02  0.17556775180E+02  0.12700000000E+01 0.  1.
          4   -1    0    0  501    0  0.00000000000E+00 -0.00000000000E+00 -0.22272174651E+03  0.22272536736E+03  0.12700000000E+01 0.  1.
         25    2    1    2    0    0  0.00000000000E+00  0.00000000000E+00 -0.20521096541E+03  0.24028214254E+03  0.12499587074E+03 0.  0.
    9000005    1    3    3    0    0 -0.95298893015E+01  0.24024686540E+02  0.67640472333E+01  0.26734933858E+02  0.10000000000E+01 0.  0.
    9000005    1    3    3    0    0  0.95298893015E+01 -0.24024686540E+02 -0.21197501264E+03  0.21354720869E+03  0.10000000000E+01 0.  0.
<mgrwt>
<rscale>  0 0.12499587E+03</rscale>
<asrwt>0</asrwt>
<pdfrwt beam="2">  1        4 0.34268699E-01 0.12499587E+03</pdfrwt>
<pdfrwt beam="1">  1       -4 0.26977830E-02 0.12499587E+03</pdfrwt>
<totfact> 0.83763077E+03</totfact>
</mgrwt>
</event>
<event>
 5    1  0.3227866E-002  0.1250001E+03  0.7818608E-02  0.1235069E+00
         -4   -1    0    0    0  501 -0.00000000000E+00  0.00000000000E+00  0.48509408369E+02  0.48526030131E+02  0.12700000000E+01 0.  1.
          4   -1    0    0  501    0  0.00000000000E+00 -0.00000000000E+00 -0.80490292624E+02  0.80500311221E+02  0.12700000000E+01 0.  1.
         25    2    1    2    0    0  0.00000000000E+00  0.00000000000E+00 -0.31980884255E+02  0.12902634135E+03  0.12500007922E+03 0.  0.
    9000005    1    3    3    0    0  0.25534786121E+02  0.21667033408E+02  0.38470445565E+02  0.51014319764E+02  0.10000000000E+01 0.  0.
    9000005    1    3    3    0    0 -0.25534786121E+02 -0.21667033408E+02 -0.70451329820E+02  0.78012021589E+02  0.10000000000E+01 0.  0.
<mgrwt>
<rscale>  0 0.12500008E+03</rscale>
<asrwt>0</asrwt>
<pdfrwt beam="2">  1        4 0.12385171E-01 0.12500008E+03</pdfrwt>
<pdfrwt beam="1">  1       -4 0.74650352E-02 0.12500008E+03</pdfrwt>
<totfact> 0.10365362E+04</totfact>
</mgrwt>
</event>
<event>
 5    1  0.3227866E-002  0.1250016E+03  0.7818608E-02  0.1235067E+00
         -4   -1    0    0    0  501 -0.00000000000E+00  0.00000000000E+00  0.13881563715E+02  0.13939537696E+02  0.12700000000E+01 0. -1.
          4   -1    0    0  501    0  0.00000000000E+00 -0.00000000000E+00 -0.28075985967E+03  0.28076273203E+03  0.12700000000E+01 0. -1.
         25    2    1    2    0    0  0.00000000000E+00  0.00000000000E+00 -0.26687829595E+03  0.29470226973E+03  0.12500161173E+03 0.  0.
    9000005    1    3    3    0    0  0.56292052846E+02  0.18455135114E+01 -0.19727492792E+03  0.20515993352E+03  0.10000000000E+01 0.  0.
    9000005    1    3    3    0    0 -0.56292052846E+02 -0.18455135114E+01 -0.69603368026E+02  0.89542336212E+02  0.10000000000E+01 0.  0.
<mgrwt>
<rscale>  0 0.12500161E+03</rscale>
<asrwt>0</asrwt>
<pdfrwt beam="2">  1        4 0.43198501E-01 0.12500161E+03</pdfrwt>
<pdfrwt beam="1">  1       -4 0.21403059E-02 0.12500161E+03</pdfrwt>
<totfact> 0.76265490E+03</totfact>
</mgrwt>
</event>
<event>
 5    1  0.3227866E-002  0.1249989E+03  0.7818608E-02  0.1235071E+00
         -4   -1    0    0    0  501 -0.00000000000E+00  0.00000000000E+00  0.54407719390E+01  0.55870295589E+01  0.12700000000E+01 0. -1.
          4   -1    0    0  501    0  0.00000000000E+00 -0.00000000000E+00 -0.70827781251E+03  0.70827895112E+03  0.12700000000E+01 0. -1.
         25    2    1    2    0    0  0.00000000000E+00  0.00000000000E+00 -0.70283704057E+03  0.71386598068E+03  0.12499893106E+03 0.  0.
    9000005    1    3    3    0    0  0.15717760793E+02  0.40960634888E+02 -0.60556414227E+03  0.60715216545E+03  0.10000000000E+01 0.  0.
    9000005    1    3    3    0    0 -0.15717760793E+02 -0.40960634888E+02 -0.97272898307E+02  0.10671381522E+03  0.10000000000E+01 0.  0.
<mgrwt>
<rscale>  0 0.12499893E+03</rscale>
<asrwt>0</asrwt>
<pdfrwt beam="2">  1        4 0.10897708E+00 0.12499893E+03</pdfrwt>
<pdfrwt beam="1">  1       -4 0.84838057E-03 0.12499893E+03</pdfrwt>
<totfact> 0.42365782E+03</totfact>
</mgrwt>
</event>
<event>
 5    1  0.3227866E-002  0.1250076E+03  0.7818608E-02  0.1235057E+00
          4   -1    0    0  501    0  0.00000000000E+00  0.00000000000E+00  0.81387853806E+02  0.81397761930E+02  0.12700000000E+01 0. -1.
         -4   -1    0    0    0  501 -0.00000000000E+00 -0.00000000000E+00 -0.47980127868E+02  0.47996932926E+02  0.12700000000E+01 0. -1.
         25    2    1    2    0    0  0.00000000000E+00  0.00000000000E+00  0.33407725937E+02  0.12939469486E+03  0.12500764338E+03 0.  0.
    9000005    1    3    3    0    0 -0.35267801757E+02 -0.10519707154E+02 -0.35578600305E+02  0.51198817165E+02  0.10000000000E+01 0.  0.
    9000005    1    3    3    0    0  0.35267801757E+02  0.10519707154E+02  0.68986326243E+02  0.78195877691E+02  0.10000000000E+01 0.  0.
<mgrwt>
<rscale>  0 0.12500764E+03</rscale>
<asrwt>0</asrwt>
<pdfrwt beam="1">  1        4 0.12523263E-01 0.12500764E+03</pdfrwt>
<pdfrwt beam="2">  1       -4 0.73836131E-02 0.12500764E+03</pdfrwt>
<totfact> 0.10355686E+04</totfact>
</mgrwt>
</event>
<event>
 5    1  0.3227866E-002  0.1249990E+03  0.7818608E-02  0.1235071E+00
          4   -1    0    0  501    0  0.00000000000E+00  0.00000000000E+00  0.35051870093E+02  0.35074869879E+02  0.12700000000E+01 0. -1.
         -4   -1    0    0    0  501 -0.00000000000E+00 -0.00000000000E+00 -0.11137700309E+03  0.11138424358E+03  0.12700000000E+01 0. -1.
         25    2    1    2    0    0  0.00000000000E+00  0.00000000000E+00 -0.76325132998E+02  0.14645911346E+03  0.12499898395E+03 0.  0.
    9000005    1    3    3    0    0 -0.51992989394E+02  0.23075518873E+02 -0.78470869050E+01  0.57431065551E+02  0.10000000000E+01 0.  0.
    9000005    1    3    3    0    0  0.51992989394E+02 -0.23075518873E+02 -0.68478046093E+02  0.89028047907E+02  0.10000000000E+01 0.  0.
<mgrwt>
<rscale>  0 0.12499898E+03</rscale>
<asrwt>0</asrwt>
<pdfrwt beam="1">  1        4 0.53949216E-02 0.12499898E+03</pdfrwt>
<pdfrwt beam="2">  1       -4 0.17137250E-01 0.12499898E+03</pdfrwt>
<totfact> 0.10001655E+04</totfact>
</mgrwt>
</event>
<event>
 5    1  0.3227866E-002  0.1249996E+03  0.7818608E-02  0.1235070E+00
          4   -1    0    0  501    0  0.00000000000E+00  0.00000000000E+00  0.84953160467E+03  0.84953255396E+03  0.12700000000E+01 0.  1.
         -4   -1    0    0    0  501 -0.00000000000E+00 -0.00000000000E+00 -0.45094312218E+01  0.46848553814E+01  0.12700000000E+01 0.  1.
         25    2    1    2    0    0  0.00000000000E+00  0.00000000000E+00  0.84502217345E+03  0.85421740934E+03  0.12499963519E+03 0.  0.
    9000005    1    3    3    0    0  0.51458765505E+02 -0.23535234761E+02  0.24127915100E+03  0.24782764279E+03  0.10000000000E+01 0.  0.
    9000005    1    3    3    0    0 -0.51458765505E+02  0.23535234761E+02  0.60374302245E+03  0.60638976655E+03  0.10000000000E+01 0.  0.
<mgrwt>
<rscale>  0 0.12499964E+03</rscale>
<asrwt>0</asrwt>
<pdfrwt beam="1">  1        4 0.13071090E+00 0.12499964E+03</pdfrwt>
<pdfrwt beam="2">  1       -4 0.70732497E-03 0.12499964E+03</pdfrwt>
<totfact> 0.35955605E+03</totfact>
</mgrwt>
</event>
<event>
 5    1  0.3227866E-002  0.1250220E+03  0.7818608E-02  0.1235035E+00
         -4   -1    0    0    0  501 -0.00000000000E+00  0.00000000000E+00  0.67915246238E+03  0.67915364982E+03  0.12700000000E+01 0. -1.
          4   -1    0    0  501    0  0.00000000000E+00 -0.00000000000E+00 -0.56823915678E+01  0.58225830977E+01  0.12700000000E+01 0. -1.
         25    2    1    2    0    0  0.00000000000E+00  0.00000000000E+00  0.67347007082E+03  0.68497623292E+03  0.12502201156E+03 0.  0.
    9000005    1    3    3    0    0  0.90658343510E+01 -0.52076601032E+02  0.51947436450E+03  0.52215780861E+03  0.10000000000E+01 0.  0.
    9000005    1    3    3    0    0 -0.90658343510E+01  0.52076601032E+02  0.15399570632E+03  0.16281842430E+03  0.10000000000E+01 0.  0.
<mgrwt>
<rscale>  0 0.12502201E+03</rscale>
<asrwt>0</asrwt>
<pdfrwt beam="2">  1        4 0.88508945E-03 0.12502201E+03</pdfrwt>
<pdfrwt beam="1">  1       -4 0.10449586E+00 0.12502201E+03</pdfrwt>
<totfact> 0.43870600E+03</totfact>
</mgrwt>
</event>
<event>
 5    1  0.3227866E-002  0.1249960E+03  0.7818608E-02  0.1235076E+00
         -4   -1    0    0    0  501 -0.00000000000E+00  0.00000000000E+00  0.19610123037E+03  0.19610534274E+03  0.12700000000E+01 0. -1.
          4   -1    0    0  501    0  0.00000000000E+00 -0.00000000000E+00 -0.19893716735E+02  0.19934213442E+02  0.12700000000E+01 0. -1.
         25    2    1    2    0    0  0.00000000000E+00  0.00000000000E+00  0.17620751363E+03  0.21603955618E+03  0.12499600784E+03 0.  0.
    9000005    1    3    3    0    0 -0.27856712252E+02  0.21163174909E+02 -0.13905878858E+01  0.35025849375E+02  0.10000000000E+01 0.  0.
    9000005    1    3    3    0    0  0.27856712252E+02 -0.21163174909E+02  0.17759810152E+03  0.18101370681E+03  0.10000000000E+01 0.  0.
<mgrwt>
<rscale>  0 0.12499601E+03</rscale>
<asrwt>0</asrwt>
<pdfrwt beam="2">  1        4 0.30640033E-02 0.12499601E+03</pdfrwt>
<pdfrwt beam="1">  1       -4 0.30172851E-01 0.12499601E+03</pdfrwt>
<totfact> 0.87506749E+03</totfact>
</mgrwt>
</event>
<event>
 5    1  0.3227866E-002  0.1249993E+03  0.7818608E-02  0.1235070E+00
         -4   -1    0    0    0  501 -0.00000000000E+00  0.00000000000E+00  0.38727411123E+02  0.38748229280E+02  0.12700000000E+01 0. -1.
          4   -1    0    0  501    0  0.00000000000E+00 -0.00000000000E+00 -0.10081222047E+03  0.10082021968E+03  0.12700000000E+01 0. -1.
         25    2    1    2    0    0  0.00000000000E+00  0.00000000000E+00 -0.62084809345E+02  0.13956844896E+03  0.12499931357E+03 0.  0.
    9000005    1    3    3    0    0 -0.12289399710E+02  0.61268179714E+02 -0.31737819136E+02  0.70093568565E+02  0.10000000000E+01 0.  0.
    9000005    1    3    3    0    0  0.12289399710E+02 -0.61268179714E+02 -0.30346990208E+02  0.69474880391E+02  0.10000000000E+01 0.  0.
<mgrwt>
<rscale>  0 0.12499931E+03</rscale>
<asrwt>0</asrwt>
<pdfrwt beam="2">  1        4 0.15511789E-01 0.12499931E+03</pdfrwt>
<pdfrwt beam="1">  1       -4 0.59602800E-02 0.12499931E+03</pdfrwt>
<totfact> 0.10142695E+04</totfact>
</mgrwt>
</event>
<event>
 5    1  0.3227866E-002  0.1250297E+03  0.7818608E-02  0.1235023E+00
         -4   -1    0    0    0  501 -0.00000000000E+00  0.00000000000E+00  0.19198139290E+02  0.19240100108E+02  0.12700000000E+01 0.  1.
          4   -1    0    0  501    0  0.00000000000E+00 -0.00000000000E+00 -0.20330075031E+03  0.20330471706E+03  0.12700000000E+01 0.  1.
         25    2    1    2    0    0  0.00000000000E+00  0.00000000000E+00 -0.18410261102E+03  0.22254481717E+03  0.12502969352E+03 0.  0.
    9000005    1    3    3    0    0 -0.21524950000E+02  0.58682717934E+02 -0.92670991130E+02  0.11178505022E+03  0.10000000000E+01 0.  0.
    9000005    1    3    3    0    0  0.21524950000E+02 -0.58682717934E+02 -0.91431619893E+02  0.11075976694E+03  0.10000000000E+01 0.  0.
<mgrwt>
<rscale>  0 0.12502969E+03</rscale>
<asrwt>0</asrwt>
<pdfrwt beam="2">  1        4 0.31280570E-01 0.12502969E+03</pdfrwt>
<pdfrwt beam="1">  1       -4 0.29570929E-02 0.12502969E+03</pdfrwt>
<totfact> 0.86409950E+03</totfact>
</mgrwt>
</event>
<event>
 5    1  0.3227866E-002  0.1249992E+03  0.7818608E-02  0.1235071E+00
          4   -1    0    0  501    0  0.00000000000E+00  0.00000000000E+00  0.17085247791E+02  0.17132384308E+02  0.12700000000E+01 0. -1.
         -4   -1    0    0    0  501 -0.00000000000E+00 -0.00000000000E+00 -0.22826612330E+03  0.22826965621E+03  0.12700000000E+01 0. -1.
         25    2    1    2    0    0  0.00000000000E+00  0.00000000000E+00 -0.21118087551E+03  0.24540204051E+03  0.12499919723E+03 0.  0.
    9000005    1    3    3    0    0  0.40146776656E+02  0.32579431595E+02 -0.17449996312E+03  0.18200115430E+03  0.10000000000E+01 0.  0.
    9000005    1    3    3    0    0 -0.40146776656E+02 -0.32579431595E+02 -0.36680912387E+02  0.63400886212E+02  0.10000000000E+01 0.  0.
<mgrwt>
<rscale>  0 0.12499920E+03</rscale>
<asrwt>0</asrwt>
<pdfrwt beam="1">  1        4 0.26323975E-02 0.12499920E+03</pdfrwt>
<pdfrwt beam="2">  1       -4 0.35121761E-01 0.12499920E+03</pdfrwt>
<totfact> 0.83000836E+03</totfact>
</mgrwt>
</event>
<event>
 5    1  0.3227866E-002  0.1250002E+03  0.7818608E-02  0.1235069E+00
          4   -1    0    0  501    0  0.00000000000E+00  0.00000000000E+00  0.14334270980E+03  0.14334833572E+03  0.12700000000E+01 0. -1.
         -4   -1    0    0    0  501 -0.00000000000E+00 -0.00000000000E+00 -0.27230254545E+02  0.27259854412E+02  0.12700000000E+01 0. -1.
         25    2    1    2    0    0  0.00000000000E+00  0.00000000000E+00  0.11611245526E+03  0.17060819013E+03  0.12500020910E+03 0.  0.
    9000005    1    3    3    0    0 -0.21016204317E+02 -0.57791273676E+02  0.42873026687E+02  0.74970718112E+02  0.10000000000E+01 0.  0.
    9000005    1    3    3    0    0  0.21016204317E+02  0.57791273676E+02  0.73239428569E+02  0.95637472018E+02  0.10000000000E+01 0.  0.
<mgrwt>
<rscale>  0 0.12500021E+03</rscale>
<asrwt>0</asrwt>
<pdfrwt beam="1">  1        4 0.22055434E-01 0.12500021E+03</pdfrwt>
<pdfrwt beam="2">  1       -4 0.41919796E-02 0.12500021E+03</pdfrwt>
<totfact> 0.95334952E+03</totfact>
</mgrwt>
</event>
<event>
 5    1  0.3227866E-002  0.1249975E+03  0.7818608E-02  0.1235073E+00
          4   -1    0    0  501    0  0.00000000000E+00  0.00000000000E+00  0.17045710973E+03  0.17046184077E+03  0.12700000000E+01 0.  1.
         -4   -1    0    0    0  501 -0.00000000000E+00 -0.00000000000E+00 -0.22892747164E+02  0.22927947416E+02  0.12700000000E+01 0.  1.
         25    2    1    2    0    0  0.00000000000E+00  0.00000000000E+00  0.14756436257E+03  0.19338978818E+03  0.12499747627E+03 0.  0.
    9000005    1    3    3    0    0 -0.47677026854E+02 -0.39379914783E+02  0.59839308542E+02  0.86055908714E+02  0.10000000000E+01 0.  0.
    9000005    1    3    3    0    0  0.47677026854E+02  0.39379914783E+02  0.87725054026E+02  0.10733387947E+03  0.10000000000E+01 0.  0.
<mgrwt>
<rscale>  0 0.12499748E+03</rscale>
<asrwt>0</asrwt>
<pdfrwt beam="1">  1        4 0.26227242E-01 0.12499748E+03</pdfrwt>
<pdfrwt beam="2">  1       -4 0.35250328E-02 0.12499748E+03</pdfrwt>
<totfact> 0.91265983E+03</totfact>
</mgrwt>
</event>
<event>
 5    1  0.3227866E-002  0.1250002E+03  0.7818608E-02  0.1235069E+00
         -4   -1    0    0    0  501 -0.00000000000E+00  0.00000000000E+00  0.31376559523E+02  0.31402251312E+02  0.12700000000E+01 0. -1.
          4   -1    0    0  501    0  0.00000000000E+00 -0.00000000000E+00 -0.12441639468E+03  0.12442287638E+03  0.12700000000E+01 0. -1.
         25    2    1    2    0    0  0.00000000000E+00  0.00000000000E+00 -0.93039835162E+02  0.15582512769E+03  0.12500023797E+03 0.  0.
    9000005    1    3    3    0    0 -0.17712943707E+02 -0.58787122835E+02 -0.61035737860E+02  0.86579648198E+02  0.10000000000E+01 0.  0.
    9000005    1    3    3    0    0  0.17712943707E+02  0.58787122835E+02 -0.32004097302E+02  0.69245479492E+02  0.10000000000E+01 0.  0.
<mgrwt>
<rscale>  0 0.12500024E+03</rscale>
<asrwt>0</asrwt>
<pdfrwt beam="2">  1        4 0.19143458E-01 0.12500024E+03</pdfrwt>
<pdfrwt beam="1">  1       -4 0.48296380E-02 0.12500024E+03</pdfrwt>
<totfact> 0.98153234E+03</totfact>
</mgrwt>
</event>
<event>
 5    1  0.3227866E-002  0.1250066E+03  0.7818608E-02  0.1235059E+00
          4   -1    0    0  501    0  0.00000000000E+00  0.00000000000E+00  0.25396039581E+03  0.25396357129E+03  0.12700000000E+01 0. -1.
         -4   -1    0    0    0  501 -0.00000000000E+00 -0.00000000000E+00 -0.15353476051E+02  0.15405912075E+02  0.12700000000E+01 0. -1.
         25    2    1    2    0    0  0.00000000000E+00  0.00000000000E+00  0.23860691976E+03  0.26936948336E+03  0.12500662546E+03 0.  0.
    9000005    1    3    3    0    0 -0.45666472365E+02 -0.27098887055E+02  0.48295371105E+02  0.71785926532E+02  0.10000000000E+01 0.  0.
    9000005    1    3    3    0    0  0.45666472365E+02  0.27098887055E+02  0.19031154865E+03  0.19758355683E+03  0.10000000000E+01 0.  0.
<mgrwt>
<rscale>  0 0.12500663E+03</rscale>
<asrwt>0</asrwt>
<pdfrwt beam="1">  1        4 0.39075108E-01 0.12500663E+03</pdfrwt>
<pdfrwt beam="2">  1       -4 0.23663511E-02 0.12500663E+03</pdfrwt>
<totfact> 0.79597173E+03</totfact>
</mgrwt>
</event>
<event>
 5    1  0.3227866E-002  0.1250012E+03  0.7818608E-02  0.1235067E+00
         -4   -1    0    0    0  501 -0.00000000000E+00  0.00000000000E+00  0.14725392351E+03  0.14725940000E+03  0.12700000000E+01 0.  1.
          4   -1    0    0  501    0  0.00000000000E+00 -0.00000000000E+00 -0.26506651996E+02  0.26537058994E+02  0.12700000000E+01 0.  1.
         25    2    1    2    0    0  0.00000000000E+00  0.00000000000E+00  0.12074727151E+03  0.17379645900E+03  0.12500122232E+03 0.  0.
    9000005    1    3    3    0    0  0.61591888126E+02  0.54768952877E+01  0.72946142725E+02  0.95633136534E+02  0.10000000000E+01 0.  0.
    9000005    1    3    3    0    0 -0.61591888126E+02 -0.54768952877E+01  0.47801128788E+02  0.78163322462E+02  0.10000000000E+01 0.  0.
<mgrwt>
<rscale>  0 0.12500122E+03</rscale>
<asrwt>0</asrwt>
<pdfrwt beam="2">  1        4 0.40807067E-02 0.12500122E+03</pdfrwt>
<pdfrwt beam="1">  1       -4 0.22657210E-01 0.12500122E+03</pdfrwt>
<totfact> 0.94743131E+03</totfact>
</mgrwt>
</event>
<event>
 5    1  0.3227866E-002  0.1249998E+03  0.7818608E-02  0.1235070E+00
         -4   -1    0    0    0  501 -0.00000000000E+00  0.00000000000E+00  0.10648314124E+02  0.10723781687E+02  0.12700000000E+01 0. -1.
          4   -1    0    0  501    0  0.00000000000E+00 -0.00000000000E+00 -0.36546928628E+03  0.36547149289E+03  0.12700000000E+01 0. -1.
         25    2    1    2    0    0  0.00000000000E+00  0.00000000000E+00 -0.35482097216E+03  0.37619527458E+03  0.12499984932E+03 0.  0.
    9000005    1    3    3    0    0  0.39105948150E+02 -0.11342569449E+02 -0.34739558253E+02  0.53532849448E+02  0.10000000000E+01 0.  0.
    9000005    1    3    3    0    0 -0.39105948150E+02  0.11342569449E+02 -0.32008141390E+03  0.32266242513E+03  0.10000000000E+01 0.  0.
<mgrwt>
<rscale>  0 0.12499985E+03</rscale>
<asrwt>0</asrwt>
<pdfrwt beam="2">  1        4 0.56232009E-01 0.12499985E+03</pdfrwt>
<pdfrwt beam="1">  1       -4 0.16441774E-02 0.12499985E+03</pdfrwt>
<totfact> 0.66935965E+03</totfact>
</mgrwt>
</event>
<event>
 5    1  0.3227866E-002  0.1249991E+03  0.7818608E-02  0.1235071E+00
          4   -1    0    0  501    0  0.00000000000E+00  0.00000000000E+00  0.33499744923E+02  0.33523809598E+02  0.12700000000E+01 0. -1.
         -4   -1    0    0    0  501 -0.00000000000E+00 -0.00000000000E+00 -0.11653428041E+03  0.11654120048E+03  0.12700000000E+01 0. -1.
         25    2    1    2    0    0  0.00000000000E+00  0.00000000000E+00 -0.83034535486E+02  0.15006501008E+03  0.12499909267E+03 0.  0.
    9000005    1    3    3    0    0  0.39023388906E+01  0.30763074786E+02 -0.10665188280E+03  0.11107303509E+03  0.10000000000E+01 0.  0.
    9000005    1    3    3    0    0 -0.39023388906E+01 -0.30763074786E+02  0.23617347319E+02  0.38991974989E+02  0.10000000000E+01 0.  0.
<mgrwt>
<rscale>  0 0.12499909E+03</rscale>
<asrwt>0</asrwt>
<pdfrwt beam="1">  1        4 0.51561904E-02 0.12499909E+03</pdfrwt>
<pdfrwt beam="2">  1       -4 0.17930734E-01 0.12499909E+03</pdfrwt>
<totfact> 0.99292768E+03</totfact>
</mgrwt>
</event>
<event>
 5    1  0.3227866E-002  0.1250019E+03  0.7818608E-02  0.1235066E+00
          4   -1    0    0  501    0  0.00000000000E+00  0.00000000000E+00  0.13951760655E+03  0.13952338670E+03  0.12700000000E+01 0.  1.
         -4   -1    0    0    0  501 -0.00000000000E+00 -0.00000000000E+00 -0.27978341654E+02  0.28007150903E+02  0.12700000000E+01 0.  1.
         25    2    1    2    0    0  0.00000000000E+00  0.00000000000E+00  0.11153926489E+03  0.16753053760E+03  0.12500189365E+03 0.  0.
    9000005    1    3    3    0    0  0.30705316679E+02  0.34144857501E+02  0.11257806778E+03  0.12158745458E+03  0.10000000000E+01 0.  0.
    9000005    1    3    3    0    0 -0.30705316679E+02 -0.34144857501E+02 -0.10388028902E+01  0.45943083022E+02  0.10000000000E+01 0.  0.
<mgrwt>
<rscale>  0 0.12500189E+03</rscale>
<asrwt>0</asrwt>
<pdfrwt beam="1">  1        4 0.21466908E-01 0.12500189E+03</pdfrwt>
<pdfrwt beam="2">  1       -4 0.43070209E-02 0.12500189E+03</pdfrwt>
<totfact> 0.95906204E+03</totfact>
</mgrwt>
</event>
<event>
 5    1  0.3227866E-002  0.1249985E+03  0.7818608E-02  0.1235072E+00
          4   -1    0    0  501    0  0.00000000000E+00  0.00000000000E+00  0.17778337281E+03  0.17778790889E+03  0.12700000000E+01 0. -1.
         -4   -1    0    0    0  501 -0.00000000000E+00 -0.00000000000E+00 -0.21948264144E+02  0.21984976664E+02  0.12700000000E+01 0. -1.
         25    2    1    2    0    0  0.00000000000E+00  0.00000000000E+00  0.15583510867E+03  0.19977288556E+03  0.12499849883E+03 0.  0.
    9000005    1    3    3    0    0 -0.94314351065E+01  0.42334316728E+02  0.14981907156E+03  0.15597403805E+03  0.10000000000E+01 0.  0.
    9000005    1    3    3    0    0  0.94314351065E+01 -0.42334316728E+02  0.60160371098E+01  0.43798847513E+02  0.10000000000E+01 0.  0.
<mgrwt>
<rscale>  0 0.12499850E+03</rscale>
<asrwt>0</asrwt>
<pdfrwt beam="1">  1        4 0.27354461E-01 0.12499850E+03</pdfrwt>
<pdfrwt beam="2">  1       -4 0.33798290E-02 0.12499850E+03</pdfrwt>
<totfact> 0.90176854E+03</totfact>
</mgrwt>
</event>
<event>
 5    1  0.3227866E-002  0.1249997E+03  0.7818608E-02  0.1235070E+00
         -4   -1    0    0    0  501 -0.00000000000E+00  0.00000000000E+00  0.31008489072E+03  0.31008749145E+03  0.12700000000E+01 0. -1.
          4   -1    0    0  501    0  0.00000000000E+00 -0.00000000000E+00 -0.12562631941E+02  0.12626663109E+02  0.12700000000E+01 0. -1.
         25    2    1    2    0    0  0.00000000000E+00  0.00000000000E+00  0.29752225878E+03  0.32271415456E+03  0.12499972433E+03 0.  0.
    9000005    1    3    3    0    0  0.52078276503E+02  0.24254990855E+02  0.21225154037E+03  0.21989126371E+03  0.10000000000E+01 0.  0.
    9000005    1    3    3    0    0 -0.52078276503E+02 -0.24254990855E+02  0.85270718406E+02  0.10282289085E+03  0.10000000000E+01 0.  0.
<mgrwt>
<rscale>  0 0.12499972E+03</rscale>
<asrwt>0</asrwt>
<pdfrwt beam="2">  1        4 0.19378383E-02 0.12499972E+03</pdfrwt>
<pdfrwt beam="1">  1       -4 0.47710489E-01 0.12499972E+03</pdfrwt>
<totfact> 0.72834917E+03</totfact>
</mgrwt>
</event>
<event>
 4    1  0.3227866E-002  0.1249221E+03  0.7818608E-02  0.1235191E+00
          4   -1    0    0  501    0  0.00000000000E+00  0.00000000000E+00  0.32501921200E+02  0.32526724116E+02  0.12700000000E+01 0. -1.
         -4   -1    0    0    0  501 -0.00000000000E+00 -0.00000000000E+00 -0.11996145987E+03  0.11996818226E+03  0.12700000000E+01 0. -1.
    9000005    1    1    2    0    0  0.61501217633E+02  0.63360589842E+01 -0.32960001777E+02  0.70070729488E+02  0.10000000000E+01 0.  0.
    9000005    1    1    2    0    0 -0.61501217633E+02 -0.63360589842E+01 -0.54499536894E+02  0.82424176887E+02  0.10000000000E+01 0.  0.
<mgrwt>
<rscale>  0 0.12492208E+03</rscale>
<asrwt>0</asrwt>
<pdfrwt beam="1">  1        4 0.50027206E-02 0.12492208E+03</pdfrwt>
<pdfrwt beam="2">  1       -4 0.18458034E-01 0.12492208E+03</pdfrwt>
<totfact> 0.98982112E+03</totfact>
</mgrwt>
</event>
<event>
 5    1  0.3227866E-002  0.1250063E+03  0.7818608E-02  0.1235059E+00
          4   -1    0    0  501    0  0.00000000000E+00  0.00000000000E+00  0.93209531680E+02  0.93218183291E+02  0.12700000000E+01 0. -1.
         -4   -1    0    0    0  501 -0.00000000000E+00 -0.00000000000E+00 -0.41892299944E+02  0.41911546078E+02  0.12700000000E+01 0. -1.
         25    2    1    2    0    0  0.00000000000E+00  0.00000000000E+00  0.51317231736E+02  0.13512972937E+03  0.12500634178E+03 0.  0.
    9000005    1    3    3    0    0 -0.38004994963E+02  0.13750030508E+02 -0.25869286430E+02  0.47996489054E+02  0.10000000000E+01 0.  0.
    9000005    1    3    3    0    0  0.38004994963E+02 -0.13750030508E+02  0.77186518166E+02  0.87133240314E+02  0.10000000000E+01 0.  0.
<mgrwt>
<rscale>  0 0.12500634E+03</rscale>
<asrwt>0</asrwt>
<pdfrwt beam="1">  1        4 0.14342074E-01 0.12500634E+03</pdfrwt>
<pdfrwt beam="2">  1       -4 0.64471154E-02 0.12500634E+03</pdfrwt>
<totfact> 0.10233874E+04</totfact>
</mgrwt>
</event>
<event>
 5    1  0.3227866E-002  0.1249988E+03  0.7818608E-02  0.1235071E+00
         -4   -1    0    0    0  501 -0.00000000000E+00  0.00000000000E+00  0.95432248162E+02  0.95440698285E+02  0.12700000000E+01 0. -1.
          4   -1    0    0  501    0  0.00000000000E+00 -0.00000000000E+00 -0.40911274007E+02  0.40930981430E+02  0.12700000000E+01 0. -1.
         25    2    1    2    0    0  0.00000000000E+00  0.00000000000E+00  0.54520974155E+02  0.13637167972E+03  0.12499879362E+03 0.  0.
    9000005    1    3    3    0    0 -0.14420138384E+01  0.60235628481E+02  0.45344653207E+02  0.75415833330E+02  0.10000000000E+01 0.  0.
    9000005    1    3    3    0    0  0.14420138384E+01 -0.60235628481E+02  0.91763209478E+01  0.60955846385E+02  0.10000000000E+01 0.  0.
<mgrwt>
<rscale>  0 0.12499879E+03</rscale>
<asrwt>0</asrwt>
<pdfrwt beam="2">  1        4 0.62962082E-02 0.12499879E+03</pdfrwt>
<pdfrwt beam="1">  1       -4 0.14684050E-01 0.12499879E+03</pdfrwt>
<totfact> 0.10209517E+04</totfact>
</mgrwt>
</event>
<event>
 4    1  0.3227866E-002  0.1248448E+03  0.7818608E-02  0.1235312E+00
         -4   -1    0    0    0  501 -0.00000000000E+00  0.00000000000E+00  0.54571659883E+03  0.54571807661E+03  0.12700000000E+01 0.  1.
          4   -1    0    0  501    0  0.00000000000E+00 -0.00000000000E+00 -0.70822824764E+01  0.71952501746E+01  0.12700000000E+01 0.  1.
    9000005    1    1    2    0    0  0.40113999620E+01  0.21464742097E+02  0.52826897622E+03  0.52872103961E+03  0.10000000000E+01 0.  0.
    9000005    1    1    2    0    0 -0.40113999620E+01 -0.21464742097E+02  0.10365340134E+02  0.24192287181E+02  0.10000000000E+01 0.  0.
<mgrwt>
<rscale>  0 0.12484478E+03</rscale>
<asrwt>0</asrwt>
<pdfrwt beam="2">  1        4 0.10983849E-02 0.12484478E+03</pdfrwt>
<pdfrwt beam="1">  1       -4 0.83965241E-01 0.12484478E+03</pdfrwt>
<totfact> 0.52158985E+03</totfact>
</mgrwt>
</event>
<event>
 5    1  0.3227866E-002  0.1250053E+03  0.7818608E-02  0.1235061E+00
         -4   -1    0    0    0  501 -0.00000000000E+00  0.00000000000E+00  0.35197796752E+03  0.35198025871E+03  0.12700000000E+01 0.  1.
          4   -1    0    0  501    0  0.00000000000E+00 -0.00000000000E+00 -0.11060269251E+02  0.11132944619E+02  0.12700000000E+01 0.  1.
         25    2    1    2    0    0  0.00000000000E+00  0.00000000000E+00  0.34091769827E+03  0.36311320333E+03  0.12500528564E+03 0.  0.
    9000005    1    3    3    0    0  0.30448079513E+02 -0.43862268085E+02  0.76127341471E+02  0.92991162091E+02  0.10000000000E+01 0.  0.
    9000005    1    3    3    0    0 -0.30448079513E+02  0.43862268085E+02  0.26479035680E+03  0.27012204124E+03  0.10000000000E+01 0.  0.
<mgrwt>
<rscale>  0 0.12500529E+03</rscale>
<asrwt>0</asrwt>
<pdfrwt beam="2">  1        4 0.17073466E-02 0.12500529E+03</pdfrwt>
<pdfrwt beam="1">  1       -4 0.54156221E-01 0.12500529E+03</pdfrwt>
<totfact> 0.68297648E+03</totfact>
</mgrwt>
</event>
<event>
 5    1  0.3227866E-002  0.1249974E+03  0.7818608E-02  0.1235073E+00
         -4   -1    0    0    0  501 -0.00000000000E+00  0.00000000000E+00  0.31643390990E+03  0.31643645845E+03  0.12700000000E+01 0. -1.
          4   -1    0    0  501    0  0.00000000000E+00 -0.00000000000E+00 -0.12308823193E+02  0.12374167786E+02  0.12700000000E+01 0. -1.
         25    2    1    2    0    0  0.00000000000E+00  0.00000000000E+00  0.30412508671E+03  0.32881062624E+03  0.12499743821E+03 0.  0.
    9000005    1    3    3    0    0 -0.12098439663E+02  0.39721517131E+02  0.29215566748E+02  0.50781103827E+02  0.10000000000E+01 0.  0.
    9000005    1    3    3    0    0  0.12098439663E+02 -0.39721517131E+02  0.27490951996E+03  0.27802952241E+03  0.10000000000E+01 0.  0.
<mgrwt>
<rscale>  0 0.12499744E+03</rscale>
<asrwt>0</asrwt>
<pdfrwt beam="2">  1        4 0.18988876E-02 0.12499744E+03</pdfrwt>
<pdfrwt beam="1">  1       -4 0.48687363E-01 0.12499744E+03</pdfrwt>
<totfact> 0.72124420E+03</totfact>
</mgrwt>
</event>
<event>
 5    1  0.3227866E-002  0.1249981E+03  0.7818608E-02  0.1235072E+00
          4   -1    0    0  501    0  0.00000000000E+00  0.00000000000E+00  0.16201158686E+03  0.16201656452E+03  0.12700000000E+01 0.  1.
         -4   -1    0    0    0  501 -0.00000000000E+00 -0.00000000000E+00 -0.24088111979E+02  0.24121567916E+02  0.12700000000E+01 0.  1.
         25    2    1    2    0    0  0.00000000000E+00  0.00000000000E+00  0.13792347488E+03  0.18613813243E+03  0.12499807767E+03 0.  0.
    9000005    1    3    3    0    0  0.43774830682E+02 -0.42578955468E+02  0.88713132675E+02  0.10770433213E+03  0.10000000000E+01 0.  0.
    9000005    1    3    3    0    0 -0.43774830682E+02  0.42578955468E+02  0.49210342208E+02  0.78433800304E+02  0.10000000000E+01 0.  0.
<mgrwt>
<rscale>  0 0.12499808E+03</rscale>
<asrwt>0</asrwt>
<pdfrwt beam="1">  1        4 0.24927816E-01 0.12499808E+03</pdfrwt>
<pdfrwt beam="2">  1       -4 0.37088198E-02 0.12499808E+03</pdfrwt>
<totfact> 0.92527628E+03</totfact>
</mgrwt>
</event>
<event>
 5    1  0.3227866E-002  0.1249997E+03  0.7818608E-02  0.1235070E+00
          4   -1    0    0  501    0  0.00000000000E+00  0.00000000000E+00  0.15523729506E+03  0.15524248993E+03  0.12700000000E+01 0. -1.
         -4   -1    0    0    0  501 -0.00000000000E+00 -0.00000000000E+00 -0.25141331431E+02  0.25173387657E+02  0.12700000000E+01 0. -1.
         25    2    1    2    0    0  0.00000000000E+00  0.00000000000E+00  0.13009596363E+03  0.18041587758E+03  0.12499971652E+03 0.  0.
    9000005    1    3    3    0    0  0.54021970130E+02 -0.30841939025E+02  0.56432155459E+02  0.83995158368E+02  0.10000000000E+01 0.  0.
    9000005    1    3    3    0    0 -0.54021970130E+02  0.30841939025E+02  0.73663808174E+02  0.96420719216E+02  0.10000000000E+01 0.  0.
<mgrwt>
<rscale>  0 0.12499972E+03</rscale>
<asrwt>0</asrwt>
<pdfrwt beam="1">  1        4 0.23885526E-01 0.12499972E+03</pdfrwt>
<pdfrwt beam="2">  1       -4 0.38707626E-02 0.12499972E+03</pdfrwt>
<totfact> 0.93542791E+03</totfact>
</mgrwt>
</event>
<event>
 5    1  0.3227866E-002  0.1249977E+03  0.7818608E-02  0.1235073E+00
          4   -1    0    0  501    0  0.00000000000E+00  0.00000000000E+00  0.38540887231E+02  0.38561806085E+02  0.12700000000E+01 0.  1.
         -4   -1    0    0    0  501 -0.00000000000E+00 -0.00000000000E+00 -0.10129734484E+03  0.10130530574E+03  0.12700000000E+01 0.  1.
         25    2    1    2    0    0  0.00000000000E+00  0.00000000000E+00 -0.62756457607E+02  0.13986711183E+03  0.12499774398E+03 0.  0.
    9000005    1    3    3    0    0  0.41976780716E+02  0.26761418122E+02 -0.73645866535E+02  0.88898466111E+02  0.10000000000E+01 0.  0.
    9000005    1    3    3    0    0 -0.41976780716E+02 -0.26761418122E+02  0.10889408928E+02  0.50968645715E+02  0.10000000000E+01 0.  0.
<mgrwt>
<rscale>  0 0.12499774E+03</rscale>
<asrwt>0</asrwt>
<pdfrwt beam="1">  1        4 0.59315888E-02 0.12499774E+03</pdfrwt>
<pdfrwt beam="2">  1       -4 0.15586428E-01 0.12499774E+03</pdfrwt>
<totfact> 0.10136856E+04</totfact>
</mgrwt>
</event>
<event>
 5    1  0.3227866E-002  0.1250005E+03  0.7818608E-02  0.1235069E+00
         -4   -1    0    0    0  501 -0.00000000000E+00  0.00000000000E+00  0.23277505582E+03  0.23277852029E+03  0.12700000000E+01 0.  1.
          4   -1    0    0  501    0  0.00000000000E+00 -0.00000000000E+00 -0.16753733358E+02  0.16801799946E+02  0.12700000000E+01 0.  1.
         25    2    1    2    0    0  0.00000000000E+00  0.00000000000E+00  0.21602132246E+03  0.24958032024E+03  0.12500049798E+03 0.  0.
    9000005    1    3    3    0    0  0.55675142765E+02  0.25727135814E+02  0.84078175213E+02  0.10407567721E+03  0.10000000000E+01 0.  0.
    9000005    1    3    3    0    0 -0.55675142765E+02 -0.25727135814E+02  0.13194314724E+03  0.14550464303E+03  0.10000000000E+01 0.  0.
<mgrwt>
<rscale>  0 0.12500050E+03</rscale>
<asrwt>0</asrwt>
<pdfrwt beam="2">  1        4 0.25814614E-02 0.12500050E+03</pdfrwt>
<pdfrwt beam="1">  1       -4 0.35815511E-01 0.12500050E+03</pdfrwt>
<totfact> 0.82390008E+03</totfact>
</mgrwt>
</event>
<event>
 5    1  0.3227866E-002  0.1249983E+03  0.7818608E-02  0.1235072E+00
          4   -1    0    0  501    0  0.00000000000E+00  0.00000000000E+00  0.64529528404E+01  0.65767393411E+01  0.12700000000E+01 0.  1.
         -4   -1    0    0    0  501 -0.00000000000E+00 -0.00000000000E+00 -0.59945112661E+03  0.59945247192E+03  0.12700000000E+01 0.  1.
         25    2    1    2    0    0  0.00000000000E+00  0.00000000000E+00 -0.59299817377E+03  0.60602921126E+03  0.12499828323E+03 0.  0.
    9000005    1    3    3    0    0 -0.39345572713E+02  0.38885303124E+02 -0.43743391490E+03  0.44091900707E+03  0.10000000000E+01 0.  0.
    9000005    1    3    3    0    0  0.39345572713E+02 -0.38885303124E+02 -0.15556425887E+03  0.16511020419E+03  0.10000000000E+01 0.  0.
<mgrwt>
<rscale>  0 0.12499828E+03</rscale>
<asrwt>0</asrwt>
<pdfrwt beam="1">  1        4 0.10023880E-02 0.12499828E+03</pdfrwt>
<pdfrwt beam="2">  1       -4 0.92232832E-01 0.12499828E+03</pdfrwt>
<totfact> 0.48491070E+03</totfact>
</mgrwt>
</event>
<event>
 5    1  0.3227866E-002  0.1249952E+03  0.7818608E-02  0.1235077E+00
         -4   -1    0    0    0  501 -0.00000000000E+00  0.00000000000E+00  0.11667710894E+01  0.17246027876E+01  0.12700000000E+01 0. -1.
          4   -1    0    0  501    0  0.00000000000E+00 -0.00000000000E+00 -0.27012379872E+04  0.27012382858E+04  0.12700000000E+01 0. -1.
         25    2    1    2    0    0  0.00000000000E+00  0.00000000000E+00 -0.27000712162E+04  0.27029628886E+04  0.12499521884E+03 0.  0.
    9000005    1    3    3    0    0  0.21990603415E+02  0.53599544460E+02 -0.84360897212E+03  0.84559659155E+03  0.10000000000E+01 0.  0.
    9000005    1    3    3    0    0 -0.21990603415E+02 -0.53599544460E+02 -0.18564622440E+04  0.18573662970E+04  0.10000000000E+01 0.  0.
<mgrwt>
<rscale>  0 0.12499522E+03</rscale>
<asrwt>0</asrwt>
<pdfrwt beam="2">  1        4 0.41561397E+00 0.12499522E+03</pdfrwt>
<pdfrwt beam="1">  1       -4 0.22243850E-03 0.12499522E+03</pdfrwt>
<totfact> 0.32644310E+02</totfact>
</mgrwt>
</event>
<event>
 5    1  0.3227866E-002  0.1250002E+03  0.7818608E-02  0.1235069E+00
         -4   -1    0    0    0  501 -0.00000000000E+00  0.00000000000E+00  0.25226529606E+02  0.25258477705E+02  0.12700000000E+01 0. -1.
          4   -1    0    0  501    0  0.00000000000E+00 -0.00000000000E+00 -0.15471477108E+03  0.15471998349E+03  0.12700000000E+01 0. -1.
         25    2    1    2    0    0  0.00000000000E+00  0.00000000000E+00 -0.12948824148E+03  0.17997846120E+03  0.12500016725E+03 0.  0.
    9000005    1    3    3    0    0  0.34945244634E+02  0.47902362265E+02 -0.36329750447E+02  0.69546079693E+02  0.10000000000E+01 0.  0.
    9000005    1    3    3    0    0 -0.34945244634E+02 -0.47902362265E+02 -0.93158491031E+02  0.11043238150E+03  0.10000000000E+01 0.  0.
<mgrwt>
<rscale>  0 0.12500017E+03</rscale>
<asrwt>0</asrwt>
<pdfrwt beam="2">  1        4 0.23805130E-01 0.12500017E+03</pdfrwt>
<pdfrwt beam="1">  1       -4 0.38838631E-02 0.12500017E+03</pdfrwt>
<totfact> 0.93620529E+03</totfact>
</mgrwt>
</event>
<event>
 5    1  0.3227866E-002  0.1249978E+03  0.7818608E-02  0.1235073E+00
         -4   -1    0    0    0  501 -0.00000000000E+00  0.00000000000E+00  0.11781015831E+03  0.11781700345E+03  0.12700000000E+01 0.  1.
          4   -1    0    0  501    0  0.00000000000E+00 -0.00000000000E+00 -0.33136038798E+02  0.33160367417E+02  0.12700000000E+01 0.  1.
         25    2    1    2    0    0  0.00000000000E+00  0.00000000000E+00  0.84674119515E+02  0.15097737087E+03  0.12499783997E+03 0.  0.
    9000005    1    3    3    0    0  0.58773111003E+02  0.16844779872E+02  0.57949987050E+02  0.84245036560E+02  0.10000000000E+01 0.  0.
    9000005    1    3    3    0    0 -0.58773111003E+02 -0.16844779872E+02  0.26724132465E+02  0.66732334306E+02  0.10000000000E+01 0.  0.
<mgrwt>
<rscale>  0 0.12499784E+03</rscale>
<asrwt>0</asrwt>
<pdfrwt beam="2">  1        4 0.51002501E-02 0.12499784E+03</pdfrwt>
<pdfrwt beam="1">  1       -4 0.18127038E-01 0.12499784E+03</pdfrwt>
<totfact> 0.99114047E+03</totfact>
</mgrwt>
</event>
<event>
 5    1  0.3227866E-002  0.1250013E+03  0.7818608E-02  0.1235067E+00
          4   -1    0    0  501    0  0.00000000000E+00  0.00000000000E+00  0.32882741562E+03  0.32882986811E+03  0.12700000000E+01 0.  1.
         -4   -1    0    0    0  501 -0.00000000000E+00 -0.00000000000E+00 -0.11843136667E+02  0.11911036316E+02  0.12700000000E+01 0.  1.
         25    2    1    2    0    0  0.00000000000E+00  0.00000000000E+00  0.31698427895E+03  0.34074090443E+03  0.12500132339E+03 0.  0.
    9000005    1    3    3    0    0 -0.37729193111E+02 -0.35334566127E+02  0.62762673722E+02  0.81315292467E+02  0.10000000000E+01 0.  0.
    9000005    1    3    3    0    0  0.37729193111E+02  0.35334566127E+02  0.25422160523E+03  0.25942561196E+03  0.10000000000E+01 0.  0.
<mgrwt>
<rscale>  0 0.12500132E+03</rscale>
<asrwt>0</asrwt>
<pdfrwt beam="1">  1        4 0.50594245E-01 0.12500132E+03</pdfrwt>
<pdfrwt beam="2">  1       -4 0.18274327E-02 0.12500132E+03</pdfrwt>
<totfact> 0.70753251E+03</totfact>
</mgrwt>
</event>
<event>
 5    1  0.3227866E-002  0.1249978E+03  0.7818608E-02  0.1235073E+00
          4   -1    0    0  501    0  0.00000000000E+00  0.00000000000E+00  0.13416042370E+02  0.13476019178E+02  0.12700000000E+01 0. -1.
         -4   -1    0    0    0  501 -0.00000000000E+00 -0.00000000000E+00 -0.29044180559E+03  0.29044458221E+03  0.12700000000E+01 0. -1.
         25    2    1    2    0    0  0.00000000000E+00  0.00000000000E+00 -0.27702576322E+03  0.30392060139E+03  0.12499783382E+03 0.  0.
    9000005    1    3    3    0    0  0.61610115631E+02  0.10408601204E+02 -0.13611910275E+03  0.14977835445E+03  0.10000000000E+01 0.  0.
    9000005    1    3    3    0    0 -0.61610115631E+02 -0.10408601204E+02 -0.14090666047E+03  0.15414224694E+03  0.10000000000E+01 0.  0.
<mgrwt>
<rscale>  0 0.12499783E+03</rscale>
<asrwt>0</asrwt>
<pdfrwt beam="1">  1        4 0.20688339E-02 0.12499783E+03</pdfrwt>
<pdfrwt beam="2">  1       -4 0.44688177E-01 0.12499783E+03</pdfrwt>
<totfact> 0.75113276E+03</totfact>
</mgrwt>
</event>
<event>
 5    1  0.3227866E-002  0.1249991E+03  0.7818608E-02  0.1235071E+00
          4   -1    0    0  501    0  0.00000000000E+00  0.00000000000E+00  0.20772960212E+02  0.20811746106E+02  0.12700000000E+01 0.  1.
         -4   -1    0    0    0  501 -0.00000000000E+00 -0.00000000000E+00 -0.18782598071E+03  0.18783027426E+03  0.12700000000E+01 0.  1.
         25    2    1    2    0    0  0.00000000000E+00  0.00000000000E+00 -0.16705302050E+03  0.20864202037E+03  0.12499912402E+03 0.  0.
    9000005    1    3    3    0    0 -0.46019511482E+02 -0.23351636394E+02 -0.24699978158E+02  0.57220479554E+02  0.10000000000E+01 0.  0.
    9000005    1    3    3    0    0  0.46019511482E+02  0.23351636394E+02 -0.14235304234E+03  0.15142154081E+03  0.10000000000E+01 0.  0.
<mgrwt>
<rscale>  0 0.12499912E+03</rscale>
<asrwt>0</asrwt>
<pdfrwt beam="1">  1        4 0.31991540E-02 0.12499912E+03</pdfrwt>
<pdfrwt beam="2">  1       -4 0.28899617E-01 0.12499912E+03</pdfrwt>
<totfact> 0.88699876E+03</totfact>
</mgrwt>
</event>
<event>
 5    1  0.3227866E-002  0.1250004E+03  0.7818608E-02  0.1235069E+00
         -4   -1    0    0    0  501 -0.00000000000E+00  0.00000000000E+00  0.93124971706E+01  0.93986969071E+01  0.12700000000E+01 0. -1.
          4   -1    0    0  501    0  0.00000000000E+00 -0.00000000000E+00 -0.41744657887E+03  0.41744851073E+03  0.12700000000E+01 0. -1.
         25    2    1    2    0    0  0.00000000000E+00  0.00000000000E+00 -0.40813408170E+03  0.42684720764E+03  0.12500044009E+03 0.  0.
    9000005    1    3    3    0    0 -0.38661167111E+02 -0.22233060645E+02 -0.54584424855E+02  0.70494356262E+02  0.10000000000E+01 0.  0.
    9000005    1    3    3    0    0  0.38661167111E+02  0.22233060645E+02 -0.35354965685E+03  0.35635285138E+03  0.10000000000E+01 0.  0.
<mgrwt>
<rscale>  0 0.12500044E+03</rscale>
<asrwt>0</asrwt>
<pdfrwt beam="2">  1        4 0.64229316E-01 0.12500044E+03</pdfrwt>
<pdfrwt beam="1">  1       -4 0.14394715E-02 0.12500044E+03</pdfrwt>
<totfact> 0.62022220E+03</totfact>
</mgrwt>
</event>
<event>
 5    1  0.3227866E-002  0.1250031E+03  0.7818608E-02  0.1235064E+00
          4   -1    0    0  501    0  0.00000000000E+00  0.00000000000E+00  0.24338883502E+03  0.24339214842E+03  0.12700000000E+01 0. -1.
         -4   -1    0    0    0  501 -0.00000000000E+00 -0.00000000000E+00 -0.16021667780E+02  0.16071923919E+02  0.12700000000E+01 0. -1.
         25    2    1    2    0    0  0.00000000000E+00  0.00000000000E+00  0.22736716724E+03  0.25946407234E+03  0.12500310434E+03 0.  0.
    9000005    1    3    3    0    0  0.34764688318E+02 -0.30909422689E+02  0.27064379634E+02  0.53828028107E+02  0.10000000000E+01 0.  0.
    9000005    1    3    3    0    0 -0.34764688318E+02  0.30909422689E+02  0.20030278760E+03  0.20563604423E+03  0.10000000000E+01 0.  0.
<mgrwt>
<rscale>  0 0.12500310E+03</rscale>
<asrwt>0</asrwt>
<pdfrwt beam="1">  1        4 0.37448555E-01 0.12500310E+03</pdfrwt>
<pdfrwt beam="2">  1       -4 0.24689928E-02 0.12500310E+03</pdfrwt>
<totfact> 0.80975734E+03</totfact>
</mgrwt>
</event>
<event>
 5    1  0.3227866E-002  0.1249987E+03  0.7818608E-02  0.1235071E+00
          4   -1    0    0  501    0  0.00000000000E+00  0.00000000000E+00  0.25976297571E+02  0.26007324651E+02  0.12700000000E+01 0. -1.
         -4   -1    0    0    0  501 -0.00000000000E+00 -0.00000000000E+00 -0.15025085907E+03  0.15025622633E+03  0.12700000000E+01 0. -1.
         25    2    1    2    0    0  0.00000000000E+00  0.00000000000E+00 -0.12427456149E+03  0.17626355098E+03  0.12499869107E+03 0.  0.
    9000005    1    3    3    0    0 -0.34326946655E+02 -0.15261744476E+02  0.82829219900E+01  0.38482033572E+02  0.10000000000E+01 0.  0.
    9000005    1    3    3    0    0  0.34326946655E+02  0.15261744476E+02 -0.13255748348E+03  0.13778151741E+03  0.10000000000E+01 0.  0.
<mgrwt>
<rscale>  0 0.12499869E+03</rscale>
<asrwt>0</asrwt>
<pdfrwt beam="1">  1        4 0.39991531E-02 0.12499869E+03</pdfrwt>
<pdfrwt beam="2">  1       -4 0.23118316E-01 0.12499869E+03</pdfrwt>
<totfact> 0.94296701E+03</totfact>
</mgrwt>
</event>
<event>
 5    1  0.3227866E-002  0.1250036E+03  0.7818608E-02  0.1235064E+00
         -4   -1    0    0    0  501 -0.00000000000E+00  0.00000000000E+00  0.34723608763E+02  0.34746825834E+02  0.12700000000E+01 0. -1.
          4   -1    0    0  501    0  0.00000000000E+00 -0.00000000000E+00 -0.11243751074E+03  0.11244468294E+03  0.12700000000E+01 0. -1.
         25    2    1    2    0    0  0.00000000000E+00  0.00000000000E+00 -0.77713901977E+02  0.14719150877E+03  0.12500355873E+03 0.  0.
    9000005    1    3    3    0    0 -0.35980950920E+02  0.17984381668E+02 -0.95172973116E+02  0.10332938413E+03  0.10000000000E+01 0.  0.
    9000005    1    3    3    0    0  0.35980950920E+02 -0.17984381668E+02  0.17459071140E+02  0.43862124642E+02  0.10000000000E+01 0.  0.
<mgrwt>
<rscale>  0 0.12500356E+03</rscale>
<asrwt>0</asrwt>
<pdfrwt beam="2">  1        4 0.17300416E-01 0.12500356E+03</pdfrwt>
<pdfrwt beam="1">  1       -4 0.53444313E-02 0.12500356E+03</pdfrwt>
<totfact> 0.99858503E+03</totfact>
</mgrwt>
</event>
<event>
 5    1  0.3227866E-002  0.1249996E+03  0.7818608E-02  0.1235070E+00
          4   -1    0    0  501    0  0.00000000000E+00  0.00000000000E+00  0.20269155741E+01  0.23919211409E+01  0.12700000000E+01 0. -1.
         -4   -1    0    0    0  501 -0.00000000000E+00 -0.00000000000E+00 -0.17676218947E+04  0.17676223509E+04  0.12700000000E+01 0. -1.
         25    2    1    2    0    0  0.00000000000E+00  0.00000000000E+00 -0.17655949791E+04  0.17700142721E+04  0.12499957214E+03 0.  0.
    9000005    1    3    3    0    0  0.35515657722E+02  0.47021920560E+02 -0.58821154652E+03  0.59115670208E+03  0.10000000000E+01 0.  0.
    9000005    1    3    3    0    0 -0.35515657722E+02 -0.47021920560E+02 -0.11773834326E+04  0.11788575700E+04  0.10000000000E+01 0.  0.
<mgrwt>
<rscale>  0 0.12499957E+03</rscale>
<asrwt>0</asrwt>
<pdfrwt beam="1">  1        4 0.33994703E-03 0.12499957E+03</pdfrwt>
<pdfrwt beam="2">  1       -4 0.27196881E+00 0.12499957E+03</pdfrwt>
<totfact> 0.13171414E+03</totfact>
</mgrwt>
</event>
<event>
 5    1  0.3227866E-002  0.1250002E+03  0.7818608E-02  0.1235069E+00
          4   -1    0    0  501    0  0.00000000000E+00  0.00000000000E+00  0.40152517670E+02  0.40172597317E+02  0.12700000000E+01 0.  1.
         -4   -1    0    0    0  501 -0.00000000000E+00 -0.00000000000E+00 -0.97237022713E+02  0.97245316011E+02  0.12700000000E+01 0.  1.
         25    2    1    2    0    0  0.00000000000E+00  0.00000000000E+00 -0.57084505043E+02  0.13741791333E+03  0.12500016875E+03 0.  0.
    9000005    1    3    3    0    0  0.18855349338E+01 -0.18369539029E+02  0.37090068663E+02  0.41444763234E+02  0.10000000000E+01 0.  0.
    9000005    1    3    3    0    0 -0.18855349338E+01  0.18369539029E+02 -0.94174573706E+02  0.95973150094E+02  0.10000000000E+01 0.  0.
<mgrwt>
<rscale>  0 0.12500017E+03</rscale>
<asrwt>0</asrwt>
<pdfrwt beam="1">  1        4 0.61794930E-02 0.12500017E+03</pdfrwt>
<pdfrwt beam="2">  1       -4 0.14961724E-01 0.12500017E+03</pdfrwt>
<totfact> 0.10187316E+04</totfact>
</mgrwt>
</event>
<event>
 5    1  0.3227866E-002  0.1249987E+03  0.7818608E-02  0.1235071E+00
          4   -1    0    0  501    0  0.00000000000E+00  0.00000000000E+00  0.89126153017E+01  0.90026446956E+01  0.12700000000E+01 0. -1.
         -4   -1    0    0    0  501 -0.00000000000E+00 -0.00000000000E+00 -0.43598071775E+03  0.43598256749E+03  0.12700000000E+01 0. -1.
         25    2    1    2    0    0  0.00000000000E+00  0.00000000000E+00 -0.42706810245E+03  0.44498521218E+03  0.12499869971E+03 0.  0.
    9000005    1    3    3    0    0 -0.53662270297E+02  0.18477817959E+02 -0.30664479385E+03  0.31185429066E+03  0.10000000000E+01 0.  0.
    9000005    1    3    3    0    0  0.53662270297E+02 -0.18477817959E+02 -0.12042330860E+03  0.13313092152E+03  0.10000000000E+01 0.  0.
<mgrwt>
<rscale>  0 0.12499870E+03</rscale>
<asrwt>0</asrwt>
<pdfrwt beam="1">  1        4 0.13782395E-02 0.12499870E+03</pdfrwt>
<pdfrwt beam="2">  1       -4 0.67081008E-01 0.12499870E+03</pdfrwt>
<totfact> 0.60402439E+03</totfact>
</mgrwt>
</event>
<event>
 5    1  0.3227866E-002  0.1249985E+03  0.7818608E-02  0.1235072E+00
          4   -1    0    0  501    0  0.00000000000E+00  0.00000000000E+00  0.83589791528E+01  0.84549058231E+01  0.12700000000E+01 0.  1.
         -4   -1    0    0    0  501 -0.00000000000E+00 -0.00000000000E+00 -0.46453798759E+03  0.46453972361E+03  0.12700000000E+01 0.  1.
         25    2    1    2    0    0  0.00000000000E+00  0.00000000000E+00 -0.45617900844E+03  0.47299462943E+03  0.12499852694E+03 0.  0.
    9000005    1    3    3    0    0 -0.26092926357E+02 -0.31000102336E+02 -0.40811060413E+03  0.41011841260E+03  0.10000000000E+01 0.  0.
    9000005    1    3    3    0    0  0.26092926357E+02  0.31000102336E+02 -0.48068404303E+02  0.62876216831E+02  0.10000000000E+01 0.  0.
<mgrwt>
<rscale>  0 0.12499853E+03</rscale>
<asrwt>0</asrwt>
<pdfrwt beam="1">  1        4 0.12935097E-02 0.12499853E+03</pdfrwt>
<pdfrwt beam="2">  1       -4 0.71474875E-01 0.12499853E+03</pdfrwt>
<totfact> 0.58024160E+03</totfact>
</mgrwt>
</event>
<event>
 5    1  0.3227866E-002  0.1250024E+03  0.7818608E-02  0.1235066E+00
         -4   -1    0    0    0  501 -0.00000000000E+00  0.00000000000E+00  0.80209374631E+02  0.80219428312E+02  0.12700000000E+01 0.  1.
          4   -1    0    0  501    0  0.00000000000E+00 -0.00000000000E+00 -0.48681132676E+02  0.48697695824E+02  0.12700000000E+01 0.  1.
         25    2    1    2    0    0  0.00000000000E+00  0.00000000000E+00  0.31528241955E+02  0.12891712414E+03  0.12500237940E+03 0.  0.
    9000005    1    3    3    0    0  0.37328403871E+02  0.22205690146E+02 -0.30575164758E+02  0.53125729269E+02  0.10000000000E+01 0.  0.
    9000005    1    3    3    0    0 -0.37328403871E+02 -0.22205690146E+02  0.62103406713E+02  0.75791394867E+02  0.10000000000E+01 0.  0.
<mgrwt>
<rscale>  0 0.12500238E+03</rscale>
<asrwt>0</asrwt>
<pdfrwt beam="2">  1        4 0.74914525E-02 0.12500238E+03</pdfrwt>
<pdfrwt beam="1">  1       -4 0.12341951E-01 0.12500238E+03</pdfrwt>
<totfact> 0.10367171E+04</totfact>
</mgrwt>
</event>
<event>
 5    1  0.3227866E-002  0.1250000E+03  0.7818608E-02  0.1235069E+00
         -4   -1    0    0    0  501 -0.00000000000E+00  0.00000000000E+00  0.12654783130E+03  0.12655420383E+03  0.12700000000E+01 0. -1.
          4   -1    0    0  501    0  0.00000000000E+00 -0.00000000000E+00 -0.30847569832E+02  0.30873701828E+02  0.12700000000E+01 0. -1.
         25    2    1    2    0    0  0.00000000000E+00  0.00000000000E+00  0.95700261466E+02  0.15742790565E+03  0.12500002174E+03 0.  0.
    9000005    1    3    3    0    0  0.14890326772E+02 -0.80843231980E+01  0.12360600390E+03  0.12476586999E+03  0.10000000000E+01 0.  0.
    9000005    1    3    3    0    0 -0.14890326772E+02  0.80843231980E+01 -0.27905742437E+02  0.32662035667E+02  0.10000000000E+01 0.  0.
<mgrwt>
<rscale>  0 0.12500002E+03</rscale>
<asrwt>0</asrwt>
<pdfrwt beam="2">  1        4 0.47482803E-02 0.12500002E+03</pdfrwt>
<pdfrwt beam="1">  1       -4 0.19471398E-01 0.12500002E+03</pdfrwt>
<totfact> 0.97840920E+03</totfact>
</mgrwt>
</event>
<event>
 5    1  0.3227866E-002  0.1250020E+03  0.7818608E-02  0.1235066E+00
         -4   -1    0    0    0  501 -0.00000000000E+00  0.00000000000E+00  0.10276536087E+04  0.10276543934E+04  0.12700000000E+01 0.  1.
          4   -1    0    0  501    0  0.00000000000E+00 -0.00000000000E+00 -0.36943731617E+01  0.39065704983E+01  0.12700000000E+01 0.  1.
         25    2    1    2    0    0  0.00000000000E+00  0.00000000000E+00  0.10239592355E+04  0.10315609639E+04  0.12500202516E+03 0.  0.
    9000005    1    3    3    0    0 -0.41300237294E+00 -0.62482783537E+02  0.50329398406E+03  0.50715885401E+03  0.10000000000E+01 0.  0.
    9000005    1    3    3    0    0  0.41300237294E+00  0.62482783537E+02  0.52066525147E+03  0.52440210993E+03  0.10000000000E+01 0.  0.
<mgrwt>
<rscale>  0 0.12500203E+03</rscale>
<asrwt>0</asrwt>
<pdfrwt beam="2">  1        4 0.58474744E-03 0.12500203E+03</pdfrwt>
<pdfrwt beam="1">  1       -4 0.15811718E+00 0.12500203E+03</pdfrwt>
<totfact> 0.29576203E+03</totfact>
</mgrwt>
</event>
<event>
 5    1  0.3227866E-002  0.1250004E+03  0.7818608E-02  0.1235069E+00
         -4   -1    0    0    0  501 -0.00000000000E+00  0.00000000000E+00  0.12982679896E+02  0.13044649374E+02  0.12700000000E+01 0.  1.
          4   -1    0    0  501    0  0.00000000000E+00 -0.00000000000E+00 -0.30010407109E+03  0.30010675831E+03  0.12700000000E+01 0.  1.
         25    2    1    2    0    0  0.00000000000E+00  0.00000000000E+00 -0.28712139120E+03  0.31315140769E+03  0.12500044342E+03 0.  0.
    9000005    1    3    3    0    0  0.84679370419E+01  0.20661960140E+02 -0.28978073672E+03  0.29064152823E+03  0.10000000000E+01 0.  0.
    9000005    1    3    3    0    0 -0.84679370419E+01 -0.20661960140E+02  0.26593455294E+01  0.22509879458E+02  0.10000000000E+01 0.  0.
<mgrwt>
<rscale>  0 0.12500044E+03</rscale>
<asrwt>0</asrwt>
<pdfrwt beam="2">  1        4 0.46174825E-01 0.12500044E+03</pdfrwt>
<pdfrwt beam="1">  1       -4 0.20023092E-02 0.12500044E+03</pdfrwt>
<totfact> 0.73977422E+03</totfact>
</mgrwt>
</event>
<event>
 5    1  0.3227866E-002  0.1250021E+03  0.7818608E-02  0.1235066E+00
          4   -1    0    0  501    0  0.00000000000E+00  0.00000000000E+00  0.15188771036E+03  0.15189301978E+03  0.12700000000E+01 0. -1.
         -4   -1    0    0    0  501 -0.00000000000E+00 -0.00000000000E+00 -0.25697426174E+02  0.25728789555E+02  0.12700000000E+01 0. -1.
         25    2    1    2    0    0  0.00000000000E+00  0.00000000000E+00  0.12619028419E+03  0.17762180934E+03  0.12500207730E+03 0.  0.
    9000005    1    3    3    0    0  0.37376436094E+01 -0.21814450608E+02  0.14613923043E+03  0.14780904880E+03  0.10000000000E+01 0.  0.
    9000005    1    3    3    0    0 -0.37376436094E+01  0.21814450608E+02 -0.19948946241E+02  0.29812760544E+02  0.10000000000E+01 0.  0.
<mgrwt>
<rscale>  0 0.12500208E+03</rscale>
<asrwt>0</asrwt>
<pdfrwt beam="1">  1        4 0.23370161E-01 0.12500208E+03</pdfrwt>
<pdfrwt beam="2">  1       -4 0.39562712E-02 0.12500208E+03</pdfrwt>
<totfact> 0.94042464E+03</totfact>
</mgrwt>
</event>
<event>
 5    1  0.3227866E-002  0.1250022E+03  0.7818608E-02  0.1235066E+00
         -4   -1    0    0    0  501 -0.00000000000E+00  0.00000000000E+00  0.32722882645E+01  0.35100955095E+01  0.12700000000E+01 0.  1.
          4   -1    0    0  501    0  0.00000000000E+00 -0.00000000000E+00 -0.11516838479E+04  0.11516845481E+04  0.12700000000E+01 0.  1.
         25    2    1    2    0    0  0.00000000000E+00  0.00000000000E+00 -0.11484115596E+04  0.11551946436E+04  0.12500221758E+03 0.  0.
    9000005    1    3    3    0    0  0.10943899173E+02 -0.21209230402E+02 -0.11079543001E+04  0.11082117719E+04  0.10000000000E+01 0.  0.
    9000005    1    3    3    0    0 -0.10943899173E+02  0.21209230402E+02 -0.40457259536E+02  0.46982871693E+02  0.10000000000E+01 0.  0.
<mgrwt>
<rscale>  0 0.12500222E+03</rscale>
<asrwt>0</asrwt>
<pdfrwt beam="2">  1        4 0.17720017E+00 0.12500222E+03</pdfrwt>
<pdfrwt beam="1">  1       -4 0.52177661E-03 0.12500222E+03</pdfrwt>
<totfact> 0.25915341E+03</totfact>
</mgrwt>
</event>
<event>
 5    1  0.3227866E-002  0.1250026E+03  0.7818608E-02  0.1235065E+00
         -4   -1    0    0    0  501 -0.00000000000E+00  0.00000000000E+00  0.79835144804E+02  0.79845245606E+02  0.12700000000E+01 0.  1.
          4   -1    0    0  501    0  0.00000000000E+00 -0.00000000000E+00 -0.48909515030E+02  0.48926000863E+02  0.12700000000E+01 0.  1.
         25    2    1    2    0    0  0.00000000000E+00  0.00000000000E+00  0.30925629773E+02  0.12877124647E+03  0.12500255734E+03 0.  0.
    9000005    1    3    3    0    0  0.27597761169E+02 -0.52202200697E+02  0.36541978658E+02  0.69447983292E+02  0.10000000000E+01 0.  0.
    9000005    1    3    3    0    0 -0.27597761169E+02  0.52202200697E+02 -0.56163488850E+01  0.59323263177E+02  0.10000000000E+01 0.  0.
<mgrwt>
<rscale>  0 0.12500256E+03</rscale>
<asrwt>0</asrwt>
<pdfrwt beam="2">  1        4 0.75265860E-02 0.12500256E+03</pdfrwt>
<pdfrwt beam="1">  1       -4 0.12284375E-01 0.12500256E+03</pdfrwt>
<totfact> 0.10370266E+04</totfact>
</mgrwt>
</event>
<event>
 5    1  0.3227866E-002  0.1250023E+03  0.7818608E-02  0.1235066E+00
         -4   -1    0    0    0  501 -0.00000000000E+00  0.00000000000E+00  0.49360861489E+02  0.49377196629E+02  0.12700000000E+01 0. -1.
          4   -1    0    0  501    0  0.00000000000E+00 -0.00000000000E+00 -0.79104937937E+02  0.79115131966E+02  0.12700000000E+01 0. -1.
         25    2    1    2    0    0  0.00000000000E+00  0.00000000000E+00 -0.29744076448E+02  0.12849232860E+03  0.12500227368E+03 0.  0.
    9000005    1    3    3    0    0 -0.62105604646E+02 -0.43843612942E+01 -0.20413599637E+02  0.65528953925E+02  0.10000000000E+01 0.  0.
    9000005    1    3    3    0    0  0.62105604646E+02  0.43843612942E+01 -0.93304768103E+01  0.62963374670E+02  0.10000000000E+01 0.  0.
<mgrwt>
<rscale>  0 0.12500227E+03</rscale>
<asrwt>0</asrwt>
<pdfrwt beam="2">  1        4 0.12172031E-01 0.12500227E+03</pdfrwt>
<pdfrwt beam="1">  1       -4 0.75960194E-02 0.12500227E+03</pdfrwt>
<totfact> 0.10376336E+04</totfact>
</mgrwt>
</event>
<event>
 4    1  0.3227866E-002  0.1250840E+03  0.7818608E-02  0.1234938E+00
          4   -1    0    0  501    0  0.00000000000E+00  0.00000000000E+00  0.17871889476E+03  0.17872340710E+03  0.12700000000E+01 0.  1.
         -4   -1    0    0    0  501 -0.00000000000E+00 -0.00000000000E+00 -0.21863102987E+02  0.21899958269E+02  0.12700000000E+01 0.  1.
    9000005    1    1    2    0    0  0.47208547942E+02 -0.14817798329E+02  0.13976113184E+03  0.14826458822E+03  0.10000000000E+01 0.  0.
    9000005    1    1    2    0    0 -0.47208547942E+02  0.14817798329E+02  0.17094659932E+02  0.52358777147E+02  0.10000000000E+01 0.  0.
<mgrwt>
<rscale>  0 0.12508395E+03</rscale>
<asrwt>0</asrwt>
<pdfrwt beam="1">  1        4 0.27498396E-01 0.12508395E+03</pdfrwt>
<pdfrwt beam="2">  1       -4 0.33667365E-02 0.12508395E+03</pdfrwt>
<totfact> 0.89861561E+03</totfact>
</mgrwt>
</event>
<event>
 5    1  0.3227866E-002  0.1249983E+03  0.7818608E-02  0.1235072E+00
         -4   -1    0    0    0  501 -0.00000000000E+00  0.00000000000E+00  0.22257369483E+02  0.22293572982E+02  0.12700000000E+01 0.  1.
          4   -1    0    0  501    0  0.00000000000E+00 -0.00000000000E+00 -0.17531782357E+03  0.17532242344E+03  0.12700000000E+01 0.  1.
         25    2    1    2    0    0  0.00000000000E+00  0.00000000000E+00 -0.15306045409E+03  0.19761599642E+03  0.12499831774E+03 0.  0.
    9000005    1    3    3    0    0 -0.23098640070E+02 -0.53489834408E+02 -0.11224832134E+03  0.12647290303E+03  0.10000000000E+01 0.  0.
    9000005    1    3    3    0    0  0.23098640070E+02  0.53489834408E+02 -0.40812132752E+02  0.71143093395E+02  0.10000000000E+01 0.  0.
<mgrwt>
<rscale>  0 0.12499832E+03</rscale>
<asrwt>0</asrwt>
<pdfrwt beam="2">  1        4 0.26975111E-01 0.12499832E+03</pdfrwt>
<pdfrwt beam="1">  1       -4 0.34273495E-02 0.12499832E+03</pdfrwt>
<totfact> 0.90542192E+03</totfact>
</mgrwt>
</event>
<event>
 5    1  0.3227866E-002  0.1250059E+03  0.7818608E-02  0.1235060E+00
          4   -1    0    0  501    0  0.00000000000E+00  0.00000000000E+00  0.21780453680E+03  0.21780823940E+03  0.12700000000E+01 0.  1.
         -4   -1    0    0    0  501 -0.00000000000E+00 -0.00000000000E+00 -0.17910013267E+02  0.17954984691E+02  0.12700000000E+01 0.  1.
         25    2    1    2    0    0  0.00000000000E+00  0.00000000000E+00  0.19989452353E+03  0.23576322409E+03  0.12500590904E+03 0.  0.
    9000005    1    3    3    0    0  0.26558913413E+02 -0.55718010237E+02  0.81492535741E+02  0.10223456327E+03  0.10000000000E+01 0.  0.
    9000005    1    3    3    0    0 -0.26558913413E+02  0.55718010237E+02  0.11840198779E+03  0.13352866082E+03  0.10000000000E+01 0.  0.
<mgrwt>
<rscale>  0 0.12500591E+03</rscale>
<asrwt>0</asrwt>
<pdfrwt beam="1">  1        4 0.33512135E-01 0.12500591E+03</pdfrwt>
<pdfrwt beam="2">  1       -4 0.27591308E-02 0.12500591E+03</pdfrwt>
<totfact> 0.84421307E+03</totfact>
</mgrwt>
</event>
<event>
 5    1  0.3227866E-002  0.1249913E+03  0.7818608E-02  0.1235083E+00
          4   -1    0    0  501    0  0.00000000000E+00  0.00000000000E+00  0.28687027180E+03  0.28687308298E+03  0.12700000000E+01 0.  1.
         -4   -1    0    0    0  501 -0.00000000000E+00 -0.00000000000E+00 -0.13582387617E+02  0.13641633090E+02  0.12700000000E+01 0.  1.
         25    2    1    2    0    0  0.00000000000E+00  0.00000000000E+00  0.27328788418E+03  0.30051471607E+03  0.12499130745E+03 0.  0.
    9000005    1    3    3    0    0  0.19124538241E+01 -0.58568641152E+02  0.18880991815E+03  0.19769706219E+03  0.10000000000E+01 0.  0.
    9000005    1    3    3    0    0 -0.19124538241E+01  0.58568641152E+02  0.84477966029E+02  0.10281765388E+03  0.10000000000E+01 0.  0.
<mgrwt>
<rscale>  0 0.12499131E+03</rscale>
<asrwt>0</asrwt>
<pdfrwt beam="1">  1        4 0.44138658E-01 0.12499131E+03</pdfrwt>
<pdfrwt beam="2">  1       -4 0.20943719E-02 0.12499131E+03</pdfrwt>
<totfact> 0.75548897E+03</totfact>
</mgrwt>
</event>
<event>
 5    1  0.3227866E-002  0.1249970E+03  0.7818608E-02  0.1235074E+00
          4   -1    0    0  501    0  0.00000000000E+00  0.00000000000E+00  0.89237557123E+02  0.89246593780E+02  0.12700000000E+01 0.  1.
         -4   -1    0    0    0  501 -0.00000000000E+00 -0.00000000000E+00 -0.43751052862E+02  0.43769481680E+02  0.12700000000E+01 0.  1.
         25    2    1    2    0    0  0.00000000000E+00  0.00000000000E+00  0.45486504261E+02  0.13301607546E+03  0.12499701701E+03 0.  0.
    9000005    1    3    3    0    0  0.25500838318E+02  0.53512076988E+02  0.43791680940E+02  0.73705810205E+02  0.10000000000E+01 0.  0.
    9000005    1    3    3    0    0 -0.25500838318E+02 -0.53512076988E+02  0.16948233210E+01  0.59310265255E+02  0.10000000000E+01 0.  0.
<mgrwt>
<rscale>  0 0.12499702E+03</rscale>
<asrwt>0</asrwt>
<pdfrwt beam="1">  1        4 0.13730968E-01 0.12499702E+03</pdfrwt>
<pdfrwt beam="2">  1       -4 0.67330440E-02 0.12499702E+03</pdfrwt>
<totfact> 0.10280750E+04</totfact>
</mgrwt>
</event>
<event>
 5    1  0.3227866E-002  0.1250027E+03  0.7818608E-02  0.1235065E+00
         -4   -1    0    0    0  501 -0.00000000000E+00  0.00000000000E+00  0.18632082126E+01  0.22548713585E+01  0.12700000000E+01 0.  1.
          4   -1    0    0  501    0  0.00000000000E+00 -0.00000000000E+00 -0.18968112491E+04  0.18968116743E+04  0.12700000000E+01 0.  1.
         25    2    1    2    0    0  0.00000000000E+00  0.00000000000E+00 -0.18949480409E+04  0.18990665457E+04  0.12500266808E+03 0.  0.
    9000005    1    3    3    0    0  0.27902817065E+02 -0.47796779248E+02 -0.13883930060E+04  0.13894960375E+04  0.10000000000E+01 0.  0.
    9000005    1    3    3    0    0 -0.27902817065E+02  0.47796779248E+02 -0.50655503495E+03  0.50957050812E+03  0.10000000000E+01 0.  0.
<mgrwt>
<rscale>  0 0.12500267E+03</rscale>
<asrwt>0</asrwt>
<pdfrwt beam="2">  1        4 0.29184588E+00 0.12500267E+03</pdfrwt>
<pdfrwt beam="1">  1       -4 0.31680957E-03 0.12500267E+03</pdfrwt>
<totfact> 0.11236209E+03</totfact>
</mgrwt>
</event>
<event>
 5    1  0.3227866E-002  0.1250014E+03  0.7818608E-02  0.1235067E+00
         -4   -1    0    0    0  501 -0.00000000000E+00  0.00000000000E+00  0.17951641064E+03  0.17952090293E+03  0.12700000000E+01 0. -1.
          4   -1    0    0  501    0  0.00000000000E+00 -0.00000000000E+00 -0.21737027313E+02  0.21774095995E+02  0.12700000000E+01 0. -1.
         25    2    1    2    0    0  0.00000000000E+00  0.00000000000E+00  0.15777938333E+03  0.20129499893E+03  0.12500137115E+03 0.  0.
    9000005    1    3    3    0    0 -0.11679829022E+02  0.54789145708E+02  0.12348968589E+03  0.13560594167E+03  0.10000000000E+01 0.  0.
    9000005    1    3    3    0    0  0.11679829022E+02 -0.54789145708E+02  0.34289697433E+02  0.65689057258E+02  0.10000000000E+01 0.  0.
<mgrwt>
<rscale>  0 0.12500137E+03</rscale>
<asrwt>0</asrwt>
<pdfrwt beam="2">  1        4 0.33473551E-02 0.12500137E+03</pdfrwt>
<pdfrwt beam="1">  1       -4 0.27621106E-01 0.12500137E+03</pdfrwt>
<totfact> 0.89914795E+03</totfact>
</mgrwt>
</event>
<event>
 5    1  0.3227866E-002  0.1250005E+03  0.7818608E-02  0.1235068E+00
          4   -1    0    0  501    0  0.00000000000E+00  0.00000000000E+00  0.23365654919E+02  0.23400143799E+02  0.12700000000E+01 0.  1.
         -4   -1    0    0    0  501 -0.00000000000E+00 -0.00000000000E+00 -0.16702031052E+03  0.16702513891E+03  0.12700000000E+01 0.  1.
         25    2    1    2    0    0  0.00000000000E+00  0.00000000000E+00 -0.14365465561E+03  0.19042528271E+03  0.12500051287E+03 0.  0.
    9000005    1    3    3    0    0 -0.24969830623E+02  0.15022648185E+02 -0.15604384568E+03  0.15874461936E+03  0.10000000000E+01 0.  0.
    9000005    1    3    3    0    0  0.24969830623E+02 -0.15022648185E+02  0.12389190074E+02  0.31680663353E+02  0.10000000000E+01 0.  0.
<mgrwt>
<rscale>  0 0.12500051E+03</rscale>
<asrwt>0</asrwt>
<pdfrwt beam="1">  1        4 0.35977407E-02 0.12500051E+03</pdfrwt>
<pdfrwt beam="2">  1       -4 0.25698456E-01 0.12500051E+03</pdfrwt>
<totfact> 0.91772316E+03</totfact>
</mgrwt>
</event>
<event>
 5    1  0.3227866E-002  0.1249998E+03  0.7818608E-02  0.1235070E+00
          4   -1    0    0  501    0  0.00000000000E+00  0.00000000000E+00  0.14734522779E+02  0.14789153510E+02  0.12700000000E+01 0. -1.
         -4   -1    0    0    0  501 -0.00000000000E+00 -0.00000000000E+00 -0.26456097633E+03  0.26456402457E+03  0.12700000000E+01 0. -1.
         25    2    1    2    0    0  0.00000000000E+00  0.00000000000E+00 -0.24982645355E+03  0.27935317808E+03  0.12499976484E+03 0.  0.
    9000005    1    3    3    0    0 -0.27609974245E+02 -0.54510377149E+02 -0.15418381411E+03  0.16585337027E+03  0.10000000000E+01 0.  0.
    9000005    1    3    3    0    0  0.27609974245E+02  0.54510377149E+02 -0.95642639439E+02  0.11349980781E+03  0.10000000000E+01 0.  0.
<mgrwt>
<rscale>  0 0.12499976E+03</rscale>
<asrwt>0</asrwt>
<pdfrwt beam="1">  1        4 0.22712867E-02 0.12499976E+03</pdfrwt>
<pdfrwt beam="2">  1       -4 0.40706122E-01 0.12499976E+03</pdfrwt>
<totfact> 0.78264358E+03</totfact>
</mgrwt>
</event>
<event>
 5    1  0.3227866E-002  0.1250008E+03  0.7818608E-02  0.1235068E+00
          4   -1    0    0  501    0  0.00000000000E+00  0.00000000000E+00  0.16927141047E+03  0.16927617464E+03  0.12700000000E+01 0.  1.
         -4   -1    0    0    0  501 -0.00000000000E+00 -0.00000000000E+00 -0.23054566974E+02  0.23089520531E+02  0.12700000000E+01 0.  1.
         25    2    1    2    0    0  0.00000000000E+00  0.00000000000E+00  0.14621684350E+03  0.19236569518E+03  0.12500078143E+03 0.  0.
    9000005    1    3    3    0    0  0.55572518988E+02 -0.28578659358E+02  0.72332523731E+02  0.95593088801E+02  0.10000000000E+01 0.  0.
    9000005    1    3    3    0    0 -0.55572518988E+02  0.28578659358E+02  0.73884319765E+02  0.96772606374E+02  0.10000000000E+01 0.  0.
<mgrwt>
<rscale>  0 0.12500078E+03</rscale>
<asrwt>0</asrwt>
<pdfrwt beam="1">  1        4 0.26044810E-01 0.12500078E+03</pdfrwt>
<pdfrwt beam="2">  1       -4 0.35499118E-02 0.12500078E+03</pdfrwt>
<totfact> 0.91435714E+03</totfact>
</mgrwt>
</event>
<event>
 5    1  0.3227866E-002  0.1250053E+03  0.7818608E-02  0.1235061E+00
          4   -1    0    0  501    0  0.00000000000E+00  0.00000000000E+00  0.74282048237E+01  0.75359887807E+01  0.12700000000E+01 0.  1.
         -4   -1    0    0    0  501 -0.00000000000E+00 -0.00000000000E+00 -0.52201496423E+03  0.52201650911E+03  0.12700000000E+01 0.  1.
         25    2    1    2    0    0  0.00000000000E+00  0.00000000000E+00 -0.51458675941E+03  0.52955249789E+03  0.12500526014E+03 0.  0.
    9000005    1    3    3    0    0 -0.49179093091E+02 -0.27191947250E+01 -0.42024291313E+03  0.42312064858E+03  0.10000000000E+01 0.  0.
    9000005    1    3    3    0    0  0.49179093091E+02  0.27191947250E+01 -0.94343846276E+02  0.10643184931E+03  0.10000000000E+01 0.  0.
<mgrwt>
<rscale>  0 0.12500526E+03</rscale>
<asrwt>0</asrwt>
<pdfrwt beam="1">  1        4 0.11512111E-02 0.12500526E+03</pdfrwt>
<pdfrwt beam="2">  1       -4 0.80318376E-01 0.12500526E+03</pdfrwt>
<totfact> 0.53636025E+03</totfact>
</mgrwt>
</event>
<event>
 5    1  0.3227866E-002  0.1249961E+03  0.7818608E-02  0.1235075E+00
         -4   -1    0    0    0  501 -0.00000000000E+00  0.00000000000E+00  0.87195393217E+02  0.87204641495E+02  0.12700000000E+01 0.  1.
          4   -1    0    0  501    0  0.00000000000E+00 -0.00000000000E+00 -0.44775393030E+02  0.44793400418E+02  0.12700000000E+01 0.  1.
         25    2    1    2    0    0  0.00000000000E+00  0.00000000000E+00  0.42420000186E+02  0.13199804191E+03  0.12499610655E+03 0.  0.
    9000005    1    3    3    0    0 -0.53482045857E+02 -0.28441672005E+02  0.37424205934E+02  0.71209754425E+02  0.10000000000E+01 0.  0.
    9000005    1    3    3    0    0  0.53482045857E+02  0.28441672005E+02  0.49957942518E+01  0.60788287488E+02  0.10000000000E+01 0.  0.
<mgrwt>
<rscale>  0 0.12499611E+03</rscale>
<asrwt>0</asrwt>
<pdfrwt beam="2">  1        4 0.68906186E-02 0.12499611E+03</pdfrwt>
<pdfrwt beam="1">  1       -4 0.13416773E-01 0.12499611E+03</pdfrwt>
<totfact> 0.10302645E+04</totfact>
</mgrwt>
</event>
<event>
 5    1  0.3227866E-002  0.1250225E+03  0.7818608E-02  0.1235034E+00
          4   -1    0    0  501    0  0.00000000000E+00  0.00000000000E+00  0.46419407648E+02  0.46436777519E+02  0.12700000000E+01 0.  1.
         -4   -1    0    0    0  501 -0.00000000000E+00 -0.00000000000E+00 -0.84143551879E+02  0.84153135550E+02  0.12700000000E+01 0.  1.
         25    2    1    2    0    0  0.00000000000E+00  0.00000000000E+00 -0.37724144232E+02  0.13058991307E+03  0.12502245533E+03 0.  0.
    9000005    1    3    3    0    0 -0.29751379674E+01 -0.45037214815E+02  0.26300503421E+02  0.52248623373E+02  0.10000000000E+01 0.  0.
    9000005    1    3    3    0    0  0.29751379674E+01  0.45037214815E+02 -0.64024647653E+02  0.78341289696E+02  0.10000000000E+01 0.  0.
<mgrwt>
<rscale>  0 0.12502246E+03</rscale>
<asrwt>0</asrwt>
<pdfrwt beam="1">  1        4 0.71435207E-02 0.12502246E+03</pdfrwt>
<pdfrwt beam="2">  1       -4 0.12947235E-01 0.12502246E+03</pdfrwt>
<totfact> 0.10326656E+04</totfact>
</mgrwt>
</event>
<event>
 5    1  0.3227866E-002  0.1249963E+03  0.7818608E-02  0.1235075E+00
          4   -1    0    0  501    0  0.00000000000E+00  0.00000000000E+00  0.86514873345E+02  0.86524194362E+02  0.12700000000E+01 0.  1.
         -4   -1    0    0    0  501 -0.00000000000E+00 -0.00000000000E+00 -0.45127806737E+02  0.45145673557E+02  0.12700000000E+01 0.  1.
         25    2    1    2    0    0  0.00000000000E+00  0.00000000000E+00  0.41387066608E+02  0.13166986792E+03  0.12499625928E+03 0.  0.
    9000005    1    3    3    0    0  0.11882638115E+02 -0.60847040434E+02  0.12435543884E+02  0.63239245488E+02  0.10000000000E+01 0.  0.
    9000005    1    3    3    0    0 -0.11882638115E+02  0.60847040434E+02  0.28951522724E+02  0.68430622431E+02  0.10000000000E+01 0.  0.
<mgrwt>
<rscale>  0 0.12499626E+03</rscale>
<asrwt>0</asrwt>
<pdfrwt beam="1">  1        4 0.13312072E-01 0.12499626E+03</pdfrwt>
<pdfrwt beam="2">  1       -4 0.69448310E-02 0.12499626E+03</pdfrwt>
<totfact> 0.10309620E+04</totfact>
</mgrwt>
</event>
<event>
 5    1  0.3227866E-002  0.1250072E+03  0.7818608E-02  0.1235058E+00
         -4   -1    0    0    0  501 -0.00000000000E+00  0.00000000000E+00  0.58273733619E+01  0.59641579706E+01  0.12700000000E+01 0.  1.
          4   -1    0    0  501    0  0.00000000000E+00 -0.00000000000E+00 -0.66249087515E+03  0.66249209245E+03  0.12700000000E+01 0.  1.
         25    2    1    2    0    0  0.00000000000E+00  0.00000000000E+00 -0.65666350179E+03  0.66845625042E+03  0.12500721637E+03 0.  0.
    9000005    1    3    3    0    0 -0.38538369252E+02 -0.47340103276E+02 -0.39995613960E+03  0.40458893322E+03  0.10000000000E+01 0.  0.
    9000005    1    3    3    0    0  0.38538369252E+02  0.47340103276E+02 -0.25670736219E+03  0.26386731720E+03  0.10000000000E+01 0.  0.
<mgrwt>
<rscale>  0 0.12500722E+03</rscale>
<asrwt>0</asrwt>
<pdfrwt beam="2">  1        4 0.10193223E+00 0.12500722E+03</pdfrwt>
<pdfrwt beam="1">  1       -4 0.90713504E-03 0.12500722E+03</pdfrwt>
<totfact> 0.44797884E+03</totfact>
</mgrwt>
</event>
<event>
 5    1  0.3227866E-002  0.1250049E+03  0.7818608E-02  0.1235062E+00
          4   -1    0    0  501    0  0.00000000000E+00  0.00000000000E+00  0.44772006554E+03  0.44772186678E+03  0.12700000000E+01 0. -1.
         -4   -1    0    0    0  501 -0.00000000000E+00 -0.00000000000E+00 -0.86773992212E+01  0.87698436271E+01  0.12700000000E+01 0. -1.
         25    2    1    2    0    0  0.00000000000E+00  0.00000000000E+00  0.43904266632E+03  0.45649171040E+03  0.12500487517E+03 0.  0.
    9000005    1    3    3    0    0  0.34826070704E+02 -0.50536214022E+02  0.26254287127E+03  0.26962292815E+03  0.10000000000E+01 0.  0.
    9000005    1    3    3    0    0 -0.34826070704E+02  0.50536214022E+02  0.17649979505E+03  0.18686878226E+03  0.10000000000E+01 0.  0.
<mgrwt>
<rscale>  0 0.12500488E+03</rscale>
<asrwt>0</asrwt>
<pdfrwt beam="1">  1        4 0.68887265E-01 0.12500488E+03</pdfrwt>
<pdfrwt beam="2">  1       -4 0.13422341E-02 0.12500488E+03</pdfrwt>
<totfact> 0.59399134E+03</totfact>
</mgrwt>
</event>
<event>
 5    1  0.3227866E-002  0.1249943E+03  0.7818608E-02  0.1235078E+00
          4   -1    0    0  501    0  0.00000000000E+00  0.00000000000E+00  0.77882830265E+02  0.77893184234E+02  0.12700000000E+01 0. -1.
         -4   -1    0    0    0  501 -0.00000000000E+00 -0.00000000000E+00 -0.50129179555E+02  0.50145264411E+02  0.12700000000E+01 0. -1.
         25    2    1    2    0    0  0.00000000000E+00  0.00000000000E+00  0.27753650710E+02  0.12803844865E+03  0.12499431669E+03 0.  0.
    9000005    1    3    3    0    0 -0.59185958151E+02 -0.17373612382E+01  0.34335687032E+02  0.68453893025E+02  0.10000000000E+01 0.  0.
    9000005    1    3    3    0    0  0.59185958151E+02  0.17373612382E+01 -0.65820363213E+01  0.59584555620E+02  0.10000000000E+01 0.  0.
<mgrwt>
<rscale>  0 0.12499432E+03</rscale>
<asrwt>0</asrwt>
<pdfrwt beam="1">  1        4 0.11984008E-01 0.12499432E+03</pdfrwt>
<pdfrwt beam="2">  1       -4 0.77142153E-02 0.12499432E+03</pdfrwt>
<totfact> 0.10387990E+04</totfact>
</mgrwt>
</event>
<event>
 5    1  0.3227866E-002  0.1250025E+03  0.7818608E-02  0.1235065E+00
         -4   -1    0    0    0  501 -0.00000000000E+00  0.00000000000E+00  0.52204795738E+02  0.52220241268E+02  0.12700000000E+01 0.  1.
          4   -1    0    0  501    0  0.00000000000E+00 -0.00000000000E+00 -0.74796615409E+02  0.74807396537E+02  0.12700000000E+01 0.  1.
         25    2    1    2    0    0  0.00000000000E+00  0.00000000000E+00 -0.22591819670E+02  0.12702763780E+03  0.12500252178E+03 0.  0.
    9000005    1    3    3    0    0  0.38047449125E+02  0.40386345425E+02 -0.40514855112E+02  0.68710397805E+02  0.10000000000E+01 0.  0.
    9000005    1    3    3    0    0 -0.38047449125E+02 -0.40386345425E+02  0.17923035442E+02  0.58317240000E+02  0.10000000000E+01 0.  0.
<mgrwt>
<rscale>  0 0.12500252E+03</rscale>
<asrwt>0</asrwt>
<pdfrwt beam="2">  1        4 0.11509189E-01 0.12500252E+03</pdfrwt>
<pdfrwt beam="1">  1       -4 0.80335245E-02 0.12500252E+03</pdfrwt>
<totfact> 0.10407953E+04</totfact>
</mgrwt>
</event>
<event>
 5    1  0.3227866E-002  0.1249997E+03  0.7818608E-02  0.1235070E+00
          4   -1    0    0  501    0  0.00000000000E+00  0.00000000000E+00  0.67884398605E+03  0.67884517403E+03  0.12700000000E+01 0.  1.
         -4   -1    0    0    0  501 -0.00000000000E+00 -0.00000000000E+00 -0.56829585969E+01  0.58231364756E+01  0.12700000000E+01 0.  1.
         25    2    1    2    0    0  0.00000000000E+00  0.00000000000E+00  0.67316102746E+03  0.68466831050E+03  0.12499970608E+03 0.  0.
    9000005    1    3    3    0    0 -0.52863685318E+02  0.28729290759E+02  0.42909605751E+03  0.43329478181E+03  0.10000000000E+01 0.  0.
    9000005    1    3    3    0    0  0.52863685318E+02 -0.28729290759E+02  0.24406496995E+03  0.25137352870E+03  0.10000000000E+01 0.  0.
<mgrwt>
<rscale>  0 0.12499971E+03</rscale>
<asrwt>0</asrwt>
<pdfrwt beam="1">  1        4 0.10444842E+00 0.12499971E+03</pdfrwt>
<pdfrwt beam="2">  1       -4 0.88517555E-03 0.12499971E+03</pdfrwt>
<totfact> 0.43908765E+03</totfact>
</mgrwt>
</event>
<event>
 5    1  0.3227866E-002  0.1250017E+03  0.7818608E-02  0.1235067E+00
          4   -1    0    0  501    0  0.00000000000E+00  0.00000000000E+00  0.85431662462E+03  0.85431756859E+03  0.12700000000E+01 0.  1.
         -4   -1    0    0    0  501 -0.00000000000E+00 -0.00000000000E+00 -0.44833430970E+01  0.46597494917E+01  0.12700000000E+01 0.  1.
         25    2    1    2    0    0  0.00000000000E+00  0.00000000000E+00  0.84983328152E+03  0.85897731808E+03  0.12500170637E+03 0.  0.
    9000005    1    3    3    0    0  0.37928028927E+02  0.49293780427E+02  0.46668433917E+03  0.47081172945E+03  0.10000000000E+01 0.  0.
    9000005    1    3    3    0    0 -0.37928028927E+02 -0.49293780427E+02  0.38314894236E+03  0.38816558863E+03  0.10000000000E+01 0.  0.
<mgrwt>
<rscale>  0 0.12500171E+03</rscale>
<asrwt>0</asrwt>
<pdfrwt beam="1">  1        4 0.13144690E+00 0.12500171E+03</pdfrwt>
<pdfrwt beam="2">  1       -4 0.70338782E-03 0.12500171E+03</pdfrwt>
<totfact> 0.35761439E+03</totfact>
</mgrwt>
</event>
<event>
 5    1  0.3227866E-002  0.1249691E+03  0.7818608E-02  0.1235118E+00
          4   -1    0    0  501    0  0.00000000000E+00  0.00000000000E+00  0.10077823631E+02  0.10157530661E+02  0.12700000000E+01 0. -1.
         -4   -1    0    0    0  501 -0.00000000000E+00 -0.00000000000E+00 -0.38580997108E+03  0.38581206135E+03  0.12700000000E+01 0. -1.
         25    2    1    2    0    0  0.00000000000E+00  0.00000000000E+00 -0.37573214744E+03  0.39596959201E+03  0.12496908087E+03 0.  0.
    9000005    1    3    3    0    0 -0.22978835393E+02 -0.58061455107E+02 -0.19432737034E+03  0.20411586491E+03  0.10000000000E+01 0.  0.
    9000005    1    3    3    0    0  0.22978835393E+02  0.58061455107E+02 -0.18140477710E+03  0.19185372710E+03  0.10000000000E+01 0.  0.
<mgrwt>
<rscale>  0 0.12496908E+03</rscale>
<asrwt>0</asrwt>
<pdfrwt beam="1">  1        4 0.15567268E-02 0.12496908E+03</pdfrwt>
<pdfrwt beam="2">  1       -4 0.59361661E-01 0.12496908E+03</pdfrwt>
<totfact> 0.64991044E+03</totfact>
</mgrwt>
</event>
<event>
 5    1  0.3227866E-002  0.1249996E+03  0.7818608E-02  0.1235070E+00
          4   -1    0    0  501    0  0.00000000000E+00  0.00000000000E+00  0.17288189352E+03  0.17288655820E+03  0.12700000000E+01 0.  1.
         -4   -1    0    0    0  501 -0.00000000000E+00 -0.00000000000E+00 -0.22571928298E+02  0.22607628073E+02  0.12700000000E+01 0.  1.
         25    2    1    2    0    0  0.00000000000E+00  0.00000000000E+00  0.15030996522E+03  0.19549418627E+03  0.12499956489E+03 0.  0.
    9000005    1    3    3    0    0  0.22994309882E+02  0.49850469203E+02  0.12184944423E+03  0.13364914749E+03  0.10000000000E+01 0.  0.
    9000005    1    3    3    0    0 -0.22994309882E+02 -0.49850469203E+02  0.28460520992E+02  0.61845038781E+02  0.10000000000E+01 0.  0.
<mgrwt>
<rscale>  0 0.12499956E+03</rscale>
<asrwt>0</asrwt>
<pdfrwt beam="1">  1        4 0.26600321E-01 0.12499956E+03</pdfrwt>
<pdfrwt beam="2">  1       -4 0.34757091E-02 0.12499956E+03</pdfrwt>
<totfact> 0.90900919E+03</totfact>
</mgrwt>
</event>
<event>
 5    1  0.3227866E-002  0.1249998E+03  0.7818608E-02  0.1235070E+00
          4   -1    0    0  501    0  0.00000000000E+00  0.00000000000E+00  0.19138758654E+03  0.19139180019E+03  0.12700000000E+01 0. -1.
         -4   -1    0    0    0  501 -0.00000000000E+00 -0.00000000000E+00 -0.20385897538E+02  0.20425418439E+02  0.12700000000E+01 0. -1.
         25    2    1    2    0    0  0.00000000000E+00  0.00000000000E+00  0.17100168900E+03  0.21181721863E+03  0.12499982587E+03 0.  0.
    9000005    1    3    3    0    0 -0.40303730781E+02  0.35123843401E+02  0.30665672474E+02  0.61639748202E+02  0.10000000000E+01 0.  0.
    9000005    1    3    3    0    0  0.40303730781E+02 -0.35123843401E+02  0.14033601653E+03  0.15017747043E+03  0.10000000000E+01 0.  0.
<mgrwt>
<rscale>  0 0.12499983E+03</rscale>
<asrwt>0</asrwt>
<pdfrwt beam="1">  1        4 0.29447607E-01 0.12499983E+03</pdfrwt>
<pdfrwt beam="2">  1       -4 0.31396563E-02 0.12499983E+03</pdfrwt>
<totfact> 0.88180306E+03</totfact>
</mgrwt>
</event>
<event>
 5    1  0.3227866E-002  0.1250006E+03  0.7818608E-02  0.1235068E+00
         -4   -1    0    0    0  501 -0.00000000000E+00  0.00000000000E+00  0.33281553516E+02  0.33305775842E+02  0.12700000000E+01 0.  1.
          4   -1    0    0  501    0  0.00000000000E+00 -0.00000000000E+00 -0.11730051224E+03  0.11730738712E+03  0.12700000000E+01 0.  1.
         25    2    1    2    0    0  0.00000000000E+00  0.00000000000E+00 -0.84018958724E+02  0.15061316296E+03  0.12500055772E+03 0.  0.
    9000005    1    3    3    0    0 -0.45837769936E+02  0.30354555071E+02 -0.62098628068E+01  0.55335906628E+02  0.10000000000E+01 0.  0.
    9000005    1    3    3    0    0  0.45837769936E+02 -0.30354555071E+02 -0.77809095918E+02  0.95277256330E+02  0.10000000000E+01 0.  0.
<mgrwt>
<rscale>  0 0.12500056E+03</rscale>
<asrwt>0</asrwt>
<pdfrwt beam="2">  1        4 0.18048625E-01 0.12500056E+03</pdfrwt>
<pdfrwt beam="1">  1       -4 0.51226311E-02 0.12500056E+03</pdfrwt>
<totfact> 0.99180369E+03</totfact>
</mgrwt>
</event>
<event>
 5    1  0.3227866E-002  0.1250092E+03  0.7818608E-02  0.1235055E+00
         -4   -1    0    0    0  501 -0.00000000000E+00  0.00000000000E+00  0.56494665695E+02  0.56508938691E+02  0.12700000000E+01 0. -1.
          4   -1    0    0  501    0  0.00000000000E+00 -0.00000000000E+00 -0.69124995068E+02  0.69136660630E+02  0.12700000000E+01 0. -1.
         25    2    1    2    0    0  0.00000000000E+00  0.00000000000E+00 -0.12630329373E+02  0.12564559932E+03  0.12500916530E+03 0.  0.
    9000005    1    3    3    0    0 -0.49008970645E+02 -0.33140899788E+02  0.13927490059E+02  0.60787938128E+02  0.10000000000E+01 0.  0.
    9000005    1    3    3    0    0  0.49008970645E+02  0.33140899788E+02 -0.26557819432E+02  0.64857661193E+02  0.10000000000E+01 0.  0.
<mgrwt>
<rscale>  0 0.12500917E+03</rscale>
<asrwt>0</asrwt>
<pdfrwt beam="2">  1        4 0.10636610E-01 0.12500917E+03</pdfrwt>
<pdfrwt beam="1">  1       -4 0.86934823E-02 0.12500917E+03</pdfrwt>
<totfact> 0.10436584E+04</totfact>
</mgrwt>
</event>
<event>
 5    1  0.3227866E-002  0.1250020E+03  0.7818608E-02  0.1235066E+00
         -4   -1    0    0    0  501 -0.00000000000E+00  0.00000000000E+00  0.24296675257E+02  0.24329844400E+02  0.12700000000E+01 0.  1.
          4   -1    0    0  501    0  0.00000000000E+00 -0.00000000000E+00 -0.16063284292E+03  0.16063786329E+03  0.12700000000E+01 0.  1.
         25    2    1    2    0    0  0.00000000000E+00  0.00000000000E+00 -0.13633616766E+03  0.18496770769E+03  0.12500200909E+03 0.  0.
    9000005    1    3    3    0    0  0.12565542674E+02  0.37698471615E+02 -0.13953756228E+03  0.14508893449E+03  0.10000000000E+01 0.  0.
    9000005    1    3    3    0    0 -0.12565542674E+02 -0.37698471615E+02  0.32013946190E+01  0.39878773204E+02  0.10000000000E+01 0.  0.
<mgrwt>
<rscale>  0 0.12500201E+03</rscale>
<asrwt>0</asrwt>
<pdfrwt beam="2">  1        4 0.24715682E-01 0.12500201E+03</pdfrwt>
<pdfrwt beam="1">  1       -4 0.37408878E-02 0.12500201E+03</pdfrwt>
<totfact> 0.92726191E+03</totfact>
</mgrwt>
</event>
<event>
 5    1  0.3227866E-002  0.1250001E+03  0.7818608E-02  0.1235069E+00
          4   -1    0    0  501    0  0.00000000000E+00  0.00000000000E+00  0.84964942737E+01  0.85908855739E+01  0.12700000000E+01 0.  1.
         -4   -1    0    0    0  501 -0.00000000000E+00 -0.00000000000E+00 -0.45711416391E+03  0.45711592813E+03  0.12700000000E+01 0.  1.
         25    2    1    2    0    0  0.00000000000E+00  0.00000000000E+00 -0.44861766964E+03  0.46570681370E+03  0.12500009127E+03 0.  0.
    9000005    1    3    3    0    0  0.48302744753E+02 -0.38040101422E+02 -0.18264624539E+03  0.19271962905E+03  0.10000000000E+01 0.  0.
    9000005    1    3    3    0    0 -0.48302744753E+02  0.38040101422E+02 -0.26597142425E+03  0.27298718465E+03  0.10000000000E+01 0.  0.
<mgrwt>
<rscale>  0 0.12500009E+03</rscale>
<asrwt>0</asrwt>
<pdfrwt beam="1">  1        4 0.13145499E-02 0.12500009E+03</pdfrwt>
<pdfrwt beam="2">  1       -4 0.70332633E-01 0.12500009E+03</pdfrwt>
<totfact> 0.58626752E+03</totfact>
</mgrwt>
</event>
<event>
 5    1  0.3227866E-002  0.1250031E+03  0.7818608E-02  0.1235065E+00
         -4   -1    0    0    0  501 -0.00000000000E+00  0.00000000000E+00  0.22499596073E+03  0.22499954499E+03  0.12700000000E+01 0. -1.
          4   -1    0    0  501    0  0.00000000000E+00 -0.00000000000E+00 -0.17335318738E+02  0.17381777117E+02  0.12700000000E+01 0. -1.
         25    2    1    2    0    0  0.00000000000E+00  0.00000000000E+00  0.20766064200E+03  0.24238132211E+03  0.12500305225E+03 0.  0.
    9000005    1    3    3    0    0 -0.20645626003E+02  0.55164729379E+02  0.63340352510E+02  0.86500806335E+02  0.10000000000E+01 0.  0.
    9000005    1    3    3    0    0  0.20645626003E+02 -0.55164729379E+02  0.14432028949E+03  0.15588051577E+03  0.10000000000E+01 0.  0.
<mgrwt>
<rscale>  0 0.12500305E+03</rscale>
<asrwt>0</asrwt>
<pdfrwt beam="2">  1        4 0.26708216E-02 0.12500305E+03</pdfrwt>
<pdfrwt beam="1">  1       -4 0.34618612E-01 0.12500305E+03</pdfrwt>
<totfact> 0.83438308E+03</totfact>
</mgrwt>
</event>
<event>
 5    1  0.3227866E-002  0.1249988E+03  0.7818608E-02  0.1235071E+00
         -4   -1    0    0    0  501 -0.00000000000E+00  0.00000000000E+00  0.86465672017E+02  0.86474998337E+02  0.12700000000E+01 0.  1.
          4   -1    0    0  501    0  0.00000000000E+00 -0.00000000000E+00 -0.45155359040E+02  0.45173214962E+02  0.12700000000E+01 0.  1.
         25    2    1    2    0    0  0.00000000000E+00  0.00000000000E+00  0.41310312978E+02  0.13164821330E+03  0.12499884042E+03 0.  0.
    9000005    1    3    3    0    0 -0.28734611536E+02  0.42909484525E+02  0.57716202407E+02  0.77453610521E+02  0.10000000000E+01 0.  0.
    9000005    1    3    3    0    0  0.28734611536E+02 -0.42909484525E+02 -0.16405889430E+02  0.54194602779E+02  0.10000000000E+01 0.  0.
<mgrwt>
<rscale>  0 0.12499884E+03</rscale>
<asrwt>0</asrwt>
<pdfrwt beam="2">  1        4 0.69490693E-02 0.12499884E+03</pdfrwt>
<pdfrwt beam="1">  1       -4 0.13304502E-01 0.12499884E+03</pdfrwt>
<totfact> 0.10309482E+04</totfact>
</mgrwt>
</event>
<event>
 5    1  0.3227866E-002  0.1250090E+03  0.7818608E-02  0.1235055E+00
          4   -1    0    0  501    0  0.00000000000E+00  0.00000000000E+00  0.72846430435E+01  0.73945198811E+01  0.12700000000E+01 0. -1.
         -4   -1    0    0    0  501 -0.00000000000E+00 -0.00000000000E+00 -0.53218277763E+03  0.53218429299E+03  0.12700000000E+01 0. -1.
         25    2    1    2    0    0  0.00000000000E+00  0.00000000000E+00 -0.52489813459E+03  0.53957881287E+03  0.12500897411E+03 0.  0.
    9000005    1    3    3    0    0 -0.28946322468E+02  0.47665040915E+01 -0.50063808477E+03  0.50149785749E+03  0.10000000000E+01 0.  0.
    9000005    1    3    3    0    0  0.28946322468E+02 -0.47665040915E+01 -0.24260049817E+02  0.38080955382E+02  0.10000000000E+01 0.  0.
<mgrwt>
<rscale>  0 0.12500897E+03</rscale>
<asrwt>0</asrwt>
<pdfrwt beam="1">  1        4 0.11292834E-02 0.12500897E+03</pdfrwt>
<pdfrwt beam="2">  1       -4 0.81882812E-01 0.12500897E+03</pdfrwt>
<totfact> 0.52908777E+03</totfact>
</mgrwt>
</event>
<event>
 5    1  0.3227866E-002  0.1249927E+03  0.7818608E-02  0.1235081E+00
         -4   -1    0    0    0  501 -0.00000000000E+00  0.00000000000E+00  0.38533421114E+01  0.40572337161E+01  0.12700000000E+01 0. -1.
          4   -1    0    0  501    0  0.00000000000E+00 -0.00000000000E+00 -0.98728246872E+03  0.98728328556E+03  0.12700000000E+01 0. -1.
         25    2    1    2    0    0  0.00000000000E+00  0.00000000000E+00 -0.98342912661E+03  0.99134051927E+03  0.12499271216E+03 0.  0.
    9000005    1    3    3    0    0 -0.45435394852E+02  0.16752889276E+02 -0.80494724720E+03  0.80640319021E+03  0.10000000000E+01 0.  0.
    9000005    1    3    3    0    0  0.45435394852E+02 -0.16752889276E+02 -0.17848187941E+03  0.18493732907E+03  0.10000000000E+01 0.  0.
<mgrwt>
<rscale>  0 0.12499271E+03</rscale>
<asrwt>0</asrwt>
<pdfrwt beam="2">  1        4 0.15190516E+00 0.12499271E+03</pdfrwt>
<pdfrwt beam="1">  1       -4 0.60856945E-03 0.12499271E+03</pdfrwt>
<totfact> 0.30897089E+03</totfact>
</mgrwt>
</event>
<event>
 5    1  0.3227866E-002  0.1249964E+03  0.7818608E-02  0.1235075E+00
         -4   -1    0    0    0  501 -0.00000000000E+00  0.00000000000E+00  0.19919655077E+03  0.19920059924E+03  0.12700000000E+01 0.  1.
          4   -1    0    0  501    0  0.00000000000E+00 -0.00000000000E+00 -0.19584081773E+02  0.19625217423E+02  0.12700000000E+01 0.  1.
         25    2    1    2    0    0  0.00000000000E+00  0.00000000000E+00  0.17961246900E+03  0.21882581666E+03  0.12499639603E+03 0.  0.
    9000005    1    3    3    0    0 -0.13810757394E+02 -0.51533744592E+02  0.14676479324E+03  0.15616455547E+03  0.10000000000E+01 0.  0.
    9000005    1    3    3    0    0  0.13810757394E+02  0.51533744592E+02  0.32847675755E+02  0.62661261190E+02  0.10000000000E+01 0.  0.
<mgrwt>
<rscale>  0 0.12499640E+03</rscale>
<asrwt>0</asrwt>
<pdfrwt beam="2">  1        4 0.30164115E-02 0.12499640E+03</pdfrwt>
<pdfrwt beam="1">  1       -4 0.30649097E-01 0.12499640E+03</pdfrwt>
<totfact> 0.87061500E+03</totfact>
</mgrwt>
</event>
<event>
 5    1  0.3227866E-002  0.1249992E+03  0.7818608E-02  0.1235071E+00
         -4   -1    0    0    0  501 -0.00000000000E+00  0.00000000000E+00  0.82791547679E+02  0.82801287835E+02  0.12700000000E+01 0.  1.
          4   -1    0    0  501    0  0.00000000000E+00 -0.00000000000E+00 -0.47160048974E+02  0.47177146154E+02  0.12700000000E+01 0.  1.
         25    2    1    2    0    0  0.00000000000E+00  0.00000000000E+00  0.35631498705E+02  0.12997843399E+03  0.12499915841E+03 0.  0.
    9000005    1    3    3    0    0 -0.32658425763E+02 -0.42194459672E+02 -0.16010885956E+02  0.55716188576E+02  0.10000000000E+01 0.  0.
    9000005    1    3    3    0    0  0.32658425763E+02  0.42194459672E+02  0.51642384661E+02  0.74262245413E+02  0.10000000000E+01 0.  0.
<mgrwt>
<rscale>  0 0.12499916E+03</rscale>
<asrwt>0</asrwt>
<pdfrwt beam="2">  1        4 0.72574566E-02 0.12499916E+03</pdfrwt>
<pdfrwt beam="1">  1       -4 0.12739225E-01 0.12499916E+03</pdfrwt>
<totfact> 0.10345165E+04</totfact>
</mgrwt>
</event>
<event>
 5    1  0.3227866E-002  0.1250021E+03  0.7818608E-02  0.1235066E+00
         -4   -1    0    0    0  501 -0.00000000000E+00  0.00000000000E+00  0.12036351246E+02  0.12103166995E+02  0.12700000000E+01 0.  1.
          4   -1    0    0  501    0  0.00000000000E+00 -0.00000000000E+00 -0.32358201099E+03  0.32358450323E+03  0.12700000000E+01 0.  1.
         25    2    1    2    0    0  0.00000000000E+00  0.00000000000E+00 -0.31154565974E+03  0.33568767023E+03  0.12500205535E+03 0.  0.
    9000005    1    3    3    0    0  0.27081765313E+02 -0.29727716770E+02 -0.28423257573E+03  0.28706500355E+03  0.10000000000E+01 0.  0.
    9000005    1    3    3    0    0 -0.27081765313E+02  0.29727716770E+02 -0.27313084007E+02  0.48622666677E+02  0.10000000000E+01 0.  0.
<mgrwt>
<rscale>  0 0.12500206E+03</rscale>
<asrwt>0</asrwt>
<pdfrwt beam="2">  1        4 0.49787173E-01 0.12500206E+03</pdfrwt>
<pdfrwt beam="1">  1       -4 0.18570780E-02 0.12500206E+03</pdfrwt>
<totfact> 0.71325084E+03</totfact>
</mgrwt>
</event>
<event>
 5    1  0.3227866E-002  0.1249996E+03  0.7818608E-02  0.1235070E+00
         -4   -1    0    0    0  501 -0.00000000000E+00  0.00000000000E+00  0.40067528219E+02  0.40087650437E+02  0.12700000000E+01 0. -1.
          4   -1    0    0  501    0  0.00000000000E+00 -0.00000000000E+00 -0.97442233293E+02  0.97450509127E+02  0.12700000000E+01 0. -1.
         25    2    1    2    0    0  0.00000000000E+00  0.00000000000E+00 -0.57374705074E+02  0.13753815956E+03  0.12499955422E+03 0.  0.
    9000005    1    3    3    0    0 -0.16861364085E+02 -0.54146332787E+02  0.19636516751E+00  0.56720097958E+02  0.10000000000E+01 0.  0.
    9000005    1    3    3    0    0  0.16861364085E+02  0.54146332787E+02 -0.57571070241E+02  0.80818061606E+02  0.10000000000E+01 0.  0.
<mgrwt>
<rscale>  0 0.12499955E+03</rscale>
<asrwt>0</asrwt>
<pdfrwt beam="2">  1        4 0.14993297E-01 0.12499955E+03</pdfrwt>
<pdfrwt beam="1">  1       -4 0.61664196E-02 0.12499955E+03</pdfrwt>
<totfact> 0.10184948E+04</totfact>
</mgrwt>
</event>
<event>
 5    1  0.3227866E-002  0.1250020E+03  0.7818608E-02  0.1235066E+00
          4   -1    0    0  501    0  0.00000000000E+00  0.00000000000E+00  0.41744652422E+01  0.43633771391E+01  0.12700000000E+01 0. -1.
         -4   -1    0    0    0  501 -0.00000000000E+00 -0.00000000000E+00 -0.91488338203E+03  0.91488426350E+03  0.12700000000E+01 0. -1.
         25    2    1    2    0    0  0.00000000000E+00  0.00000000000E+00 -0.91070891678E+03  0.91924764064E+03  0.12500197486E+03 0.  0.
    9000005    1    3    3    0    0 -0.33151901963E+01  0.36255921959E+02 -0.81832331479E+02  0.89571272394E+02  0.10000000000E+01 0.  0.
    9000005    1    3    3    0    0  0.33151901963E+01 -0.36255921959E+02 -0.82887658530E+03  0.82967636825E+03  0.10000000000E+01 0.  0.
<mgrwt>
<rscale>  0 0.12500197E+03</rscale>
<asrwt>0</asrwt>
<pdfrwt beam="1">  1        4 0.65682564E-03 0.12500197E+03</pdfrwt>
<pdfrwt beam="2">  1       -4 0.14076573E+00 0.12500197E+03</pdfrwt>
<totfact> 0.33432141E+03</totfact>
</mgrwt>
</event>
<event>
 5    1  0.3227866E-002  0.1250016E+03  0.7818608E-02  0.1235067E+00
         -4   -1    0    0    0  501 -0.00000000000E+00  0.00000000000E+00  0.44261531584E+02  0.44279747946E+02  0.12700000000E+01 0.  1.
          4   -1    0    0  501    0  0.00000000000E+00 -0.00000000000E+00 -0.88215160300E+02  0.88224301679E+02  0.12700000000E+01 0.  1.
         25    2    1    2    0    0  0.00000000000E+00  0.00000000000E+00 -0.43953628716E+02  0.13250404962E+03  0.12500160675E+03 0.  0.
    9000005    1    3    3    0    0  0.46268282850E+02 -0.12170466320E+02  0.20641690524E+02  0.52114812060E+02  0.10000000000E+01 0.  0.
    9000005    1    3    3    0    0 -0.46268282850E+02  0.12170466320E+02 -0.64595319241E+02  0.80389237564E+02  0.10000000000E+01 0.  0.
<mgrwt>
<rscale>  0 0.12500161E+03</rscale>
<asrwt>0</asrwt>
<pdfrwt beam="2">  1        4 0.13573667E-01 0.12500161E+03</pdfrwt>
<pdfrwt beam="1">  1       -4 0.68115709E-02 0.12500161E+03</pdfrwt>
<totfact> 0.10290579E+04</totfact>
</mgrwt>
</event>
<event>
 5    1  0.3227866E-002  0.1250264E+03  0.7818608E-02  0.1235028E+00
          4   -1    0    0  501    0  0.00000000000E+00  0.00000000000E+00  0.49661003837E+02  0.49677240283E+02  0.12700000000E+01 0. -1.
         -4   -1    0    0    0  501 -0.00000000000E+00 -0.00000000000E+00 -0.78657281282E+02  0.78667533321E+02  0.12700000000E+01 0. -1.
         25    2    1    2    0    0  0.00000000000E+00  0.00000000000E+00 -0.28996277445E+02  0.12834477360E+03  0.12502638444E+03 0.  0.
    9000005    1    3    3    0    0 -0.14055376909E+02 -0.52607509014E+02 -0.46001350967E+02  0.71289746216E+02  0.10000000000E+01 0.  0.
    9000005    1    3    3    0    0  0.14055376909E+02  0.52607509014E+02  0.17005073522E+02  0.57055027388E+02  0.10000000000E+01 0.  0.
<mgrwt>
<rscale>  0 0.12502638E+03</rscale>
<asrwt>0</asrwt>
<pdfrwt beam="1">  1        4 0.76421921E-02 0.12502638E+03</pdfrwt>
<pdfrwt beam="2">  1       -4 0.12103158E-01 0.12502638E+03</pdfrwt>
<totfact> 0.10373868E+04</totfact>
</mgrwt>
</event>
<event>
 5    1  0.3227866E-002  0.1250012E+03  0.7818608E-02  0.1235067E+00
         -4   -1    0    0    0  501 -0.00000000000E+00  0.00000000000E+00  0.92432865069E+02  0.92441589368E+02  0.12700000000E+01 0.  1.
          4   -1    0    0  501    0  0.00000000000E+00 -0.00000000000E+00 -0.42240919535E+02  0.42260006899E+02  0.12700000000E+01 0.  1.
         25    2    1    2    0    0  0.00000000000E+00  0.00000000000E+00  0.50191945535E+02  0.13470159627E+03  0.12500115456E+03 0.  0.
    9000005    1    3    3    0    0 -0.41715408823E+02  0.24649283075E+02  0.67624570654E+02  0.83197626441E+02  0.10000000000E+01 0.  0.
    9000005    1    3    3    0    0  0.41715408823E+02 -0.24649283075E+02 -0.17432625119E+02  0.51503969826E+02  0.10000000000E+01 0.  0.
<mgrwt>
<rscale>  0 0.12500115E+03</rscale>
<asrwt>0</asrwt>
<pdfrwt beam="2">  1        4 0.65007424E-02 0.12500115E+03</pdfrwt>
<pdfrwt beam="1">  1       -4 0.14222580E-01 0.12500115E+03</pdfrwt>
<totfact> 0.10244098E+04</totfact>
</mgrwt>
</event>
<event>
 5    1  0.3227866E-002  0.1249813E+03  0.7818608E-02  0.1235099E+00
         -4   -1    0    0    0  501 -0.00000000000E+00  0.00000000000E+00  0.10866257191E+03  0.10866999326E+03  0.12700000000E+01 0. -1.
          4   -1    0    0  501    0  0.00000000000E+00 -0.00000000000E+00 -0.35917786669E+02  0.35940232320E+02  0.12700000000E+01 0. -1.
         25    2    1    2    0    0  0.00000000000E+00  0.00000000000E+00  0.72744785245E+02  0.14461022558E+03  0.12498125284E+03 0.  0.
    9000005    1    3    3    0    0 -0.14845660547E+02  0.60340359317E+02  0.43935481170E+02  0.76109651853E+02  0.10000000000E+01 0.  0.
    9000005    1    3    3    0    0  0.14845660547E+02 -0.60340359317E+02  0.28809304075E+02  0.68500573727E+02  0.10000000000E+01 0.  0.
<mgrwt>
<rscale>  0 0.12498125E+03</rscale>
<asrwt>0</asrwt>
<pdfrwt beam="2">  1        4 0.55281108E-02 0.12498125E+03</pdfrwt>
<pdfrwt beam="1">  1       -4 0.16719616E-01 0.12498125E+03</pdfrwt>
<totfact> 0.10043153E+04</totfact>
</mgrwt>
</event>
<event>
 5    1  0.3227866E-002  0.1249995E+03  0.7818608E-02  0.1235070E+00
         -4   -1    0    0    0  501 -0.00000000000E+00  0.00000000000E+00  0.28242460909E+03  0.28242746453E+03  0.12700000000E+01 0.  1.
          4   -1    0    0  501    0  0.00000000000E+00 -0.00000000000E+00 -0.13798935661E+02  0.13857255334E+02  0.12700000000E+01 0.  1.
         25    2    1    2    0    0  0.00000000000E+00  0.00000000000E+00  0.26862567343E+03  0.29628471986E+03  0.12499953119E+03 0.  0.
    9000005    1    3    3    0    0  0.29367411692E+02  0.34520116014E+01  0.26480480100E+03  0.26645251713E+03  0.10000000000E+01 0.  0.
    9000005    1    3    3    0    0 -0.29367411692E+02 -0.34520116014E+01  0.38208724294E+01  0.29832202730E+02  0.10000000000E+01 0.  0.
<mgrwt>
<rscale>  0 0.12499953E+03</rscale>
<asrwt>0</asrwt>
<pdfrwt beam="2">  1        4 0.21276189E-02 0.12499953E+03</pdfrwt>
<pdfrwt beam="1">  1       -4 0.43454647E-01 0.12499953E+03</pdfrwt>
<totfact> 0.76068042E+03</totfact>
</mgrwt>
</event>
<event>
 5    1  0.3227866E-002  0.1249990E+03  0.7818608E-02  0.1235071E+00
          4   -1    0    0  501    0  0.00000000000E+00  0.00000000000E+00  0.15687232999E+03  0.15687747071E+03  0.12700000000E+01 0. -1.
         -4   -1    0    0    0  501 -0.00000000000E+00 -0.00000000000E+00 -0.24878681978E+02  0.24911076191E+02  0.12700000000E+01 0. -1.
         25    2    1    2    0    0  0.00000000000E+00  0.00000000000E+00  0.13199364802E+03  0.18178854690E+03  0.12499901067E+03 0.  0.
    9000005    1    3    3    0    0 -0.54645926470E+02  0.23168126778E+02  0.94430499438E+02  0.11153949346E+03  0.10000000000E+01 0.  0.
    9000005    1    3    3    0    0  0.54645926470E+02 -0.23168126778E+02  0.37563148577E+02  0.70249053440E+02  0.10000000000E+01 0.  0.
<mgrwt>
<rscale>  0 0.12499901E+03</rscale>
<asrwt>0</asrwt>
<pdfrwt beam="1">  1        4 0.24137092E-01 0.12499901E+03</pdfrwt>
<pdfrwt beam="2">  1       -4 0.38303768E-02 0.12499901E+03</pdfrwt>
<totfact> 0.93298115E+03</totfact>
</mgrwt>
</event>
<event>
 5    1  0.3227866E-002  0.1250002E+03  0.7818608E-02  0.1235069E+00
         -4   -1    0    0    0  501 -0.00000000000E+00  0.00000000000E+00  0.72237693782E+01  0.73345582027E+01  0.12700000000E+01 0. -1.
          4   -1    0    0  501    0  0.00000000000E+00 -0.00000000000E+00 -0.53652487792E+03  0.53652638102E+03  0.12700000000E+01 0. -1.
         25    2    1    2    0    0  0.00000000000E+00  0.00000000000E+00 -0.52930110855E+03  0.54386093922E+03  0.12500023082E+03 0.  0.
    9000005    1    3    3    0    0 -0.49992269841E+02 -0.25673808209E+02 -0.38355722919E+03  0.38765386563E+03  0.10000000000E+01 0.  0.
    9000005    1    3    3    0    0  0.49992269841E+02  0.25673808209E+02 -0.14574387936E+03  0.15620707360E+03  0.10000000000E+01 0.  0.
<mgrwt>
<rscale>  0 0.12500023E+03</rscale>
<asrwt>0</asrwt>
<pdfrwt beam="2">  1        4 0.82550895E-01 0.12500023E+03</pdfrwt>
<pdfrwt beam="1">  1       -4 0.11199874E-02 0.12500023E+03</pdfrwt>
<totfact> 0.52614712E+03</totfact>
</mgrwt>
</event>
<event>
 5    1  0.3227866E-002  0.1250016E+03  0.7818608E-02  0.1235067E+00
         -4   -1    0    0    0  501 -0.00000000000E+00  0.00000000000E+00  0.14043712606E+02  0.14101019955E+02  0.12700000000E+01 0. -1.
          4   -1    0    0  501    0  0.00000000000E+00 -0.00000000000E+00 -0.27753118985E+03  0.27753409563E+03  0.12700000000E+01 0. -1.
         25    2    1    2    0    0  0.00000000000E+00  0.00000000000E+00 -0.26348747724E+03  0.29163511558E+03  0.12500155991E+03 0.  0.
    9000005    1    3    3    0    0 -0.33023074857E+00 -0.56420790436E+02 -0.69057417232E+02  0.89181508849E+02  0.10000000000E+01 0.  0.
    9000005    1    3    3    0    0  0.33023074857E+00  0.56420790436E+02 -0.19443006001E+03  0.20245360674E+03  0.10000000000E+01 0.  0.
<mgrwt>
<rscale>  0 0.12500156E+03</rscale>
<asrwt>0</asrwt>
<pdfrwt beam="2">  1        4 0.42701734E-01 0.12500156E+03</pdfrwt>
<pdfrwt beam="1">  1       -4 0.21652032E-02 0.12500156E+03</pdfrwt>
<totfact> 0.76657585E+03</totfact>
</mgrwt>
</event>
<event>
 5    1  0.3227866E-002  0.1249973E+03  0.7818608E-02  0.1235074E+00
         -4   -1    0    0    0  501 -0.00000000000E+00  0.00000000000E+00  0.13993479696E+03  0.13994055988E+03  0.12700000000E+01 0.  1.
          4   -1    0    0  501    0  0.00000000000E+00 -0.00000000000E+00 -0.27892790438E+02  0.27921687958E+02  0.12700000000E+01 0.  1.
         25    2    1    2    0    0  0.00000000000E+00  0.00000000000E+00  0.11204200652E+03  0.16786224784E+03  0.12499729207E+03 0.  0.
    9000005    1    3    3    0    0  0.55427320746E+02 -0.26752435951E+02  0.70559393205E+02  0.93634975751E+02  0.10000000000E+01 0.  0.
    9000005    1    3    3    0    0 -0.55427320746E+02  0.26752435951E+02  0.41482613317E+02  0.74227272090E+02  0.10000000000E+01 0.  0.
<mgrwt>
<rscale>  0 0.12499729E+03</rscale>
<asrwt>0</asrwt>
<pdfrwt beam="2">  1        4 0.42938646E-02 0.12499729E+03</pdfrwt>
<pdfrwt beam="1">  1       -4 0.21531097E-01 0.12499729E+03</pdfrwt>
<totfact> 0.95853886E+03</totfact>
</mgrwt>
</event>
<event>
 5    1  0.3227866E-002  0.1250089E+03  0.7818608E-02  0.1235055E+00
         -4   -1    0    0    0  501 -0.00000000000E+00  0.00000000000E+00  0.12662489799E+03  0.12663126664E+03  0.12700000000E+01 0.  1.
          4   -1    0    0  501    0  0.00000000000E+00 -0.00000000000E+00 -0.30833140920E+02  0.30859285134E+02  0.12700000000E+01 0.  1.
         25    2    1    2    0    0  0.00000000000E+00  0.00000000000E+00  0.95791757066E+02  0.15749055177E+03  0.12500885239E+03 0.  0.
    9000005    1    3    3    0    0 -0.32269609570E+02  0.51740490492E+02  0.65142154308E+02  0.89235118233E+02  0.10000000000E+01 0.  0.
    9000005    1    3    3    0    0  0.32269609570E+02 -0.51740490492E+02  0.30649602757E+02  0.68255433537E+02  0.10000000000E+01 0.  0.
<mgrwt>
<rscale>  0 0.12500885E+03</rscale>
<asrwt>0</asrwt>
<pdfrwt beam="2">  1        4 0.47460611E-02 0.12500885E+03</pdfrwt>
<pdfrwt beam="1">  1       -4 0.19483255E-01 0.12500885E+03</pdfrwt>
<totfact> 0.97809311E+03</totfact>
</mgrwt>
</event>
<event>
 5    1  0.3227866E-002  0.1250035E+03  0.7818608E-02  0.1235064E+00
          4   -1    0    0  501    0  0.00000000000E+00  0.00000000000E+00  0.87750605410E+01  0.88664867619E+01  0.12700000000E+01 0.  1.
         -4   -1    0    0    0  501 -0.00000000000E+00 -0.00000000000E+00 -0.44277888797E+03  0.44278070931E+03  0.12700000000E+01 0.  1.
         25    2    1    2    0    0  0.00000000000E+00  0.00000000000E+00 -0.43400382743E+03  0.45164719607E+03  0.12500346992E+03 0.  0.
    9000005    1    3    3    0    0  0.35298916228E+02  0.41428730783E+02 -0.10604374881E+03  0.11919995757E+03  0.10000000000E+01 0.  0.
    9000005    1    3    3    0    0 -0.35298916228E+02 -0.41428730783E+02 -0.32796007862E+03  0.33244723850E+03  0.10000000000E+01 0.  0.
<mgrwt>
<rscale>  0 0.12500347E+03</rscale>
<asrwt>0</asrwt>
<pdfrwt beam="1">  1        4 0.13571825E-02 0.12500347E+03</pdfrwt>
<pdfrwt beam="2">  1       -4 0.68126985E-01 0.12500347E+03</pdfrwt>
<totfact> 0.59816799E+03</totfact>
</mgrwt>
</event>
<event>
 5    1  0.3227866E-002  0.1250006E+03  0.7818608E-02  0.1235068E+00
         -4   -1    0    0    0  501 -0.00000000000E+00  0.00000000000E+00  0.23728254491E+03  0.23728594358E+03  0.12700000000E+01 0. -1.
          4   -1    0    0  501    0  0.00000000000E+00 -0.00000000000E+00 -0.16434579047E+02  0.16483576325E+02  0.12700000000E+01 0. -1.
         25    2    1    2    0    0  0.00000000000E+00  0.00000000000E+00  0.22084796587E+03  0.25376951990E+03  0.12500058082E+03 0.  0.
    9000005    1    3    3    0    0  0.26653229635E+02  0.55563412158E+02  0.89365295250E+02  0.10855801866E+03  0.10000000000E+01 0.  0.
    9000005    1    3    3    0    0 -0.26653229635E+02 -0.55563412158E+02  0.13148267062E+03  0.14521150124E+03  0.10000000000E+01 0.  0.
<mgrwt>
<rscale>  0 0.12500058E+03</rscale>
<asrwt>0</asrwt>
<pdfrwt beam="2">  1        4 0.25324273E-02 0.12500058E+03</pdfrwt>
<pdfrwt beam="1">  1       -4 0.36509036E-01 0.12500058E+03</pdfrwt>
<totfact> 0.81787391E+03</totfact>
</mgrwt>
</event>
<event>
 5    1  0.3227866E-002  0.1249966E+03  0.7818608E-02  0.1235075E+00
          4   -1    0    0  501    0  0.00000000000E+00  0.00000000000E+00  0.45201558696E+01  0.46951793454E+01  0.12700000000E+01 0.  1.
         -4   -1    0    0    0  501 -0.00000000000E+00 -0.00000000000E+00 -0.84755017276E+03  0.84755112427E+03  0.12700000000E+01 0.  1.
         25    2    1    2    0    0  0.00000000000E+00  0.00000000000E+00 -0.84303001689E+03  0.85224630362E+03  0.12499661052E+03 0.  0.
    9000005    1    3    3    0    0  0.51888553061E+02 -0.27350091318E+02 -0.27455430459E+03  0.28075169741E+03  0.10000000000E+01 0.  0.
    9000005    1    3    3    0    0 -0.51888553061E+02  0.27350091318E+02 -0.56847571231E+03  0.57149460620E+03  0.10000000000E+01 0.  0.
<mgrwt>
<rscale>  0 0.12499661E+03</rscale>
<asrwt>0</asrwt>
<pdfrwt beam="1">  1        4 0.70894581E-03 0.12499661E+03</pdfrwt>
<pdfrwt beam="2">  1       -4 0.13040575E+00 0.12499661E+03</pdfrwt>
<totfact> 0.36038276E+03</totfact>
</mgrwt>
</event>
<event>
 5    1  0.3227866E-002  0.1249993E+03  0.7818608E-02  0.1235070E+00
         -4   -1    0    0    0  501 -0.00000000000E+00  0.00000000000E+00  0.16077843445E+03  0.16078345028E+03  0.12700000000E+01 0. -1.
          4   -1    0    0  501    0  0.00000000000E+00 -0.00000000000E+00 -0.24273603567E+02  0.24306804194E+02  0.12700000000E+01 0. -1.
         25    2    1    2    0    0  0.00000000000E+00  0.00000000000E+00  0.13650483088E+03  0.18509025447E+03  0.12499933379E+03 0.  0.
    9000005    1    3    3    0    0 -0.52358237137E+02 -0.26632624726E+02  0.99821031105E+02  0.11582711231E+03  0.10000000000E+01 0.  0.
    9000005    1    3    3    0    0  0.52358237137E+02  0.26632624726E+02  0.36683799778E+02  0.69263142161E+02  0.10000000000E+01 0.  0.
<mgrwt>
<rscale>  0 0.12499933E+03</rscale>
<asrwt>0</asrwt>
<pdfrwt beam="2">  1        4 0.37373402E-02 0.12499933E+03</pdfrwt>
<pdfrwt beam="1">  1       -4 0.24738084E-01 0.12499933E+03</pdfrwt>
<totfact> 0.92710066E+03</totfact>
</mgrwt>
</event>
<event>
 5    1  0.3227866E-002  0.1250032E+03  0.7818608E-02  0.1235064E+00
         -4   -1    0    0    0  501 -0.00000000000E+00  0.00000000000E+00  0.74579596408E+02  0.74590408904E+02  0.12700000000E+01 0. -1.
          4   -1    0    0  501    0  0.00000000000E+00 -0.00000000000E+00 -0.52357277057E+02  0.52372677617E+02  0.12700000000E+01 0. -1.
         25    2    1    2    0    0  0.00000000000E+00  0.00000000000E+00  0.22222319352E+02  0.12696308652E+03  0.12500317541E+03 0.  0.
    9000005    1    3    3    0    0 -0.60454071424E+01 -0.60580531679E+02  0.25435498380E+02  0.65988728915E+02  0.10000000000E+01 0.  0.
    9000005    1    3    3    0    0  0.60454071424E+01  0.60580531679E+02 -0.32131790281E+01  0.60974357606E+02  0.10000000000E+01 0.  0.
<mgrwt>
<rscale>  0 0.12500318E+03</rscale>
<asrwt>0</asrwt>
<pdfrwt beam="2">  1        4 0.80569822E-02 0.12500318E+03</pdfrwt>
<pdfrwt beam="1">  1       -4 0.11475800E-01 0.12500318E+03</pdfrwt>
<totfact> 0.10409202E+04</totfact>
</mgrwt>
</event>
<event>
 5    1  0.3227866E-002  0.1250009E+03  0.7818608E-02  0.1235068E+00
         -4   -1    0    0    0  501 -0.00000000000E+00  0.00000000000E+00  0.13507821818E+03  0.13508418829E+03  0.12700000000E+01 0. -1.
          4   -1    0    0  501    0  0.00000000000E+00 -0.00000000000E+00 -0.28898309138E+02  0.28926202154E+02  0.12700000000E+01 0. -1.
         25    2    1    2    0    0  0.00000000000E+00  0.00000000000E+00  0.10617990904E+03  0.16401039045E+03  0.12500094036E+03 0.  0.
    9000005    1    3    3    0    0 -0.39015433730E+02 -0.19919384805E+02  0.11156667355E+03  0.11986287419E+03  0.10000000000E+01 0.  0.
    9000005    1    3    3    0    0  0.39015433730E+02  0.19919384805E+02 -0.53867645118E+01  0.44147516261E+02  0.10000000000E+01 0.  0.
<mgrwt>
<rscale>  0 0.12500094E+03</rscale>
<asrwt>0</asrwt>
<pdfrwt beam="2">  1        4 0.44484986E-02 0.12500094E+03</pdfrwt>
<pdfrwt beam="1">  1       -4 0.20783869E-01 0.12500094E+03</pdfrwt>
<totfact> 0.96573097E+03</totfact>
</mgrwt>
</event>
<event>
 5    1  0.3227866E-002  0.1250029E+03  0.7818608E-02  0.1235065E+00
         -4   -1    0    0    0  501 -0.00000000000E+00  0.00000000000E+00  0.14662688754E+04  0.14662694254E+04  0.12700000000E+01 0. -1.
          4   -1    0    0  501    0  0.00000000000E+00 -0.00000000000E+00 -0.25122674795E+01  0.28150289321E+01  0.12700000000E+01 0. -1.
         25    2    1    2    0    0  0.00000000000E+00  0.00000000000E+00  0.14637566080E+04  0.14690844544E+04  0.12500290690E+03 0.  0.
    9000005    1    3    3    0    0 -0.11614058720E+02  0.59213755187E+02  0.54082438946E+03  0.54418119721E+03  0.10000000000E+01 0.  0.
    9000005    1    3    3    0    0  0.11614058720E+02 -0.59213755187E+02  0.92293221849E+03  0.92490325716E+03  0.10000000000E+01 0.  0.
<mgrwt>
<rscale>  0 0.12500291E+03</rscale>
<asrwt>0</asrwt>
<pdfrwt beam="2">  1        4 0.40983322E-03 0.12500291E+03</pdfrwt>
<pdfrwt beam="1">  1       -4 0.22560377E+00 0.12500291E+03</pdfrwt>
<totfact> 0.18543953E+03</totfact>
</mgrwt>
</event>
<event>
 5    1  0.3227866E-002  0.1249923E+03  0.7818608E-02  0.1235081E+00
         -4   -1    0    0    0  501 -0.00000000000E+00  0.00000000000E+00  0.42494184407E+02  0.42513158062E+02  0.12700000000E+01 0. -1.
          4   -1    0    0  501    0  0.00000000000E+00 -0.00000000000E+00 -0.91869202904E+02  0.91877980726E+02  0.12700000000E+01 0. -1.
         25    2    1    2    0    0  0.00000000000E+00  0.00000000000E+00 -0.49375018497E+02  0.13439113879E+03  0.12499234270E+03 0.  0.
    9000005    1    3    3    0    0  0.27812218814E+02 -0.32314019836E+02 -0.73807048149E+02  0.85241983493E+02  0.10000000000E+01 0.  0.
    9000005    1    3    3    0    0 -0.27812218814E+02  0.32314019836E+02  0.24432029652E+02  0.49149155295E+02  0.10000000000E+01 0.  0.
<mgrwt>
<rscale>  0 0.12499234E+03</rscale>
<asrwt>0</asrwt>
<pdfrwt beam="2">  1        4 0.14135858E-01 0.12499234E+03</pdfrwt>
<pdfrwt beam="1">  1       -4 0.65397016E-02 0.12499234E+03</pdfrwt>
<totfact> 0.10252691E+04</totfact>
</mgrwt>
</event>
<event>
 5    1  0.3227866E-002  0.1250010E+03  0.7818608E-02  0.1235068E+00
         -4   -1    0    0    0  501 -0.00000000000E+00  0.00000000000E+00  0.26124886201E+03  0.26125194890E+03  0.12700000000E+01 0. -1.
          4   -1    0    0  501    0  0.00000000000E+00 -0.00000000000E+00 -0.14922315555E+02  0.14976261267E+02  0.12700000000E+01 0. -1.
         25    2    1    2    0    0  0.00000000000E+00  0.00000000000E+00  0.24632654646E+03  0.27622821016E+03  0.12500102640E+03 0.  0.
    9000005    1    3    3    0    0  0.44413994169E+02  0.32912048689E+02  0.58755502229E+02  0.80678465956E+02  0.10000000000E+01 0.  0.
    9000005    1    3    3    0    0 -0.44413994169E+02 -0.32912048689E+02  0.18757104423E+03  0.19554974421E+03  0.10000000000E+01 0.  0.
<mgrwt>
<rscale>  0 0.12500103E+03</rscale>
<asrwt>0</asrwt>
<pdfrwt beam="2">  1        4 0.23001278E-02 0.12500103E+03</pdfrwt>
<pdfrwt beam="1">  1       -4 0.40196522E-01 0.12500103E+03</pdfrwt>
<totfact> 0.78679091E+03</totfact>
</mgrwt>
</event>
<event>
 5    1  0.3227866E-002  0.1249990E+03  0.7818608E-02  0.1235071E+00
          4   -1    0    0  501    0  0.00000000000E+00  0.00000000000E+00  0.11207246659E+03  0.11207966215E+03  0.12700000000E+01 0. -1.
         -4   -1    0    0    0  501 -0.00000000000E+00 -0.00000000000E+00 -0.34834252892E+02  0.34857396268E+02  0.12700000000E+01 0. -1.
         25    2    1    2    0    0  0.00000000000E+00  0.00000000000E+00  0.77238213693E+02  0.14693705841E+03  0.12499902992E+03 0.  0.
    9000005    1    3    3    0    0 -0.89714494536E+01 -0.61057925678E+02  0.50174522716E+02  0.79542692456E+02  0.10000000000E+01 0.  0.
    9000005    1    3    3    0    0  0.89714494536E+01  0.61057925678E+02  0.27063690978E+02  0.67394365957E+02  0.10000000000E+01 0.  0.
<mgrwt>
<rscale>  0 0.12499903E+03</rscale>
<asrwt>0</asrwt>
<pdfrwt beam="1">  1        4 0.17244252E-01 0.12499903E+03</pdfrwt>
<pdfrwt beam="2">  1       -4 0.53614496E-02 0.12499903E+03</pdfrwt>
<totfact> 0.99919974E+03</totfact>
</mgrwt>
</event>
<event>
 5    1  0.3227866E-002  0.1249969E+03  0.7818608E-02  0.1235074E+00
          4   -1    0    0  501    0  0.00000000000E+00  0.00000000000E+00  0.21012916781E+02  0.21051260571E+02  0.12700000000E+01 0. -1.
         -4   -1    0    0    0  501 -0.00000000000E+00 -0.00000000000E+00 -0.18567852175E+03  0.18568286496E+03  0.12700000000E+01 0. -1.
         25    2    1    2    0    0  0.00000000000E+00  0.00000000000E+00 -0.16466560497E+03  0.20673412554E+03  0.12499694876E+03 0.  0.
    9000005    1    3    3    0    0  0.23241161035E+02 -0.28510723321E+02 -0.16588483936E+03  0.16991701751E+03  0.10000000000E+01 0.  0.
    9000005    1    3    3    0    0 -0.23241161035E+02  0.28510723321E+02  0.12192343883E+01  0.36817108021E+02  0.10000000000E+01 0.  0.
<mgrwt>
<rscale>  0 0.12499695E+03</rscale>
<asrwt>0</asrwt>
<pdfrwt beam="1">  1        4 0.32360402E-02 0.12499695E+03</pdfrwt>
<pdfrwt beam="2">  1       -4 0.28569209E-01 0.12499695E+03</pdfrwt>
<totfact> 0.89018108E+03</totfact>
</mgrwt>
</event>
<event>
 5    1  0.3227866E-002  0.1250010E+03  0.7818608E-02  0.1235068E+00
         -4   -1    0    0    0  501 -0.00000000000E+00  0.00000000000E+00  0.44575545941E+03  0.44575726858E+03  0.12700000000E+01 0.  1.
          4   -1    0    0  501    0  0.00000000000E+00 -0.00000000000E+00 -0.87155002972E+01  0.88075448015E+01  0.12700000000E+01 0.  1.
         25    2    1    2    0    0  0.00000000000E+00  0.00000000000E+00  0.43703995911E+03  0.45456481338E+03  0.12500097482E+03 0.  0.
    9000005    1    3    3    0    0 -0.36927330710E+02  0.31998536893E+02  0.36019274511E+03  0.36349325681E+03  0.10000000000E+01 0.  0.
    9000005    1    3    3    0    0  0.36927330710E+02 -0.31998536893E+02  0.76847214002E+02  0.91071556573E+02  0.10000000000E+01 0.  0.
<mgrwt>
<rscale>  0 0.12500097E+03</rscale>
<asrwt>0</asrwt>
<pdfrwt beam="2">  1        4 0.13480654E-02 0.12500097E+03</pdfrwt>
<pdfrwt beam="1">  1       -4 0.68584998E-01 0.12500097E+03</pdfrwt>
<totfact> 0.59569086E+03</totfact>
</mgrwt>
</event>
<event>
 5    1  0.3227866E-002  0.1250016E+03  0.7818608E-02  0.1235067E+00
         -4   -1    0    0    0  501 -0.00000000000E+00  0.00000000000E+00  0.22735291123E+03  0.22735645833E+03  0.12700000000E+01 0. -1.
          4   -1    0    0  501    0  0.00000000000E+00 -0.00000000000E+00 -0.17154731252E+02  0.17201677369E+02  0.12700000000E+01 0. -1.
         25    2    1    2    0    0  0.00000000000E+00  0.00000000000E+00  0.21019817997E+03  0.24455813570E+03  0.12500162747E+03 0.  0.
    9000005    1    3    3    0    0  0.41016013150E+02 -0.41888369935E+02  0.62756617817E+02  0.85885632969E+02  0.10000000000E+01 0.  0.
    9000005    1    3    3    0    0 -0.41016013150E+02  0.41888369935E+02  0.14744156216E+03  0.15867250273E+03  0.10000000000E+01 0.  0.
<mgrwt>
<rscale>  0 0.12500163E+03</rscale>
<asrwt>0</asrwt>
<pdfrwt beam="2">  1        4 0.26430736E-02 0.12500163E+03</pdfrwt>
<pdfrwt beam="1">  1       -4 0.34981253E-01 0.12500163E+03</pdfrwt>
<totfact> 0.83120149E+03</totfact>
</mgrwt>
</event>
<event>
 5    1  0.3227866E-002  0.1249969E+03  0.7818608E-02  0.1235074E+00
         -4   -1    0    0    0  501 -0.00000000000E+00  0.00000000000E+00  0.37710190096E+01  0.39791311075E+01  0.12700000000E+01 0. -1.
          4   -1    0    0  501    0  0.00000000000E+00 -0.00000000000E+00 -0.10077863666E+04  0.10077871668E+04  0.12700000000E+01 0. -1.
         25    2    1    2    0    0  0.00000000000E+00  0.00000000000E+00 -0.10040153476E+04  0.10117662979E+04  0.12499689365E+03 0.  0.
    9000005    1    3    3    0    0  0.32585529169E+02  0.51573598273E+02 -0.61162629400E+03  0.61466200164E+03  0.10000000000E+01 0.  0.
    9000005    1    3    3    0    0 -0.32585529169E+02 -0.51573598273E+02 -0.39238905357E+03  0.39710429627E+03  0.10000000000E+01 0.  0.
<mgrwt>
<rscale>  0 0.12499689E+03</rscale>
<asrwt>0</asrwt>
<pdfrwt beam="2">  1        4 0.15505992E+00 0.12499689E+03</pdfrwt>
<pdfrwt beam="1">  1       -4 0.59622775E-03 0.12499689E+03</pdfrwt>
<totfact> 0.30221190E+03</totfact>
</mgrwt>
</event>
<event>
 5    1  0.3227866E-002  0.1250091E+03  0.7818608E-02  0.1235055E+00
          4   -1    0    0  501    0  0.00000000000E+00  0.00000000000E+00  0.14968757356E+03  0.14969296102E+03  0.12700000000E+01 0.  1.
         -4   -1    0    0    0  501 -0.00000000000E+00 -0.00000000000E+00 -0.26078507467E+02  0.26109413086E+02  0.12700000000E+01 0.  1.
         25    2    1    2    0    0  0.00000000000E+00  0.00000000000E+00  0.12360906609E+03  0.17580237410E+03  0.12500909375E+03 0.  0.
    9000005    1    3    3    0    0 -0.41327043916E+02  0.35371447700E+02  0.18533046028E+02  0.57476409651E+02  0.10000000000E+01 0.  0.
    9000005    1    3    3    0    0  0.41327043916E+02 -0.35371447700E+02  0.10507602007E+03  0.11832596445E+03  0.10000000000E+01 0.  0.
<mgrwt>
<rscale>  0 0.12500909E+03</rscale>
<asrwt>0</asrwt>
<pdfrwt beam="1">  1        4 0.23031649E-01 0.12500909E+03</pdfrwt>
<pdfrwt beam="2">  1       -4 0.40148699E-02 0.12500909E+03</pdfrwt>
<totfact> 0.94358843E+03</totfact>
</mgrwt>
</event>
<event>
 5    1  0.3227866E-002  0.1250032E+03  0.7818608E-02  0.1235064E+00
          4   -1    0    0  501    0  0.00000000000E+00  0.00000000000E+00  0.35268500295E+01  0.37485425342E+01  0.12700000000E+01 0.  1.
         -4   -1    0    0    0  501 -0.00000000000E+00 -0.00000000000E+00 -0.10736588608E+04  0.10736596120E+04  0.12700000000E+01 0.  1.
         25    2    1    2    0    0  0.00000000000E+00  0.00000000000E+00 -0.10701320108E+04  0.10774081545E+04  0.12500324322E+03 0.  0.
    9000005    1    3    3    0    0  0.34222494037E+02  0.12622841527E+02 -0.97242928898E+03  0.97311368159E+03  0.10000000000E+01 0.  0.
    9000005    1    3    3    0    0 -0.34222494037E+02 -0.12622841527E+02 -0.97702721824E+02  0.10429447290E+03  0.10000000000E+01 0.  0.
<mgrwt>
<rscale>  0 0.12500324E+03</rscale>
<asrwt>0</asrwt>
<pdfrwt beam="1">  1        4 0.55970422E-03 0.12500324E+03</pdfrwt>
<pdfrwt beam="2">  1       -4 0.16519514E+00 0.12500324E+03</pdfrwt>
<totfact> 0.28152234E+03</totfact>
</mgrwt>
</event>
<event>
 5    1  0.3227866E-002  0.1249439E+03  0.7818608E-02  0.1235157E+00
          4   -1    0    0  501    0  0.00000000000E+00  0.00000000000E+00  0.84960944818E+01  0.85904901748E+01  0.12700000000E+01 0.  1.
         -4   -1    0    0    0  501 -0.00000000000E+00 -0.00000000000E+00 -0.45672428232E+03  0.45672604804E+03  0.12700000000E+01 0.  1.
         25    2    1    2    0    0  0.00000000000E+00  0.00000000000E+00 -0.44822818784E+03  0.46531653822E+03  0.12494387686E+03 0.  0.
    9000005    1    3    3    0    0 -0.21939711994E+02  0.53878615816E+02 -0.30883355521E+03  0.31426648092E+03  0.10000000000E+01 0.  0.
    9000005    1    3    3    0    0  0.21939711994E+02 -0.53878615816E+02 -0.13939463262E+03  0.15105005730E+03  0.10000000000E+01 0.  0.
<mgrwt>
<rscale>  0 0.12494388E+03</rscale>
<asrwt>0</asrwt>
<pdfrwt beam="1">  1        4 0.13144889E-02 0.12494388E+03</pdfrwt>
<pdfrwt beam="2">  1       -4 0.70272652E-01 0.12494388E+03</pdfrwt>
<totfact> 0.58732058E+03</totfact>
</mgrwt>
</event>
<event>
 5    1  0.3227866E-002  0.1249989E+03  0.7818608E-02  0.1235071E+00
          4   -1    0    0  501    0  0.00000000000E+00  0.00000000000E+00  0.30567477164E+03  0.30567740989E+03  0.12700000000E+01 0.  1.
         -4   -1    0    0    0  501 -0.00000000000E+00 -0.00000000000E+00 -0.12744628522E+02  0.12807749848E+02  0.12700000000E+01 0.  1.
         25    2    1    2    0    0  0.00000000000E+00  0.00000000000E+00  0.29293014312E+03  0.31848515974E+03  0.12499891290E+03 0.  0.
    9000005    1    3    3    0    0  0.23633939908E+02  0.33157379760E+02  0.26724771062E+03  0.27033370818E+03  0.10000000000E+01 0.  0.
    9000005    1    3    3    0    0 -0.23633939908E+02 -0.33157379760E+02  0.25682432505E+02  0.48151451562E+02  0.10000000000E+01 0.  0.
<mgrwt>
<rscale>  0 0.12499891E+03</rscale>
<asrwt>0</asrwt>
<pdfrwt beam="1">  1        4 0.47031944E-01 0.12499891E+03</pdfrwt>
<pdfrwt beam="2">  1       -4 0.19657706E-02 0.12499891E+03</pdfrwt>
<totfact> 0.73338425E+03</totfact>
</mgrwt>
</event>
<event>
 5    1  0.3227866E-002  0.1250002E+03  0.7818608E-02  0.1235069E+00
         -4   -1    0    0    0  501 -0.00000000000E+00  0.00000000000E+00  0.16196595184E+03  0.16197093090E+03  0.12700000000E+01 0.  1.
          4   -1    0    0  501    0  0.00000000000E+00 -0.00000000000E+00 -0.24095729579E+02  0.24129174954E+02  0.12700000000E+01 0.  1.
         25    2    1    2    0    0  0.00000000000E+00  0.00000000000E+00  0.13787022226E+03  0.18610010585E+03  0.12500020485E+03 0.  0.
    9000005    1    3    3    0    0  0.34165509315E+02  0.24297329970E+02 -0.59420238481E-01  0.41936211097E+02  0.10000000000E+01 0.  0.
    9000005    1    3    3    0    0 -0.34165509315E+02 -0.24297329970E+02  0.13792964250E+03  0.14416389476E+03  0.10000000000E+01 0.  0.
<mgrwt>
<rscale>  0 0.12500020E+03</rscale>
<asrwt>0</asrwt>
<pdfrwt beam="2">  1        4 0.37099911E-02 0.12500020E+03</pdfrwt>
<pdfrwt beam="1">  1       -4 0.24920794E-01 0.12500020E+03</pdfrwt>
<totfact> 0.92529921E+03</totfact>
</mgrwt>
</event>
<event>
 5    1  0.3227866E-002  0.1250018E+03  0.7818608E-02  0.1235066E+00
          4   -1    0    0  501    0  0.00000000000E+00  0.00000000000E+00  0.56330482237E+03  0.56330625401E+03  0.12700000000E+01 0.  1.
         -4   -1    0    0    0  501 -0.00000000000E+00 -0.00000000000E+00 -0.68751260162E+01  0.69914417497E+01  0.12700000000E+01 0.  1.
         25    2    1    2    0    0  0.00000000000E+00  0.00000000000E+00  0.55642969636E+03  0.57029769576E+03  0.12500181920E+03 0.  0.
    9000005    1    3    3    0    0 -0.55897274828E+02  0.56548763674E+01  0.15336396631E+03  0.16333398031E+03  0.10000000000E+01 0.  0.
    9000005    1    3    3    0    0  0.55897274828E+02 -0.56548763674E+01  0.40306573005E+03  0.40696371546E+03  0.10000000000E+01 0.  0.
<mgrwt>
<rscale>  0 0.12500182E+03</rscale>
<asrwt>0</asrwt>
<pdfrwt beam="1">  1        4 0.86671315E-01 0.12500182E+03</pdfrwt>
<pdfrwt beam="2">  1       -4 0.10667695E-02 0.12500182E+03</pdfrwt>
<totfact> 0.50795817E+03</totfact>
</mgrwt>
</event>
<event>
 5    1  0.3227866E-002  0.1249997E+03  0.7818608E-02  0.1235070E+00
         -4   -1    0    0    0  501 -0.00000000000E+00  0.00000000000E+00  0.11057180742E+02  0.11129876278E+02  0.12700000000E+01 0. -1.
          4   -1    0    0  501    0  0.00000000000E+00 -0.00000000000E+00 -0.35204394813E+03  0.35204623889E+03  0.12700000000E+01 0. -1.
         25    2    1    2    0    0  0.00000000000E+00  0.00000000000E+00 -0.34098676739E+03  0.36317611517E+03  0.12499966037E+03 0.  0.
    9000005    1    3    3    0    0  0.12359251794E+02 -0.43742860659E+02 -0.29508935814E+03  0.29857146255E+03  0.10000000000E+01 0.  0.
    9000005    1    3    3    0    0 -0.12359251794E+02  0.43742860659E+02 -0.45897409246E+02  0.64604652611E+02  0.10000000000E+01 0.  0.
<mgrwt>
<rscale>  0 0.12499966E+03</rscale>
<asrwt>0</asrwt>
<pdfrwt beam="2">  1        4 0.54166367E-01 0.12499966E+03</pdfrwt>
<pdfrwt beam="1">  1       -4 0.17068732E-02 0.12499966E+03</pdfrwt>
<totfact> 0.68299454E+03</totfact>
</mgrwt>
</event>
<event>
 5    1  0.3227866E-002  0.1249973E+03  0.7818608E-02  0.1235073E+00
          4   -1    0    0  501    0  0.00000000000E+00  0.00000000000E+00  0.10871264976E+02  0.10945195393E+02  0.12700000000E+01 0.  1.
         -4   -1    0    0    0  501 -0.00000000000E+00 -0.00000000000E+00 -0.35801081294E+03  0.35801306552E+03  0.12700000000E+01 0.  1.
         25    2    1    2    0    0  0.00000000000E+00  0.00000000000E+00 -0.34713954797E+03  0.36895826091E+03  0.12499733011E+03 0.  0.
    9000005    1    3    3    0    0  0.11735121116E+02 -0.44531387974E+02 -0.48884963624E+02  0.67167680107E+02  0.10000000000E+01 0.  0.
    9000005    1    3    3    0    0 -0.11735121116E+02  0.44531387974E+02 -0.29825458434E+03  0.30179058081E+03  0.10000000000E+01 0.  0.
<mgrwt>
<rscale>  0 0.12499733E+03</rscale>
<asrwt>0</asrwt>
<pdfrwt beam="1">  1        4 0.16783628E-02 0.12499733E+03</pdfrwt>
<pdfrwt beam="2">  1       -4 0.55084438E-01 0.12499733E+03</pdfrwt>
<totfact> 0.67692063E+03</totfact>
</mgrwt>
</event>
<event>
 5    1  0.3227866E-002  0.1250007E+03  0.7818608E-02  0.1235068E+00
         -4   -1    0    0    0  501 -0.00000000000E+00  0.00000000000E+00  0.62548658846E+02  0.62561550679E+02  0.12700000000E+01 0. -1.
          4   -1    0    0  501    0  0.00000000000E+00 -0.00000000000E+00 -0.62426316754E+02  0.62439233848E+02  0.12700000000E+01 0. -1.
         25    2    1    2    0    0  0.00000000000E+00  0.00000000000E+00  0.12234209153E+00  0.12500078453E+03  0.12500072466E+03 0.  0.
    9000005    1    3    3    0    0 -0.45941486264E+02 -0.18369905006E+02  0.38234762927E+02  0.62537753926E+02  0.10000000000E+01 0.  0.
    9000005    1    3    3    0    0  0.45941486264E+02  0.18369905006E+02 -0.38112420835E+02  0.62463030602E+02  0.10000000000E+01 0.  0.
<mgrwt>
<rscale>  0 0.12500072E+03</rscale>
<asrwt>0</asrwt>
<pdfrwt beam="2">  1        4 0.96060340E-02 0.12500072E+03</pdfrwt>
<pdfrwt beam="1">  1       -4 0.96248559E-02 0.12500072E+03</pdfrwt>
<totfact> 0.10452674E+04</totfact>
</mgrwt>
</event>
<event>
 5    1  0.3227866E-002  0.1250034E+03  0.7818608E-02  0.1235064E+00
         -4   -1    0    0    0  501 -0.00000000000E+00  0.00000000000E+00  0.35341931972E+03  0.35342160156E+03  0.12700000000E+01 0.  1.
          4   -1    0    0  501    0  0.00000000000E+00 -0.00000000000E+00 -0.11014523375E+02  0.11087498599E+02  0.12700000000E+01 0.  1.
         25    2    1    2    0    0  0.00000000000E+00  0.00000000000E+00  0.34240479634E+03  0.36450910016E+03  0.12500335812E+03 0.  0.
    9000005    1    3    3    0    0 -0.15484536777E+02  0.45377108608E+02  0.54322042310E+02  0.72461970339E+02  0.10000000000E+01 0.  0.
    9000005    1    3    3    0    0  0.15484536777E+02 -0.45377108608E+02  0.28808275403E+03  0.29204712982E+03  0.10000000000E+01 0.  0.
<mgrwt>
<rscale>  0 0.12500336E+03</rscale>
<asrwt>0</asrwt>
<pdfrwt beam="2">  1        4 0.17003313E-02 0.12500336E+03</pdfrwt>
<pdfrwt beam="1">  1       -4 0.54377986E-01 0.12500336E+03</pdfrwt>
<totfact> 0.68152268E+03</totfact>
</mgrwt>
</event>
<event>
 5    1  0.3227866E-002  0.1249514E+03  0.7818608E-02  0.1235145E+00
          4   -1    0    0  501    0  0.00000000000E+00  0.00000000000E+00  0.44356185958E+02  0.44374363463E+02  0.12700000000E+01 0.  1.
         -4   -1    0    0    0  501 -0.00000000000E+00 -0.00000000000E+00 -0.87956305834E+02  0.87965474114E+02  0.12700000000E+01 0.  1.
         25    2    1    2    0    0  0.00000000000E+00  0.00000000000E+00 -0.43600119876E+02  0.13233983758E+03  0.12495143919E+03 0.  0.
    9000005    1    3    3    0    0  0.49876024865E+02 -0.22698290784E+01  0.17962422228E+02  0.53069940575E+02  0.10000000000E+01 0.  0.
    9000005    1    3    3    0    0 -0.49876024865E+02  0.22698290784E+01 -0.61562542104E+02  0.79269897002E+02  0.10000000000E+01 0.  0.
<mgrwt>
<rscale>  0 0.12495144E+03</rscale>
<asrwt>0</asrwt>
<pdfrwt beam="1">  1        4 0.68261322E-02 0.12495144E+03</pdfrwt>
<pdfrwt beam="2">  1       -4 0.13533843E-01 0.12495144E+03</pdfrwt>
<totfact> 0.10305735E+04</totfact>
</mgrwt>
</event>
<event>
 5    1  0.3227866E-002  0.1249912E+03  0.7818608E-02  0.1235083E+00
         -4   -1    0    0    0  501 -0.00000000000E+00  0.00000000000E+00  0.42288186195E+03  0.42288376898E+03  0.12700000000E+01 0. -1.
          4   -1    0    0  501    0  0.00000000000E+00 -0.00000000000E+00 -0.91903167885E+01  0.92776517866E+01  0.12700000000E+01 0. -1.
         25    2    1    2    0    0  0.00000000000E+00  0.00000000000E+00  0.41369154517E+03  0.43216142077E+03  0.12499119593E+03 0.  0.
    9000005    1    3    3    0    0  0.19051322827E+01 -0.19492362523E+02  0.16790772134E+01  0.19682505583E+02  0.10000000000E+01 0.  0.
    9000005    1    3    3    0    0 -0.19051322827E+01  0.19492362523E+02  0.41201246795E+03  0.41247891519E+03  0.10000000000E+01 0.  0.
<mgrwt>
<rscale>  0 0.12499120E+03</rscale>
<asrwt>0</asrwt>
<pdfrwt beam="2">  1        4 0.14207600E-02 0.12499120E+03</pdfrwt>
<pdfrwt beam="1">  1       -4 0.65065597E-01 0.12499120E+03</pdfrwt>
<totfact> 0.61552513E+03</totfact>
</mgrwt>
</event>
<event>
 5    1  0.3227866E-002  0.1249997E+03  0.7818608E-02  0.1235070E+00
         -4   -1    0    0    0  501 -0.00000000000E+00  0.00000000000E+00  0.54069820846E+01  0.55541295685E+01  0.12700000000E+01 0. -1.
          4   -1    0    0  501    0  0.00000000000E+00 -0.00000000000E+00 -0.71259627229E+03  0.71259740400E+03  0.12700000000E+01 0. -1.
         25    2    1    2    0    0  0.00000000000E+00  0.00000000000E+00 -0.70718929021E+03  0.71815153357E+03  0.12499973192E+03 0.  0.
    9000005    1    3    3    0    0 -0.22415283664E+02  0.27674222591E+02 -0.64861770134E+03  0.64959543566E+03  0.10000000000E+01 0.  0.
    9000005    1    3    3    0    0  0.22415283664E+02 -0.27674222591E+02 -0.58571588865E+02  0.68556097905E+02  0.10000000000E+01 0.  0.
<mgrwt>
<rscale>  0 0.12499973E+03</rscale>
<asrwt>0</asrwt>
<pdfrwt beam="2">  1        4 0.10964153E+00 0.12499973E+03</pdfrwt>
<pdfrwt beam="1">  1       -4 0.84325006E-03 0.12499973E+03</pdfrwt>
<totfact> 0.42145926E+03</totfact>
</mgrwt>
</event>
<event>
 5    1  0.3227866E-002  0.1250082E+03  0.7818608E-02  0.1235057E+00
         -4   -1    0    0    0  501 -0.00000000000E+00  0.00000000000E+00  0.43128487587E+02  0.43147182313E+02  0.12700000000E+01 0.  1.
          4   -1    0    0  501    0  0.00000000000E+00 -0.00000000000E+00 -0.90541435096E+02  0.90550341630E+02  0.12700000000E+01 0.  1.
         25    2    1    2    0    0  0.00000000000E+00  0.00000000000E+00 -0.47412947509E+02  0.13369752394E+03  0.12500816100E+03 0.  0.
    9000005    1    3    3    0    0  0.35267743069E+02  0.27781443416E+01 -0.78806795526E+02  0.86388904427E+02  0.10000000000E+01 0.  0.
    9000005    1    3    3    0    0 -0.35267743069E+02 -0.27781443416E+01  0.31393848017E+02  0.47308619515E+02  0.10000000000E+01 0.  0.
<mgrwt>
<rscale>  0 0.12500816E+03</rscale>
<asrwt>0</asrwt>
<pdfrwt beam="2">  1        4 0.13931575E-01 0.12500816E+03</pdfrwt>
<pdfrwt beam="1">  1       -4 0.66372751E-02 0.12500816E+03</pdfrwt>
<totfact> 0.10263708E+04</totfact>
</mgrwt>
</event>
<event>
 5    1  0.3227866E-002  0.1249766E+03  0.7818608E-02  0.1235106E+00
         -4   -1    0    0    0  501 -0.00000000000E+00  0.00000000000E+00  0.24771115762E+03  0.24771441320E+03  0.12700000000E+01 0. -1.
          4   -1    0    0  501    0  0.00000000000E+00 -0.00000000000E+00 -0.15734520798E+02  0.15785691140E+02  0.12700000000E+01 0. -1.
         25    2    1    2    0    0  0.00000000000E+00  0.00000000000E+00  0.23197663682E+03  0.26350010434E+03  0.12497657764E+03 0.  0.
    9000005    1    3    3    0    0  0.54472060291E+02  0.30469380489E+02  0.12202501339E+03  0.13706455556E+03  0.10000000000E+01 0.  0.
    9000005    1    3    3    0    0 -0.54472060291E+02 -0.30469380489E+02  0.10995162343E+03  0.12643554878E+03  0.10000000000E+01 0.  0.
<mgrwt>
<rscale>  0 0.12497658E+03</rscale>
<asrwt>0</asrwt>
<pdfrwt beam="2">  1        4 0.24248820E-02 0.12497658E+03</pdfrwt>
<pdfrwt beam="1">  1       -4 0.38113597E-01 0.12497658E+03</pdfrwt>
<totfact> 0.80459296E+03</totfact>
</mgrwt>
</event>
<event>
 5    1  0.3227866E-002  0.1249980E+03  0.7818608E-02  0.1235072E+00
         -4   -1    0    0    0  501 -0.00000000000E+00  0.00000000000E+00  0.24750719453E+02  0.24783280926E+02  0.12700000000E+01 0.  1.
          4   -1    0    0  501    0  0.00000000000E+00 -0.00000000000E+00 -0.15767986731E+03  0.15768498170E+03  0.12700000000E+01 0.  1.
         25    2    1    2    0    0  0.00000000000E+00  0.00000000000E+00 -0.13292914785E+03  0.18246826263E+03  0.12499803405E+03 0.  0.
    9000005    1    3    3    0    0 -0.60491749682E+02 -0.24443579609E+01 -0.43854618913E+02  0.74762652878E+02  0.10000000000E+01 0.  0.
    9000005    1    3    3    0    0  0.60491749682E+02  0.24443579609E+01 -0.89074528941E+02  0.10770560975E+03  0.10000000000E+01 0.  0.
<mgrwt>
<rscale>  0 0.12499803E+03</rscale>
<asrwt>0</asrwt>
<pdfrwt beam="2">  1        4 0.24261339E-01 0.12499803E+03</pdfrwt>
<pdfrwt beam="1">  1       -4 0.38107012E-02 0.12499803E+03</pdfrwt>
<totfact> 0.93178692E+03</totfact>
</mgrwt>
</event>
<event>
 5    1  0.3227866E-002  0.1250010E+03  0.7818608E-02  0.1235068E+00
         -4   -1    0    0    0  501 -0.00000000000E+00  0.00000000000E+00  0.32741025161E+03  0.32741271472E+03  0.12700000000E+01 0. -1.
          4   -1    0    0  501    0  0.00000000000E+00 -0.00000000000E+00 -0.11894622462E+02  0.11962229872E+02  0.12700000000E+01 0. -1.
         25    2    1    2    0    0  0.00000000000E+00  0.00000000000E+00  0.31551562915E+03  0.33937494459E+03  0.12500096311E+03 0.  0.
    9000005    1    3    3    0    0 -0.45052541567E+02 -0.42155268320E+02  0.18470485579E+03  0.19474003671E+03  0.10000000000E+01 0.  0.
    9000005    1    3    3    0    0  0.45052541567E+02  0.42155268320E+02  0.13081077336E+03  0.14463490788E+03  0.10000000000E+01 0.  0.
<mgrwt>
<rscale>  0 0.12500096E+03</rscale>
<asrwt>0</asrwt>
<pdfrwt beam="2">  1        4 0.18353321E-02 0.12500096E+03</pdfrwt>
<pdfrwt beam="1">  1       -4 0.50376194E-01 0.12500096E+03</pdfrwt>
<totfact> 0.70907967E+03</totfact>
</mgrwt>
</event>
<event>
 5    1  0.3227866E-002  0.1249870E+03  0.7818608E-02  0.1235090E+00
          4   -1    0    0  501    0  0.00000000000E+00  0.00000000000E+00  0.90507875816E+03  0.90507964918E+03  0.12700000000E+01 0. -1.
         -4   -1    0    0    0  501 -0.00000000000E+00 -0.00000000000E+00 -0.42206669781E+01  0.44075990902E+01  0.12700000000E+01 0. -1.
         25    2    1    2    0    0  0.00000000000E+00  0.00000000000E+00  0.90085809118E+03  0.90948724827E+03  0.12498701665E+03 0.  0.
    9000005    1    3    3    0    0  0.43454217938E+01 -0.15543887440E+02  0.88968486817E+03  0.88983181545E+03  0.10000000000E+01 0.  0.
    9000005    1    3    3    0    0 -0.43454217938E+01  0.15543887440E+02  0.11173223009E+02  0.19655432829E+02  0.10000000000E+01 0.  0.
<mgrwt>
<rscale>  0 0.12498702E+03</rscale>
<asrwt>0</asrwt>
<pdfrwt beam="1">  1        4 0.13925751E+00 0.12498702E+03</pdfrwt>
<pdfrwt beam="2">  1       -4 0.66378050E-03 0.12498702E+03</pdfrwt>
<totfact> 0.33808774E+03</totfact>
</mgrwt>
</event>
<event>
 5    1  0.3227866E-002  0.1250095E+03  0.7818608E-02  0.1235054E+00
          4   -1    0    0  501    0  0.00000000000E+00  0.00000000000E+00  0.36839941166E+01  0.38967566836E+01  0.12700000000E+01 0.  1.
         -4   -1    0    0    0  501 -0.00000000000E+00 -0.00000000000E+00 -0.10305148895E+04  0.10305156721E+04  0.12700000000E+01 0.  1.
         25    2    1    2    0    0  0.00000000000E+00  0.00000000000E+00 -0.10268308954E+04  0.10344124288E+04  0.12500953982E+03 0.  0.
    9000005    1    3    3    0    0  0.39194796171E+02  0.48671591744E+02 -0.50654014074E+03  0.51038129871E+03  0.10000000000E+01 0.  0.
    9000005    1    3    3    0    0 -0.39194796171E+02 -0.48671591744E+02 -0.52029075469E+03  0.52403113009E+03  0.10000000000E+01 0.  0.
<mgrwt>
<rscale>  0 0.12500954E+03</rscale>
<asrwt>0</asrwt>
<pdfrwt beam="1">  1        4 0.58319570E-03 0.12500954E+03</pdfrwt>
<pdfrwt beam="2">  1       -4 0.15855696E+00 0.12500954E+03</pdfrwt>
<totfact> 0.29480417E+03</totfact>
</mgrwt>
</event>
<event>
 5    1  0.3227866E-002  0.1250023E+03  0.7818608E-02  0.1235066E+00
         -4   -1    0    0    0  501 -0.00000000000E+00  0.00000000000E+00  0.19056820730E+03  0.19057243907E+03  0.12700000000E+01 0. -1.
          4   -1    0    0  501    0  0.00000000000E+00 -0.00000000000E+00 -0.20474517027E+02  0.20513867200E+02  0.12700000000E+01 0. -1.
         25    2    1    2    0    0  0.00000000000E+00  0.00000000000E+00  0.17009369027E+03  0.21108630627E+03  0.12500226088E+03 0.  0.
    9000005    1    3    3    0    0 -0.17084909290E+02 -0.34893394152E+02  0.16770408649E+03  0.17214849319E+03  0.10000000000E+01 0.  0.
    9000005    1    3    3    0    0  0.17084909290E+02  0.34893394152E+02  0.23896037734E+01  0.38937813076E+02  0.10000000000E+01 0.  0.
<mgrwt>
<rscale>  0 0.12500226E+03</rscale>
<asrwt>0</asrwt>
<pdfrwt beam="2">  1        4 0.31532783E-02 0.12500226E+03</pdfrwt>
<pdfrwt beam="1">  1       -4 0.29321537E-01 0.12500226E+03</pdfrwt>
<totfact> 0.88294318E+03</totfact>
</mgrwt>
</event>
<event>
 5    1  0.3227866E-002  0.1249981E+03  0.7818608E-02  0.1235072E+00
          4   -1    0    0  501    0  0.00000000000E+00  0.00000000000E+00  0.11801873577E+03  0.11802556881E+03  0.12700000000E+01 0. -1.
         -4   -1    0    0    0  501 -0.00000000000E+00 -0.00000000000E+00 -0.33077550331E+02  0.33101921937E+02  0.12700000000E+01 0. -1.
         25    2    1    2    0    0  0.00000000000E+00  0.00000000000E+00  0.84941185439E+02  0.15112749075E+03  0.12499805389E+03 0.  0.
    9000005    1    3    3    0    0 -0.35061398759E+02 -0.48979974750E+02  0.62585333711E+02  0.86869232788E+02  0.10000000000E+01 0.  0.
    9000005    1    3    3    0    0  0.35061398759E+02  0.48979974750E+02  0.22355851728E+02  0.64258257959E+02  0.10000000000E+01 0.  0.
<mgrwt>
<rscale>  0 0.12499805E+03</rscale>
<asrwt>0</asrwt>
<pdfrwt beam="1">  1        4 0.18159129E-01 0.12499805E+03</pdfrwt>
<pdfrwt beam="2">  1       -4 0.50912542E-02 0.12499805E+03</pdfrwt>
<totfact> 0.99083762E+03</totfact>
</mgrwt>
</event>
<event>
 5    1  0.3227866E-002  0.1250020E+03  0.7818608E-02  0.1235066E+00
          4   -1    0    0  501    0  0.00000000000E+00  0.00000000000E+00  0.10205090449E+03  0.10205880662E+03  0.12700000000E+01 0.  1.
         -4   -1    0    0    0  501 -0.00000000000E+00 -0.00000000000E+00 -0.38258791216E+02  0.38279864228E+02  0.12700000000E+01 0.  1.
         25    2    1    2    0    0  0.00000000000E+00  0.00000000000E+00  0.63792113276E+02  0.14033867084E+03  0.12500203526E+03 0.  0.
    9000005    1    3    3    0    0 -0.18801001697E+02  0.39231478512E+02 -0.18472508156E+02  0.47273884214E+02  0.10000000000E+01 0.  0.
    9000005    1    3    3    0    0  0.18801001697E+02 -0.39231478512E+02  0.82264621432E+02  0.93064786630E+02  0.10000000000E+01 0.  0.
<mgrwt>
<rscale>  0 0.12500204E+03</rscale>
<asrwt>0</asrwt>
<pdfrwt beam="1">  1        4 0.15702368E-01 0.12500204E+03</pdfrwt>
<pdfrwt beam="2">  1       -4 0.58881968E-02 0.12500204E+03</pdfrwt>
<totfact> 0.10126107E+04</totfact>
</mgrwt>
</event>
<event>
 5    1  0.3227866E-002  0.1250018E+03  0.7818608E-02  0.1235066E+00
         -4   -1    0    0    0  501 -0.00000000000E+00  0.00000000000E+00  0.14276579130E+03  0.14277143995E+03  0.12700000000E+01 0. -1.
          4   -1    0    0  501    0  0.00000000000E+00 -0.00000000000E+00 -0.27341100729E+02  0.27370580722E+02  0.12700000000E+01 0. -1.
         25    2    1    2    0    0  0.00000000000E+00  0.00000000000E+00  0.11542469057E+03  0.17014202067E+03  0.12500179201E+03 0.  0.
    9000005    1    3    3    0    0  0.45440285347E+02 -0.35193203847E+02  0.24316941948E+02  0.62415501241E+02  0.10000000000E+01 0.  0.
    9000005    1    3    3    0    0 -0.45440285347E+02  0.35193203847E+02  0.91107748624E+02  0.10772651943E+03  0.10000000000E+01 0.  0.
<mgrwt>
<rscale>  0 0.12500179E+03</rscale>
<asrwt>0</asrwt>
<pdfrwt beam="2">  1        4 0.42090255E-02 0.12500179E+03</pdfrwt>
<pdfrwt beam="1">  1       -4 0.21966669E-01 0.12500179E+03</pdfrwt>
<totfact> 0.95418335E+03</totfact>
</mgrwt>
</event>
<event>
 5    1  0.3227866E-002  0.1249998E+03  0.7818608E-02  0.1235070E+00
         -4   -1    0    0    0  501 -0.00000000000E+00  0.00000000000E+00  0.75597199013E+01  0.76656548961E+01  0.12700000000E+01 0. -1.
          4   -1    0    0  501    0  0.00000000000E+00 -0.00000000000E+00 -0.51301562058E+03  0.51301719256E+03  0.12700000000E+01 0. -1.
         25    2    1    2    0    0  0.00000000000E+00  0.00000000000E+00 -0.50545590068E+03  0.52068284745E+03  0.12499984040E+03 0.  0.
    9000005    1    3    3    0    0 -0.28600141004E+02  0.76362934120E+01 -0.48197856504E+03  0.48288779048E+03  0.10000000000E+01 0.  0.
    9000005    1    3    3    0    0  0.28600141004E+02 -0.76362934120E+01 -0.23477335641E+02  0.37795056969E+02  0.10000000000E+01 0.  0.
<mgrwt>
<rscale>  0 0.12499984E+03</rscale>
<asrwt>0</asrwt>
<pdfrwt beam="2">  1        4 0.78933723E-01 0.12499984E+03</pdfrwt>
<pdfrwt beam="1">  1       -4 0.11713040E-02 0.12499984E+03</pdfrwt>
<totfact> 0.54294800E+03</totfact>
</mgrwt>
</event>
<event>
 5    1  0.3227866E-002  0.1249997E+03  0.7818608E-02  0.1235070E+00
         -4   -1    0    0    0  501 -0.00000000000E+00  0.00000000000E+00  0.19662499898E+03  0.19662910040E+03  0.12700000000E+01 0.  1.
          4   -1    0    0  501    0  0.00000000000E+00 -0.00000000000E+00 -0.19841805908E+02  0.19882408347E+02  0.12700000000E+01 0.  1.
         25    2    1    2    0    0  0.00000000000E+00  0.00000000000E+00  0.17678319308E+03  0.21651150875E+03  0.12499974427E+03 0.  0.
    9000005    1    3    3    0    0  0.58940258242E+02  0.20014857434E+02  0.78796747197E+02  0.10042149137E+03  0.10000000000E+01 0.  0.
    9000005    1    3    3    0    0 -0.58940258242E+02 -0.20014857434E+02  0.97986445879E+02  0.11609001738E+03  0.10000000000E+01 0.  0.
<mgrwt>
<rscale>  0 0.12499974E+03</rscale>
<asrwt>0</asrwt>
<pdfrwt beam="2">  1        4 0.30560243E-02 0.12499974E+03</pdfrwt>
<pdfrwt beam="1">  1       -4 0.30253439E-01 0.12499974E+03</pdfrwt>
<totfact> 0.87423884E+03</totfact>
</mgrwt>
</event>
<event>
 5    1  0.3227866E-002  0.1250098E+03  0.7818608E-02  0.1235054E+00
         -4   -1    0    0    0  501 -0.00000000000E+00  0.00000000000E+00  0.13227735951E+03  0.13228345603E+03  0.12700000000E+01 0.  1.
          4   -1    0    0  501    0  0.00000000000E+00 -0.00000000000E+00 -0.29514944264E+02  0.29542255075E+02  0.12700000000E+01 0.  1.
         25    2    1    2    0    0  0.00000000000E+00  0.00000000000E+00  0.10276241525E+03  0.16182571110E+03  0.12500978677E+03 0.  0.
    9000005    1    3    3    0    0 -0.40708901797E+01 -0.55801766101E+02  0.15333214136E+02  0.58021691656E+02  0.10000000000E+01 0.  0.
    9000005    1    3    3    0    0  0.40708901797E+01  0.55801766101E+02  0.87429201111E+02  0.10380401945E+03  0.10000000000E+01 0.  0.
<mgrwt>
<rscale>  0 0.12500979E+03</rscale>
<asrwt>0</asrwt>
<pdfrwt beam="2">  1        4 0.45433305E-02 0.12500979E+03</pdfrwt>
<pdfrwt beam="1">  1       -4 0.20352933E-01 0.12500979E+03</pdfrwt>
<totfact> 0.96970624E+03</totfact>
</mgrwt>
</event>
<event>
 5    1  0.3227866E-002  0.1249973E+03  0.7818608E-02  0.1235073E+00
         -4   -1    0    0    0  501 -0.00000000000E+00  0.00000000000E+00  0.64016800856E+02  0.64029397091E+02  0.12700000000E+01 0. -1.
          4   -1    0    0  501    0  0.00000000000E+00 -0.00000000000E+00 -0.60991314230E+02  0.61004535171E+02  0.12700000000E+01 0. -1.
         25    2    1    2    0    0  0.00000000000E+00  0.00000000000E+00  0.30254866262E+01  0.12503393226E+03  0.12499732256E+03 0.  0.
    9000005    1    3    3    0    0 -0.49730041084E+01  0.57506165674E+02 -0.22439891733E+02  0.61937376449E+02  0.10000000000E+01 0.  0.
    9000005    1    3    3    0    0  0.49730041084E+01 -0.57506165674E+02  0.25465378359E+02  0.63096555813E+02  0.10000000000E+01 0.  0.
<mgrwt>
<rscale>  0 0.12499732E+03</rscale>
<asrwt>0</asrwt>
<pdfrwt beam="2">  1        4 0.93852651E-02 0.12499732E+03</pdfrwt>
<pdfrwt beam="1">  1       -4 0.98507245E-02 0.12499732E+03</pdfrwt>
<totfact> 0.10452758E+04</totfact>
</mgrwt>
</event>
<event>
 5    1  0.3227866E-002  0.1249986E+03  0.7818608E-02  0.1235071E+00
          4   -1    0    0  501    0  0.00000000000E+00  0.00000000000E+00  0.52511935460E+01  0.54025858307E+01  0.12700000000E+01 0.  1.
         -4   -1    0    0    0  501 -0.00000000000E+00 -0.00000000000E+00 -0.73313960409E+03  0.73314070408E+03  0.12700000000E+01 0.  1.
         25    2    1    2    0    0  0.00000000000E+00  0.00000000000E+00 -0.72788841054E+03  0.73854328991E+03  0.12499861149E+03 0.  0.
    9000005    1    3    3    0    0  0.43211094934E+02  0.41326079907E+01 -0.98335881973E+02  0.10749522249E+03  0.10000000000E+01 0.  0.
    9000005    1    3    3    0    0 -0.43211094934E+02 -0.41326079907E+01 -0.62955252857E+03  0.63104806743E+03  0.10000000000E+01 0.  0.
<mgrwt>
<rscale>  0 0.12499861E+03</rscale>
<asrwt>0</asrwt>
<pdfrwt beam="1">  1        4 0.81960669E-03 0.12499861E+03</pdfrwt>
<pdfrwt beam="2">  1       -4 0.11280236E+00 0.12499861E+03</pdfrwt>
<totfact> 0.41129471E+03</totfact>
</mgrwt>
</event>
<event>
 5    1  0.3227866E-002  0.1249977E+03  0.7818608E-02  0.1235073E+00
          4   -1    0    0  501    0  0.00000000000E+00  0.00000000000E+00  0.13903652954E+02  0.13961535211E+02  0.12700000000E+01 0. -1.
         -4   -1    0    0    0  501 -0.00000000000E+00 -0.00000000000E+00 -0.28029819841E+03  0.28030107551E+03  0.12700000000E+01 0. -1.
         25    2    1    2    0    0  0.00000000000E+00  0.00000000000E+00 -0.26639454545E+03  0.29426261072E+03  0.12499772086E+03 0.  0.
    9000005    1    3    3    0    0 -0.20713966653E+02 -0.47291634819E+02 -0.50314678635E+02  0.72098086136E+02  0.10000000000E+01 0.  0.
    9000005    1    3    3    0    0  0.20713966653E+02  0.47291634819E+02 -0.21607986682E+03  0.22216452458E+03  0.10000000000E+01 0.  0.
<mgrwt>
<rscale>  0 0.12499772E+03</rscale>
<asrwt>0</asrwt>
<pdfrwt beam="1">  1        4 0.21436975E-02 0.12499772E+03</pdfrwt>
<pdfrwt beam="2">  1       -4 0.43127469E-01 0.12499772E+03</pdfrwt>
<totfact> 0.76328074E+03</totfact>
</mgrwt>
</event>
<event>
 5    1  0.3227866E-002  0.1250060E+03  0.7818608E-02  0.1235060E+00
          4   -1    0    0  501    0  0.00000000000E+00  0.00000000000E+00  0.51476412857E+02  0.51492076872E+02  0.12700000000E+01 0.  1.
         -4   -1    0    0    0  501 -0.00000000000E+00 -0.00000000000E+00 -0.75859035425E+02  0.75869665583E+02  0.12700000000E+01 0.  1.
         25    2    1    2    0    0  0.00000000000E+00  0.00000000000E+00 -0.24382622569E+02  0.12736174245E+03  0.12500600449E+03 0.  0.
    9000005    1    3    3    0    0 -0.28041053512E+02 -0.14460438410E+02 -0.67154390182E+02  0.74203214767E+02  0.10000000000E+01 0.  0.
    9000005    1    3    3    0    0  0.28041053512E+02  0.14460438410E+02  0.42771767614E+02  0.53158527687E+02  0.10000000000E+01 0.  0.
<mgrwt>
<rscale>  0 0.12500600E+03</rscale>
<asrwt>0</asrwt>
<pdfrwt beam="1">  1        4 0.79214707E-02 0.12500600E+03</pdfrwt>
<pdfrwt beam="2">  1       -4 0.11672643E-01 0.12500600E+03</pdfrwt>
<totfact> 0.10399886E+04</totfact>
</mgrwt>
</event>
<event>
 5    1  0.3227866E-002  0.1250047E+03  0.7818608E-02  0.1235062E+00
         -4   -1    0    0    0  501 -0.00000000000E+00  0.00000000000E+00  0.27145703332E+02  0.27175395294E+02  0.12700000000E+01 0. -1.
          4   -1    0    0  501    0  0.00000000000E+00 -0.00000000000E+00 -0.14379914293E+03  0.14380475099E+03  0.12700000000E+01 0. -1.
         25    2    1    2    0    0  0.00000000000E+00  0.00000000000E+00 -0.11665343960E+03  0.17098014629E+03  0.12500474172E+03 0.  0.
    9000005    1    3    3    0    0 -0.62443001606E+02 -0.20394457396E+01 -0.60382309588E+02  0.86892526144E+02  0.10000000000E+01 0.  0.
    9000005    1    3    3    0    0  0.62443001606E+02  0.20394457396E+01 -0.56271130012E+02  0.84087620143E+02  0.10000000000E+01 0.  0.
<mgrwt>
<rscale>  0 0.12500474E+03</rscale>
<asrwt>0</asrwt>
<pdfrwt beam="2">  1        4 0.22125660E-01 0.12500474E+03</pdfrwt>
<pdfrwt beam="1">  1       -4 0.41789775E-02 0.12500474E+03</pdfrwt>
<totfact> 0.95256128E+03</totfact>
</mgrwt>
</event>
<event>
 5    1  0.3227866E-002  0.1250017E+03  0.7818608E-02  0.1235067E+00
         -4   -1    0    0    0  501 -0.00000000000E+00  0.00000000000E+00  0.34611362845E+03  0.34611595846E+03  0.12700000000E+01 0. -1.
          4   -1    0    0  501    0  0.00000000000E+00 -0.00000000000E+00 -0.11248229887E+02  0.11319698564E+02  0.12700000000E+01 0. -1.
         25    2    1    2    0    0  0.00000000000E+00  0.00000000000E+00  0.33486539857E+03  0.35743565703E+03  0.12500165501E+03 0.  0.
    9000005    1    3    3    0    0 -0.50193464987E+02 -0.36685710889E+02  0.18554637390E+03  0.19568771596E+03  0.10000000000E+01 0.  0.
    9000005    1    3    3    0    0  0.50193464987E+02  0.36685710889E+02  0.14931902467E+03  0.16174794106E+03  0.10000000000E+01 0.  0.
<mgrwt>
<rscale>  0 0.12500166E+03</rscale>
<asrwt>0</asrwt>
<pdfrwt beam="2">  1        4 0.17361741E-02 0.12500166E+03</pdfrwt>
<pdfrwt beam="1">  1       -4 0.53253917E-01 0.12500166E+03</pdfrwt>
<totfact> 0.68911697E+03</totfact>
</mgrwt>
</event>
<event>
 5    1  0.3227866E-002  0.1249999E+03  0.7818608E-02  0.1235069E+00
          4   -1    0    0  501    0  0.00000000000E+00  0.00000000000E+00  0.33219623422E+03  0.33219866184E+03  0.12700000000E+01 0. -1.
         -4   -1    0    0    0  501 -0.00000000000E+00 -0.00000000000E+00 -0.11722082738E+02  0.11790679527E+02  0.12700000000E+01 0. -1.
         25    2    1    2    0    0  0.00000000000E+00  0.00000000000E+00  0.32047415148E+03  0.34398934137E+03  0.12499994083E+03 0.  0.
    9000005    1    3    3    0    0 -0.29084424770E+02 -0.49459088572E+02  0.92094994925E+02  0.10851079807E+03  0.10000000000E+01 0.  0.
    9000005    1    3    3    0    0  0.29084424770E+02  0.49459088572E+02  0.22837915655E+03  0.23547854330E+03  0.10000000000E+01 0.  0.
<mgrwt>
<rscale>  0 0.12499994E+03</rscale>
<asrwt>0</asrwt>
<pdfrwt beam="1">  1        4 0.51112573E-01 0.12499994E+03</pdfrwt>
<pdfrwt beam="2">  1       -4 0.18088609E-02 0.12499994E+03</pdfrwt>
<totfact> 0.70390996E+03</totfact>
</mgrwt>
</event>
<event>
 5    1  0.3227866E-002  0.1249973E+03  0.7818608E-02  0.1235073E+00
         -4   -1    0    0    0  501 -0.00000000000E+00  0.00000000000E+00  0.87325607193E+01  0.88244272742E+01  0.12700000000E+01 0. -1.
          4   -1    0    0  501    0  0.00000000000E+00 -0.00000000000E+00 -0.44486755706E+03  0.44486936984E+03  0.12700000000E+01 0. -1.
         25    2    1    2    0    0  0.00000000000E+00  0.00000000000E+00 -0.43613499634E+03  0.45369379712E+03  0.12499730601E+03 0.  0.
    9000005    1    3    3    0    0 -0.24855713120E+02  0.16228959855E+02 -0.41766064019E+03  0.41871541168E+03  0.10000000000E+01 0.  0.
    9000005    1    3    3    0    0  0.24855713120E+02 -0.16228959855E+02 -0.18474356148E+02  0.34978385436E+02  0.10000000000E+01 0.  0.
<mgrwt>
<rscale>  0 0.12499731E+03</rscale>
<asrwt>0</asrwt>
<pdfrwt beam="2">  1        4 0.68448351E-01 0.12499731E+03</pdfrwt>
<pdfrwt beam="1">  1       -4 0.13506773E-02 0.12499731E+03</pdfrwt>
<totfact> 0.59648679E+03</totfact>
</mgrwt>
</event>
<event>
 5    1  0.3227866E-002  0.1250129E+03  0.7818608E-02  0.1235049E+00
         -4   -1    0    0    0  501 -0.00000000000E+00  0.00000000000E+00  0.59449659081E+01  0.60791051684E+01  0.12700000000E+01 0.  1.
          4   -1    0    0  501    0  0.00000000000E+00 -0.00000000000E+00 -0.64973744337E+03  0.64973868456E+03  0.12700000000E+01 0.  1.
         25    2    1    2    0    0  0.00000000000E+00  0.00000000000E+00 -0.64379247746E+03  0.65581778973E+03  0.12501287650E+03 0.  0.
    9000005    1    3    3    0    0  0.27745483939E+02  0.49461379243E+02 -0.18411352552E+03  0.19265261534E+03  0.10000000000E+01 0.  0.
    9000005    1    3    3    0    0 -0.27745483939E+02 -0.49461379243E+02 -0.45967895194E+03  0.46316517440E+03  0.10000000000E+01 0.  0.
<mgrwt>
<rscale>  0 0.12501288E+03</rscale>
<asrwt>0</asrwt>
<pdfrwt beam="2">  1        4 0.99969965E-01 0.12501288E+03</pdfrwt>
<pdfrwt beam="1">  1       -4 0.92502453E-03 0.12501288E+03</pdfrwt>
<totfact> 0.45510644E+03</totfact>
</mgrwt>
</event>
<event>
 5    1  0.3227866E-002  0.1250037E+03  0.7818608E-02  0.1235064E+00
          4   -1    0    0  501    0  0.00000000000E+00  0.00000000000E+00  0.68542340591E+03  0.68542458248E+03  0.12700000000E+01 0.  1.
         -4   -1    0    0    0  501 -0.00000000000E+00 -0.00000000000E+00 -0.56274240788E+01  0.57689515306E+01  0.12700000000E+01 0.  1.
         25    2    1    2    0    0  0.00000000000E+00  0.00000000000E+00  0.67979598183E+03  0.69119353401E+03  0.12500369813E+03 0.  0.
    9000005    1    3    3    0    0  0.40993152200E+02  0.46133936965E+02  0.28552345204E+03  0.29211884625E+03  0.10000000000E+01 0.  0.
    9000005    1    3    3    0    0 -0.40993152200E+02 -0.46133936965E+02  0.39427252979E+03  0.39907468776E+03  0.10000000000E+01 0.  0.
<mgrwt>
<rscale>  0 0.12500370E+03</rscale>
<asrwt>0</asrwt>
<pdfrwt beam="1">  1        4 0.10546068E+00 0.12500370E+03</pdfrwt>
<pdfrwt beam="2">  1       -4 0.87673523E-03 0.12500370E+03</pdfrwt>
<totfact> 0.43552159E+03</totfact>
</mgrwt>
</event>
<event>
 5    1  0.3227866E-002  0.1250007E+03  0.7818608E-02  0.1235068E+00
          4   -1    0    0  501    0  0.00000000000E+00  0.00000000000E+00  0.36650584102E+03  0.36650804139E+03  0.12700000000E+01 0. -1.
         -4   -1    0    0    0  501 -0.00000000000E+00 -0.00000000000E+00 -0.10618133308E+02  0.10693813864E+02  0.12700000000E+01 0. -1.
         25    2    1    2    0    0  0.00000000000E+00  0.00000000000E+00  0.35588770771E+03  0.37720185525E+03  0.12500071642E+03 0.  0.
    9000005    1    3    3    0    0  0.45545478041E+02  0.91633454614E+01  0.51819202794E+02  0.69603069244E+02  0.10000000000E+01 0.  0.
    9000005    1    3    3    0    0 -0.45545478041E+02 -0.91633454614E+01  0.30406850492E+03  0.30759878600E+03  0.10000000000E+01 0.  0.
<mgrwt>
<rscale>  0 0.12500072E+03</rscale>
<asrwt>0</asrwt>
<pdfrwt beam="1">  1        4 0.56391496E-01 0.12500072E+03</pdfrwt>
<pdfrwt beam="2">  1       -4 0.16395501E-02 0.12500072E+03</pdfrwt>
<totfact> 0.66831104E+03</totfact>
</mgrwt>
</event>
<event>
 5    1  0.3227866E-002  0.1249986E+03  0.7818608E-02  0.1235071E+00
         -4   -1    0    0    0  501 -0.00000000000E+00  0.00000000000E+00  0.35156084178E+02  0.35179015830E+02  0.12700000000E+01 0.  1.
          4   -1    0    0  501    0  0.00000000000E+00 -0.00000000000E+00 -0.11104633053E+03  0.11105359258E+03  0.12700000000E+01 0.  1.
         25    2    1    2    0    0  0.00000000000E+00  0.00000000000E+00 -0.75890246353E+02  0.14623260841E+03  0.12499858507E+03 0.  0.
    9000005    1    3    3    0    0  0.32004586254E+02  0.42780338786E+02 -0.24043431790E-01  0.53436424900E+02  0.10000000000E+01 0.  0.
    9000005    1    3    3    0    0 -0.32004586254E+02 -0.42780338786E+02 -0.75866202921E+02  0.92796183508E+02  0.10000000000E+01 0.  0.
<mgrwt>
<rscale>  0 0.12499859E+03</rscale>
<asrwt>0</asrwt>
<pdfrwt beam="2">  1        4 0.17086373E-01 0.12499859E+03</pdfrwt>
<pdfrwt beam="1">  1       -4 0.54109510E-02 0.12499859E+03</pdfrwt>
<totfact> 0.10006323E+04</totfact>
</mgrwt>
</event>
<event>
 5    1  0.3227866E-002  0.1249961E+03  0.7818608E-02  0.1235075E+00
          4   -1    0    0  501    0  0.00000000000E+00  0.00000000000E+00  0.29172102013E+02  0.29199733489E+02  0.12700000000E+01 0. -1.
         -4   -1    0    0    0  501 -0.00000000000E+00 -0.00000000000E+00 -0.13380119748E+03  0.13380722457E+03  0.12700000000E+01 0. -1.
         25    2    1    2    0    0  0.00000000000E+00  0.00000000000E+00 -0.10462909547E+03  0.16300695806E+03  0.12499608297E+03 0.  0.
    9000005    1    3    3    0    0 -0.47090346748E+02 -0.12040036073E+02 -0.10353321021E+03  0.11437914514E+03  0.10000000000E+01 0.  0.
    9000005    1    3    3    0    0  0.47090346748E+02  0.12040036073E+02 -0.10958852598E+01  0.48627812926E+02  0.10000000000E+01 0.  0.
<mgrwt>
<rscale>  0 0.12499608E+03</rscale>
<asrwt>0</asrwt>
<pdfrwt beam="1">  1        4 0.44906049E-02 0.12499608E+03</pdfrwt>
<pdfrwt beam="2">  1       -4 0.20587388E-01 0.12499608E+03</pdfrwt>
<totfact> 0.96774697E+03</totfact>
</mgrwt>
</event>
<event>
 5    1  0.3227866E-002  0.1249992E+03  0.7818608E-02  0.1235070E+00
         -4   -1    0    0    0  501 -0.00000000000E+00  0.00000000000E+00  0.23863434206E+03  0.23863772148E+03  0.12700000000E+01 0. -1.
          4   -1    0    0  501    0  0.00000000000E+00 -0.00000000000E+00 -0.16340851431E+02  0.16390128904E+02  0.12700000000E+01 0. -1.
         25    2    1    2    0    0  0.00000000000E+00  0.00000000000E+00  0.22229349063E+03  0.25502785038E+03  0.12499923397E+03 0.  0.
    9000005    1    3    3    0    0  0.35527329903E+02  0.51357163501E+02  0.11591090680E+03  0.13166657787E+03  0.10000000000E+01 0.  0.
    9000005    1    3    3    0    0 -0.35527329903E+02 -0.51357163501E+02  0.10638258383E+03  0.12336127251E+03  0.10000000000E+01 0.  0.
<mgrwt>
<rscale>  0 0.12499923E+03</rscale>
<asrwt>0</asrwt>
<pdfrwt beam="2">  1        4 0.25180277E-02 0.12499923E+03</pdfrwt>
<pdfrwt beam="1">  1       -4 0.36717026E-01 0.12499923E+03</pdfrwt>
<totfact> 0.81610325E+03</totfact>
</mgrwt>
</event>
<event>
 5    1  0.3227866E-002  0.1249992E+03  0.7818608E-02  0.1235070E+00
          4   -1    0    0  501    0  0.00000000000E+00  0.00000000000E+00  0.21164978420E+03  0.21165359447E+03  0.12700000000E+01 0.  1.
         -4   -1    0    0    0  501 -0.00000000000E+00 -0.00000000000E+00 -0.18430140724E+02  0.18473846029E+02  0.12700000000E+01 0.  1.
         25    2    1    2    0    0  0.00000000000E+00  0.00000000000E+00  0.19321964348E+03  0.23012744050E+03  0.12499923298E+03 0.  0.
    9000005    1    3    3    0    0  0.12395567724E+02 -0.41067112294E+02  0.12948303770E+02  0.44819821306E+02  0.10000000000E+01 0.  0.
    9000005    1    3    3    0    0 -0.12395567724E+02  0.41067112294E+02  0.18027133971E+03  0.18530761919E+03  0.10000000000E+01 0.  0.
<mgrwt>
<rscale>  0 0.12499923E+03</rscale>
<asrwt>0</asrwt>
<pdfrwt beam="1">  1        4 0.32565160E-01 0.12499923E+03</pdfrwt>
<pdfrwt beam="2">  1       -4 0.28390613E-02 0.12499923E+03</pdfrwt>
<totfact> 0.85291491E+03</totfact>
</mgrwt>
</event>
<event>
 5    1  0.3227866E-002  0.1249984E+03  0.7818608E-02  0.1235072E+00
         -4   -1    0    0    0  501 -0.00000000000E+00  0.00000000000E+00  0.77764988503E+03  0.77765092206E+03  0.12700000000E+01 0.  1.
          4   -1    0    0  501    0  0.00000000000E+00 -0.00000000000E+00 -0.49416832184E+01  0.51022674402E+01  0.12700000000E+01 0.  1.
         25    2    1    2    0    0  0.00000000000E+00  0.00000000000E+00  0.77270820181E+03  0.78275318950E+03  0.12499836212E+03 0.  0.
    9000005    1    3    3    0    0  0.11151790140E+01  0.50188951217E+02  0.15330834086E+03  0.16132148594E+03  0.10000000000E+01 0.  0.
    9000005    1    3    3    0    0 -0.11151790140E+01 -0.50188951217E+02  0.61939986095E+03  0.62143170356E+03  0.10000000000E+01 0.  0.
<mgrwt>
<rscale>  0 0.12499836E+03</rscale>
<asrwt>0</asrwt>
<pdfrwt beam="2">  1        4 0.77269189E-03 0.12499836E+03</pdfrwt>
<pdfrwt beam="1">  1       -4 0.11965079E+00 0.12499836E+03</pdfrwt>
<totfact> 0.39047783E+03</totfact>
</mgrwt>
</event>
<event>
 5    1  0.3227866E-002  0.1249916E+03  0.7818608E-02  0.1235082E+00
         -4   -1    0    0    0  501 -0.00000000000E+00  0.00000000000E+00  0.14345339244E+03  0.14345901402E+03  0.12700000000E+01 0. -1.
          4   -1    0    0  501    0  0.00000000000E+00 -0.00000000000E+00 -0.27205466083E+02  0.27235092891E+02  0.12700000000E+01 0. -1.
         25    2    1    2    0    0  0.00000000000E+00  0.00000000000E+00  0.11624792636E+03  0.17069410691E+03  0.12499159072E+03 0.  0.
    9000005    1    3    3    0    0 -0.35967593243E+02  0.38930613482E+02  0.12924134463E+02  0.54564582665E+02  0.10000000000E+01 0.  0.
    9000005    1    3    3    0    0  0.35967593243E+02 -0.38930613482E+02  0.10332379190E+03  0.11612952425E+03  0.10000000000E+01 0.  0.
<mgrwt>
<rscale>  0 0.12499159E+03</rscale>
<asrwt>0</asrwt>
<pdfrwt beam="2">  1        4 0.41881678E-02 0.12499159E+03</pdfrwt>
<pdfrwt beam="1">  1       -4 0.22072464E-01 0.12499159E+03</pdfrwt>
<totfact> 0.95337415E+03</totfact>
</mgrwt>
</event>
<event>
 5    1  0.3227866E-002  0.1250002E+03  0.7818608E-02  0.1235069E+00
          4   -1    0    0  501    0  0.00000000000E+00  0.00000000000E+00  0.68524742114E+02  0.68536509846E+02  0.12700000000E+01 0. -1.
         -4   -1    0    0    0  501 -0.00000000000E+00 -0.00000000000E+00 -0.56981446232E+02  0.56995597327E+02  0.12700000000E+01 0. -1.
         25    2    1    2    0    0  0.00000000000E+00  0.00000000000E+00  0.11543295882E+02  0.12553210717E+03  0.12500024901E+03 0.  0.
    9000005    1    3    3    0    0 -0.59755250681E+02  0.13865582424E+01 -0.12544733787E+02  0.61081772023E+02  0.10000000000E+01 0.  0.
    9000005    1    3    3    0    0  0.59755250681E+02 -0.13865582424E+01  0.24088029669E+02  0.64450335150E+02  0.10000000000E+01 0.  0.
<mgrwt>
<rscale>  0 0.12500025E+03</rscale>
<asrwt>0</asrwt>
<pdfrwt beam="1">  1        4 0.10544262E-01 0.12500025E+03</pdfrwt>
<pdfrwt beam="2">  1       -4 0.87683701E-02 0.12500025E+03</pdfrwt>
<totfact> 0.10441186E+04</totfact>
</mgrwt>
</event>
<event>
 5    1  0.3227866E-002  0.1250010E+03  0.7818608E-02  0.1235068E+00
          4   -1    0    0  501    0  0.00000000000E+00  0.00000000000E+00  0.38275997545E+01  0.40327930619E+01  0.12700000000E+01 0. -1.
         -4   -1    0    0    0  501 -0.00000000000E+00 -0.00000000000E+00 -0.99371742167E+03  0.99371823322E+03  0.12700000000E+01 0. -1.
         25    2    1    2    0    0  0.00000000000E+00  0.00000000000E+00 -0.98988982191E+03  0.99775102628E+03  0.12500100364E+03 0.  0.
    9000005    1    3    3    0    0  0.11083854981E+02 -0.59660638348E+02 -0.61415922624E+03  0.61715054791E+03  0.10000000000E+01 0.  0.
    9000005    1    3    3    0    0 -0.11083854981E+02  0.59660638348E+02 -0.37573059568E+03  0.38060047837E+03  0.10000000000E+01 0.  0.
<mgrwt>
<rscale>  0 0.12500100E+03</rscale>
<asrwt>0</asrwt>
<pdfrwt beam="1">  1        4 0.60470882E-03 0.12500100E+03</pdfrwt>
<pdfrwt beam="2">  1       -4 0.15289525E+00 0.12500100E+03</pdfrwt>
<totfact> 0.30678226E+03</totfact>
</mgrwt>
</event>
<event>
 5    1  0.3227866E-002  0.1250002E+03  0.7818608E-02  0.1235069E+00
          4   -1    0    0  501    0  0.00000000000E+00  0.00000000000E+00  0.40620050590E+02  0.40639899236E+02  0.12700000000E+01 0. -1.
         -4   -1    0    0    0  501 -0.00000000000E+00 -0.00000000000E+00 -0.96118279360E+02  0.96126669178E+02  0.12700000000E+01 0. -1.
         25    2    1    2    0    0  0.00000000000E+00  0.00000000000E+00 -0.55498228770E+02  0.13676656841E+03  0.12500016336E+03 0.  0.
    9000005    1    3    3    0    0  0.19438159213E+02 -0.28468661571E+02  0.29281817927E+02  0.45240817702E+02  0.10000000000E+01 0.  0.
    9000005    1    3    3    0    0 -0.19438159213E+02  0.28468661571E+02 -0.84780046697E+02  0.91525750711E+02  0.10000000000E+01 0.  0.
<mgrwt>
<rscale>  0 0.12500016E+03</rscale>
<asrwt>0</asrwt>
<pdfrwt beam="1">  1        4 0.62514108E-02 0.12500016E+03</pdfrwt>
<pdfrwt beam="2">  1       -4 0.14789600E-01 0.12500016E+03</pdfrwt>
<totfact> 0.10200931E+04</totfact>
</mgrwt>
</event>
<event>
 5    1  0.3227866E-002  0.1250068E+03  0.7818608E-02  0.1235059E+00
          4   -1    0    0  501    0  0.00000000000E+00  0.00000000000E+00  0.27934728819E+01  0.30686138144E+01  0.12700000000E+01 0.  1.
         -4   -1    0    0    0  501 -0.00000000000E+00 -0.00000000000E+00 -0.13325863058E+04  0.13325869109E+04  0.12700000000E+01 0.  1.
         25    2    1    2    0    0  0.00000000000E+00  0.00000000000E+00 -0.13297928329E+04  0.13356555247E+04  0.12500680951E+03 0.  0.
    9000005    1    3    3    0    0 -0.59194521948E+02 -0.94690766355E+01 -0.85363145856E+03  0.85573437577E+03  0.10000000000E+01 0.  0.
    9000005    1    3    3    0    0  0.59194521948E+02  0.94690766355E+01 -0.47616137431E+03  0.47992114897E+03  0.10000000000E+01 0.  0.
<mgrwt>
<rscale>  0 0.12500681E+03</rscale>
<asrwt>0</asrwt>
<pdfrwt beam="1">  1        4 0.45097736E-03 0.12500681E+03</pdfrwt>
<pdfrwt beam="2">  1       -4 0.20503401E+00 0.12500681E+03</pdfrwt>
<totfact> 0.21399189E+03</totfact>
</mgrwt>
</event>
<event>
 5    1  0.3227866E-002  0.1249979E+03  0.7818608E-02  0.1235072E+00
         -4   -1    0    0    0  501 -0.00000000000E+00  0.00000000000E+00  0.80153262080E+02  0.80163322799E+02  0.12700000000E+01 0.  1.
          4   -1    0    0  501    0  0.00000000000E+00 -0.00000000000E+00 -0.48711762621E+02  0.48728315358E+02  0.12700000000E+01 0.  1.
         25    2    1    2    0    0  0.00000000000E+00  0.00000000000E+00  0.31441499459E+02  0.12889163816E+03  0.12499794598E+03 0.  0.
    9000005    1    3    3    0    0  0.57837421930E+02  0.20450619606E+02  0.34450217765E+01  0.61451309122E+02  0.10000000000E+01 0.  0.
    9000005    1    3    3    0    0 -0.57837421930E+02 -0.20450619606E+02  0.27996477683E+02  0.67440329035E+02  0.10000000000E+01 0.  0.
<mgrwt>
<rscale>  0 0.12499795E+03</rscale>
<asrwt>0</asrwt>
<pdfrwt beam="2">  1        4 0.74961646E-02 0.12499795E+03</pdfrwt>
<pdfrwt beam="1">  1       -4 0.12333318E-01 0.12499795E+03</pdfrwt>
<totfact> 0.10368757E+04</totfact>
</mgrwt>
</event>
<event>
 5    1  0.3227866E-002  0.1250006E+03  0.7818608E-02  0.1235068E+00
         -4   -1    0    0    0  501 -0.00000000000E+00  0.00000000000E+00  0.12246529698E+03  0.12247188194E+03  0.12700000000E+01 0.  1.
          4   -1    0    0  501    0  0.00000000000E+00 -0.00000000000E+00 -0.31877010049E+02  0.31902298814E+02  0.12700000000E+01 0.  1.
         25    2    1    2    0    0  0.00000000000E+00  0.00000000000E+00  0.90588286933E+02  0.15437418075E+03  0.12500059981E+03 0.  0.
    9000005    1    3    3    0    0  0.58331399392E+02  0.21758302505E+02  0.51980389757E+02  0.81110645431E+02  0.10000000000E+01 0.  0.
    9000005    1    3    3    0    0 -0.58331399392E+02 -0.21758302505E+02  0.38607897176E+02  0.73263535318E+02  0.10000000000E+01 0.  0.
<mgrwt>
<rscale>  0 0.12500060E+03</rscale>
<asrwt>0</asrwt>
<pdfrwt beam="2">  1        4 0.49066071E-02 0.12500060E+03</pdfrwt>
<pdfrwt beam="1">  1       -4 0.18843267E-01 0.12500060E+03</pdfrwt>
<totfact> 0.98437167E+03</totfact>
</mgrwt>
</event>
<event>
 5    1  0.3227866E-002  0.1250010E+03  0.7818608E-02  0.1235068E+00
         -4   -1    0    0    0  501 -0.00000000000E+00  0.00000000000E+00  0.26451645579E+02  0.26482115735E+02  0.12700000000E+01 0.  1.
          4   -1    0    0  501    0  0.00000000000E+00 -0.00000000000E+00 -0.14755917941E+03  0.14756464457E+03  0.12700000000E+01 0.  1.
         25    2    1    2    0    0  0.00000000000E+00  0.00000000000E+00 -0.12110753383E+03  0.17404676031E+03  0.12500096009E+03 0.  0.
    9000005    1    3    3    0    0  0.39443076160E+02  0.33262247612E+02 -0.11460829964E+02  0.52862879194E+02  0.10000000000E+01 0.  0.
    9000005    1    3    3    0    0 -0.39443076160E+02 -0.33262247612E+02 -0.10964670387E+03  0.12118388111E+03  0.10000000000E+01 0.  0.
<mgrwt>
<rscale>  0 0.12500096E+03</rscale>
<asrwt>0</asrwt>
<pdfrwt beam="2">  1        4 0.22704176E-01 0.12500096E+03</pdfrwt>
<pdfrwt beam="1">  1       -4 0.40722483E-02 0.12500096E+03</pdfrwt>
<totfact> 0.94697675E+03</totfact>
</mgrwt>
</event>
<event>
 5    1  0.3227866E-002  0.1249921E+03  0.7818608E-02  0.1235082E+00
          4   -1    0    0  501    0  0.00000000000E+00  0.00000000000E+00  0.62300458609E+02  0.62313401792E+02  0.12700000000E+01 0. -1.
         -4   -1    0    0    0  501 -0.00000000000E+00 -0.00000000000E+00 -0.62666404406E+02  0.62679272022E+02  0.12700000000E+01 0. -1.
         25    2    1    2    0    0  0.00000000000E+00  0.00000000000E+00 -0.36594579773E+00  0.12499267381E+03  0.12499213812E+03 0.  0.
    9000005    1    3    3    0    0  0.65239844198E+01 -0.62055848193E+02 -0.35397684808E+01  0.62506164725E+02  0.10000000000E+01 0.  0.
    9000005    1    3    3    0    0 -0.65239844198E+01  0.62055848193E+02  0.31738226831E+01  0.62486509089E+02  0.10000000000E+01 0.  0.
<mgrwt>
<rscale>  0 0.12499214E+03</rscale>
<asrwt>0</asrwt>
<pdfrwt beam="1">  1        4 0.95866715E-02 0.12499214E+03</pdfrwt>
<pdfrwt beam="2">  1       -4 0.96429706E-02 0.12499214E+03</pdfrwt>
<totfact> 0.10454879E+04</totfact>
</mgrwt>
</event>
<event>
 5    1  0.3227866E-002  0.1249992E+03  0.7818608E-02  0.1235071E+00
          4   -1    0    0  501    0  0.00000000000E+00  0.00000000000E+00  0.71677857848E+01  0.72794266983E+01  0.12700000000E+01 0. -1.
         -4   -1    0    0    0  501 -0.00000000000E+00 -0.00000000000E+00 -0.54064255062E+03  0.54064404227E+03  0.12700000000E+01 0. -1.
         25    2    1    2    0    0  0.00000000000E+00  0.00000000000E+00 -0.53347476484E+03  0.54792346897E+03  0.12499921251E+03 0.  0.
    9000005    1    3    3    0    0 -0.52726389059E+02 -0.85771178493E+01 -0.40888186652E+03  0.41235787833E+03  0.10000000000E+01 0.  0.
    9000005    1    3    3    0    0  0.52726389059E+02  0.85771178493E+01 -0.12459289832E+03  0.13556559064E+03  0.10000000000E+01 0.  0.
<mgrwt>
<rscale>  0 0.12499921E+03</rscale>
<asrwt>0</asrwt>
<pdfrwt beam="1">  1        4 0.11114392E-02 0.12499921E+03</pdfrwt>
<pdfrwt beam="2">  1       -4 0.83184448E-01 0.12499921E+03</pdfrwt>
<totfact> 0.52329890E+03</totfact>
</mgrwt>
</event>
<event>
 5    1  0.3227866E-002  0.1249825E+03  0.7818608E-02  0.1235097E+00
         -4   -1    0    0    0  501 -0.00000000000E+00  0.00000000000E+00  0.16973843062E+03  0.16974318169E+03  0.12700000000E+01 0. -1.
          4   -1    0    0  501    0  0.00000000000E+00 -0.00000000000E+00 -0.22984288950E+02  0.23019349220E+02  0.12700000000E+01 0. -1.
         25    2    1    2    0    0  0.00000000000E+00  0.00000000000E+00  0.14675414167E+03  0.19276253091E+03  0.12498245967E+03 0.  0.
    9000005    1    3    3    0    0 -0.35067760837E+02 -0.47715503343E+02  0.10413214518E+03  0.11979574604E+03  0.10000000000E+01 0.  0.
    9000005    1    3    3    0    0  0.35067760837E+02  0.47715503343E+02  0.42621996497E+02  0.72966784874E+02  0.10000000000E+01 0.  0.
<mgrwt>
<rscale>  0 0.12498246E+03</rscale>
<asrwt>0</asrwt>
<pdfrwt beam="2">  1        4 0.35391069E-02 0.12498246E+03</pdfrwt>
<pdfrwt beam="1">  1       -4 0.26116667E-01 0.12498246E+03</pdfrwt>
<totfact> 0.91404751E+03</totfact>
</mgrwt>
</event>
<event>
 5    1  0.3227866E-002  0.1250024E+03  0.7818608E-02  0.1235066E+00
         -4   -1    0    0    0  501 -0.00000000000E+00  0.00000000000E+00  0.70022468667E+02  0.70033984738E+02  0.12700000000E+01 0. -1.
          4   -1    0    0  501    0  0.00000000000E+00 -0.00000000000E+00 -0.55764432477E+02  0.55778892330E+02  0.12700000000E+01 0. -1.
         25    2    1    2    0    0  0.00000000000E+00  0.00000000000E+00  0.14258036190E+02  0.12581287707E+03  0.12500235374E+03 0.  0.
    9000005    1    3    3    0    0  0.16551166016E+02 -0.60006323896E+02  0.12705439946E+02  0.63538399478E+02  0.10000000000E+01 0.  0.
    9000005    1    3    3    0    0 -0.16551166016E+02  0.60006323896E+02  0.15525962435E+01  0.62274477590E+02  0.10000000000E+01 0.  0.
<mgrwt>
<rscale>  0 0.12500235E+03</rscale>
<asrwt>0</asrwt>
<pdfrwt beam="2">  1        4 0.85811416E-02 0.12500235E+03</pdfrwt>
<pdfrwt beam="1">  1       -4 0.10774686E-01 0.12500235E+03</pdfrwt>
<totfact> 0.10434508E+04</totfact>
</mgrwt>
</event>
<event>
 5    1  0.3227866E-002  0.1250077E+03  0.7818608E-02  0.1235057E+00
         -4   -1    0    0    0  501 -0.00000000000E+00  0.00000000000E+00  0.73669442493E+01  0.74756115183E+01  0.12700000000E+01 0.  1.
          4   -1    0    0  501    0  0.00000000000E+00 -0.00000000000E+00 -0.52631321636E+03  0.52631474862E+03  0.12700000000E+01 0.  1.
         25    2    1    2    0    0  0.00000000000E+00  0.00000000000E+00 -0.51894627212E+03  0.53379036014E+03  0.12500766072E+03 0.  0.
    9000005    1    3    3    0    0  0.10296736746E+02 -0.60182163970E+02 -0.20253332117E+03  0.21153879510E+03  0.10000000000E+01 0.  0.
    9000005    1    3    3    0    0 -0.10296736746E+02  0.60182163970E+02 -0.31641295094E+03  0.32225156504E+03  0.10000000000E+01 0.  0.
<mgrwt>
<rscale>  0 0.12500766E+03</rscale>
<asrwt>0</asrwt>
<pdfrwt beam="2">  1        4 0.80979711E-01 0.12500766E+03</pdfrwt>
<pdfrwt beam="1">  1       -4 0.11418533E-02 0.12500766E+03</pdfrwt>
<totfact> 0.53325803E+03</totfact>
</mgrwt>
</event>
<event>
 5    1  0.3227866E-002  0.1249974E+03  0.7818608E-02  0.1235073E+00
         -4   -1    0    0    0  501 -0.00000000000E+00  0.00000000000E+00  0.64826222739E+02  0.64838661728E+02  0.12700000000E+01 0. -1.
          4   -1    0    0  501    0  0.00000000000E+00 -0.00000000000E+00 -0.60229796198E+02  0.60243184262E+02  0.12700000000E+01 0. -1.
         25    2    1    2    0    0  0.00000000000E+00  0.00000000000E+00  0.45964265413E+01  0.12508184599E+03  0.12499736421E+03 0.  0.
    9000005    1    3    3    0    0  0.12778640450E+02 -0.36060942953E+02 -0.47145707006E+02  0.60723989885E+02  0.10000000000E+01 0.  0.
    9000005    1    3    3    0    0 -0.12778640450E+02  0.36060942953E+02  0.51742133547E+02  0.64357856105E+02  0.10000000000E+01 0.  0.
<mgrwt>
<rscale>  0 0.12499736E+03</rscale>
<asrwt>0</asrwt>
<pdfrwt beam="2">  1        4 0.92681092E-02 0.12499736E+03</pdfrwt>
<pdfrwt beam="1">  1       -4 0.99752517E-02 0.12499736E+03</pdfrwt>
<totfact> 0.10451708E+04</totfact>
</mgrwt>
</event>
<event>
 5    1  0.3227866E-002  0.1250148E+03  0.7818608E-02  0.1235046E+00
         -4   -1    0    0    0  501 -0.00000000000E+00  0.00000000000E+00  0.25005623746E+02  0.25037853720E+02  0.12700000000E+01 0.  1.
          4   -1    0    0  501    0  0.00000000000E+00 -0.00000000000E+00 -0.15611633972E+03  0.15612150534E+03  0.12700000000E+01 0.  1.
         25    2    1    2    0    0  0.00000000000E+00  0.00000000000E+00 -0.13111071598E+03  0.18115935906E+03  0.12501477325E+03 0.  0.
    9000005    1    3    3    0    0 -0.13406938055E+02  0.59451022362E+02 -0.45475815018E+02  0.76047483847E+02  0.10000000000E+01 0.  0.
    9000005    1    3    3    0    0  0.13406938055E+02 -0.59451022362E+02 -0.85634900959E+02  0.10511187521E+03  0.10000000000E+01 0.  0.
<mgrwt>
<rscale>  0 0.12501477E+03</rscale>
<asrwt>0</asrwt>
<pdfrwt beam="2">  1        4 0.24020774E-01 0.12501477E+03</pdfrwt>
<pdfrwt beam="1">  1       -4 0.38498957E-02 0.12501477E+03</pdfrwt>
<totfact> 0.93377800E+03</totfact>
</mgrwt>
</event>
<event>
 5    1  0.3227866E-002  0.1249997E+03  0.7818608E-02  0.1235070E+00
         -4   -1    0    0    0  501 -0.00000000000E+00  0.00000000000E+00  0.35102032037E+01  0.37328844787E+01  0.12700000000E+01 0.  1.
          4   -1    0    0  501    0  0.00000000000E+00 -0.00000000000E+00 -0.10783857119E+04  0.10783864597E+04  0.12700000000E+01 0.  1.
         25    2    1    2    0    0  0.00000000000E+00  0.00000000000E+00 -0.10748755087E+04  0.10821193442E+04  0.12499966366E+03 0.  0.
    9000005    1    3    3    0    0 -0.46377165021E+01 -0.60597889695E+02 -0.41150436138E+03  0.41596929224E+03  0.10000000000E+01 0.  0.
    9000005    1    3    3    0    0  0.46377165021E+01  0.60597889695E+02 -0.66337114728E+03  0.66615005194E+03  0.10000000000E+01 0.  0.
<mgrwt>
<rscale>  0 0.12499966E+03</rscale>
<asrwt>0</asrwt>
<pdfrwt beam="2">  1        4 0.16592243E+00 0.12499966E+03</pdfrwt>
<pdfrwt beam="1">  1       -4 0.55721898E-03 0.12499966E+03</pdfrwt>
<totfact> 0.28012939E+03</totfact>
</mgrwt>
</event>
<event>
 5    1  0.3227866E-002  0.1249980E+03  0.7818608E-02  0.1235072E+00
         -4   -1    0    0    0  501 -0.00000000000E+00  0.00000000000E+00  0.55466167557E+02  0.55480705145E+02  0.12700000000E+01 0.  1.
          4   -1    0    0  501    0  0.00000000000E+00 -0.00000000000E+00 -0.70394106125E+02  0.70405561408E+02  0.12700000000E+01 0.  1.
         25    2    1    2    0    0  0.00000000000E+00  0.00000000000E+00 -0.14927938569E+02  0.12588626655E+03  0.12499803501E+03 0.  0.
    9000005    1    3    3    0    0  0.18463745527E+02 -0.52012100713E+02  0.22052288972E+02  0.59443014463E+02  0.10000000000E+01 0.  0.
    9000005    1    3    3    0    0 -0.18463745527E+02  0.52012100713E+02 -0.36980227540E+02  0.66443252091E+02  0.10000000000E+01 0.  0.
<mgrwt>
<rscale>  0 0.12499804E+03</rscale>
<asrwt>0</asrwt>
<pdfrwt beam="2">  1        4 0.10831862E-01 0.12499804E+03</pdfrwt>
<pdfrwt beam="1">  1       -4 0.85352561E-02 0.12499804E+03</pdfrwt>
<totfact> 0.10433914E+04</totfact>
</mgrwt>
</event>
<event>
 5    1  0.3227866E-002  0.1250018E+03  0.7818608E-02  0.1235067E+00
          4   -1    0    0  501    0  0.00000000000E+00  0.00000000000E+00  0.43506793289E+02  0.43525325528E+02  0.12700000000E+01 0.  1.
         -4   -1    0    0    0  501 -0.00000000000E+00 -0.00000000000E+00 -0.89745227439E+02  0.89754212982E+02  0.12700000000E+01 0.  1.
         25    2    1    2    0    0  0.00000000000E+00  0.00000000000E+00 -0.46238434150E+02  0.13327953851E+03  0.12500177036E+03 0.  0.
    9000005    1    3    3    0    0  0.25141102411E+02  0.55484649456E+02 -0.82402045143E+01  0.61477819790E+02  0.10000000000E+01 0.  0.
    9000005    1    3    3    0    0 -0.25141102411E+02 -0.55484649456E+02 -0.37998229636E+02  0.71801718720E+02  0.10000000000E+01 0.  0.
<mgrwt>
<rscale>  0 0.12500177E+03</rscale>
<asrwt>0</asrwt>
<pdfrwt beam="1">  1        4 0.66954696E-02 0.12500177E+03</pdfrwt>
<pdfrwt beam="2">  1       -4 0.13809075E-01 0.12500177E+03</pdfrwt>
<totfact> 0.10274052E+04</totfact>
</mgrwt>
</event>
<event>
 5    1  0.3227866E-002  0.1249956E+03  0.7818608E-02  0.1235076E+00
          4   -1    0    0  501    0  0.00000000000E+00  0.00000000000E+00  0.54757400843E+02  0.54772126553E+02  0.12700000000E+01 0. -1.
         -4   -1    0    0    0  501 -0.00000000000E+00 -0.00000000000E+00 -0.71302396407E+02  0.71313705789E+02  0.12700000000E+01 0. -1.
         25    2    1    2    0    0  0.00000000000E+00  0.00000000000E+00 -0.16544995563E+02  0.12608583234E+03  0.12499560088E+03 0.  0.
    9000005    1    3    3    0    0 -0.36628837296E+02  0.42691847130E+02 -0.35725859124E+02  0.66645348999E+02  0.10000000000E+01 0.  0.
    9000005    1    3    3    0    0  0.36628837296E+02 -0.42691847130E+02  0.19180863561E+02  0.59440483342E+02  0.10000000000E+01 0.  0.
<mgrwt>
<rscale>  0 0.12499560E+03</rscale>
<asrwt>0</asrwt>
<pdfrwt beam="1">  1        4 0.84262182E-02 0.12499560E+03</pdfrwt>
<pdfrwt beam="2">  1       -4 0.10971602E-01 0.12499560E+03</pdfrwt>
<totfact> 0.10430112E+04</totfact>
</mgrwt>
</event>
<event>
 5    1  0.3227866E-002  0.1250027E+03  0.7818608E-02  0.1235065E+00
          4   -1    0    0  501    0  0.00000000000E+00  0.00000000000E+00  0.10379624378E+03  0.10380401304E+03  0.12700000000E+01 0. -1.
         -4   -1    0    0    0  501 -0.00000000000E+00 -0.00000000000E+00 -0.37615561847E+02  0.37636995006E+02  0.12700000000E+01 0. -1.
         25    2    1    2    0    0  0.00000000000E+00  0.00000000000E+00  0.66180681935E+02  0.14144100805E+03  0.12500270435E+03 0.  0.
    9000005    1    3    3    0    0  0.27153910088E+02 -0.23461547795E+02 -0.24800637563E+02  0.43633137425E+02  0.10000000000E+01 0.  0.
    9000005    1    3    3    0    0 -0.27153910088E+02  0.23461547795E+02  0.90981319498E+02  0.97807870622E+02  0.10000000000E+01 0.  0.
<mgrwt>
<rscale>  0 0.12500270E+03</rscale>
<asrwt>0</asrwt>
<pdfrwt beam="1">  1        4 0.15970899E-01 0.12500270E+03</pdfrwt>
<pdfrwt beam="2">  1       -4 0.57892559E-02 0.12500270E+03</pdfrwt>
<totfact> 0.10103192E+04</totfact>
</mgrwt>
</event>
<event>
 5    1  0.3227866E-002  0.1249994E+03  0.7818608E-02  0.1235070E+00
          4   -1    0    0  501    0  0.00000000000E+00  0.00000000000E+00  0.48939175371E+01  0.50560190723E+01  0.12700000000E+01 0. -1.
         -4   -1    0    0    0  501 -0.00000000000E+00 -0.00000000000E+00 -0.78501020518E+03  0.78501123249E+03  0.12700000000E+01 0. -1.
         25    2    1    2    0    0  0.00000000000E+00  0.00000000000E+00 -0.78011628764E+03  0.79006725156E+03  0.12499935898E+03 0.  0.
    9000005    1    3    3    0    0 -0.35312478870E+02 -0.40319985395E+02 -0.59315780647E+03  0.59557523098E+03  0.10000000000E+01 0.  0.
    9000005    1    3    3    0    0  0.35312478870E+02  0.40319985395E+02 -0.18695848117E+03  0.19449202058E+03  0.10000000000E+01 0.  0.
<mgrwt>
<rscale>  0 0.12499936E+03</rscale>
<asrwt>0</asrwt>
<pdfrwt beam="1">  1        4 0.76545939E-03 0.12499936E+03</pdfrwt>
<pdfrwt beam="2">  1       -4 0.12078325E+00 0.12499936E+03</pdfrwt>
<totfact> 0.38712586E+03</totfact>
</mgrwt>
</event>
<event>
 5    1  0.3227866E-002  0.1249945E+03  0.7818608E-02  0.1235078E+00
          4   -1    0    0  501    0  0.00000000000E+00  0.00000000000E+00  0.50532470414E+02  0.50548426941E+02  0.12700000000E+01 0. -1.
         -4   -1    0    0    0  501 -0.00000000000E+00 -0.00000000000E+00 -0.77261654573E+02  0.77272091775E+02  0.12700000000E+01 0. -1.
         25    2    1    2    0    0  0.00000000000E+00  0.00000000000E+00 -0.26729184158E+02  0.12782051872E+03  0.12499454276E+03 0.  0.
    9000005    1    3    3    0    0 -0.48920701785E+02  0.16893955519E+02  0.22445236723E+02  0.56421888020E+02  0.10000000000E+01 0.  0.
    9000005    1    3    3    0    0  0.48920701785E+02 -0.16893955519E+02 -0.49174420881E+02  0.71398630696E+02  0.10000000000E+01 0.  0.
<mgrwt>
<rscale>  0 0.12499454E+03</rscale>
<asrwt>0</asrwt>
<pdfrwt beam="1">  1        4 0.77762565E-02 0.12499454E+03</pdfrwt>
<pdfrwt beam="2">  1       -4 0.11888439E-01 0.12499454E+03</pdfrwt>
<totfact> 0.10392646E+04</totfact>
</mgrwt>
</event>
<event>
 5    1  0.3227866E-002  0.1250000E+03  0.7818608E-02  0.1235069E+00
          4   -1    0    0  501    0  0.00000000000E+00  0.00000000000E+00  0.59904780550E+01  0.61236204428E+01  0.12700000000E+01 0.  1.
         -4   -1    0    0    0  501 -0.00000000000E+00 -0.00000000000E+00 -0.64477563060E+03  0.64477688135E+03  0.12700000000E+01 0.  1.
         25    2    1    2    0    0  0.00000000000E+00  0.00000000000E+00 -0.63878515255E+03  0.65090050179E+03  0.12499996846E+03 0.  0.
    9000005    1    3    3    0    0 -0.26180999012E+02  0.33284607060E+02 -0.80091136762E+02  0.90602979886E+02  0.10000000000E+01 0.  0.
    9000005    1    3    3    0    0  0.26180999012E+02 -0.33284607060E+02 -0.55869401578E+03  0.56029752190E+03  0.10000000000E+01 0.  0.
<mgrwt>
<rscale>  0 0.12499997E+03</rscale>
<asrwt>0</asrwt>
<pdfrwt beam="1">  1        4 0.93195045E-03 0.12499997E+03</pdfrwt>
<pdfrwt beam="2">  1       -4 0.99206535E-01 0.12499997E+03</pdfrwt>
<totfact> 0.45804431E+03</totfact>
</mgrwt>
</event>
<event>
 5    1  0.3227866E-002  0.1250041E+03  0.7818608E-02  0.1235063E+00
         -4   -1    0    0    0  501 -0.00000000000E+00  0.00000000000E+00  0.14271612053E+03  0.14272177115E+03  0.12700000000E+01 0.  1.
          4   -1    0    0  501    0  0.00000000000E+00 -0.00000000000E+00 -0.27351626628E+02  0.27381095289E+02  0.12700000000E+01 0.  1.
         25    2    1    2    0    0  0.00000000000E+00  0.00000000000E+00  0.11536449390E+03  0.17010286644E+03  0.12500407480E+03 0.  0.
    9000005    1    3    3    0    0  0.24144773059E+02 -0.57596757676E+02  0.54594713163E+02  0.82957454555E+02  0.10000000000E+01 0.  0.
    9000005    1    3    3    0    0 -0.24144773059E+02  0.57596757676E+02  0.60769780740E+02  0.87145411882E+02  0.10000000000E+01 0.  0.
<mgrwt>
<rscale>  0 0.12500407E+03</rscale>
<asrwt>0</asrwt>
<pdfrwt beam="2">  1        4 0.42106441E-02 0.12500407E+03</pdfrwt>
<pdfrwt beam="1">  1       -4 0.21959028E-01 0.12500407E+03</pdfrwt>
<totfact> 0.95420740E+03</totfact>
</mgrwt>
</event>
<event>
 5    1  0.3227866E-002  0.1250005E+03  0.7818608E-02  0.1235068E+00
         -4   -1    0    0    0  501 -0.00000000000E+00  0.00000000000E+00  0.24077697600E+02  0.24111167987E+02  0.12700000000E+01 0. -1.
          4   -1    0    0  501    0  0.00000000000E+00 -0.00000000000E+00 -0.16208785721E+03  0.16209283252E+03  0.12700000000E+01 0. -1.
         25    2    1    2    0    0  0.00000000000E+00  0.00000000000E+00 -0.13801015961E+03  0.18620400051E+03  0.12500050260E+03 0.  0.
    9000005    1    3    3    0    0  0.56477944625E+02  0.18441919042E+02 -0.40142492480E+02  0.71709708614E+02  0.10000000000E+01 0.  0.
    9000005    1    3    3    0    0 -0.56477944625E+02 -0.18441919042E+02 -0.97867667132E+02  0.11449429190E+03  0.10000000000E+01 0.  0.
<mgrwt>
<rscale>  0 0.12500050E+03</rscale>
<asrwt>0</asrwt>
<pdfrwt beam="2">  1        4 0.24939550E-01 0.12500050E+03</pdfrwt>
<pdfrwt beam="1">  1       -4 0.37072186E-02 0.12500050E+03</pdfrwt>
<totfact> 0.92510992E+03</totfact>
</mgrwt>
</event>
<event>
 5    1  0.3227866E-002  0.1249993E+03  0.7818608E-02  0.1235070E+00
          4   -1    0    0  501    0  0.00000000000E+00  0.00000000000E+00  0.23193269887E+02  0.23228014725E+02  0.12700000000E+01 0. -1.
         -4   -1    0    0    0  501 -0.00000000000E+00 -0.00000000000E+00 -0.16825661784E+03  0.16826141075E+03  0.12700000000E+01 0. -1.
         25    2    1    2    0    0  0.00000000000E+00  0.00000000000E+00 -0.14506334796E+03  0.19148942548E+03  0.12499930059E+03 0.  0.
    9000005    1    3    3    0    0 -0.20847454811E+02 -0.56255628971E+02 -0.99324762600E+02  0.11604189170E+03  0.10000000000E+01 0.  0.
    9000005    1    3    3    0    0  0.20847454811E+02  0.56255628971E+02 -0.45738585356E+02  0.75447533780E+02  0.10000000000E+01 0.  0.
<mgrwt>
<rscale>  0 0.12499930E+03</rscale>
<asrwt>0</asrwt>
<pdfrwt beam="1">  1        4 0.35712368E-02 0.12499930E+03</pdfrwt>
<pdfrwt beam="2">  1       -4 0.25888674E-01 0.12499930E+03</pdfrwt>
<totfact> 0.91590239E+03</totfact>
</mgrwt>
</event>
<event>
 5    1  0.3227866E-002  0.1249636E+03  0.7818608E-02  0.1235126E+00
          4   -1    0    0  501    0  0.00000000000E+00  0.00000000000E+00  0.11187868967E+02  0.11259720779E+02  0.12700000000E+01 0.  1.
         -4   -1    0    0    0  501 -0.00000000000E+00 -0.00000000000E+00 -0.34775745022E+03  0.34775976921E+03  0.12700000000E+01 0.  1.
         25    2    1    2    0    0  0.00000000000E+00  0.00000000000E+00 -0.33656958125E+03  0.35901948999E+03  0.12496363939E+03 0.  0.
    9000005    1    3    3    0    0  0.35077890267E+02 -0.49427445510E+02 -0.12476612328E+03  0.13871235083E+03  0.10000000000E+01 0.  0.
    9000005    1    3    3    0    0 -0.35077890267E+02  0.49427445510E+02 -0.21180345797E+03  0.22030713915E+03  0.10000000000E+01 0.  0.
<mgrwt>
<rscale>  0 0.12496364E+03</rscale>
<asrwt>0</asrwt>
<pdfrwt beam="1">  1        4 0.17269163E-02 0.12496364E+03</pdfrwt>
<pdfrwt beam="2">  1       -4 0.53506843E-01 0.12496364E+03</pdfrwt>
<totfact> 0.68798891E+03</totfact>
</mgrwt>
</event>
<event>
 5    1  0.3227866E-002  0.1250050E+03  0.7818608E-02  0.1235061E+00
          4   -1    0    0  501    0  0.00000000000E+00  0.00000000000E+00  0.66646659501E+01  0.67845907929E+01  0.12700000000E+01 0. -1.
         -4   -1    0    0    0  501 -0.00000000000E+00 -0.00000000000E+00 -0.58081296397E+03  0.58081435246E+03  0.12700000000E+01 0. -1.
         25    2    1    2    0    0  0.00000000000E+00  0.00000000000E+00 -0.57414829802E+03  0.58759894325E+03  0.12500499984E+03 0.  0.
    9000005    1    3    3    0    0 -0.22841318798E+02 -0.42495925072E+02 -0.47379718590E+03  0.47624825759E+03  0.10000000000E+01 0.  0.
    9000005    1    3    3    0    0  0.22841318798E+02  0.42495925072E+02 -0.10035111213E+03  0.11135068566E+03  0.10000000000E+01 0.  0.
<mgrwt>
<rscale>  0 0.12500500E+03</rscale>
<asrwt>0</asrwt>
<pdfrwt beam="1">  1        4 0.10346655E-02 0.12500500E+03</pdfrwt>
<pdfrwt beam="2">  1       -4 0.89365133E-01 0.12500500E+03</pdfrwt>
<totfact> 0.49654446E+03</totfact>
</mgrwt>
</event>
<event>
 5    1  0.3227866E-002  0.1249979E+03  0.7818608E-02  0.1235073E+00
         -4   -1    0    0    0  501 -0.00000000000E+00  0.00000000000E+00  0.38538975936E+02  0.38559895827E+02  0.12700000000E+01 0.  1.
          4   -1    0    0  501    0  0.00000000000E+00 -0.00000000000E+00 -0.10130262831E+03  0.10131058879E+03  0.12700000000E+01 0.  1.
         25    2    1    2    0    0  0.00000000000E+00  0.00000000000E+00 -0.62763652370E+02  0.13987048462E+03  0.12499790562E+03 0.  0.
    9000005    1    3    3    0    0 -0.54424921624E+02  0.23372429029E+02 -0.53671122234E+02  0.79937049573E+02  0.10000000000E+01 0.  0.
    9000005    1    3    3    0    0  0.54424921624E+02 -0.23372429029E+02 -0.90925301359E+01  0.59933435049E+02  0.10000000000E+01 0.  0.
<mgrwt>
<rscale>  0 0.12499791E+03</rscale>
<asrwt>0</asrwt>
<pdfrwt beam="2">  1        4 0.15587241E-01 0.12499791E+03</pdfrwt>
<pdfrwt beam="1">  1       -4 0.59312948E-02 0.12499791E+03</pdfrwt>
<totfact> 0.10136749E+04</totfact>
</mgrwt>
</event>
<event>
 5    1  0.3227866E-002  0.1250021E+03  0.7818608E-02  0.1235066E+00
         -4   -1    0    0    0  501 -0.00000000000E+00  0.00000000000E+00  0.16050316125E+01  0.20467111367E+01  0.12700000000E+01 0.  1.
          4   -1    0    0  501    0  0.00000000000E+00 -0.00000000000E+00 -0.21390186408E+04  0.21390190178E+04  0.12700000000E+01 0.  1.
         25    2    1    2    0    0  0.00000000000E+00  0.00000000000E+00 -0.21374136092E+04  0.21410657289E+04  0.12500207585E+03 0.  0.
    9000005    1    3    3    0    0  0.50681169075E+02  0.16028188258E+02 -0.50584245045E+03  0.50862861539E+03  0.10000000000E+01 0.  0.
    9000005    1    3    3    0    0 -0.50681169075E+02 -0.16028188258E+02 -0.16315711587E+04  0.16324371136E+04  0.10000000000E+01 0.  0.
<mgrwt>
<rscale>  0 0.12500208E+03</rscale>
<asrwt>0</asrwt>
<pdfrwt beam="2">  1        4 0.32911179E+00 0.12500208E+03</pdfrwt>
<pdfrwt beam="1">  1       -4 0.28093400E-03 0.12500208E+03</pdfrwt>
<totfact> 0.81303160E+02</totfact>
</mgrwt>
</event>
<event>
 5    1  0.3227866E-002  0.1250005E+03  0.7818608E-02  0.1235069E+00
          4   -1    0    0  501    0  0.00000000000E+00  0.00000000000E+00  0.60653363190E+02  0.60666657780E+02  0.12700000000E+01 0. -1.
         -4   -1    0    0    0  501 -0.00000000000E+00 -0.00000000000E+00 -0.64376733750E+02  0.64389259573E+02  0.12700000000E+01 0. -1.
         25    2    1    2    0    0  0.00000000000E+00  0.00000000000E+00 -0.37233705602E+01  0.12505591735E+03  0.12500047591E+03 0.  0.
    9000005    1    3    3    0    0 -0.29572893775E+02 -0.35150858275E+02 -0.44249579907E+02  0.63790000828E+02  0.10000000000E+01 0.  0.
    9000005    1    3    3    0    0  0.29572893775E+02  0.35150858275E+02  0.40526209346E+02  0.61265916525E+02  0.10000000000E+01 0.  0.
<mgrwt>
<rscale>  0 0.12500048E+03</rscale>
<asrwt>0</asrwt>
<pdfrwt beam="1">  1        4 0.93332729E-02 0.12500048E+03</pdfrwt>
<pdfrwt beam="2">  1       -4 0.99060990E-02 0.12500048E+03</pdfrwt>
<totfact> 0.10451536E+04</totfact>
</mgrwt>
</event>
<event>
 5    1  0.3227866E-002  0.1250058E+03  0.7818608E-02  0.1235060E+00
         -4   -1    0    0    0  501 -0.00000000000E+00  0.00000000000E+00  0.41672601914E+02  0.41691949466E+02  0.12700000000E+01 0. -1.
          4   -1    0    0  501    0  0.00000000000E+00 -0.00000000000E+00 -0.93699986969E+02  0.93708593299E+02  0.12700000000E+01 0. -1.
         25    2    1    2    0    0  0.00000000000E+00  0.00000000000E+00 -0.52027385056E+02  0.13540054276E+03  0.12500583260E+03 0.  0.
    9000005    1    3    3    0    0 -0.61605315241E+02  0.93512017306E+01 -0.20824186736E+02  0.65706214264E+02  0.10000000000E+01 0.  0.
    9000005    1    3    3    0    0  0.61605315241E+02 -0.93512017306E+01 -0.31203198319E+02  0.69694328500E+02  0.10000000000E+01 0.  0.
<mgrwt>
<rscale>  0 0.12500583E+03</rscale>
<asrwt>0</asrwt>
<pdfrwt beam="2">  1        4 0.14417533E-01 0.12500583E+03</pdfrwt>
<pdfrwt beam="1">  1       -4 0.64133198E-02 0.12500583E+03</pdfrwt>
<totfact> 0.10228290E+04</totfact>
</mgrwt>
</event>
<event>
 5    1  0.3227866E-002  0.1249966E+03  0.7818608E-02  0.1235075E+00
         -4   -1    0    0    0  501 -0.00000000000E+00  0.00000000000E+00  0.55072350725E+02  0.55086992243E+02  0.12700000000E+01 0.  1.
          4   -1    0    0  501    0  0.00000000000E+00 -0.00000000000E+00 -0.70895830643E+02  0.70907204871E+02  0.12700000000E+01 0.  1.
         25    2    1    2    0    0  0.00000000000E+00  0.00000000000E+00 -0.15823479918E+02  0.12599419711E+03  0.12499662071E+03 0.  0.
    9000005    1    3    3    0    0  0.18728751709E+02 -0.45638824693E+02 -0.46576317527E+02  0.67852942561E+02  0.10000000000E+01 0.  0.
    9000005    1    3    3    0    0 -0.18728751709E+02  0.45638824693E+02  0.30752837608E+02  0.58141254552E+02  0.10000000000E+01 0.  0.
<mgrwt>
<rscale>  0 0.12499662E+03</rscale>
<asrwt>0</asrwt>
<pdfrwt beam="2">  1        4 0.10909052E-01 0.12499662E+03</pdfrwt>
<pdfrwt beam="1">  1       -4 0.84746705E-02 0.12499662E+03</pdfrwt>
<totfact> 0.10431880E+04</totfact>
</mgrwt>
</event>
<event>
 5    1  0.3227866E-002  0.1250116E+03  0.7818608E-02  0.1235051E+00
         -4   -1    0    0    0  501 -0.00000000000E+00  0.00000000000E+00  0.46948605633E+02  0.46965779786E+02  0.12700000000E+01 0. -1.
          4   -1    0    0  501    0  0.00000000000E+00 -0.00000000000E+00 -0.83180899336E+02  0.83190593905E+02  0.12700000000E+01 0. -1.
         25    2    1    2    0    0  0.00000000000E+00  0.00000000000E+00 -0.36232293702E+02  0.13015637369E+03  0.12501160948E+03 0.  0.
    9000005    1    3    3    0    0 -0.56134148514E+02  0.44402658637E+00  0.10486918585E+02  0.57115805609E+02  0.10000000000E+01 0.  0.
    9000005    1    3    3    0    0  0.56134148514E+02 -0.44402658637E+00 -0.46719212288E+02  0.73040568082E+02  0.10000000000E+01 0.  0.
<mgrwt>
<rscale>  0 0.12501161E+03</rscale>
<asrwt>0</asrwt>
<pdfrwt beam="2">  1        4 0.12799128E-01 0.12501161E+03</pdfrwt>
<pdfrwt beam="1">  1       -4 0.72249293E-02 0.12501161E+03</pdfrwt>
<totfact> 0.10338454E+04</totfact>
</mgrwt>
</event>
<event>
 5    1  0.3227866E-002  0.1249994E+03  0.7818608E-02  0.1235070E+00
         -4   -1    0    0    0  501 -0.00000000000E+00  0.00000000000E+00  0.60733528635E+03  0.60733661420E+03  0.12700000000E+01 0. -1.
          4   -1    0    0  501    0  0.00000000000E+00 -0.00000000000E+00 -0.63676808633E+01  0.64930932210E+01  0.12700000000E+01 0. -1.
         25    2    1    2    0    0  0.00000000000E+00  0.00000000000E+00  0.60096760549E+03  0.61382970742E+03  0.12499938746E+03 0.  0.
    9000005    1    3    3    0    0  0.11632688509E+02  0.60145389958E+02  0.36111095675E+03  0.36627163481E+03  0.10000000000E+01 0.  0.
    9000005    1    3    3    0    0 -0.11632688509E+02 -0.60145389958E+02  0.23985664874E+03  0.24755807262E+03  0.10000000000E+01 0.  0.
<mgrwt>
<rscale>  0 0.12499939E+03</rscale>
<asrwt>0</asrwt>
<pdfrwt beam="2">  1        4 0.98939219E-03 0.12499939E+03</pdfrwt>
<pdfrwt beam="1">  1       -4 0.93445972E-01 0.12499939E+03</pdfrwt>
<totfact> 0.48006750E+03</totfact>
</mgrwt>
</event>
<event>
 5    1  0.3227866E-002  0.1250000E+03  0.7818608E-02  0.1235069E+00
         -4   -1    0    0    0  501 -0.00000000000E+00  0.00000000000E+00  0.37398600993E+01  0.39496143561E+01  0.12700000000E+01 0. -1.
          4   -1    0    0  501    0  0.00000000000E+00 -0.00000000000E+00 -0.10157883290E+04  0.10157891229E+04  0.12700000000E+01 0. -1.
         25    2    1    2    0    0  0.00000000000E+00  0.00000000000E+00 -0.10120484689E+04  0.10197387373E+04  0.12499995555E+03 0.  0.
    9000005    1    3    3    0    0 -0.50484500130E+02 -0.14005422144E+02 -0.78392190478E+03  0.78567129857E+03  0.10000000000E+01 0.  0.
    9000005    1    3    3    0    0  0.50484500130E+02  0.14005422144E+02 -0.22812656414E+03  0.23406743872E+03  0.10000000000E+01 0.  0.
<mgrwt>
<rscale>  0 0.12499996E+03</rscale>
<asrwt>0</asrwt>
<pdfrwt beam="2">  1        4 0.15629111E+00 0.12499996E+03</pdfrwt>
<pdfrwt beam="1">  1       -4 0.59155992E-03 0.12499996E+03</pdfrwt>
<totfact> 0.29958828E+03</totfact>
</mgrwt>
</event>
<event>
 5    1  0.3227866E-002  0.1249990E+03  0.7818608E-02  0.1235071E+00
         -4   -1    0    0    0  501 -0.00000000000E+00  0.00000000000E+00  0.11520530678E+04  0.11520537678E+04  0.12700000000E+01 0. -1.
          4   -1    0    0  501    0  0.00000000000E+00 -0.00000000000E+00 -0.32709830285E+01  0.35088787344E+01  0.12700000000E+01 0. -1.
         25    2    1    2    0    0  0.00000000000E+00  0.00000000000E+00  0.11487820848E+04  0.11555626466E+04  0.12499900719E+03 0.  0.
    9000005    1    3    3    0    0 -0.27949662976E+02 -0.40169321943E+02  0.93367449307E+03  0.93495658568E+03  0.10000000000E+01 0.  0.
    9000005    1    3    3    0    0  0.27949662976E+02  0.40169321943E+02  0.21510759173E+03  0.22060606090E+03  0.10000000000E+01 0.  0.
<mgrwt>
<rscale>  0 0.12499901E+03</rscale>
<asrwt>0</asrwt>
<pdfrwt beam="2">  1        4 0.52158128E-03 0.12499901E+03</pdfrwt>
<pdfrwt beam="1">  1       -4 0.17725742E+00 0.12499901E+03</pdfrwt>
<totfact> 0.25906929E+03</totfact>
</mgrwt>
</event>
<event>
 5    1  0.3227866E-002  0.1250016E+03  0.7818608E-02  0.1235067E+00
         -4   -1    0    0    0  501 -0.00000000000E+00  0.00000000000E+00  0.14323274075E+02  0.14379467314E+02  0.12700000000E+01 0.  1.
          4   -1    0    0  501    0  0.00000000000E+00 -0.00000000000E+00 -0.27213568203E+03  0.27213864543E+03  0.12700000000E+01 0.  1.
         25    2    1    2    0    0  0.00000000000E+00  0.00000000000E+00 -0.25781240796E+03  0.28651811274E+03  0.12500156492E+03 0.  0.
    9000005    1    3    3    0    0 -0.38618618017E+02 -0.48299305258E+02 -0.14955144899E+03  0.16183589355E+03  0.10000000000E+01 0.  0.
    9000005    1    3    3    0    0  0.38618618017E+02  0.48299305258E+02 -0.10826095897E+03  0.12468221919E+03  0.10000000000E+01 0.  0.
<mgrwt>
<rscale>  0 0.12500156E+03</rscale>
<asrwt>0</asrwt>
<pdfrwt beam="2">  1        4 0.41871575E-01 0.12500156E+03</pdfrwt>
<pdfrwt beam="1">  1       -4 0.22081313E-02 0.12500156E+03</pdfrwt>
<totfact> 0.77319027E+03</totfact>
</mgrwt>
</event>
<event>
 5    1  0.3227866E-002  0.1249999E+03  0.7818608E-02  0.1235069E+00
         -4   -1    0    0    0  501 -0.00000000000E+00  0.00000000000E+00  0.25131995740E+03  0.25132316624E+03  0.12700000000E+01 0.  1.
          4   -1    0    0  501    0  0.00000000000E+00 -0.00000000000E+00 -0.15513664036E+02  0.15565560441E+02  0.12700000000E+01 0.  1.
         25    2    1    2    0    0  0.00000000000E+00  0.00000000000E+00  0.23580629337E+03  0.26688872668E+03  0.12499993775E+03 0.  0.
    9000005    1    3    3    0    0 -0.20894378644E+02 -0.44546306003E+02  0.35644618215E+02  0.60765839458E+02  0.10000000000E+01 0.  0.
    9000005    1    3    3    0    0  0.20894378644E+02  0.44546306003E+02  0.20016167515E+03  0.20612288722E+03  0.10000000000E+01 0.  0.
<mgrwt>
<rscale>  0 0.12499994E+03</rscale>
<asrwt>0</asrwt>
<pdfrwt beam="2">  1        4 0.23909564E-02 0.12499994E+03</pdfrwt>
<pdfrwt beam="1">  1       -4 0.38668848E-01 0.12499994E+03</pdfrwt>
<totfact> 0.79949051E+03</totfact>
</mgrwt>
</event>
<event>
 5    1  0.3227866E-002  0.1250041E+03  0.7818608E-02  0.1235063E+00
         -4   -1    0    0    0  501 -0.00000000000E+00  0.00000000000E+00  0.50689012769E+02  0.50704920033E+02  0.12700000000E+01 0. -1.
          4   -1    0    0  501    0  0.00000000000E+00 -0.00000000000E+00 -0.77034869620E+02  0.77045337544E+02  0.12700000000E+01 0. -1.
         25    2    1    2    0    0  0.00000000000E+00  0.00000000000E+00 -0.26345856850E+02  0.12775025758E+03  0.12500409648E+03 0.  0.
    9000005    1    3    3    0    0 -0.55347357507E+02  0.77510682704E+01  0.15407441576E+02  0.57981016706E+02  0.10000000000E+01 0.  0.
    9000005    1    3    3    0    0  0.55347357507E+02 -0.77510682704E+01 -0.41753298426E+02  0.69769240871E+02  0.10000000000E+01 0.  0.
<mgrwt>
<rscale>  0 0.12500410E+03</rscale>
<asrwt>0</asrwt>
<pdfrwt beam="2">  1        4 0.11853547E-01 0.12500410E+03</pdfrwt>
<pdfrwt beam="1">  1       -4 0.78003385E-02 0.12500410E+03</pdfrwt>
<totfact> 0.10391924E+04</totfact>
</mgrwt>
</event>
<event>
 5    1  0.3227866E-002  0.1249999E+03  0.7818608E-02  0.1235069E+00
          4   -1    0    0  501    0  0.00000000000E+00  0.00000000000E+00  0.10259769600E+03  0.10260555601E+03  0.12700000000E+01 0. -1.
         -4   -1    0    0    0  501 -0.00000000000E+00 -0.00000000000E+00 -0.38053503464E+02  0.38074690096E+02  0.12700000000E+01 0. -1.
         25    2    1    2    0    0  0.00000000000E+00  0.00000000000E+00  0.64544192535E+02  0.14068024611E+03  0.12499991542E+03 0.  0.
    9000005    1    3    3    0    0  0.35036347043E+02  0.50217976445E+02  0.18221903104E+02  0.63893884880E+02  0.10000000000E+01 0.  0.
    9000005    1    3    3    0    0 -0.35036347043E+02 -0.50217976445E+02  0.46322289431E+02  0.76786361227E+02  0.10000000000E+01 0.  0.
<mgrwt>
<rscale>  0 0.12499992E+03</rscale>
<asrwt>0</asrwt>
<pdfrwt beam="1">  1        4 0.15786495E-01 0.12499992E+03</pdfrwt>
<pdfrwt beam="2">  1       -4 0.58566195E-02 0.12499992E+03</pdfrwt>
<totfact> 0.10119526E+04</totfact>
</mgrwt>
</event>
<event>
 5    1  0.3227866E-002  0.1249990E+03  0.7818608E-02  0.1235071E+00
          4   -1    0    0  501    0  0.00000000000E+00  0.00000000000E+00  0.20718633053E+02  0.20757520459E+02  0.12700000000E+01 0. -1.
         -4   -1    0    0    0  501 -0.00000000000E+00 -0.00000000000E+00 -0.18831727973E+03  0.18832156208E+03  0.12700000000E+01 0. -1.
         25    2    1    2    0    0  0.00000000000E+00  0.00000000000E+00 -0.16759864668E+03  0.20907908254E+03  0.12499902555E+03 0.  0.
    9000005    1    3    3    0    0 -0.11658445681E+02  0.25697569940E+02 -0.17706195344E+03  0.17929924655E+03  0.10000000000E+01 0.  0.
    9000005    1    3    3    0    0  0.11658445681E+02 -0.25697569940E+02  0.94633067677E+01  0.29779835988E+02  0.10000000000E+01 0.  0.
<mgrwt>
<rscale>  0 0.12499903E+03</rscale>
<asrwt>0</asrwt>
<pdfrwt beam="1">  1        4 0.31908029E-02 0.12499903E+03</pdfrwt>
<pdfrwt beam="2">  1       -4 0.28975209E-01 0.12499903E+03</pdfrwt>
<totfact> 0.88628431E+03</totfact>
</mgrwt>
</event>
<event>
 5    1  0.3227866E-002  0.1249961E+03  0.7818608E-02  0.1235075E+00
          4   -1    0    0  501    0  0.00000000000E+00  0.00000000000E+00  0.31514707491E+01  0.33977445287E+01  0.12700000000E+01 0. -1.
         -4   -1    0    0    0  501 -0.00000000000E+00 -0.00000000000E+00 -0.11925695884E+04  0.11925702646E+04  0.12700000000E+01 0. -1.
         25    2    1    2    0    0  0.00000000000E+00  0.00000000000E+00 -0.11894181176E+04  0.11959680091E+04  0.12499608126E+03 0.  0.
    9000005    1    3    3    0    0  0.13999368180E+02  0.48788572329E+02 -0.24594132204E+03  0.25112634467E+03  0.10000000000E+01 0.  0.
    9000005    1    3    3    0    0 -0.13999368180E+02 -0.48788572329E+02 -0.94347679558E+03  0.94484166445E+03  0.10000000000E+01 0.  0.
<mgrwt>
<rscale>  0 0.12499608E+03</rscale>
<asrwt>0</asrwt>
<pdfrwt beam="1">  1        4 0.50383876E-03 0.12499608E+03</pdfrwt>
<pdfrwt beam="2">  1       -4 0.18349089E+00 0.12499608E+03</pdfrwt>
<totfact> 0.24820709E+03</totfact>
</mgrwt>
</event>
<event>
 5    1  0.3227866E-002  0.1249998E+03  0.7818608E-02  0.1235070E+00
          4   -1    0    0  501    0  0.00000000000E+00  0.00000000000E+00  0.35253496723E+03  0.35253725479E+03  0.12700000000E+01 0. -1.
         -4   -1    0    0    0  501 -0.00000000000E+00 -0.00000000000E+00 -0.11041704196E+02  0.11114500958E+02  0.12700000000E+01 0. -1.
         25    2    1    2    0    0  0.00000000000E+00  0.00000000000E+00  0.34149326303E+03  0.36365175575E+03  0.12499980306E+03 0.  0.
    9000005    1    3    3    0    0  0.21118681818E+02  0.46258279700E+02  0.27642019011E+03  0.28106040038E+03  0.10000000000E+01 0.  0.
    9000005    1    3    3    0    0 -0.21118681818E+02 -0.46258279700E+02  0.65073072923E+02  0.82591355372E+02  0.10000000000E+01 0.  0.
<mgrwt>
<rscale>  0 0.12499980E+03</rscale>
<asrwt>0</asrwt>
<pdfrwt beam="1">  1        4 0.54241920E-01 0.12499980E+03</pdfrwt>
<pdfrwt beam="2">  1       -4 0.17044996E-02 0.12499980E+03</pdfrwt>
<totfact> 0.68248652E+03</totfact>
</mgrwt>
</event>
<event>
 5    1  0.3227866E-002  0.1250001E+03  0.7818608E-02  0.1235069E+00
         -4   -1    0    0    0  501 -0.00000000000E+00  0.00000000000E+00  0.24516728907E+03  0.24517057844E+03  0.12700000000E+01 0. -1.
          4   -1    0    0  501    0  0.00000000000E+00 -0.00000000000E+00 -0.15904304332E+02  0.15954930156E+02  0.12700000000E+01 0. -1.
         25    2    1    2    0    0  0.00000000000E+00  0.00000000000E+00  0.22926298474E+03  0.26112550859E+03  0.12500006026E+03 0.  0.
    9000005    1    3    3    0    0  0.48816172645E+02  0.24356521078E+02  0.17830309037E+03  0.18646514652E+03  0.10000000000E+01 0.  0.
    9000005    1    3    3    0    0 -0.48816172645E+02 -0.24356521078E+02  0.50959894372E+02  0.74660362075E+02  0.10000000000E+01 0.  0.
<mgrwt>
<rscale>  0 0.12500006E+03</rscale>
<asrwt>0</asrwt>
<pdfrwt beam="2">  1        4 0.24509635E-02 0.12500006E+03</pdfrwt>
<pdfrwt beam="1">  1       -4 0.37722189E-01 0.12500006E+03</pdfrwt>
<totfact> 0.80748263E+03</totfact>
</mgrwt>
</event>
<event>
 5    1  0.3227866E-002  0.1249511E+03  0.7818608E-02  0.1235146E+00
          4   -1    0    0  501    0  0.00000000000E+00  0.00000000000E+00  0.33392927019E+03  0.33393168522E+03  0.12700000000E+01 0. -1.
         -4   -1    0    0    0  501 -0.00000000000E+00 -0.00000000000E+00 -0.11651719177E+02  0.11720727784E+02  0.12700000000E+01 0. -1.
         25    2    1    2    0    0  0.00000000000E+00  0.00000000000E+00  0.32227755102E+03  0.34565241300E+03  0.12495107332E+03 0.  0.
    9000005    1    3    3    0    0  0.35011885228E+02 -0.50723427446E+02  0.18928098553E+03  0.19906529000E+03  0.10000000000E+01 0.  0.
    9000005    1    3    3    0    0 -0.35011885228E+02  0.50723427446E+02  0.13299656549E+03  0.14658712300E+03  0.10000000000E+01 0.  0.
<mgrwt>
<rscale>  0 0.12495107E+03</rscale>
<asrwt>0</asrwt>
<pdfrwt beam="1">  1        4 0.51379231E-01 0.12495107E+03</pdfrwt>
<pdfrwt beam="2">  1       -4 0.17980662E-02 0.12495107E+03</pdfrwt>
<totfact> 0.70281590E+03</totfact>
</mgrwt>
</event>
<event>
 5    1  0.3227866E-002  0.1250024E+03  0.7818608E-02  0.1235065E+00
         -4   -1    0    0    0  501 -0.00000000000E+00  0.00000000000E+00  0.44054657483E+02  0.44072959351E+02  0.12700000000E+01 0.  1.
          4   -1    0    0  501    0  0.00000000000E+00 -0.00000000000E+00 -0.88630451130E+02  0.88639549680E+02  0.12700000000E+01 0.  1.
         25    2    1    2    0    0  0.00000000000E+00  0.00000000000E+00 -0.44575793647E+02  0.13271250903E+03  0.12500243467E+03 0.  0.
    9000005    1    3    3    0    0  0.53893409277E+01  0.56240315091E+02 -0.50644559068E+02  0.75880757774E+02  0.10000000000E+01 0.  0.
    9000005    1    3    3    0    0 -0.53893409277E+01 -0.56240315091E+02  0.60687654207E+01  0.56831751257E+02  0.10000000000E+01 0.  0.
<mgrwt>
<rscale>  0 0.12500243E+03</rscale>
<asrwt>0</asrwt>
<pdfrwt beam="2">  1        4 0.13637562E-01 0.12500243E+03</pdfrwt>
<pdfrwt beam="1">  1       -4 0.67797474E-02 0.12500243E+03</pdfrwt>
<totfact> 0.10285949E+04</totfact>
</mgrwt>
</event>
<event>
 5    1  0.3227866E-002  0.1249984E+03  0.7818608E-02  0.1235072E+00
         -4   -1    0    0    0  501 -0.00000000000E+00  0.00000000000E+00  0.32437453718E+03  0.32437702334E+03  0.12700000000E+01 0.  1.
          4   -1    0    0  501    0  0.00000000000E+00 -0.00000000000E+00 -0.12006070417E+02  0.12073053751E+02  0.12700000000E+01 0.  1.
         25    2    1    2    0    0  0.00000000000E+00  0.00000000000E+00  0.31236846676E+03  0.33645007709E+03  0.12499838137E+03 0.  0.
    9000005    1    3    3    0    0 -0.14070298505E+02 -0.19410153522E+01  0.31998541217E+03  0.32030205251E+03  0.10000000000E+01 0.  0.
    9000005    1    3    3    0    0  0.14070298505E+02  0.19410153522E+01 -0.76169454049E+01  0.16148024582E+02  0.10000000000E+01 0.  0.
<mgrwt>
<rscale>  0 0.12499838E+03</rscale>
<asrwt>0</asrwt>
<pdfrwt beam="2">  1        4 0.18524317E-02 0.12499838E+03</pdfrwt>
<pdfrwt beam="1">  1       -4 0.49909116E-01 0.12499838E+03</pdfrwt>
<totfact> 0.71243949E+03</totfact>
</mgrwt>
</event>
<event>
 5    1  0.3227866E-002  0.1249994E+03  0.7818608E-02  0.1235070E+00
          4   -1    0    0  501    0  0.00000000000E+00  0.00000000000E+00  0.47848292467E+02  0.47865143810E+02  0.12700000000E+01 0.  1.
         -4   -1    0    0    0  501 -0.00000000000E+00 -0.00000000000E+00 -0.81601300976E+02  0.81611183186E+02  0.12700000000E+01 0.  1.
         25    2    1    2    0    0  0.00000000000E+00  0.00000000000E+00 -0.33753008509E+02  0.12947632700E+03  0.12499941467E+03 0.  0.
    9000005    1    3    3    0    0  0.48929880368E+02 -0.37819603217E+02 -0.26184897668E+02  0.67164755983E+02  0.10000000000E+01 0.  0.
    9000005    1    3    3    0    0 -0.48929880368E+02  0.37819603217E+02 -0.75681108413E+01  0.62311571013E+02  0.10000000000E+01 0.  0.
<mgrwt>
<rscale>  0 0.12499941E+03</rscale>
<asrwt>0</asrwt>
<pdfrwt beam="1">  1        4 0.73633322E-02 0.12499941E+03</pdfrwt>
<pdfrwt beam="2">  1       -4 0.12556103E-01 0.12499941E+03</pdfrwt>
<totfact> 0.10355859E+04</totfact>
</mgrwt>
</event>
<event>
 5    1  0.3227866E-002  0.1250015E+03  0.7818608E-02  0.1235067E+00
          4   -1    0    0  501    0  0.00000000000E+00  0.00000000000E+00  0.57781337317E+01  0.59160569149E+01  0.12700000000E+01 0.  1.
         -4   -1    0    0    0  501 -0.00000000000E+00 -0.00000000000E+00 -0.66794442360E+03  0.66794563096E+03  0.12700000000E+01 0.  1.
         25    2    1    2    0    0  0.00000000000E+00  0.00000000000E+00 -0.66216628987E+03  0.67386168787E+03  0.12500151578E+03 0.  0.
    9000005    1    3    3    0    0 -0.57180613051E+02 -0.12390199368E+02 -0.44946126131E+03  0.45325441528E+03  0.10000000000E+01 0.  0.
    9000005    1    3    3    0    0  0.57180613051E+02  0.12390199368E+02 -0.21270502856E+03  0.22060727260E+03  0.10000000000E+01 0.  0.
<mgrwt>
<rscale>  0 0.12500152E+03</rscale>
<asrwt>0</asrwt>
<pdfrwt beam="1">  1        4 0.89964653E-03 0.12500152E+03</pdfrwt>
<pdfrwt beam="2">  1       -4 0.10277132E+00 0.12500152E+03</pdfrwt>
<totfact> 0.44501426E+03</totfact>
</mgrwt>
</event>
<event>
 5    1  0.3227866E-002  0.1249990E+03  0.7818608E-02  0.1235071E+00
         -4   -1    0    0    0  501 -0.00000000000E+00  0.00000000000E+00  0.22496543518E+03  0.22496901993E+03  0.12700000000E+01 0.  1.
          4   -1    0    0  501    0  0.00000000000E+00 -0.00000000000E+00 -0.17336542765E+02  0.17382997873E+02  0.12700000000E+01 0.  1.
         25    2    1    2    0    0  0.00000000000E+00  0.00000000000E+00  0.20762889242E+03  0.24235201780E+03  0.12499897426E+03 0.  0.
    9000005    1    3    3    0    0  0.55448001133E+02  0.91855149114E+01  0.15678152738E+03  0.16655420091E+03  0.10000000000E+01 0.  0.
    9000005    1    3    3    0    0 -0.55448001133E+02 -0.91855149114E+01  0.50847365041E+02  0.75797816891E+02  0.10000000000E+01 0.  0.
<mgrwt>
<rscale>  0 0.12499897E+03</rscale>
<asrwt>0</asrwt>
<pdfrwt beam="2">  1        4 0.26710100E-02 0.12499897E+03</pdfrwt>
<pdfrwt beam="1">  1       -4 0.34613912E-01 0.12499897E+03</pdfrwt>
<totfact> 0.83450230E+03</totfact>
</mgrwt>
</event>
<event>
 5    1  0.3227866E-002  0.1249704E+03  0.7818608E-02  0.1235115E+00
         -4   -1    0    0    0  501 -0.00000000000E+00  0.00000000000E+00  0.30535625637E+03  0.30535889738E+03  0.12700000000E+01 0.  1.
          4   -1    0    0  501    0  0.00000000000E+00 -0.00000000000E+00 -0.12752148639E+02  0.12815232924E+02  0.12700000000E+01 0.  1.
         25    2    1    2    0    0  0.00000000000E+00  0.00000000000E+00  0.29260410774E+03  0.31817413030E+03  0.12497044982E+03 0.  0.
    9000005    1    3    3    0    0  0.54173888459E+02  0.22387013685E+01  0.22533382727E+03  0.23176746037E+03  0.10000000000E+01 0.  0.
    9000005    1    3    3    0    0 -0.54173888459E+02 -0.22387013685E+01  0.67270280467E+02  0.86406669932E+02  0.10000000000E+01 0.  0.
<mgrwt>
<rscale>  0 0.12497045E+03</rscale>
<asrwt>0</asrwt>
<pdfrwt beam="2">  1        4 0.19669248E-02 0.12497045E+03</pdfrwt>
<pdfrwt beam="1">  1       -4 0.46982942E-01 0.12497045E+03</pdfrwt>
<totfact> 0.73421902E+03</totfact>
</mgrwt>
</event>
<event>
 5    1  0.3227866E-002  0.1249994E+03  0.7818608E-02  0.1235070E+00
          4   -1    0    0  501    0  0.00000000000E+00  0.00000000000E+00  0.69279342651E+01  0.70433779667E+01  0.12700000000E+01 0.  1.
         -4   -1    0    0    0  501 -0.00000000000E+00 -0.00000000000E+00 -0.55905974928E+03  0.55906119179E+03  0.12700000000E+01 0.  1.
         25    2    1    2    0    0  0.00000000000E+00  0.00000000000E+00 -0.55213181501E+03  0.56610456975E+03  0.12499937099E+03 0.  0.
    9000005    1    3    3    0    0 -0.47508152487E+01  0.23322272828E+02 -0.14381217880E+02  0.27826571530E+02  0.10000000000E+01 0.  0.
    9000005    1    3    3    0    0  0.47508152487E+01 -0.23322272828E+02 -0.53775059713E+03  0.53827799822E+03  0.10000000000E+01 0.  0.
<mgrwt>
<rscale>  0 0.12499937E+03</rscale>
<asrwt>0</asrwt>
<pdfrwt beam="1">  1        4 0.10748277E-02 0.12499937E+03</pdfrwt>
<pdfrwt beam="2">  1       -4 0.86018148E-01 0.12499937E+03</pdfrwt>
<totfact> 0.51080278E+03</totfact>
</mgrwt>
</event>
<event>
 5    1  0.3227866E-002  0.1250009E+03  0.7818608E-02  0.1235068E+00
         -4   -1    0    0    0  501 -0.00000000000E+00  0.00000000000E+00  0.45066457322E+02  0.45084348455E+02  0.12700000000E+01 0. -1.
          4   -1    0    0  501    0  0.00000000000E+00 -0.00000000000E+00 -0.86639068282E+02  0.86648375939E+02  0.12700000000E+01 0. -1.
         25    2    1    2    0    0  0.00000000000E+00  0.00000000000E+00 -0.41572610960E+02  0.13173272439E+03  0.12500091477E+03 0.  0.
    9000005    1    3    3    0    0  0.16000050501E+02 -0.36648733738E+02 -0.71395181784E+02  0.81837664205E+02  0.10000000000E+01 0.  0.
    9000005    1    3    3    0    0 -0.16000050501E+02  0.36648733738E+02  0.29822570824E+02  0.49895060188E+02  0.10000000000E+01 0.  0.
<mgrwt>
<rscale>  0 0.12500091E+03</rscale>
<asrwt>0</asrwt>
<pdfrwt beam="2">  1        4 0.13331180E-01 0.12500091E+03</pdfrwt>
<pdfrwt beam="1">  1       -4 0.69353934E-02 0.12500091E+03</pdfrwt>
<totfact> 0.10307194E+04</totfact>
</mgrwt>
</event>
<event>
 5    1  0.3227866E-002  0.1249482E+03  0.7818608E-02  0.1235150E+00
         -4   -1    0    0    0  501 -0.00000000000E+00  0.00000000000E+00  0.23684758948E+02  0.23718783831E+02  0.12700000000E+01 0.  1.
          4   -1    0    0  501    0  0.00000000000E+00 -0.00000000000E+00 -0.16463525590E+03  0.16464015423E+03  0.12700000000E+01 0.  1.
         25    2    1    2    0    0  0.00000000000E+00  0.00000000000E+00 -0.14095049695E+03  0.18835893806E+03  0.12494817708E+03 0.  0.
    9000005    1    3    3    0    0  0.48401977390E+02 -0.28292379994E+02 -0.11200127872E+03  0.12525372895E+03  0.10000000000E+01 0.  0.
    9000005    1    3    3    0    0 -0.48401977390E+02  0.28292379994E+02 -0.28949218237E+02  0.63105209116E+02  0.10000000000E+01 0.  0.
<mgrwt>
<rscale>  0 0.12494818E+03</rscale>
<asrwt>0</asrwt>
<pdfrwt beam="2">  1        4 0.25331494E-01 0.12494818E+03</pdfrwt>
<pdfrwt beam="1">  1       -4 0.36468033E-02 0.12494818E+03</pdfrwt>
<totfact> 0.92240690E+03</totfact>
</mgrwt>
</event>
<event>
 5    1  0.3227866E-002  0.1250029E+03  0.7818608E-02  0.1235065E+00
         -4   -1    0    0    0  501 -0.00000000000E+00  0.00000000000E+00  0.33920260290E+02  0.33944026840E+02  0.12700000000E+01 0.  1.
          4   -1    0    0  501    0  0.00000000000E+00 -0.00000000000E+00 -0.11509750512E+03  0.11510451158E+03  0.12700000000E+01 0.  1.
         25    2    1    2    0    0  0.00000000000E+00  0.00000000000E+00 -0.81177244833E+02  0.14904853842E+03  0.12500288687E+03 0.  0.
    9000005    1    3    3    0    0  0.16998233359E+02  0.48554908523E+02  0.17176979416E+01  0.51482711323E+02  0.10000000000E+01 0.  0.
    9000005    1    3    3    0    0 -0.16998233359E+02 -0.48554908523E+02 -0.82894942774E+02  0.97565827094E+02  0.10000000000E+01 0.  0.
<mgrwt>
<rscale>  0 0.12500289E+03</rscale>
<asrwt>0</asrwt>
<pdfrwt beam="2">  1        4 0.17709675E-01 0.12500289E+03</pdfrwt>
<pdfrwt beam="1">  1       -4 0.52208688E-02 0.12500289E+03</pdfrwt>
<totfact> 0.99487232E+03</totfact>
</mgrwt>
</event>
<event>
 5    1  0.3227866E-002  0.1250048E+03  0.7818608E-02  0.1235062E+00
         -4   -1    0    0    0  501 -0.00000000000E+00  0.00000000000E+00  0.13513904045E+03  0.13514500787E+03  0.12700000000E+01 0.  1.
          4   -1    0    0  501    0  0.00000000000E+00 -0.00000000000E+00 -0.28887090113E+02  0.28914993951E+02  0.12700000000E+01 0.  1.
         25    2    1    2    0    0  0.00000000000E+00  0.00000000000E+00  0.10625195033E+03  0.16406000182E+03  0.12500482890E+03 0.  0.
    9000005    1    3    3    0    0 -0.52682834322E+02 -0.19987854697E+02  0.88599374683E+02  0.10500402165E+03  0.10000000000E+01 0.  0.
    9000005    1    3    3    0    0  0.52682834322E+02  0.19987854697E+02  0.17652575649E+02  0.59055980177E+02  0.10000000000E+01 0.  0.
<mgrwt>
<rscale>  0 0.12500483E+03</rscale>
<asrwt>0</asrwt>
<pdfrwt beam="2">  1        4 0.44467733E-02 0.12500483E+03</pdfrwt>
<pdfrwt beam="1">  1       -4 0.20793226E-01 0.12500483E+03</pdfrwt>
<totfact> 0.96555234E+03</totfact>
</mgrwt>
</event>
<event>
 5    1  0.3227866E-002  0.1250041E+03  0.7818608E-02  0.1235063E+00
         -4   -1    0    0    0  501 -0.00000000000E+00  0.00000000000E+00  0.21647177085E+02  0.21684399364E+02  0.12700000000E+01 0.  1.
          4   -1    0    0  501    0  0.00000000000E+00 -0.00000000000E+00 -0.18026825762E+03  0.18027273117E+03  0.12700000000E+01 0.  1.
         25    2    1    2    0    0  0.00000000000E+00  0.00000000000E+00 -0.15862108053E+03  0.20195713053E+03  0.12500414147E+03 0.  0.
    9000005    1    3    3    0    0  0.59291133843E+02  0.15983387234E+02 -0.98054439612E+02  0.11570039044E+03  0.10000000000E+01 0.  0.
    9000005    1    3    3    0    0 -0.59291133843E+02 -0.15983387234E+02 -0.60566640919E+02  0.86256740097E+02  0.10000000000E+01 0.  0.
<mgrwt>
<rscale>  0 0.12500414E+03</rscale>
<asrwt>0</asrwt>
<pdfrwt beam="2">  1        4 0.27736785E-01 0.12500414E+03</pdfrwt>
<pdfrwt beam="1">  1       -4 0.33335424E-02 0.12500414E+03</pdfrwt>
<totfact> 0.89798147E+03</totfact>
</mgrwt>
</event>
<event>
 4    1  0.3227866E-002  0.1249031E+03  0.7818608E-02  0.1235221E+00
          4   -1    0    0  501    0  0.00000000000E+00  0.00000000000E+00  0.60091869089E+03  0.60092003292E+03  0.12700000000E+01 0.  1.
         -4   -1    0    0    0  501 -0.00000000000E+00 -0.00000000000E+00 -0.64268955068E+01  0.65511743875E+01  0.12700000000E+01 0.  1.
    9000005    1    1    2    0    0 -0.35622417748E+02 -0.13691770930E+02  0.53762355958E+03  0.53897728436E+03  0.10000000000E+01 0.  0.
    9000005    1    1    2    0    0  0.35622417748E+02  0.13691770930E+02  0.56868235806E+02  0.68493922950E+02  0.10000000000E+01 0.  0.
<mgrwt>
<rscale>  0 0.12490305E+03</rscale>
<asrwt>0</asrwt>
<pdfrwt beam="1">  1        4 0.92458690E-01 0.12490305E+03</pdfrwt>
<pdfrwt beam="2">  1       -4 0.99841633E-03 0.12490305E+03</pdfrwt>
<totfact> 0.48502389E+03</totfact>
</mgrwt>
</event>
<event>
 5    1  0.3227866E-002  0.1250138E+03  0.7818608E-02  0.1235048E+00
          4   -1    0    0  501    0  0.00000000000E+00  0.00000000000E+00  0.39145633384E+03  0.39145839396E+03  0.12700000000E+01 0. -1.
         -4   -1    0    0    0  501 -0.00000000000E+00 -0.00000000000E+00 -0.99384745618E+01  0.10019290225E+02  0.12700000000E+01 0. -1.
         25    2    1    2    0    0  0.00000000000E+00  0.00000000000E+00  0.38151785928E+03  0.40147768419E+03  0.12501381505E+03 0.  0.
    9000005    1    3    3    0    0  0.61524454983E+02 -0.10530878503E+02  0.20089186996E+03  0.21036801416E+03  0.10000000000E+01 0.  0.
    9000005    1    3    3    0    0 -0.61524454983E+02  0.10530878503E+02  0.18062598931E+03  0.19110967003E+03  0.10000000000E+01 0.  0.
<mgrwt>
<rscale>  0 0.12501382E+03</rscale>
<asrwt>0</asrwt>
<pdfrwt beam="1">  1        4 0.60230426E-01 0.12501382E+03</pdfrwt>
<pdfrwt beam="2">  1       -4 0.15353711E-02 0.12501382E+03</pdfrwt>
<totfact> 0.64389684E+03</totfact>
</mgrwt>
</event>
<event>
 5    1  0.3227866E-002  0.1249986E+03  0.7818608E-02  0.1235071E+00
         -4   -1    0    0    0  501 -0.00000000000E+00  0.00000000000E+00  0.28073170134E+02  0.28101882168E+02  0.12700000000E+01 0.  1.
          4   -1    0    0  501    0  0.00000000000E+00 -0.00000000000E+00 -0.13903955789E+03  0.13904535791E+03  0.12700000000E+01 0.  1.
         25    2    1    2    0    0  0.00000000000E+00  0.00000000000E+00 -0.11096638775E+03  0.16714724008E+03  0.12499864262E+03 0.  0.
    9000005    1    3    3    0    0 -0.48431983087E+02 -0.39325077137E+02 -0.50653265431E+02  0.80367107553E+02  0.10000000000E+01 0.  0.
    9000005    1    3    3    0    0  0.48431983087E+02  0.39325077137E+02 -0.60313122321E+02  0.86780132529E+02  0.10000000000E+01 0.  0.
<mgrwt>
<rscale>  0 0.12499864E+03</rscale>
<asrwt>0</asrwt>
<pdfrwt beam="2">  1        4 0.21393356E-01 0.12499864E+03</pdfrwt>
<pdfrwt beam="1">  1       -4 0.43216041E-02 0.12499864E+03</pdfrwt>
<totfact> 0.95985204E+03</totfact>
</mgrwt>
</event>
<event>
 5    1  0.3227866E-002  0.1249999E+03  0.7818608E-02  0.1235069E+00
          4   -1    0    0  501    0  0.00000000000E+00  0.00000000000E+00  0.35572237485E+03  0.35572464192E+03  0.12700000000E+01 0. -1.
         -4   -1    0    0    0  501 -0.00000000000E+00 -0.00000000000E+00 -0.10942134003E+02  0.11015588797E+02  0.12700000000E+01 0. -1.
         25    2    1    2    0    0  0.00000000000E+00  0.00000000000E+00  0.34478024084E+03  0.36674023071E+03  0.12499992939E+03 0.  0.
    9000005    1    3    3    0    0  0.13365739015E+02  0.49090275200E+02  0.65926793023E+02  0.83281691487E+02  0.10000000000E+01 0.  0.
    9000005    1    3    3    0    0 -0.13365739015E+02 -0.49090275200E+02  0.27885344782E+03  0.28345853923E+03  0.10000000000E+01 0.  0.
<mgrwt>
<rscale>  0 0.12499993E+03</rscale>
<asrwt>0</asrwt>
<pdfrwt beam="1">  1        4 0.54732349E-01 0.12499993E+03</pdfrwt>
<pdfrwt beam="2">  1       -4 0.16892298E-02 0.12499993E+03</pdfrwt>
<totfact> 0.67921455E+03</totfact>
</mgrwt>
</event>
<event>
 5    1  0.3227866E-002  0.1250002E+03  0.7818608E-02  0.1235069E+00
         -4   -1    0    0    0  501 -0.00000000000E+00  0.00000000000E+00  0.20633227564E+02  0.20672275629E+02  0.12700000000E+01 0.  1.
          4   -1    0    0  501    0  0.00000000000E+00 -0.00000000000E+00 -0.18909897657E+03  0.18910324122E+03  0.12700000000E+01 0.  1.
         25    2    1    2    0    0  0.00000000000E+00  0.00000000000E+00 -0.16846574900E+03  0.20977551685E+03  0.12500023552E+03 0.  0.
    9000005    1    3    3    0    0  0.22273449949E+02  0.43360944855E+02 -0.14985432252E+03  0.15758678907E+03  0.10000000000E+01 0.  0.
    9000005    1    3    3    0    0 -0.22273449949E+02 -0.43360944855E+02 -0.18611426486E+02  0.52188727779E+02  0.10000000000E+01 0.  0.
<mgrwt>
<rscale>  0 0.12500024E+03</rscale>
<asrwt>0</asrwt>
<pdfrwt beam="2">  1        4 0.29095481E-01 0.12500024E+03</pdfrwt>
<pdfrwt beam="1">  1       -4 0.31776746E-02 0.12500024E+03</pdfrwt>
<totfact> 0.88512090E+03</totfact>
</mgrwt>
</event>
<event>
 5    1  0.3227866E-002  0.1249883E+03  0.7818608E-02  0.1235088E+00
          4   -1    0    0  501    0  0.00000000000E+00  0.00000000000E+00  0.53305986086E+01  0.54797975807E+01  0.12700000000E+01 0.  1.
         -4   -1    0    0    0  501 -0.00000000000E+00 -0.00000000000E+00 -0.72239901202E+03  0.72240012837E+03  0.12700000000E+01 0.  1.
         25    2    1    2    0    0  0.00000000000E+00  0.00000000000E+00 -0.71706841341E+03  0.72787992595E+03  0.12498830781E+03 0.  0.
    9000005    1    3    3    0    0 -0.35453111817E+02  0.30688488353E+02 -0.59905689020E+03  0.60089005996E+03  0.10000000000E+01 0.  0.
    9000005    1    3    3    0    0  0.35453111817E+02 -0.30688488353E+02 -0.11801152321E+03  0.12698986599E+03  0.10000000000E+01 0.  0.
<mgrwt>
<rscale>  0 0.12498831E+03</rscale>
<asrwt>0</asrwt>
<pdfrwt beam="1">  1        4 0.83165538E-03 0.12498831E+03</pdfrwt>
<pdfrwt beam="2">  1       -4 0.11114980E+00 0.12498831E+03</pdfrwt>
<totfact> 0.41665814E+03</totfact>
</mgrwt>
</event>
<event>
 5    1  0.3227866E-002  0.1250017E+03  0.7818608E-02  0.1235067E+00
          4   -1    0    0  501    0  0.00000000000E+00  0.00000000000E+00  0.16491910334E+03  0.16492399324E+03  0.12700000000E+01 0. -1.
         -4   -1    0    0    0  501 -0.00000000000E+00 -0.00000000000E+00 -0.23664233009E+02  0.23698287363E+02  0.12700000000E+01 0. -1.
         25    2    1    2    0    0  0.00000000000E+00  0.00000000000E+00  0.14125487033E+03  0.18862228060E+03  0.12500170538E+03 0.  0.
    9000005    1    3    3    0    0 -0.44018375146E+02 -0.95187994643E+01  0.13600435037E+03  0.14327040243E+03  0.10000000000E+01 0.  0.
    9000005    1    3    3    0    0  0.44018375146E+02  0.95187994643E+01  0.52505199608E+01  0.45351878170E+02  0.10000000000E+01 0.  0.
<mgrwt>
<rscale>  0 0.12500171E+03</rscale>
<asrwt>0</asrwt>
<pdfrwt beam="1">  1        4 0.25375166E-01 0.12500171E+03</pdfrwt>
<pdfrwt beam="2">  1       -4 0.36436469E-02 0.12500171E+03</pdfrwt>
<totfact> 0.92084068E+03</totfact>
</mgrwt>
</event>
<event>
 5    1  0.3227866E-002  0.1250017E+03  0.7818608E-02  0.1235067E+00
         -4   -1    0    0    0  501 -0.00000000000E+00  0.00000000000E+00  0.18628056400E+03  0.18628489317E+03  0.12700000000E+01 0. -1.
          4   -1    0    0  501    0  0.00000000000E+00 -0.00000000000E+00 -0.20946492637E+02  0.20984957798E+02  0.12700000000E+01 0. -1.
         25    2    1    2    0    0  0.00000000000E+00  0.00000000000E+00  0.16533407136E+03  0.20726985097E+03  0.12500174386E+03 0.  0.
    9000005    1    3    3    0    0  0.37649542049E+02 -0.28327238928E+02  0.15074029106E+03  0.15793529001E+03  0.10000000000E+01 0.  0.
    9000005    1    3    3    0    0 -0.37649542049E+02  0.28327238928E+02  0.14593780307E+02  0.49334560963E+02  0.10000000000E+01 0.  0.
<mgrwt>
<rscale>  0 0.12500174E+03</rscale>
<asrwt>0</asrwt>
<pdfrwt beam="2">  1        4 0.32258292E-02 0.12500174E+03</pdfrwt>
<pdfrwt beam="1">  1       -4 0.28661840E-01 0.12500174E+03</pdfrwt>
<totfact> 0.88920232E+03</totfact>
</mgrwt>
</event>
<event>
 5    1  0.3227866E-002  0.1249954E+03  0.7818608E-02  0.1235076E+00
         -4   -1    0    0    0  501 -0.00000000000E+00  0.00000000000E+00  0.14741884620E+03  0.14742431656E+03  0.12700000000E+01 0.  1.
          4   -1    0    0  501    0  0.00000000000E+00 -0.00000000000E+00 -0.26474505059E+02  0.26504948937E+02  0.12700000000E+01 0.  1.
         25    2    1    2    0    0  0.00000000000E+00  0.00000000000E+00  0.12094434114E+03  0.17392926550E+03  0.12499542289E+03 0.  0.
    9000005    1    3    3    0    0  0.35664230540E+02  0.42913675885E+01  0.13162334529E+03  0.13644067649E+03  0.10000000000E+01 0.  0.
    9000005    1    3    3    0    0 -0.35664230540E+02 -0.42913675885E+01 -0.10679004157E+02  0.37488589005E+02  0.10000000000E+01 0.  0.
<mgrwt>
<rscale>  0 0.12499542E+03</rscale>
<asrwt>0</asrwt>
<pdfrwt beam="2">  1        4 0.40757634E-02 0.12499542E+03</pdfrwt>
<pdfrwt beam="1">  1       -4 0.22682585E-01 0.12499542E+03</pdfrwt>
<totfact> 0.94731037E+03</totfact>
</mgrwt>
</event>
<event>
 5    1  0.3227866E-002  0.1249963E+03  0.7818608E-02  0.1235075E+00
          4   -1    0    0  501    0  0.00000000000E+00  0.00000000000E+00  0.91128025901E+02  0.91136875109E+02  0.12700000000E+01 0.  1.
         -4   -1    0    0    0  501 -0.00000000000E+00 -0.00000000000E+00 -0.42842656129E+02  0.42861475525E+02  0.12700000000E+01 0.  1.
         25    2    1    2    0    0  0.00000000000E+00  0.00000000000E+00  0.48285369772E+02  0.13399835063E+03  0.12499632410E+03 0.  0.
    9000005    1    3    3    0    0  0.42577522726E+02  0.31823718335E+02 -0.11078065320E+02  0.54307623971E+02  0.10000000000E+01 0.  0.
    9000005    1    3    3    0    0 -0.42577522726E+02 -0.31823718335E+02  0.59363435092E+02  0.79690726663E+02  0.10000000000E+01 0.  0.
<mgrwt>
<rscale>  0 0.12499632E+03</rscale>
<asrwt>0</asrwt>
<pdfrwt beam="1">  1        4 0.14021825E-01 0.12499632E+03</pdfrwt>
<pdfrwt beam="2">  1       -4 0.65933062E-02 0.12499632E+03</pdfrwt>
<totfact> 0.10260077E+04</totfact>
</mgrwt>
</event>
<event>
 5    1  0.3227866E-002  0.1250022E+03  0.7818608E-02  0.1235066E+00
         -4   -1    0    0    0  501 -0.00000000000E+00  0.00000000000E+00  0.27181220603E+03  0.27181517295E+03  0.12700000000E+01 0.  1.
          4   -1    0    0  501    0  0.00000000000E+00 -0.00000000000E+00 -0.14340542116E+02  0.14396667955E+02  0.12700000000E+01 0.  1.
         25    2    1    2    0    0  0.00000000000E+00  0.00000000000E+00  0.25747166391E+03  0.28621184091E+03  0.12500224061E+03 0.  0.
    9000005    1    3    3    0    0  0.39761732043E+02  0.24323267517E+02  0.22404631725E+03  0.22884573177E+03  0.10000000000E+01 0.  0.
    9000005    1    3    3    0    0 -0.39761732043E+02 -0.24323267517E+02  0.33425346669E+02  0.57366109139E+02  0.10000000000E+01 0.  0.
<mgrwt>
<rscale>  0 0.12500224E+03</rscale>
<asrwt>0</asrwt>
<pdfrwt beam="2">  1        4 0.22107827E-02 0.12500224E+03</pdfrwt>
<pdfrwt beam="1">  1       -4 0.41821811E-01 0.12500224E+03</pdfrwt>
<totfact> 0.77357749E+03</totfact>
</mgrwt>
</event>
<event>
 5    1  0.3227866E-002  0.1250008E+03  0.7818608E-02  0.1235068E+00
         -4   -1    0    0    0  501 -0.00000000000E+00  0.00000000000E+00  0.69058224375E+02  0.69069901215E+02  0.12700000000E+01 0. -1.
          4   -1    0    0  501    0  0.00000000000E+00 -0.00000000000E+00 -0.56541689570E+02  0.56555950699E+02  0.12700000000E+01 0. -1.
         25    2    1    2    0    0  0.00000000000E+00  0.00000000000E+00  0.12516534805E+02  0.12562585191E+03  0.12500076410E+03 0.  0.
    9000005    1    3    3    0    0 -0.20559253176E+02  0.28249974336E+02 -0.45813510875E+02  0.57624835964E+02  0.10000000000E+01 0.  0.
    9000005    1    3    3    0    0  0.20559253176E+02 -0.28249974336E+02  0.58330045680E+02  0.68001015949E+02  0.10000000000E+01 0.  0.
<mgrwt>
<rscale>  0 0.12500076E+03</rscale>
<asrwt>0</asrwt>
<pdfrwt beam="2">  1        4 0.87007167E-02 0.12500076E+03</pdfrwt>
<pdfrwt beam="1">  1       -4 0.10626337E-01 0.12500076E+03</pdfrwt>
<totfact> 0.10438997E+04</totfact>
</mgrwt>
</event>
<event>
 5    1  0.3227866E-002  0.1249973E+03  0.7818608E-02  0.1235073E+00
          4   -1    0    0  501    0  0.00000000000E+00  0.00000000000E+00  0.19884848656E+02  0.19925363386E+02  0.12700000000E+01 0.  1.
         -4   -1    0    0    0  501 -0.00000000000E+00 -0.00000000000E+00 -0.19619270193E+03  0.19619681239E+03  0.12700000000E+01 0.  1.
         25    2    1    2    0    0  0.00000000000E+00  0.00000000000E+00 -0.17630785327E+03  0.21612217577E+03  0.12499734291E+03 0.  0.
    9000005    1    3    3    0    0  0.36497950022E+01  0.49320399994E+02 -0.15420274446E+03  0.16194230225E+03  0.10000000000E+01 0.  0.
    9000005    1    3    3    0    0 -0.36497950022E+01 -0.49320399994E+02 -0.22105108815E+02  0.54179873522E+02  0.10000000000E+01 0.  0.
<mgrwt>
<rscale>  0 0.12499734E+03</rscale>
<asrwt>0</asrwt>
<pdfrwt beam="1">  1        4 0.30626403E-02 0.12499734E+03</pdfrwt>
<pdfrwt beam="2">  1       -4 0.30186924E-01 0.12499734E+03</pdfrwt>
<totfact> 0.87490903E+03</totfact>
</mgrwt>
</event>
<event>
 5    1  0.3227866E-002  0.1249954E+03  0.7818608E-02  0.1235077E+00
          4   -1    0    0  501    0  0.00000000000E+00  0.00000000000E+00  0.14403386940E+02  0.14459268838E+02  0.12700000000E+01 0. -1.
         -4   -1    0    0    0  501 -0.00000000000E+00 -0.00000000000E+00 -0.27060107491E+03  0.27060405511E+03  0.12700000000E+01 0. -1.
         25    2    1    2    0    0  0.00000000000E+00  0.00000000000E+00 -0.25619768797E+03  0.28506332395E+03  0.12499537327E+03 0.  0.
    9000005    1    3    3    0    0 -0.53868460548E+02 -0.23752329840E+02 -0.17588125969E+03  0.18547560951E+03  0.10000000000E+01 0.  0.
    9000005    1    3    3    0    0  0.53868460548E+02  0.23752329840E+02 -0.80316428284E+02  0.99587714437E+02  0.10000000000E+01 0.  0.
<mgrwt>
<rscale>  0 0.12499537E+03</rscale>
<asrwt>0</asrwt>
<pdfrwt beam="1">  1        4 0.22204337E-02 0.12499537E+03</pdfrwt>
<pdfrwt beam="2">  1       -4 0.41635459E-01 0.12499537E+03</pdfrwt>
<totfact> 0.77519471E+03</totfact>
</mgrwt>
</event>
<event>
 5    1  0.3227866E-002  0.1249984E+03  0.7818608E-02  0.1235072E+00
          4   -1    0    0  501    0  0.00000000000E+00  0.00000000000E+00  0.88610544728E+03  0.88610635738E+03  0.12700000000E+01 0.  1.
         -4   -1    0    0    0  501 -0.00000000000E+00 -0.00000000000E+00 -0.43158215243E+01  0.44988015548E+01  0.12700000000E+01 0.  1.
         25    2    1    2    0    0  0.00000000000E+00  0.00000000000E+00  0.88178962575E+03  0.89060515894E+03  0.12499842015E+03 0.  0.
    9000005    1    3    3    0    0 -0.45781495599E+02 -0.15807242580E+02  0.15954238000E+03  0.16673507512E+03  0.10000000000E+01 0.  0.
    9000005    1    3    3    0    0  0.45781495599E+02  0.15807242580E+02  0.72224724575E+03  0.72387008382E+03  0.10000000000E+01 0.  0.
<mgrwt>
<rscale>  0 0.12499842E+03</rscale>
<asrwt>0</asrwt>
<pdfrwt beam="1">  1        4 0.13633789E+00 0.12499842E+03</pdfrwt>
<pdfrwt beam="2">  1       -4 0.67811881E-03 0.12499842E+03</pdfrwt>
<totfact> 0.34522013E+03</totfact>
</mgrwt>
</event>
<event>
 4    1  0.3227866E-002  0.1250880E+03  0.7818608E-02  0.1234932E+00
          4   -1    0    0  501    0  0.00000000000E+00  0.00000000000E+00  0.11177160946E+03  0.11177882439E+03  0.12700000000E+01 0. -1.
         -4   -1    0    0    0  501 -0.00000000000E+00 -0.00000000000E+00 -0.34977839460E+02  0.35000887893E+02  0.12700000000E+01 0. -1.
    9000005    1    1    2    0    0  0.70671244208E+01 -0.49270358335E+02  0.82820060335E+02  0.96631645189E+02  0.10000000000E+01 0.  0.
    9000005    1    1    2    0    0 -0.70671244208E+01  0.49270358335E+02 -0.60262903326E+01  0.50148067094E+02  0.10000000000E+01 0.  0.
<mgrwt>
<rscale>  0 0.12508797E+03</rscale>
<asrwt>0</asrwt>
<pdfrwt beam="1">  1        4 0.17197960E-01 0.12508797E+03</pdfrwt>
<pdfrwt beam="2">  1       -4 0.53835340E-02 0.12508797E+03</pdfrwt>
<totfact> 0.99751832E+03</totfact>
</mgrwt>
</event>
<event>
 5    1  0.3227866E-002  0.1249860E+03  0.7818608E-02  0.1235091E+00
         -4   -1    0    0    0  501 -0.00000000000E+00  0.00000000000E+00  0.13462105590E+03  0.13462704629E+03  0.12700000000E+01 0.  1.
          4   -1    0    0  501    0  0.00000000000E+00 -0.00000000000E+00 -0.28989600861E+02  0.29017406123E+02  0.12700000000E+01 0.  1.
         25    2    1    2    0    0  0.00000000000E+00  0.00000000000E+00  0.10563145504E+03  0.16364445241E+03  0.12498600926E+03 0.  0.
    9000005    1    3    3    0    0  0.15310211182E+02  0.31627277872E+02 -0.14834641407E+02  0.38154342580E+02  0.10000000000E+01 0.  0.
    9000005    1    3    3    0    0 -0.15310211182E+02 -0.31627277872E+02  0.12046609645E+03  0.12549010983E+03  0.10000000000E+01 0.  0.
<mgrwt>
<rscale>  0 0.12498601E+03</rscale>
<asrwt>0</asrwt>
<pdfrwt beam="2">  1        4 0.44625383E-02 0.12498601E+03</pdfrwt>
<pdfrwt beam="1">  1       -4 0.20713531E-01 0.12498601E+03</pdfrwt>
<totfact> 0.96675115E+03</totfact>
</mgrwt>
</event>
<event>
 5    1  0.3227866E-002  0.1249999E+03  0.7818608E-02  0.1235069E+00
         -4   -1    0    0    0  501 -0.00000000000E+00  0.00000000000E+00  0.53724710331E+03  0.53724860439E+03  0.12700000000E+01 0. -1.
          4   -1    0    0  501    0  0.00000000000E+00 -0.00000000000E+00 -0.72138748867E+01  0.73248133684E+01  0.12700000000E+01 0. -1.
         25    2    1    2    0    0  0.00000000000E+00  0.00000000000E+00  0.53003322842E+03  0.54457341775E+03  0.12499993637E+03 0.  0.
    9000005    1    3    3    0    0  0.44174018171E+02 -0.25290074692E+02  0.42295811374E+03  0.42601114743E+03  0.10000000000E+01 0.  0.
    9000005    1    3    3    0    0 -0.44174018171E+02  0.25290074692E+02  0.10707511469E+03  0.11856227032E+03  0.10000000000E+01 0.  0.
<mgrwt>
<rscale>  0 0.12499994E+03</rscale>
<asrwt>0</asrwt>
<pdfrwt beam="2">  1        4 0.11184764E-02 0.12499994E+03</pdfrwt>
<pdfrwt beam="1">  1       -4 0.82662026E-01 0.12499994E+03</pdfrwt>
<totfact> 0.52564692E+03</totfact>
</mgrwt>
</event>
<event>
 5    1  0.3227866E-002  0.1249948E+03  0.7818608E-02  0.1235077E+00
          4   -1    0    0  501    0  0.00000000000E+00  0.00000000000E+00  0.11402483766E+02  0.11472991591E+02  0.12700000000E+01 0. -1.
         -4   -1    0    0    0  501 -0.00000000000E+00 -0.00000000000E+00 -0.34142303957E+03  0.34142540158E+03  0.12700000000E+01 0. -1.
         25    2    1    2    0    0  0.00000000000E+00  0.00000000000E+00 -0.33002055580E+03  0.35289839317E+03  0.12499483451E+03 0.  0.
    9000005    1    3    3    0    0 -0.58251293243E+02  0.31560465807E+01 -0.22825186549E+03  0.23559093338E+03  0.10000000000E+01 0.  0.
    9000005    1    3    3    0    0  0.58251293243E+02 -0.31560465807E+01 -0.10176869031E+03  0.11730745979E+03  0.10000000000E+01 0.  0.
<mgrwt>
<rscale>  0 0.12499483E+03</rscale>
<asrwt>0</asrwt>
<pdfrwt beam="1">  1        4 0.17598339E-02 0.12499483E+03</pdfrwt>
<pdfrwt beam="2">  1       -4 0.52532219E-01 0.12499483E+03</pdfrwt>
<totfact> 0.69414807E+03</totfact>
</mgrwt>
</event>
<event>
 5    1  0.3227866E-002  0.1250011E+03  0.7818608E-02  0.1235068E+00
          4   -1    0    0  501    0  0.00000000000E+00  0.00000000000E+00  0.37491951572E+03  0.37492166671E+03  0.12700000000E+01 0. -1.
         -4   -1    0    0    0  501 -0.00000000000E+00 -0.00000000000E+00 -0.10378192594E+02  0.10455610050E+02  0.12700000000E+01 0. -1.
         25    2    1    2    0    0  0.00000000000E+00  0.00000000000E+00  0.36454132313E+03  0.38537727676E+03  0.12500107670E+03 0.  0.
    9000005    1    3    3    0    0 -0.10705757341E+02  0.43775824355E+02  0.31574608767E+03  0.31894753160E+03  0.10000000000E+01 0.  0.
    9000005    1    3    3    0    0  0.10705757341E+02 -0.43775824355E+02  0.48795235461E+02  0.66429745160E+02  0.10000000000E+01 0.  0.
<mgrwt>
<rscale>  0 0.12500108E+03</rscale>
<asrwt>0</asrwt>
<pdfrwt beam="1">  1        4 0.57686037E-01 0.12500108E+03</pdfrwt>
<pdfrwt beam="2">  1       -4 0.16027659E-02 0.12500108E+03</pdfrwt>
<totfact> 0.65998700E+03</totfact>
</mgrwt>
</event>
<event>
 5    1  0.3227866E-002  0.1250038E+03  0.7818608E-02  0.1235063E+00
          4   -1    0    0  501    0  0.00000000000E+00  0.00000000000E+00  0.23606886231E+02  0.23641023191E+02  0.12700000000E+01 0. -1.
         -4   -1    0    0    0  501 -0.00000000000E+00 -0.00000000000E+00 -0.16532475213E+03  0.16532963003E+03  0.12700000000E+01 0. -1.
         25    2    1    2    0    0  0.00000000000E+00  0.00000000000E+00 -0.14171786590E+03  0.18897065322E+03  0.12500381700E+03 0.  0.
    9000005    1    3    3    0    0 -0.14912097761E+01  0.60867787913E+02 -0.49566905018E+02  0.78517446374E+02  0.10000000000E+01 0.  0.
    9000005    1    3    3    0    0  0.14912097761E+01 -0.60867787913E+02 -0.92150960878E+02  0.11045320685E+03  0.10000000000E+01 0.  0.
<mgrwt>
<rscale>  0 0.12500382E+03</rscale>
<asrwt>0</asrwt>
<pdfrwt beam="1">  1        4 0.36348299E-02 0.12500382E+03</pdfrwt>
<pdfrwt beam="2">  1       -4 0.25437578E-01 0.12500382E+03</pdfrwt>
<totfact> 0.92018858E+03</totfact>
</mgrwt>
</event>
<event>
 5    1  0.3227866E-002  0.1249960E+03  0.7818608E-02  0.1235076E+00
         -4   -1    0    0    0  501 -0.00000000000E+00  0.00000000000E+00  0.17823791487E+01  0.21885555579E+01  0.12700000000E+01 0. -1.
          4   -1    0    0  501    0  0.00000000000E+00 -0.00000000000E+00 -0.19668882656E+04  0.19668886756E+04  0.12700000000E+01 0. -1.
         25    2    1    2    0    0  0.00000000000E+00  0.00000000000E+00 -0.19651058864E+04  0.19690772311E+04  0.12499598934E+03 0.  0.
    9000005    1    3    3    0    0  0.58596735489E+02 -0.21229628171E+01 -0.64215606782E+03  0.64482827157E+03  0.10000000000E+01 0.  0.
    9000005    1    3    3    0    0 -0.58596735489E+02  0.21229628171E+01 -0.13229498186E+04  0.13242489595E+04  0.10000000000E+01 0.  0.
<mgrwt>
<rscale>  0 0.12499599E+03</rscale>
<asrwt>0</asrwt>
<pdfrwt beam="2">  1        4 0.30262791E+00 0.12499599E+03</pdfrwt>
<pdfrwt beam="1">  1       -4 0.30548963E-03 0.12499599E+03</pdfrwt>
<totfact> 0.10271385E+03</totfact>
</mgrwt>
</event>
<event>
 5    1  0.3227866E-002  0.1250017E+03  0.7818608E-02  0.1235067E+00
          4   -1    0    0  501    0  0.00000000000E+00  0.00000000000E+00  0.19262788981E+02  0.19304609277E+02  0.12700000000E+01 0. -1.
         -4   -1    0    0    0  501 -0.00000000000E+00 -0.00000000000E+00 -0.20252931996E+03  0.20253330181E+03  0.12700000000E+01 0. -1.
         25    2    1    2    0    0  0.00000000000E+00  0.00000000000E+00 -0.18326653098E+03  0.22183791109E+03  0.12500174967E+03 0.  0.
    9000005    1    3    3    0    0 -0.41319612452E+02 -0.35656351076E+02 -0.14565680971E+03  0.15554932324E+03  0.10000000000E+01 0.  0.
    9000005    1    3    3    0    0  0.41319612452E+02  0.35656351076E+02 -0.37609721265E+02  0.66288587848E+02  0.10000000000E+01 0.  0.
<mgrwt>
<rscale>  0 0.12500175E+03</rscale>
<asrwt>0</asrwt>
<pdfrwt beam="1">  1        4 0.29670294E-02 0.12500175E+03</pdfrwt>
<pdfrwt beam="2">  1       -4 0.31161879E-01 0.12500175E+03</pdfrwt>
<totfact> 0.86574975E+03</totfact>
</mgrwt>
</event>
<event>
 5    1  0.3227866E-002  0.1249873E+03  0.7818608E-02  0.1235089E+00
          4   -1    0    0  501    0  0.00000000000E+00  0.00000000000E+00  0.68209945252E+01  0.69382178053E+01  0.12700000000E+01 0.  1.
         -4   -1    0    0    0  501 -0.00000000000E+00 -0.00000000000E+00 -0.56756771771E+03  0.56756913860E+03  0.12700000000E+01 0.  1.
         25    2    1    2    0    0  0.00000000000E+00  0.00000000000E+00 -0.56074672319E+03  0.57450735640E+03  0.12498725934E+03 0.  0.
    9000005    1    3    3    0    0 -0.32412812445E+01 -0.34736054611E+01  0.60121274315E+01  0.77277108679E+01  0.10000000000E+01 0.  0.
    9000005    1    3    3    0    0  0.32412812445E+01  0.34736054611E+01 -0.56675885062E+03  0.56677964554E+03  0.10000000000E+01 0.  0.
<mgrwt>
<rscale>  0 0.12498726E+03</rscale>
<asrwt>0</asrwt>
<pdfrwt beam="1">  1        4 0.10585107E-02 0.12498726E+03</pdfrwt>
<pdfrwt beam="2">  1       -4 0.87327200E-01 0.12498726E+03</pdfrwt>
<totfact> 0.50531500E+03</totfact>
</mgrwt>
</event>
<event>
 5    1  0.3227866E-002  0.1250007E+03  0.7818608E-02  0.1235068E+00
          4   -1    0    0  501    0  0.00000000000E+00  0.00000000000E+00  0.11482324505E+03  0.11483026823E+03  0.12700000000E+01 0.  1.
         -4   -1    0    0    0  501 -0.00000000000E+00 -0.00000000000E+00 -0.34000121739E+02  0.34023832504E+02  0.12700000000E+01 0.  1.
         25    2    1    2    0    0  0.00000000000E+00  0.00000000000E+00  0.80823123306E+02  0.14885410074E+03  0.12500066418E+03 0.  0.
    9000005    1    3    3    0    0  0.36818080653E+01  0.31655795345E+02 -0.23601829608E+02  0.39669780065E+02  0.10000000000E+01 0.  0.
    9000005    1    3    3    0    0 -0.36818080653E+01 -0.31655795345E+02  0.10442495291E+03  0.10918432067E+03  0.10000000000E+01 0.  0.
<mgrwt>
<rscale>  0 0.12500066E+03</rscale>
<asrwt>0</asrwt>
<pdfrwt beam="1">  1        4 0.17667479E-01 0.12500066E+03</pdfrwt>
<pdfrwt beam="2">  1       -4 0.52331520E-02 0.12500066E+03</pdfrwt>
<totfact> 0.99531119E+03</totfact>
</mgrwt>
</event>
<event>
 5    1  0.3227866E-002  0.1250027E+03  0.7818608E-02  0.1235065E+00
         -4   -1    0    0    0  501 -0.00000000000E+00  0.00000000000E+00  0.14151107742E+04  0.14151113440E+04  0.12700000000E+01 0.  1.
          4   -1    0    0  501    0  0.00000000000E+00 -0.00000000000E+00 -0.26138361698E+01  0.29060350174E+01  0.12700000000E+01 0.  1.
         25    2    1    2    0    0  0.00000000000E+00  0.00000000000E+00  0.14124969380E+04  0.14180173791E+04  0.12500274993E+03 0.  0.
    9000005    1    3    3    0    0  0.32748731155E+00  0.11441801910E+02  0.14031732966E+04  0.14032203399E+04  0.10000000000E+01 0.  0.
    9000005    1    3    3    0    0 -0.32748731155E+00 -0.11441801910E+02  0.93236414210E+01  0.14797039171E+02  0.10000000000E+01 0.  0.
<mgrwt>
<rscale>  0 0.12500275E+03</rscale>
<asrwt>0</asrwt>
<pdfrwt beam="2">  1        4 0.42464945E-03 0.12500275E+03</pdfrwt>
<pdfrwt beam="1">  1       -4 0.21773180E+00 0.12500275E+03</pdfrwt>
<totfact> 0.19596385E+03</totfact>
</mgrwt>
</event>
<event>
 5    1  0.3227866E-002  0.1250048E+03  0.7818608E-02  0.1235062E+00
          4   -1    0    0  501    0  0.00000000000E+00  0.00000000000E+00  0.57481585765E+02  0.57495613763E+02  0.12700000000E+01 0.  1.
         -4   -1    0    0    0  501 -0.00000000000E+00 -0.00000000000E+00 -0.67933480057E+02  0.67945350191E+02  0.12700000000E+01 0.  1.
         25    2    1    2    0    0  0.00000000000E+00  0.00000000000E+00 -0.10451894292E+02  0.12544096395E+03  0.12500477328E+03 0.  0.
    9000005    1    3    3    0    0  0.44016912598E+02 -0.41109085608E+02  0.11508658538E+02  0.61326134197E+02  0.10000000000E+01 0.  0.
    9000005    1    3    3    0    0 -0.44016912598E+02  0.41109085608E+02 -0.21960552830E+02  0.64114829757E+02  0.10000000000E+01 0.  0.
<mgrwt>
<rscale>  0 0.12500477E+03</rscale>
<asrwt>0</asrwt>
<pdfrwt beam="1">  1        4 0.88453131E-02 0.12500477E+03</pdfrwt>
<pdfrwt beam="2">  1       -4 0.10453297E-01 0.12500477E+03</pdfrwt>
<totfact> 0.10442136E+04</totfact>
</mgrwt>
</event>
<event>
 5    1  0.3227866E-002  0.1250059E+03  0.7818608E-02  0.1235060E+00
         -4   -1    0    0    0  501 -0.00000000000E+00  0.00000000000E+00  0.25401665074E+02  0.25433393177E+02  0.12700000000E+01 0. -1.
          4   -1    0    0  501    0  0.00000000000E+00 -0.00000000000E+00 -0.15366354278E+03  0.15366879084E+03  0.12700000000E+01 0. -1.
         25    2    1    2    0    0  0.00000000000E+00  0.00000000000E+00 -0.12826187770E+03  0.17910218402E+03  0.12500593205E+03 0.  0.
    9000005    1    3    3    0    0  0.24073648693E+02  0.39891356956E+02 -0.44562807951E+01  0.46815802457E+02  0.10000000000E+01 0.  0.
    9000005    1    3    3    0    0 -0.24073648693E+02 -0.39891356956E+02 -0.12380559691E+03  0.13228638156E+03  0.10000000000E+01 0.  0.
<mgrwt>
<rscale>  0 0.12500593E+03</rscale>
<asrwt>0</asrwt>
<pdfrwt beam="2">  1        4 0.23643389E-01 0.12500593E+03</pdfrwt>
<pdfrwt beam="1">  1       -4 0.39107929E-02 0.12500593E+03</pdfrwt>
<totfact> 0.93766390E+03</totfact>
</mgrwt>
</event>
<event>
 5    1  0.3227866E-002  0.1249958E+03  0.7818608E-02  0.1235076E+00
          4   -1    0    0  501    0  0.00000000000E+00  0.00000000000E+00  0.10524685512E+03  0.10525451730E+03  0.12700000000E+01 0.  1.
         -4   -1    0    0    0  501 -0.00000000000E+00 -0.00000000000E+00 -0.37092743470E+02  0.37114478551E+02  0.12700000000E+01 0.  1.
         25    2    1    2    0    0  0.00000000000E+00  0.00000000000E+00  0.68154111652E+02  0.14236899586E+03  0.12499579211E+03 0.  0.
    9000005    1    3    3    0    0 -0.37874983148E+02  0.26395524579E+02 -0.13892544935E+02  0.48220751457E+02  0.10000000000E+01 0.  0.
    9000005    1    3    3    0    0  0.37874983148E+02 -0.26395524579E+02  0.82046656587E+02  0.94148244399E+02  0.10000000000E+01 0.  0.
<mgrwt>
<rscale>  0 0.12499579E+03</rscale>
<asrwt>0</asrwt>
<pdfrwt beam="1">  1        4 0.16194085E-01 0.12499579E+03</pdfrwt>
<pdfrwt beam="2">  1       -4 0.57088372E-02 0.12499579E+03</pdfrwt>
<totfact> 0.10085677E+04</totfact>
</mgrwt>
</event>
<event>
 5    1  0.3227866E-002  0.1250012E+03  0.7818608E-02  0.1235067E+00
          4   -1    0    0  501    0  0.00000000000E+00  0.00000000000E+00  0.35951053076E+03  0.35951277394E+03  0.12700000000E+01 0.  1.
         -4   -1    0    0    0  501 -0.00000000000E+00 -0.00000000000E+00 -0.10826277511E+02  0.10900513050E+02  0.12700000000E+01 0.  1.
         25    2    1    2    0    0  0.00000000000E+00  0.00000000000E+00  0.34868425325E+03  0.37041328699E+03  0.12500117886E+03 0.  0.
    9000005    1    3    3    0    0  0.53552184444E+02 -0.31742774810E+02  0.15814313636E+03  0.16995791182E+03  0.10000000000E+01 0.  0.
    9000005    1    3    3    0    0 -0.53552184444E+02  0.31742774810E+02  0.19054111689E+03  0.20045537517E+03  0.10000000000E+01 0.  0.
<mgrwt>
<rscale>  0 0.12500118E+03</rscale>
<asrwt>0</asrwt>
<pdfrwt beam="1">  1        4 0.55315199E-01 0.12500118E+03</pdfrwt>
<pdfrwt beam="2">  1       -4 0.16714640E-02 0.12500118E+03</pdfrwt>
<totfact> 0.67533957E+03</totfact>
</mgrwt>
</event>
<event>
 5    1  0.3227866E-002  0.1249980E+03  0.7818608E-02  0.1235072E+00
         -4   -1    0    0    0  501 -0.00000000000E+00  0.00000000000E+00  0.32407782647E+03  0.32408031490E+03  0.12700000000E+01 0.  1.
          4   -1    0    0  501    0  0.00000000000E+00 -0.00000000000E+00 -0.12017058019E+02  0.12083980447E+02  0.12700000000E+01 0.  1.
         25    2    1    2    0    0  0.00000000000E+00  0.00000000000E+00  0.31206076845E+03  0.33616429535E+03  0.12499804104E+03 0.  0.
    9000005    1    3    3    0    0 -0.14686520095E+02  0.41531520162E+01 -0.69407375436E+01  0.16796320485E+02  0.10000000000E+01 0.  0.
    9000005    1    3    3    0    0  0.14686520095E+02 -0.41531520162E+01  0.31900150599E+03  0.31936797486E+03  0.10000000000E+01 0.  0.
<mgrwt>
<rscale>  0 0.12499804E+03</rscale>
<asrwt>0</asrwt>
<pdfrwt beam="2">  1        4 0.18541172E-02 0.12499804E+03</pdfrwt>
<pdfrwt beam="1">  1       -4 0.49863473E-01 0.12499804E+03</pdfrwt>
<totfact> 0.71277047E+03</totfact>
</mgrwt>
</event>
<event>
 5    1  0.3227866E-002  0.1249982E+03  0.7818608E-02  0.1235072E+00
          4   -1    0    0  501    0  0.00000000000E+00  0.00000000000E+00  0.10034019834E+02  0.10114072079E+02  0.12700000000E+01 0. -1.
         -4   -1    0    0    0  501 -0.00000000000E+00 -0.00000000000E+00 -0.38766145684E+03  0.38766353713E+03  0.12700000000E+01 0. -1.
         25    2    1    2    0    0  0.00000000000E+00  0.00000000000E+00 -0.37762743700E+03  0.39777760920E+03  0.12499818081E+03 0.  0.
    9000005    1    3    3    0    0 -0.29862425420E+02  0.44348212724E+02 -0.29176426122E+03  0.29662419414E+03  0.10000000000E+01 0.  0.
    9000005    1    3    3    0    0  0.29862425420E+02 -0.44348212724E+02 -0.85863175785E+02  0.10115341507E+03  0.10000000000E+01 0.  0.
<mgrwt>
<rscale>  0 0.12499818E+03</rscale>
<asrwt>0</asrwt>
<pdfrwt beam="1">  1        4 0.15500135E-02 0.12499818E+03</pdfrwt>
<pdfrwt beam="2">  1       -4 0.59646531E-01 0.12499818E+03</pdfrwt>
<totfact> 0.64772118E+03</totfact>
</mgrwt>
</event>
<event>
 5    1  0.3227866E-002  0.1249934E+03  0.7818608E-02  0.1235080E+00
         -4   -1    0    0    0  501 -0.00000000000E+00  0.00000000000E+00  0.60943046450E+03  0.60943178779E+03  0.12700000000E+01 0.  1.
          4   -1    0    0  501    0  0.00000000000E+00 -0.00000000000E+00 -0.63447397845E+01  0.64705967989E+01  0.12700000000E+01 0.  1.
         25    2    1    2    0    0  0.00000000000E+00  0.00000000000E+00  0.60308572472E+03  0.61590238459E+03  0.12499342374E+03 0.  0.
    9000005    1    3    3    0    0 -0.29665549477E+02 -0.16659116133E+02  0.43272104662E+02  0.55054936364E+02  0.10000000000E+01 0.  0.
    9000005    1    3    3    0    0  0.29665549477E+02  0.16659116133E+02  0.55981362006E+03  0.56084744822E+03  0.10000000000E+01 0.  0.
<mgrwt>
<rscale>  0 0.12499342E+03</rscale>
<asrwt>0</asrwt>
<pdfrwt beam="2">  1        4 0.98589659E-03 0.12499342E+03</pdfrwt>
<pdfrwt beam="1">  1       -4 0.93768347E-01 0.12499342E+03</pdfrwt>
<totfact> 0.47885839E+03</totfact>
</mgrwt>
</event>
<event>
 5    1  0.3227866E-002  0.1249998E+03  0.7818608E-02  0.1235070E+00
          4   -1    0    0  501    0  0.00000000000E+00  0.00000000000E+00  0.64759384513E+03  0.64759509043E+03  0.12700000000E+01 0.  1.
         -4   -1    0    0    0  501 -0.00000000000E+00 -0.00000000000E+00 -0.59638098520E+01  0.60975345797E+01  0.12700000000E+01 0.  1.
         25    2    1    2    0    0  0.00000000000E+00  0.00000000000E+00  0.64163003528E+03  0.65369262501E+03  0.12499978329E+03 0.  0.
    9000005    1    3    3    0    0  0.26331169733E+02  0.55525488779E+02  0.38017122919E+03  0.38510722391E+03  0.10000000000E+01 0.  0.
    9000005    1    3    3    0    0 -0.26331169733E+02 -0.55525488779E+02  0.26145880609E+03  0.26858540110E+03  0.10000000000E+01 0.  0.
<mgrwt>
<rscale>  0 0.12499978E+03</rscale>
<asrwt>0</asrwt>
<pdfrwt beam="1">  1        4 0.99640156E-01 0.12499978E+03</pdfrwt>
<pdfrwt beam="2">  1       -4 0.92789197E-03 0.12499978E+03</pdfrwt>
<totfact> 0.45644792E+03</totfact>
</mgrwt>
</event>
<event>
 5    1  0.3227866E-002  0.1249975E+03  0.7818608E-02  0.1235073E+00
         -4   -1    0    0    0  501 -0.00000000000E+00  0.00000000000E+00  0.11038103874E+03  0.11038834455E+03  0.12700000000E+01 0.  1.
          4   -1    0    0  501    0  0.00000000000E+00 -0.00000000000E+00 -0.35367494677E+02  0.35390289342E+02  0.12700000000E+01 0.  1.
         25    2    1    2    0    0  0.00000000000E+00  0.00000000000E+00  0.75013544061E+02  0.14577863389E+03  0.12499751320E+03 0.  0.
    9000005    1    3    3    0    0  0.24253193718E+02  0.53011719919E+02  0.11256127035E+02  0.59381480699E+02  0.10000000000E+01 0.  0.
    9000005    1    3    3    0    0 -0.24253193718E+02 -0.53011719919E+02  0.63757417026E+02  0.86397153194E+02  0.10000000000E+01 0.  0.
<mgrwt>
<rscale>  0 0.12499751E+03</rscale>
<asrwt>0</asrwt>
<pdfrwt beam="2">  1        4 0.54434685E-02 0.12499751E+03</pdfrwt>
<pdfrwt beam="1">  1       -4 0.16984013E-01 0.12499751E+03</pdfrwt>
<totfact> 0.10015753E+04</totfact>
</mgrwt>
</event>
<event>
 5    1  0.3227866E-002  0.1249993E+03  0.7818608E-02  0.1235070E+00
          4   -1    0    0  501    0  0.00000000000E+00  0.00000000000E+00  0.12229799624E+03  0.12230459020E+03  0.12700000000E+01 0. -1.
         -4   -1    0    0    0  501 -0.00000000000E+00 -0.00000000000E+00 -0.31920004575E+02  0.31945259305E+02  0.12700000000E+01 0. -1.
         25    2    1    2    0    0  0.00000000000E+00  0.00000000000E+00  0.90377991666E+02  0.15424984951E+03  0.12499933878E+03 0.  0.
    9000005    1    3    3    0    0  0.11511178921E+02  0.60439995420E+02  0.58690411982E+02  0.85035667488E+02  0.10000000000E+01 0.  0.
    9000005    1    3    3    0    0 -0.11511178921E+02 -0.60439995420E+02  0.31687579684E+02  0.69214182020E+02  0.10000000000E+01 0.  0.
<mgrwt>
<rscale>  0 0.12499934E+03</rscale>
<asrwt>0</asrwt>
<pdfrwt beam="1">  1        4 0.18817526E-01 0.12499934E+03</pdfrwt>
<pdfrwt beam="2">  1       -4 0.49132198E-02 0.12499934E+03</pdfrwt>
<totfact> 0.98464428E+03</totfact>
</mgrwt>
</event>
<event>
 5    1  0.3227866E-002  0.1249981E+03  0.7818608E-02  0.1235072E+00
         -4   -1    0    0    0  501 -0.00000000000E+00  0.00000000000E+00  0.23905007453E+02  0.23938719292E+02  0.12700000000E+01 0. -1.
          4   -1    0    0  501    0  0.00000000000E+00 -0.00000000000E+00 -0.16325086751E+03  0.16325580738E+03  0.12700000000E+01 0. -1.
         25    2    1    2    0    0  0.00000000000E+00  0.00000000000E+00 -0.13934586006E+03  0.18719452667E+03  0.12499808839E+03 0.  0.
    9000005    1    3    3    0    0  0.70010389865E+01 -0.54334242573E+02 -0.24648168157E+02  0.60081250456E+02  0.10000000000E+01 0.  0.
    9000005    1    3    3    0    0 -0.70010389865E+01  0.54334242573E+02 -0.11469769190E+03  0.12711327622E+03  0.10000000000E+01 0.  0.
<mgrwt>
<rscale>  0 0.12499809E+03</rscale>
<asrwt>0</asrwt>
<pdfrwt beam="2">  1        4 0.25118491E-01 0.12499809E+03</pdfrwt>
<pdfrwt beam="1">  1       -4 0.36806668E-02 0.12499809E+03</pdfrwt>
<totfact> 0.92341717E+03</totfact>
</mgrwt>
</event>
<event>
 5    1  0.3227866E-002  0.1250012E+03  0.7818608E-02  0.1235067E+00
          4   -1    0    0  501    0  0.00000000000E+00  0.00000000000E+00  0.40599280043E+02  0.40619138839E+02  0.12700000000E+01 0. -1.
         -4   -1    0    0    0  501 -0.00000000000E+00 -0.00000000000E+00 -0.96169076406E+02  0.96177461793E+02  0.12700000000E+01 0. -1.
         25    2    1    2    0    0  0.00000000000E+00  0.00000000000E+00 -0.55569796363E+02  0.13679660063E+03  0.12500123070E+03 0.  0.
    9000005    1    3    3    0    0 -0.48109503794E+02  0.39631875723E+02 -0.32693327287E+02  0.70392212479E+02  0.10000000000E+01 0.  0.
    9000005    1    3    3    0    0  0.48109503794E+02 -0.39631875723E+02 -0.22876469076E+02  0.66404388153E+02  0.10000000000E+01 0.  0.
<mgrwt>
<rscale>  0 0.12500123E+03</rscale>
<asrwt>0</asrwt>
<pdfrwt beam="1">  1        4 0.62482157E-02 0.12500123E+03</pdfrwt>
<pdfrwt beam="2">  1       -4 0.14797415E-01 0.12500123E+03</pdfrwt>
<totfact> 0.10200057E+04</totfact>
</mgrwt>
</event>
<event>
 5    1  0.3227866E-002  0.1249960E+03  0.7818608E-02  0.1235076E+00
         -4   -1    0    0    0  501 -0.00000000000E+00  0.00000000000E+00  0.99850346543E+02  0.99858422804E+02  0.12700000000E+01 0.  1.
          4   -1    0    0  501    0  0.00000000000E+00 -0.00000000000E+00 -0.39098570811E+02  0.39119191447E+02  0.12700000000E+01 0.  1.
         25    2    1    2    0    0  0.00000000000E+00  0.00000000000E+00  0.60751775733E+02  0.13897761425E+03  0.12499599597E+03 0.  0.
    9000005    1    3    3    0    0  0.13732451040E+02  0.47032718814E+02  0.73500199057E+02  0.88339889698E+02  0.10000000000E+01 0.  0.
    9000005    1    3    3    0    0 -0.13732451040E+02 -0.47032718814E+02 -0.12748423324E+02  0.50637724552E+02  0.10000000000E+01 0.  0.
<mgrwt>
<rscale>  0 0.12499600E+03</rscale>
<asrwt>0</asrwt>
<pdfrwt beam="2">  1        4 0.60173723E-02 0.12499600E+03</pdfrwt>
<pdfrwt beam="1">  1       -4 0.15363799E-01 0.12499600E+03</pdfrwt>
<totfact> 0.10155735E+04</totfact>
</mgrwt>
</event>
<event>
 5    1  0.3227866E-002  0.1249984E+03  0.7818608E-02  0.1235072E+00
          4   -1    0    0  501    0  0.00000000000E+00  0.00000000000E+00  0.70064126254E+01  0.71205840966E+01  0.12700000000E+01 0. -1.
         -4   -1    0    0    0  501 -0.00000000000E+00 -0.00000000000E+00 -0.55288992286E+03  0.55289138146E+03  0.12700000000E+01 0. -1.
         25    2    1    2    0    0  0.00000000000E+00  0.00000000000E+00 -0.54588351023E+03  0.56001196556E+03  0.12499837930E+03 0.  0.
    9000005    1    3    3    0    0  0.44584300752E+02  0.39036053121E+02 -0.36182233753E+03  0.36664421071E+03  0.10000000000E+01 0.  0.
    9000005    1    3    3    0    0 -0.44584300752E+02 -0.39036053121E+02 -0.18406117270E+03  0.19336775485E+03  0.10000000000E+01 0.  0.
<mgrwt>
<rscale>  0 0.12499838E+03</rscale>
<asrwt>0</asrwt>
<pdfrwt beam="1">  1        4 0.10868047E-02 0.12499838E+03</pdfrwt>
<pdfrwt beam="2">  1       -4 0.85068849E-01 0.12499838E+03</pdfrwt>
<totfact> 0.51494987E+03</totfact>
</mgrwt>
</event>
<event>
 5    1  0.3227866E-002  0.1249987E+03  0.7818608E-02  0.1235071E+00
         -4   -1    0    0    0  501 -0.00000000000E+00  0.00000000000E+00  0.46222365001E+01  0.47935342142E+01  0.12700000000E+01 0.  1.
          4   -1    0    0  501    0  0.00000000000E+00 -0.00000000000E+00 -0.82953628646E+03  0.82953725863E+03  0.12700000000E+01 0.  1.
         25    2    1    2    0    0  0.00000000000E+00  0.00000000000E+00 -0.82491404996E+03  0.83433079284E+03  0.12499872825E+03 0.  0.
    9000005    1    3    3    0    0  0.58062196961E+02  0.25197332226E+01 -0.25914147646E+03  0.26558025640E+03  0.10000000000E+01 0.  0.
    9000005    1    3    3    0    0 -0.58062196961E+02 -0.25197332226E+01 -0.56577257350E+03  0.56875053644E+03  0.10000000000E+01 0.  0.
<mgrwt>
<rscale>  0 0.12499873E+03</rscale>
<asrwt>0</asrwt>
<pdfrwt beam="2">  1        4 0.12763410E+00 0.12499873E+03</pdfrwt>
<pdfrwt beam="1">  1       -4 0.72436549E-03 0.12499873E+03</pdfrwt>
<totfact> 0.36778292E+03</totfact>
</mgrwt>
</event>
<event>
 5    1  0.3227866E-002  0.1249994E+03  0.7818608E-02  0.1235070E+00
         -4   -1    0    0    0  501 -0.00000000000E+00  0.00000000000E+00  0.30176226741E+01  0.32739802387E+01  0.12700000000E+01 0. -1.
          4   -1    0    0  501    0  0.00000000000E+00 -0.00000000000E+00 -0.12414664398E+04  0.12414670894E+04  0.12700000000E+01 0. -1.
         25    2    1    2    0    0  0.00000000000E+00  0.00000000000E+00 -0.12384488171E+04  0.12447410696E+04  0.12499943116E+03 0.  0.
    9000005    1    3    3    0    0 -0.82298748532E+01  0.26153684980E+02 -0.60026907363E+02  0.65999815800E+02  0.10000000000E+01 0.  0.
    9000005    1    3    3    0    0  0.82298748532E+01 -0.26153684980E+02 -0.11784219097E+04  0.11787412538E+04  0.10000000000E+01 0.  0.
<mgrwt>
<rscale>  0 0.12499943E+03</rscale>
<asrwt>0</asrwt>
<pdfrwt beam="2">  1        4 0.19101421E+00 0.12499943E+03</pdfrwt>
<pdfrwt beam="1">  1       -4 0.48402042E-03 0.12499943E+03</pdfrwt>
<totfact> 0.23571108E+03</totfact>
</mgrwt>
</event>
<event>
 5    1  0.3227866E-002  0.1249977E+03  0.7818608E-02  0.1235073E+00
         -4   -1    0    0    0  501 -0.00000000000E+00  0.00000000000E+00  0.31990290095E+03  0.31990542186E+03  0.12700000000E+01 0. -1.
          4   -1    0    0  501    0  0.00000000000E+00 -0.00000000000E+00 -0.12174689022E+02  0.12240749682E+02  0.12700000000E+01 0. -1.
         25    2    1    2    0    0  0.00000000000E+00  0.00000000000E+00  0.30772821193E+03  0.33214617154E+03  0.12499770740E+03 0.  0.
    9000005    1    3    3    0    0  0.27675349965E+02 -0.48263338634E+02  0.22948200958E+03  0.23613188597E+03  0.10000000000E+01 0.  0.
    9000005    1    3    3    0    0 -0.27675349965E+02  0.48263338634E+02  0.78246202347E+02  0.96014285570E+02  0.10000000000E+01 0.  0.
<mgrwt>
<rscale>  0 0.12499771E+03</rscale>
<asrwt>0</asrwt>
<pdfrwt beam="2">  1        4 0.18783046E-02 0.12499771E+03</pdfrwt>
<pdfrwt beam="1">  1       -4 0.49221107E-01 0.12499771E+03</pdfrwt>
<totfact> 0.71738053E+03</totfact>
</mgrwt>
</event>
<event>
 5    1  0.3227866E-002  0.1250024E+03  0.7818608E-02  0.1235066E+00
         -4   -1    0    0    0  501 -0.00000000000E+00  0.00000000000E+00  0.71375954654E+03  0.71376067641E+03  0.12700000000E+01 0.  1.
          4   -1    0    0  501    0  0.00000000000E+00 -0.00000000000E+00 -0.53981676946E+01  0.55455490674E+01  0.12700000000E+01 0.  1.
         25    2    1    2    0    0  0.00000000000E+00  0.00000000000E+00  0.70836137885E+03  0.71930622547E+03  0.12500241181E+03 0.  0.
    9000005    1    3    3    0    0 -0.51748458892E+02 -0.29343903242E+02  0.46433278551E+03  0.46812915243E+03  0.10000000000E+01 0.  0.
    9000005    1    3    3    0    0  0.51748458892E+02  0.29343903242E+02  0.24402859334E+03  0.25117707304E+03  0.10000000000E+01 0.  0.
<mgrwt>
<rscale>  0 0.12500241E+03</rscale>
<asrwt>0</asrwt>
<pdfrwt beam="2">  1        4 0.84191080E-03 0.12500241E+03</pdfrwt>
<pdfrwt beam="1">  1       -4 0.10982065E+00 0.12500241E+03</pdfrwt>
<totfact> 0.42084696E+03</totfact>
</mgrwt>
</event>
<event>
 5    1  0.3227866E-002  0.1249993E+03  0.7818608E-02  0.1235070E+00
          4   -1    0    0  501    0  0.00000000000E+00  0.00000000000E+00  0.14373125190E+02  0.14429124288E+02  0.12700000000E+01 0. -1.
         -4   -1    0    0    0  501 -0.00000000000E+00 -0.00000000000E+00 -0.27118548034E+03  0.27118845412E+03  0.12700000000E+01 0. -1.
         25    2    1    2    0    0  0.00000000000E+00  0.00000000000E+00 -0.25681235515E+03  0.28561757841E+03  0.12499926135E+03 0.  0.
    9000005    1    3    3    0    0  0.42664472062E+02  0.24850543755E+00 -0.23273841675E+03  0.23661886984E+03  0.10000000000E+01 0.  0.
    9000005    1    3    3    0    0 -0.42664472062E+02 -0.24850543755E+00 -0.24073938394E+02  0.48998708565E+02  0.10000000000E+01 0.  0.
<mgrwt>
<rscale>  0 0.12499926E+03</rscale>
<asrwt>0</asrwt>
<pdfrwt beam="1">  1        4 0.22157866E-02 0.12499926E+03</pdfrwt>
<pdfrwt beam="2">  1       -4 0.41725376E-01 0.12499926E+03</pdfrwt>
<totfact> 0.77440375E+03</totfact>
</mgrwt>
</event>
<event>
 5    1  0.3227866E-002  0.1249782E+03  0.7818608E-02  0.1235103E+00
          4   -1    0    0  501    0  0.00000000000E+00  0.00000000000E+00  0.10023980807E+03  0.10024785295E+03  0.12700000000E+01 0. -1.
         -4   -1    0    0    0  501 -0.00000000000E+00 -0.00000000000E+00 -0.38935499339E+02  0.38956206294E+02  0.12700000000E+01 0. -1.
         25    2    1    2    0    0  0.00000000000E+00  0.00000000000E+00  0.61304308729E+02  0.13920405925E+03  0.12497820547E+03 0.  0.
    9000005    1    3    3    0    0  0.12388999149E+02  0.10235568524E+02 -0.36599680223E+02  0.39984881585E+02  0.10000000000E+01 0.  0.
    9000005    1    3    3    0    0 -0.12388999149E+02 -0.10235568524E+02  0.97903988952E+02  0.99219177660E+02  0.10000000000E+01 0.  0.
<mgrwt>
<rscale>  0 0.12497821E+03</rscale>
<asrwt>0</asrwt>
<pdfrwt beam="1">  1        4 0.15423721E-01 0.12497821E+03</pdfrwt>
<pdfrwt beam="2">  1       -4 0.59922884E-02 0.12497821E+03</pdfrwt>
<totfact> 0.10155095E+04</totfact>
</mgrwt>
</event>
<event>
 5    1  0.3227866E-002  0.1250018E+03  0.7818608E-02  0.1235066E+00
          4   -1    0    0  501    0  0.00000000000E+00  0.00000000000E+00  0.31374593134E+03  0.31374850173E+03  0.12700000000E+01 0.  1.
         -4   -1    0    0    0  501 -0.00000000000E+00 -0.00000000000E+00 -0.12415711368E+02  0.12480496335E+02  0.12700000000E+01 0.  1.
         25    2    1    2    0    0  0.00000000000E+00  0.00000000000E+00  0.30133021998E+03  0.32622899806E+03  0.12500183081E+03 0.  0.
    9000005    1    3    3    0    0  0.34816902536E+02 -0.44714830749E+02  0.21940390870E+03  0.22660694593E+03  0.10000000000E+01 0.  0.
    9000005    1    3    3    0    0 -0.34816902536E+02  0.44714830749E+02  0.81926311272E+02  0.99622052126E+02  0.10000000000E+01 0.  0.
<mgrwt>
<rscale>  0 0.12500183E+03</rscale>
<asrwt>0</asrwt>
<pdfrwt beam="1">  1        4 0.48273784E-01 0.12500183E+03</pdfrwt>
<pdfrwt beam="2">  1       -4 0.19152907E-02 0.12500183E+03</pdfrwt>
<totfact> 0.72418405E+03</totfact>
</mgrwt>
</event>
<event>
 5    1  0.3227866E-002  0.1249949E+03  0.7818608E-02  0.1235077E+00
         -4   -1    0    0    0  501 -0.00000000000E+00  0.00000000000E+00  0.12989976541E+04  0.12989982749E+04  0.12700000000E+01 0.  1.
          4   -1    0    0  501    0  0.00000000000E+00 -0.00000000000E+00 -0.28721326867E+01  0.31403894934E+01  0.12700000000E+01 0.  1.
         25    2    1    2    0    0  0.00000000000E+00  0.00000000000E+00  0.12961255214E+04  0.13021386644E+04  0.12499493635E+03 0.  0.
    9000005    1    3    3    0    0  0.34692023827E+02 -0.19502721358E+02  0.11499500637E+04  0.11506389710E+04  0.10000000000E+01 0.  0.
    9000005    1    3    3    0    0 -0.34692023827E+02  0.19502721358E+02  0.14617545769E+03  0.15149969336E+03  0.10000000000E+01 0.  0.
<mgrwt>
<rscale>  0 0.12499494E+03</rscale>
<asrwt>0</asrwt>
<pdfrwt beam="2">  1        4 0.46254999E-03 0.12499494E+03</pdfrwt>
<pdfrwt beam="1">  1       -4 0.19986625E+00 0.12499494E+03</pdfrwt>
<totfact> 0.22180580E+03</totfact>
</mgrwt>
</event>
<event>
 5    1  0.3227866E-002  0.1250003E+03  0.7818608E-02  0.1235069E+00
          4   -1    0    0  501    0  0.00000000000E+00  0.00000000000E+00  0.24756806529E+01  0.27824260448E+01  0.12700000000E+01 0. -1.
         -4   -1    0    0    0  501 -0.00000000000E+00 -0.00000000000E+00 -0.14855008611E+04  0.14855014040E+04  0.12700000000E+01 0. -1.
         25    2    1    2    0    0  0.00000000000E+00  0.00000000000E+00 -0.14830251804E+04  0.14882838300E+04  0.12500029150E+03 0.  0.
    9000005    1    3    3    0    0 -0.39552004871E+02  0.27276309530E+02 -0.26572296599E+03  0.27003342905E+03  0.10000000000E+01 0.  0.
    9000005    1    3    3    0    0  0.39552004871E+02 -0.27276309530E+02 -0.12173022144E+04  0.12182504010E+04  0.10000000000E+01 0.  0.
<mgrwt>
<rscale>  0 0.12500029E+03</rscale>
<asrwt>0</asrwt>
<pdfrwt beam="1">  1        4 0.40451269E-03 0.12500029E+03</pdfrwt>
<pdfrwt beam="2">  1       -4 0.22856156E+00 0.12500029E+03</pdfrwt>
<totfact> 0.18161936E+03</totfact>
</mgrwt>
</event>
<event>
 5    1  0.3227866E-002  0.1250024E+03  0.7818608E-02  0.1235066E+00
         -4   -1    0    0    0  501 -0.00000000000E+00  0.00000000000E+00  0.16840703885E+04  0.16840708674E+04  0.12700000000E+01 0.  1.
          4   -1    0    0  501    0  0.00000000000E+00 -0.00000000000E+00 -0.21452699940E+01  0.24930068887E+01  0.12700000000E+01 0.  1.
         25    2    1    2    0    0  0.00000000000E+00  0.00000000000E+00  0.16819251185E+04  0.16865638743E+04  0.12500239074E+03 0.  0.
    9000005    1    3    3    0    0 -0.54671017944E+02  0.11914676835E+02  0.12164545756E+04  0.12177411935E+04  0.10000000000E+01 0.  0.
    9000005    1    3    3    0    0  0.54671017944E+02 -0.11914676835E+02  0.46547054293E+03  0.46882268083E+03  0.10000000000E+01 0.  0.
<mgrwt>
<rscale>  0 0.12500239E+03</rscale>
<asrwt>0</asrwt>
<pdfrwt beam="2">  1        4 0.35682689E-03 0.12500239E+03</pdfrwt>
<pdfrwt beam="1">  1       -4 0.25911488E+00 0.12500239E+03</pdfrwt>
<totfact> 0.14532520E+03</totfact>
</mgrwt>
</event>
<event>
 5    1  0.3227866E-002  0.1250037E+03  0.7818608E-02  0.1235063E+00
         -4   -1    0    0    0  501 -0.00000000000E+00  0.00000000000E+00  0.21093323510E+01  0.24621500699E+01  0.12700000000E+01 0. -1.
          4   -1    0    0  501    0  0.00000000000E+00 -0.00000000000E+00 -0.17087130837E+04  0.17087135557E+04  0.12700000000E+01 0. -1.
         25    2    1    2    0    0  0.00000000000E+00  0.00000000000E+00 -0.17066037513E+04  0.17111757057E+04  0.12500372704E+03 0.  0.
    9000005    1    3    3    0    0 -0.55124914055E+02  0.19698293298E+02 -0.11528076418E+04  0.11542933933E+04  0.10000000000E+01 0.  0.
    9000005    1    3    3    0    0  0.55124914055E+02 -0.19698293298E+02 -0.55379610954E+03  0.55688231238E+03  0.10000000000E+01 0.  0.
<mgrwt>
<rscale>  0 0.12500373E+03</rscale>
<asrwt>0</asrwt>
<pdfrwt beam="2">  1        4 0.26290509E+00 0.12500373E+03</pdfrwt>
<pdfrwt beam="1">  1       -4 0.35169016E-03 0.12500373E+03</pdfrwt>
<totfact> 0.14121262E+03</totfact>
</mgrwt>
</event>
<event>
 5    1  0.3227866E-002  0.1249989E+03  0.7818608E-02  0.1235071E+00
         -4   -1    0    0    0  501 -0.00000000000E+00  0.00000000000E+00  0.64555680384E+01  0.65793053356E+01  0.12700000000E+01 0.  1.
          4   -1    0    0  501    0  0.00000000000E+00 -0.00000000000E+00 -0.59921847724E+03  0.59921982307E+03  0.12700000000E+01 0.  1.
         25    2    1    2    0    0  0.00000000000E+00  0.00000000000E+00 -0.59276290920E+03  0.60579912841E+03  0.12499886983E+03 0.  0.
    9000005    1    3    3    0    0  0.36411724566E+02 -0.33909316074E+02 -0.11314230080E+03  0.12360354215E+03  0.10000000000E+01 0.  0.
    9000005    1    3    3    0    0 -0.36411724566E+02  0.33909316074E+02 -0.47962060840E+03  0.48219558626E+03  0.10000000000E+01 0.  0.
<mgrwt>
<rscale>  0 0.12499887E+03</rscale>
<asrwt>0</asrwt>
<pdfrwt beam="2">  1        4 0.92197036E-01 0.12499887E+03</pdfrwt>
<pdfrwt beam="1">  1       -4 0.10027866E-02 0.12499887E+03</pdfrwt>
<totfact> 0.48504806E+03</totfact>
</mgrwt>
</event>
<event>
 5    1  0.3227866E-002  0.1250010E+03  0.7818608E-02  0.1235068E+00
         -4   -1    0    0    0  501 -0.00000000000E+00  0.00000000000E+00  0.17244742788E+01  0.21416609298E+01  0.12700000000E+01 0.  1.
          4   -1    0    0  501    0  0.00000000000E+00 -0.00000000000E+00 -0.20203672698E+04  0.20203676689E+04  0.12700000000E+01 0.  1.
         25    2    1    2    0    0  0.00000000000E+00  0.00000000000E+00 -0.20186427955E+04  0.20225093299E+04  0.12500101432E+03 0.  0.
    9000005    1    3    3    0    0 -0.44736830660E+02  0.27582692450E+02 -0.46227551404E+03  0.46525459677E+03  0.10000000000E+01 0.  0.
    9000005    1    3    3    0    0  0.44736830660E+02 -0.27582692450E+02 -0.15563672815E+04  0.15572547331E+04  0.10000000000E+01 0.  0.
<mgrwt>
<rscale>  0 0.12500101E+03</rscale>
<asrwt>0</asrwt>
<pdfrwt beam="2">  1        4 0.31085617E+00 0.12500101E+03</pdfrwt>
<pdfrwt beam="1">  1       -4 0.29742734E-03 0.12500101E+03</pdfrwt>
<totfact> 0.95701672E+02</totfact>
</mgrwt>
</event>
<event>
 5    1  0.3227866E-002  0.1250349E+03  0.7818608E-02  0.1235015E+00
          4   -1    0    0  501    0  0.00000000000E+00  0.00000000000E+00  0.27653082825E+03  0.27653374455E+03  0.12700000000E+01 0.  1.
         -4   -1    0    0    0  501 -0.00000000000E+00 -0.00000000000E+00 -0.14102273130E+02  0.14159343467E+02  0.12700000000E+01 0.  1.
         25    2    1    2    0    0  0.00000000000E+00  0.00000000000E+00  0.26242855512E+03  0.29069308801E+03  0.12503489463E+03 0.  0.
    9000005    1    3    3    0    0  0.12191500377E+02 -0.60921092523E+02  0.11520470355E+03  0.13089360533E+03  0.10000000000E+01 0.  0.
    9000005    1    3    3    0    0 -0.12191500377E+02  0.60921092523E+02  0.14722385157E+03  0.15979948268E+03  0.10000000000E+01 0.  0.
<mgrwt>
<rscale>  0 0.12503489E+03</rscale>
<asrwt>0</asrwt>
<pdfrwt beam="1">  1        4 0.42547819E-01 0.12503489E+03</pdfrwt>
<pdfrwt beam="2">  1       -4 0.21741948E-02 0.12503489E+03</pdfrwt>
<totfact> 0.76721826E+03</totfact>
</mgrwt>
</event>
<event>
 5    1  0.3227866E-002  0.1249991E+03  0.7818608E-02  0.1235071E+00
          4   -1    0    0  501    0  0.00000000000E+00  0.00000000000E+00  0.67376006752E+01  0.68562499122E+01  0.12700000000E+01 0.  1.
         -4   -1    0    0    0  501 -0.00000000000E+00 -0.00000000000E+00 -0.57458120041E+03  0.57458260396E+03  0.12700000000E+01 0.  1.
         25    2    1    2    0    0  0.00000000000E+00  0.00000000000E+00 -0.56784359974E+03  0.58143885387E+03  0.12499914809E+03 0.  0.
    9000005    1    3    3    0    0 -0.62106882110E+02  0.57771241606E+00 -0.25183013442E+03  0.25937813161E+03  0.10000000000E+01 0.  0.
    9000005    1    3    3    0    0  0.62106882110E+02 -0.57771241606E+00 -0.31601346532E+03  0.32206072225E+03  0.10000000000E+01 0.  0.
<mgrwt>
<rscale>  0 0.12499915E+03</rscale>
<asrwt>0</asrwt>
<pdfrwt beam="1">  1        4 0.10457892E-02 0.12499915E+03</pdfrwt>
<pdfrwt beam="2">  1       -4 0.88406304E-01 0.12499915E+03</pdfrwt>
<totfact> 0.50061554E+03</totfact>
</mgrwt>
</event>
<event>
 5    1  0.3227866E-002  0.1250025E+03  0.7818608E-02  0.1235065E+00
         -4   -1    0    0    0  501 -0.00000000000E+00  0.00000000000E+00  0.98118930561E+03  0.98119012752E+03  0.12700000000E+01 0. -1.
          4   -1    0    0  501    0  0.00000000000E+00 -0.00000000000E+00 -0.38791726025E+01  0.40817741338E+01  0.12700000000E+01 0. -1.
         25    2    1    2    0    0  0.00000000000E+00  0.00000000000E+00  0.97731013301E+03  0.98527190166E+03  0.12500249642E+03 0.  0.
    9000005    1    3    3    0    0  0.49747843975E+02 -0.36045275972E+02  0.57897079094E+03  0.58222185347E+03  0.10000000000E+01 0.  0.
    9000005    1    3    3    0    0 -0.49747843975E+02  0.36045275972E+02  0.39833934207E+03  0.40305004819E+03  0.10000000000E+01 0.  0.
<mgrwt>
<rscale>  0 0.12500250E+03</rscale>
<asrwt>0</asrwt>
<pdfrwt beam="2">  1        4 0.61244360E-03 0.12500250E+03</pdfrwt>
<pdfrwt beam="1">  1       -4 0.15096788E+00 0.12500250E+03</pdfrwt>
<totfact> 0.31094126E+03</totfact>
</mgrwt>
</event>
<event>
 5    1  0.3227866E-002  0.1249606E+03  0.7818608E-02  0.1235131E+00
         -4   -1    0    0    0  501 -0.00000000000E+00  0.00000000000E+00  0.30598155889E+02  0.30624500711E+02  0.12700000000E+01 0. -1.
          4   -1    0    0  501    0  0.00000000000E+00 -0.00000000000E+00 -0.12749812977E+03  0.12750445481E+03  0.12700000000E+01 0. -1.
         25    2    1    2    0    0  0.00000000000E+00  0.00000000000E+00 -0.96899973883E+02  0.15812895552E+03  0.12496064034E+03 0.  0.
    9000005    1    3    3    0    0 -0.57702103440E+02  0.57016550764E+01 -0.77876306103E+02  0.97096656298E+02  0.10000000000E+01 0.  0.
    9000005    1    3    3    0    0  0.57702103440E+02 -0.57016550764E+01 -0.19023667780E+02  0.61032299218E+02  0.10000000000E+01 0.  0.
<mgrwt>
<rscale>  0 0.12496064E+03</rscale>
<asrwt>0</asrwt>
<pdfrwt beam="2">  1        4 0.19617610E-01 0.12496064E+03</pdfrwt>
<pdfrwt beam="1">  1       -4 0.47099217E-02 0.12496064E+03</pdfrwt>
<totfact> 0.97791233E+03</totfact>
</mgrwt>
</event>
<event>
 5    1  0.3227866E-002  0.1249961E+03  0.7818608E-02  0.1235075E+00
          4   -1    0    0  501    0  0.00000000000E+00  0.00000000000E+00  0.13969297385E+02  0.14026908762E+02  0.12700000000E+01 0. -1.
         -4   -1    0    0    0  501 -0.00000000000E+00 -0.00000000000E+00 -0.27897934915E+03  0.27898223985E+03  0.12700000000E+01 0. -1.
         25    2    1    2    0    0  0.00000000000E+00  0.00000000000E+00 -0.26501005176E+03  0.29300914861E+03  0.12499613448E+03 0.  0.
    9000005    1    3    3    0    0 -0.46412180461E+02 -0.24824536929E+02 -0.53543137870E+02  0.75088053257E+02  0.10000000000E+01 0.  0.
    9000005    1    3    3    0    0  0.46412180461E+02  0.24824536929E+02 -0.21146691389E+03  0.21792109535E+03  0.10000000000E+01 0.  0.
<mgrwt>
<rscale>  0 0.12499613E+03</rscale>
<asrwt>0</asrwt>
<pdfrwt beam="1">  1        4 0.21537769E-02 0.12499613E+03</pdfrwt>
<pdfrwt beam="2">  1       -4 0.42924550E-01 0.12499613E+03</pdfrwt>
<totfact> 0.76490778E+03</totfact>
</mgrwt>
</event>
<event>
 5    1  0.3227866E-002  0.1249989E+03  0.7818608E-02  0.1235071E+00
          4   -1    0    0  501    0  0.00000000000E+00  0.00000000000E+00  0.44081406854E+02  0.44099697621E+02  0.12700000000E+01 0. -1.
         -4   -1    0    0    0  501 -0.00000000000E+00 -0.00000000000E+00 -0.88571735361E+02  0.88580839942E+02  0.12700000000E+01 0. -1.
         25    2    1    2    0    0  0.00000000000E+00  0.00000000000E+00 -0.44490328507E+02  0.13268053756E+03  0.12499894287E+03 0.  0.
    9000005    1    3    3    0    0  0.33495868454E+02 -0.39635603641E+02 -0.59201876921E+02  0.78732563215E+02  0.10000000000E+01 0.  0.
    9000005    1    3    3    0    0 -0.33495868454E+02  0.39635603641E+02  0.14711548414E+02  0.53947974348E+02  0.10000000000E+01 0.  0.
<mgrwt>
<rscale>  0 0.12499894E+03</rscale>
<asrwt>0</asrwt>
<pdfrwt beam="1">  1        4 0.67838622E-02 0.12499894E+03</pdfrwt>
<pdfrwt beam="2">  1       -4 0.13628528E-01 0.12499894E+03</pdfrwt>
<totfact> 0.10287439E+04</totfact>
</mgrwt>
</event>
<event>
 5    1  0.3227866E-002  0.1249983E+03  0.7818608E-02  0.1235072E+00
         -4   -1    0    0    0  501 -0.00000000000E+00  0.00000000000E+00  0.19420204544E+02  0.19461686580E+02  0.12700000000E+01 0.  1.
          4   -1    0    0  501    0  0.00000000000E+00 -0.00000000000E+00 -0.20087997867E+03  0.20088399322E+03  0.12700000000E+01 0.  1.
         25    2    1    2    0    0  0.00000000000E+00  0.00000000000E+00 -0.18145977413E+03  0.22034567980E+03  0.12499827590E+03 0.  0.
    9000005    1    3    3    0    0  0.46515190828E+02 -0.19804014817E+02 -0.25978123525E+02  0.56848261913E+02  0.10000000000E+01 0.  0.
    9000005    1    3    3    0    0 -0.46515190828E+02  0.19804014817E+02 -0.15548165060E+03  0.16349741788E+03  0.10000000000E+01 0.  0.
<mgrwt>
<rscale>  0 0.12499828E+03</rscale>
<asrwt>0</asrwt>
<pdfrwt beam="2">  1        4 0.30908110E-01 0.12499828E+03</pdfrwt>
<pdfrwt beam="1">  1       -4 0.29912237E-02 0.12499828E+03</pdfrwt>
<totfact> 0.86817024E+03</totfact>
</mgrwt>
</event>
<event>
 5    1  0.3227866E-002  0.1249978E+03  0.7818608E-02  0.1235073E+00
          4   -1    0    0  501    0  0.00000000000E+00  0.00000000000E+00  0.37192255998E+02  0.37213932958E+02  0.12700000000E+01 0. -1.
         -4   -1    0    0    0  501 -0.00000000000E+00 -0.00000000000E+00 -0.10496883456E+03  0.10497651704E+03  0.12700000000E+01 0. -1.
         25    2    1    2    0    0  0.00000000000E+00  0.00000000000E+00 -0.67776578563E+02  0.14219044999E+03  0.12499783785E+03 0.  0.
    9000005    1    3    3    0    0  0.47234187042E+01 -0.58327357966E+02 -0.89471893661E+01  0.59206786513E+02  0.10000000000E+01 0.  0.
    9000005    1    3    3    0    0 -0.47234187042E+01  0.58327357966E+02 -0.58829389197E+02  0.82983663482E+02  0.10000000000E+01 0.  0.
<mgrwt>
<rscale>  0 0.12499784E+03</rscale>
<asrwt>0</asrwt>
<pdfrwt beam="1">  1        4 0.57241440E-02 0.12499784E+03</pdfrwt>
<pdfrwt beam="2">  1       -4 0.16151310E-01 0.12499784E+03</pdfrwt>
<totfact> 0.10088879E+04</totfact>
</mgrwt>
</event>
<event>
 5    1  0.3227866E-002  0.1249970E+03  0.7818608E-02  0.1235074E+00
         -4   -1    0    0    0  501 -0.00000000000E+00  0.00000000000E+00  0.27190793680E+02  0.27220436458E+02  0.12700000000E+01 0. -1.
          4   -1    0    0  501    0  0.00000000000E+00 -0.00000000000E+00 -0.14354306230E+03  0.14354868037E+03  0.12700000000E+01 0. -1.
         25    2    1    2    0    0  0.00000000000E+00  0.00000000000E+00 -0.11635226862E+03  0.17076911683E+03  0.12499696335E+03 0.  0.
    9000005    1    3    3    0    0  0.42052742264E+02 -0.43579325839E+02 -0.37123146773E+02  0.71040261816E+02  0.10000000000E+01 0.  0.
    9000005    1    3    3    0    0 -0.42052742264E+02  0.43579325839E+02 -0.79229121852E+02  0.99728855012E+02  0.10000000000E+01 0.  0.
<mgrwt>
<rscale>  0 0.12499696E+03</rscale>
<asrwt>0</asrwt>
<pdfrwt beam="2">  1        4 0.22086260E-01 0.12499696E+03</pdfrwt>
<pdfrwt beam="1">  1       -4 0.41859115E-02 0.12499696E+03</pdfrwt>
<totfact> 0.95311973E+03</totfact>
</mgrwt>
</event>
<event>
 5    1  0.3227866E-002  0.1249982E+03  0.7818608E-02  0.1235072E+00
          4   -1    0    0  501    0  0.00000000000E+00  0.00000000000E+00  0.18166102654E+03  0.18166546580E+03  0.12700000000E+01 0.  1.
         -4   -1    0    0    0  501 -0.00000000000E+00 -0.00000000000E+00 -0.21478890577E+02  0.21516403985E+02  0.12700000000E+01 0.  1.
         25    2    1    2    0    0  0.00000000000E+00  0.00000000000E+00  0.16018213596E+03  0.20318186978E+03  0.12499822209E+03 0.  0.
    9000005    1    3    3    0    0  0.39115893812E+02 -0.20777559824E+02  0.15174826903E+03  0.15808319738E+03  0.10000000000E+01 0.  0.
    9000005    1    3    3    0    0 -0.39115893812E+02  0.20777559824E+02  0.84338669351E+01  0.45098672402E+02  0.10000000000E+01 0.  0.
<mgrwt>
<rscale>  0 0.12499822E+03</rscale>
<asrwt>0</asrwt>
<pdfrwt beam="1">  1        4 0.27951077E-01 0.12499822E+03</pdfrwt>
<pdfrwt beam="2">  1       -4 0.33076719E-02 0.12499822E+03</pdfrwt>
<totfact> 0.89605183E+03</totfact>
</mgrwt>
</event>
<event>
 5    1  0.3227866E-002  0.1250043E+03  0.7818608E-02  0.1235063E+00
          4   -1    0    0  501    0  0.00000000000E+00  0.00000000000E+00  0.48428295351E+02  0.48444944943E+02  0.12700000000E+01 0. -1.
         -4   -1    0    0    0  501 -0.00000000000E+00 -0.00000000000E+00 -0.80630481865E+02  0.80640483045E+02  0.12700000000E+01 0. -1.
         25    2    1    2    0    0  0.00000000000E+00  0.00000000000E+00 -0.32202186514E+02  0.12908542799E+03  0.12500426754E+03 0.  0.
    9000005    1    3    3    0    0  0.44018367787E+02  0.46622937678E+01 -0.61656716185E+02  0.75907208726E+02  0.10000000000E+01 0.  0.
    9000005    1    3    3    0    0 -0.44018367787E+02 -0.46622937678E+01  0.29454529671E+02  0.53178219263E+02  0.10000000000E+01 0.  0.
<mgrwt>
<rscale>  0 0.12500427E+03</rscale>
<asrwt>0</asrwt>
<pdfrwt beam="1">  1        4 0.74525570E-02 0.12500427E+03</pdfrwt>
<pdfrwt beam="2">  1       -4 0.12406740E-01 0.12500427E+03</pdfrwt>
<totfact> 0.10363113E+04</totfact>
</mgrwt>
</event>
<event>
 5    1  0.3227866E-002  0.1249992E+03  0.7818608E-02  0.1235071E+00
         -4   -1    0    0    0  501 -0.00000000000E+00  0.00000000000E+00  0.59818783364E+02  0.59832263397E+02  0.12700000000E+01 0.  1.
          4   -1    0    0  501    0  0.00000000000E+00 -0.00000000000E+00 -0.65273555672E+02  0.65285909430E+02  0.12700000000E+01 0.  1.
         25    2    1    2    0    0  0.00000000000E+00  0.00000000000E+00 -0.54547723080E+01  0.12511817283E+03  0.12499921052E+03 0.  0.
    9000005    1    3    3    0    0  0.35344933440E+02  0.32742866281E+02 -0.42562762105E+02  0.64295787811E+02  0.10000000000E+01 0.  0.
    9000005    1    3    3    0    0 -0.35344933440E+02 -0.32742866281E+02  0.37107989797E+02  0.60822385016E+02  0.10000000000E+01 0.  0.
<mgrwt>
<rscale>  0 0.12499921E+03</rscale>
<asrwt>0</asrwt>
<pdfrwt beam="2">  1        4 0.10044073E-01 0.12499921E+03</pdfrwt>
<pdfrwt beam="1">  1       -4 0.92048771E-02 0.12499921E+03</pdfrwt>
<totfact> 0.10450483E+04</totfact>
</mgrwt>
</event>
<event>
 5    1  0.3227866E-002  0.1249931E+03  0.7818608E-02  0.1235080E+00
          4   -1    0    0  501    0  0.00000000000E+00  0.00000000000E+00  0.63690324830E+01  0.64944187399E+01  0.12700000000E+01 0. -1.
         -4   -1    0    0    0  501 -0.00000000000E+00 -0.00000000000E+00 -0.60714807812E+03  0.60714940638E+03  0.12700000000E+01 0. -1.
         25    2    1    2    0    0  0.00000000000E+00  0.00000000000E+00 -0.60077904564E+03  0.61364382512E+03  0.12499312952E+03 0.  0.
    9000005    1    3    3    0    0  0.90140758316E+01 -0.16014783712E+02 -0.59360540348E+03  0.59389064810E+03  0.10000000000E+01 0.  0.
    9000005    1    3    3    0    0 -0.90140758316E+01  0.16014783712E+02 -0.71736421555E+01  0.19753177016E+02  0.10000000000E+01 0.  0.
<mgrwt>
<rscale>  0 0.12499313E+03</rscale>
<asrwt>0</asrwt>
<pdfrwt beam="1">  1        4 0.98959890E-03 0.12499313E+03</pdfrwt>
<pdfrwt beam="2">  1       -4 0.93417099E-01 0.12499313E+03</pdfrwt>
<totfact> 0.48024795E+03</totfact>
</mgrwt>
</event>
<event>
 5    1  0.3227866E-002  0.1249994E+03  0.7818608E-02  0.1235070E+00
          4   -1    0    0  501    0  0.00000000000E+00  0.00000000000E+00  0.11641942039E+03  0.11642634730E+03  0.12700000000E+01 0.  1.
         -4   -1    0    0    0  501 -0.00000000000E+00 -0.00000000000E+00 -0.33532976280E+02  0.33557017123E+02  0.12700000000E+01 0.  1.
         25    2    1    2    0    0  0.00000000000E+00  0.00000000000E+00  0.82886444114E+02  0.14998336442E+03  0.12499938794E+03 0.  0.
    9000005    1    3    3    0    0  0.26334048636E+02  0.42006037030E+01  0.10925551188E+03  0.11246730221E+03  0.10000000000E+01 0.  0.
    9000005    1    3    3    0    0 -0.26334048636E+02 -0.42006037030E+01 -0.26369067768E+02  0.37516062213E+02  0.10000000000E+01 0.  0.
<mgrwt>
<rscale>  0 0.12499939E+03</rscale>
<asrwt>0</asrwt>
<pdfrwt beam="1">  1        4 0.17913062E-01 0.12499939E+03</pdfrwt>
<pdfrwt beam="2">  1       -4 0.51613015E-02 0.12499939E+03</pdfrwt>
<totfact> 0.99308382E+03</totfact>
</mgrwt>
</event>
<event>
 5    1  0.3227866E-002  0.1250020E+03  0.7818608E-02  0.1235066E+00
         -4   -1    0    0    0  501 -0.00000000000E+00  0.00000000000E+00  0.14104879160E+02  0.14161938996E+02  0.12700000000E+01 0. -1.
          4   -1    0    0  501    0  0.00000000000E+00 -0.00000000000E+00 -0.27633466203E+03  0.27633758040E+03  0.12700000000E+01 0. -1.
         25    2    1    2    0    0  0.00000000000E+00  0.00000000000E+00 -0.26222978287E+03  0.29049951939E+03  0.12500204695E+03 0.  0.
    9000005    1    3    3    0    0  0.40113957597E+02  0.44529509985E+02 -0.17225427236E+03  0.18238569352E+03  0.10000000000E+01 0.  0.
    9000005    1    3    3    0    0 -0.40113957597E+02 -0.44529509985E+02 -0.89975510507E+02  0.10811382587E+03  0.10000000000E+01 0.  0.
<mgrwt>
<rscale>  0 0.12500205E+03</rscale>
<asrwt>0</asrwt>
<pdfrwt beam="2">  1        4 0.42517634E-01 0.12500205E+03</pdfrwt>
<pdfrwt beam="1">  1       -4 0.21745953E-02 0.12500205E+03</pdfrwt>
<totfact> 0.76802737E+03</totfact>
</mgrwt>
</event>
<event>
 5    1  0.3227866E-002  0.1249973E+03  0.7818608E-02  0.1235073E+00
         -4   -1    0    0    0  501 -0.00000000000E+00  0.00000000000E+00  0.94325575099E+02  0.94334124354E+02  0.12700000000E+01 0.  1.
          4   -1    0    0  501    0  0.00000000000E+00 -0.00000000000E+00 -0.41390485972E+02  0.41409965334E+02  0.12700000000E+01 0.  1.
         25    2    1    2    0    0  0.00000000000E+00  0.00000000000E+00  0.52935089127E+02  0.13574408969E+03  0.12499733687E+03 0.  0.
    9000005    1    3    3    0    0 -0.47614816767E+02 -0.35288548159E+02  0.47986071831E+02  0.76263461085E+02  0.10000000000E+01 0.  0.
    9000005    1    3    3    0    0  0.47614816767E+02  0.35288548159E+02  0.49490172961E+01  0.59480628604E+02  0.10000000000E+01 0.  0.
<mgrwt>
<rscale>  0 0.12499734E+03</rscale>
<asrwt>0</asrwt>
<pdfrwt beam="2">  1        4 0.63699232E-02 0.12499734E+03</pdfrwt>
<pdfrwt beam="1">  1       -4 0.14513783E-01 0.12499734E+03</pdfrwt>
<totfact> 0.10223025E+04</totfact>
</mgrwt>
</event>
<event>
 5    1  0.3227866E-002  0.1250012E+03  0.7818608E-02  0.1235067E+00
         -4   -1    0    0    0  501 -0.00000000000E+00  0.00000000000E+00  0.21998558629E+03  0.21998925218E+03  0.12700000000E+01 0.  1.
          4   -1    0    0  501    0  0.00000000000E+00 -0.00000000000E+00 -0.17730670804E+02  0.17776095948E+02  0.12700000000E+01 0.  1.
         25    2    1    2    0    0  0.00000000000E+00  0.00000000000E+00  0.20225491549E+03  0.23776534813E+03  0.12500123973E+03 0.  0.
    9000005    1    3    3    0    0  0.35511397167E+01  0.13381046869E+02 -0.14786456685E+02  0.20280589486E+02  0.10000000000E+01 0.  0.
    9000005    1    3    3    0    0 -0.35511397167E+01 -0.13381046869E+02  0.21704137217E+03  0.21748475865E+03  0.10000000000E+01 0.  0.
<mgrwt>
<rscale>  0 0.12500124E+03</rscale>
<asrwt>0</asrwt>
<pdfrwt beam="2">  1        4 0.27315717E-02 0.12500124E+03</pdfrwt>
<pdfrwt beam="1">  1       -4 0.33847713E-01 0.12500124E+03</pdfrwt>
<totfact> 0.84128982E+03</totfact>
</mgrwt>
</event>
<event>
 5    1  0.3227866E-002  0.1249935E+03  0.7818608E-02  0.1235079E+00
          4   -1    0    0  501    0  0.00000000000E+00  0.00000000000E+00  0.13720304749E+02  0.13778957232E+02  0.12700000000E+01 0. -1.
         -4   -1    0    0    0  501 -0.00000000000E+00 -0.00000000000E+00 -0.28400884375E+03  0.28401168326E+03  0.12700000000E+01 0. -1.
         25    2    1    2    0    0  0.00000000000E+00  0.00000000000E+00 -0.27028853900E+03  0.29779064050E+03  0.12499348483E+03 0.  0.
    9000005    1    3    3    0    0 -0.17343542358E+02 -0.21787886570E+02 -0.26841952148E+03  0.26986209436E+03  0.10000000000E+01 0.  0.
    9000005    1    3    3    0    0  0.17343542358E+02  0.21787886570E+02 -0.18690175267E+01  0.27928546135E+02  0.10000000000E+01 0.  0.
<mgrwt>
<rscale>  0 0.12499348E+03</rscale>
<asrwt>0</asrwt>
<pdfrwt beam="1">  1        4 0.21155465E-02 0.12499348E+03</pdfrwt>
<pdfrwt beam="2">  1       -4 0.43698394E-01 0.12499348E+03</pdfrwt>
<totfact> 0.75887794E+03</totfact>
</mgrwt>
</event>
<event>
 5    1  0.3227866E-002  0.1249947E+03  0.7818608E-02  0.1235078E+00
         -4   -1    0    0    0  501 -0.00000000000E+00  0.00000000000E+00  0.76590756622E+02  0.76601285236E+02  0.12700000000E+01 0.  1.
          4   -1    0    0  501    0  0.00000000000E+00 -0.00000000000E+00 -0.50975295211E+02  0.50991113165E+02  0.12700000000E+01 0.  1.
         25    2    1    2    0    0  0.00000000000E+00  0.00000000000E+00  0.25615461411E+02  0.12759239840E+03  0.12499467295E+03 0.  0.
    9000005    1    3    3    0    0 -0.48776343553E+02  0.23631907213E+02 -0.18940388844E+02  0.57422443857E+02  0.10000000000E+01 0.  0.
    9000005    1    3    3    0    0  0.48776343553E+02 -0.23631907213E+02  0.44555850254E+02  0.70169954545E+02  0.10000000000E+01 0.  0.
<mgrwt>
<rscale>  0 0.12499467E+03</rscale>
<asrwt>0</asrwt>
<pdfrwt beam="2">  1        4 0.78443798E-02 0.12499467E+03</pdfrwt>
<pdfrwt beam="1">  1       -4 0.11785220E-01 0.12499467E+03</pdfrwt>
<totfact> 0.10397550E+04</totfact>
</mgrwt>
</event>
<event>
 5    1  0.3227866E-002  0.1250011E+03  0.7818608E-02  0.1235068E+00
         -4   -1    0    0    0  501 -0.00000000000E+00  0.00000000000E+00  0.12734924163E+02  0.12798093351E+02  0.12700000000E+01 0. -1.
          4   -1    0    0  501    0  0.00000000000E+00 -0.00000000000E+00 -0.30591719892E+03  0.30591983507E+03  0.12700000000E+01 0. -1.
         25    2    1    2    0    0  0.00000000000E+00  0.00000000000E+00 -0.29318227475E+03  0.31871792843E+03  0.12500108668E+03 0.  0.
    9000005    1    3    3    0    0 -0.24776640927E+02 -0.43440855951E+02 -0.24214032204E+03  0.24725275623E+03  0.10000000000E+01 0.  0.
    9000005    1    3    3    0    0  0.24776640927E+02  0.43440855951E+02 -0.51041952708E+02  0.71465172200E+02  0.10000000000E+01 0.  0.
<mgrwt>
<rscale>  0 0.12500109E+03</rscale>
<asrwt>0</asrwt>
<pdfrwt beam="2">  1        4 0.47069241E-01 0.12500109E+03</pdfrwt>
<pdfrwt beam="1">  1       -4 0.19642813E-02 0.12500109E+03</pdfrwt>
<totfact> 0.73307106E+03</totfact>
</mgrwt>
</event>
<event>
 5    1  0.3227866E-002  0.1250081E+03  0.7818608E-02  0.1235057E+00
          4   -1    0    0  501    0  0.00000000000E+00  0.00000000000E+00  0.26735835479E+02  0.26765982118E+02  0.12700000000E+01 0. -1.
         -4   -1    0    0    0  501 -0.00000000000E+00 -0.00000000000E+00 -0.14600918205E+03  0.14601470523E+03  0.12700000000E+01 0. -1.
         25    2    1    2    0    0  0.00000000000E+00  0.00000000000E+00 -0.11927334657E+03  0.17278068735E+03  0.12500813861E+03 0.  0.
    9000005    1    3    3    0    0  0.44380447685E+02  0.20984405372E+02 -0.11309213883E+03  0.12329152960E+03  0.10000000000E+01 0.  0.
    9000005    1    3    3    0    0 -0.44380447685E+02 -0.20984405372E+02 -0.61812077426E+01  0.49489157749E+02  0.10000000000E+01 0.  0.
<mgrwt>
<rscale>  0 0.12500814E+03</rscale>
<asrwt>0</asrwt>
<pdfrwt beam="1">  1        4 0.41159494E-02 0.12500814E+03</pdfrwt>
<pdfrwt beam="2">  1       -4 0.22465694E-01 0.12500814E+03</pdfrwt>
<totfact> 0.94915547E+03</totfact>
</mgrwt>
</event>
<event>
 5    1  0.3227866E-002  0.1250008E+03  0.7818608E-02  0.1235068E+00
          4   -1    0    0  501    0  0.00000000000E+00  0.00000000000E+00  0.10108558701E+03  0.10109356459E+03  0.12700000000E+01 0.  1.
         -4   -1    0    0    0  501 -0.00000000000E+00 -0.00000000000E+00 -0.38623552712E+02  0.38644426818E+02  0.12700000000E+01 0.  1.
         25    2    1    2    0    0  0.00000000000E+00  0.00000000000E+00  0.62462034299E+02  0.13973799141E+03  0.12500080205E+03 0.  0.
    9000005    1    3    3    0    0 -0.32957243404E+02 -0.26942780192E+02  0.82376557173E+02  0.92730741769E+02  0.10000000000E+01 0.  0.
    9000005    1    3    3    0    0  0.32957243404E+02  0.26942780192E+02 -0.19914522875E+02  0.47007249638E+02  0.10000000000E+01 0.  0.
<mgrwt>
<rscale>  0 0.12500080E+03</rscale>
<asrwt>0</asrwt>
<pdfrwt beam="1">  1        4 0.15553848E-01 0.12500080E+03</pdfrwt>
<pdfrwt beam="2">  1       -4 0.59443044E-02 0.12500080E+03</pdfrwt>
<totfact> 0.10138836E+04</totfact>
</mgrwt>
</event>
<event>
 5    1  0.3227866E-002  0.1250047E+03  0.7818608E-02  0.1235062E+00
          4   -1    0    0  501    0  0.00000000000E+00  0.00000000000E+00  0.11925204729E+02  0.11992639736E+02  0.12700000000E+01 0. -1.
         -4   -1    0    0    0  501 -0.00000000000E+00 -0.00000000000E+00 -0.32659477741E+03  0.32659724666E+03  0.12700000000E+01 0. -1.
         25    2    1    2    0    0  0.00000000000E+00  0.00000000000E+00 -0.31466957268E+03  0.33858988640E+03  0.12500468473E+03 0.  0.
    9000005    1    3    3    0    0 -0.58365757502E+02 -0.16468968000E+02 -0.11645760581E+03  0.13130560729E+03  0.10000000000E+01 0.  0.
    9000005    1    3    3    0    0  0.58365757502E+02  0.16468968000E+02 -0.19821196687E+03  0.20728427911E+03  0.10000000000E+01 0.  0.
<mgrwt>
<rscale>  0 0.12500468E+03</rscale>
<asrwt>0</asrwt>
<pdfrwt beam="1">  1        4 0.18400244E-02 0.12500468E+03</pdfrwt>
<pdfrwt beam="2">  1       -4 0.50250721E-01 0.12500468E+03</pdfrwt>
<totfact> 0.70990959E+03</totfact>
</mgrwt>
</event>
<event>
 5    1  0.3227866E-002  0.1250040E+03  0.7818608E-02  0.1235063E+00
          4   -1    0    0  501    0  0.00000000000E+00  0.00000000000E+00  0.14490188392E+02  0.14545736820E+02  0.12700000000E+01 0.  1.
         -4   -1    0    0    0  501 -0.00000000000E+00 -0.00000000000E+00 -0.26902344424E+03  0.26902644192E+03  0.12700000000E+01 0.  1.
         25    2    1    2    0    0  0.00000000000E+00  0.00000000000E+00 -0.25453325585E+03  0.28357217874E+03  0.12500400882E+03 0.  0.
    9000005    1    3    3    0    0  0.19726105202E+02  0.16446988280E+02  0.19759966979E+01  0.25778425338E+02  0.10000000000E+01 0.  0.
    9000005    1    3    3    0    0 -0.19726105202E+02 -0.16446988280E+02 -0.25650925255E+03  0.25779375340E+03  0.10000000000E+01 0.  0.
<mgrwt>
<rscale>  0 0.12500401E+03</rscale>
<asrwt>0</asrwt>
<pdfrwt beam="1">  1        4 0.22337635E-02 0.12500401E+03</pdfrwt>
<pdfrwt beam="2">  1       -4 0.41392722E-01 0.12500401E+03</pdfrwt>
<totfact> 0.77699911E+03</totfact>
</mgrwt>
</event>
<event>
 5    1  0.3227866E-002  0.1249956E+03  0.7818608E-02  0.1235076E+00
          4   -1    0    0  501    0  0.00000000000E+00  0.00000000000E+00  0.17757629576E+03  0.17758083713E+03  0.12700000000E+01 0. -1.
         -4   -1    0    0    0  501 -0.00000000000E+00 -0.00000000000E+00 -0.21972868277E+02  0.22009539757E+02  0.12700000000E+01 0. -1.
         25    2    1    2    0    0  0.00000000000E+00  0.00000000000E+00  0.15560342748E+03  0.19959037689E+03  0.12499556753E+03 0.  0.
    9000005    1    3    3    0    0 -0.38579153000E+02 -0.39607695625E+02  0.31306836395E+02  0.63547136867E+02  0.10000000000E+01 0.  0.
    9000005    1    3    3    0    0  0.38579153000E+02  0.39607695625E+02  0.12429659109E+03  0.13604324002E+03  0.10000000000E+01 0.  0.
<mgrwt>
<rscale>  0 0.12499557E+03</rscale>
<asrwt>0</asrwt>
<pdfrwt beam="1">  1        4 0.27322599E-01 0.12499557E+03</pdfrwt>
<pdfrwt beam="2">  1       -4 0.33836117E-02 0.12499557E+03</pdfrwt>
<totfact> 0.90213587E+03</totfact>
</mgrwt>
</event>
<event>
 5    1  0.3227866E-002  0.1249942E+03  0.7818608E-02  0.1235078E+00
          4   -1    0    0  501    0  0.00000000000E+00  0.00000000000E+00  0.49777207495E+02  0.49793406049E+02  0.12700000000E+01 0. -1.
         -4   -1    0    0    0  501 -0.00000000000E+00 -0.00000000000E+00 -0.78433229874E+02  0.78443511194E+02  0.12700000000E+01 0. -1.
         25    2    1    2    0    0  0.00000000000E+00  0.00000000000E+00 -0.28656022379E+02  0.12823691724E+03  0.12499415717E+03 0.  0.
    9000005    1    3    3    0    0  0.10506938011E+02 -0.57086516597E+02 -0.38071865866E+02  0.69424297577E+02  0.10000000000E+01 0.  0.
    9000005    1    3    3    0    0 -0.10506938011E+02  0.57086516597E+02  0.94158434865E+01  0.58812619667E+02  0.10000000000E+01 0.  0.
<mgrwt>
<rscale>  0 0.12499416E+03</rscale>
<asrwt>0</asrwt>
<pdfrwt beam="1">  1        4 0.76600688E-02 0.12499416E+03</pdfrwt>
<pdfrwt beam="2">  1       -4 0.12068688E-01 0.12499416E+03</pdfrwt>
<totfact> 0.10383744E+04</totfact>
</mgrwt>
</event>
<event>
 5    1  0.3227866E-002  0.1249995E+03  0.7818608E-02  0.1235070E+00
         -4   -1    0    0    0  501 -0.00000000000E+00  0.00000000000E+00  0.14904224845E+03  0.14904765923E+03  0.12700000000E+01 0. -1.
          4   -1    0    0  501    0  0.00000000000E+00 -0.00000000000E+00 -0.26187539532E+02  0.26218316626E+02  0.12700000000E+01 0. -1.
         25    2    1    2    0    0  0.00000000000E+00  0.00000000000E+00  0.12285470892E+03  0.17526597586E+03  0.12499953116E+03 0.  0.
    9000005    1    3    3    0    0 -0.33490512813E+02  0.83114544694E+01 -0.11625338819E+02  0.36425859311E+02  0.10000000000E+01 0.  0.
    9000005    1    3    3    0    0  0.33490512813E+02 -0.83114544694E+01  0.13448004774E+03  0.13884011655E+03  0.10000000000E+01 0.  0.
<mgrwt>
<rscale>  0 0.12499953E+03</rscale>
<asrwt>0</asrwt>
<pdfrwt beam="2">  1        4 0.40316359E-02 0.12499953E+03</pdfrwt>
<pdfrwt beam="1">  1       -4 0.22932360E-01 0.12499953E+03</pdfrwt>
<totfact> 0.94477144E+03</totfact>
</mgrwt>
</event>
<event>
 5    1  0.3227866E-002  0.1249997E+03  0.7818608E-02  0.1235070E+00
         -4   -1    0    0    0  501 -0.00000000000E+00  0.00000000000E+00  0.20500815658E+03  0.20501209029E+03  0.12700000000E+01 0.  1.
          4   -1    0    0  501    0  0.00000000000E+00 -0.00000000000E+00 -0.19028753907E+02  0.19071087416E+02  0.12700000000E+01 0.  1.
         25    2    1    2    0    0  0.00000000000E+00  0.00000000000E+00  0.18597940267E+03  0.22408317770E+03  0.12499972924E+03 0.  0.
    9000005    1    3    3    0    0  0.33026834382E+02 -0.52992087933E+02  0.97489231644E+02  0.11577600554E+03  0.10000000000E+01 0.  0.
    9000005    1    3    3    0    0 -0.33026834382E+02  0.52992087933E+02  0.88490171026E+02  0.10830717216E+03  0.10000000000E+01 0.  0.
<mgrwt>
<rscale>  0 0.12499973E+03</rscale>
<asrwt>0</asrwt>
<pdfrwt beam="2">  1        4 0.29310595E-02 0.12499973E+03</pdfrwt>
<pdfrwt beam="1">  1       -4 0.31543276E-01 0.12499973E+03</pdfrwt>
<totfact> 0.86226855E+03</totfact>
</mgrwt>
</event>
<event>
 5    1  0.3227866E-002  0.1249926E+03  0.7818608E-02  0.1235081E+00
         -4   -1    0    0    0  501 -0.00000000000E+00  0.00000000000E+00  0.64911140410E+02  0.64923563129E+02  0.12700000000E+01 0. -1.
          4   -1    0    0  501    0  0.00000000000E+00 -0.00000000000E+00 -0.60146454781E+02  0.60159861392E+02  0.12700000000E+01 0. -1.
         25    2    1    2    0    0  0.00000000000E+00  0.00000000000E+00  0.47646856292E+01  0.12508342452E+03  0.12499264323E+03 0.  0.
    9000005    1    3    3    0    0  0.50281822699E+02  0.36500938071E+02  0.90362351645E+01  0.62795172744E+02  0.10000000000E+01 0.  0.
    9000005    1    3    3    0    0 -0.50281822699E+02 -0.36500938071E+02 -0.42715495353E+01  0.62288251777E+02  0.10000000000E+01 0.  0.
<mgrwt>
<rscale>  0 0.12499264E+03</rscale>
<asrwt>0</asrwt>
<pdfrwt beam="2">  1        4 0.92552877E-02 0.12499264E+03</pdfrwt>
<pdfrwt beam="1">  1       -4 0.99883161E-02 0.12499264E+03</pdfrwt>
<totfact> 0.10452789E+04</totfact>
</mgrwt>
</event>
<event>
 5    1  0.3227866E-002  0.1249990E+03  0.7818608E-02  0.1235071E+00
         -4   -1    0    0    0  501 -0.00000000000E+00  0.00000000000E+00  0.16154879163E+03  0.16155378355E+03  0.12700000000E+01 0.  1.
          4   -1    0    0  501    0  0.00000000000E+00 -0.00000000000E+00 -0.24157568111E+02  0.24190927990E+02  0.12700000000E+01 0.  1.
         25    2    1    2    0    0  0.00000000000E+00  0.00000000000E+00  0.13739122352E+03  0.18574471154E+03  0.12499899825E+03 0.  0.
    9000005    1    3    3    0    0 -0.60645553461E+01  0.31687545362E+02 -0.10832337752E+02  0.34047303913E+02  0.10000000000E+01 0.  0.
    9000005    1    3    3    0    0  0.60645553461E+01 -0.31687545362E+02  0.14822356128E+03  0.15169740762E+03  0.10000000000E+01 0.  0.
<mgrwt>
<rscale>  0 0.12499900E+03</rscale>
<asrwt>0</asrwt>
<pdfrwt beam="2">  1        4 0.37194989E-02 0.12499900E+03</pdfrwt>
<pdfrwt beam="1">  1       -4 0.24856611E-01 0.12499900E+03</pdfrwt>
<totfact> 0.92595115E+03</totfact>
</mgrwt>
</event>
<event>
 5    1  0.3227866E-002  0.1250008E+03  0.7818608E-02  0.1235068E+00
         -4   -1    0    0    0  501 -0.00000000000E+00  0.00000000000E+00  0.21373530231E+02  0.21411228235E+02  0.12700000000E+01 0. -1.
          4   -1    0    0  501    0  0.00000000000E+00 -0.00000000000E+00 -0.18256237149E+03  0.18256678883E+03  0.12700000000E+01 0. -1.
         25    2    1    2    0    0  0.00000000000E+00  0.00000000000E+00 -0.16118884126E+03  0.20397801707E+03  0.12500075560E+03 0.  0.
    9000005    1    3    3    0    0  0.51495651730E+02  0.11998227081E+02 -0.26239139752E+02  0.59036023368E+02  0.10000000000E+01 0.  0.
    9000005    1    3    3    0    0 -0.51495651730E+02 -0.11998227081E+02 -0.13494970151E+03  0.14494199370E+03  0.10000000000E+01 0.  0.
<mgrwt>
<rscale>  0 0.12500076E+03</rscale>
<asrwt>0</asrwt>
<pdfrwt beam="2">  1        4 0.28089757E-01 0.12500076E+03</pdfrwt>
<pdfrwt beam="1">  1       -4 0.32914752E-02 0.12500076E+03</pdfrwt>
<totfact> 0.89467380E+03</totfact>
</mgrwt>
</event>
<event>
 5    1  0.3227866E-002  0.1249996E+03  0.7818608E-02  0.1235070E+00
         -4   -1    0    0    0  501 -0.00000000000E+00  0.00000000000E+00  0.11466002052E+02  0.11536121664E+02  0.12700000000E+01 0.  1.
          4   -1    0    0  501    0  0.00000000000E+00 -0.00000000000E+00 -0.33956883585E+03  0.33957121077E+03  0.12700000000E+01 0.  1.
         25    2    1    2    0    0  0.00000000000E+00  0.00000000000E+00 -0.32810283380E+03  0.35110733243E+03  0.12499955736E+03 0.  0.
    9000005    1    3    3    0    0  0.18705997568E+02  0.21438164654E+02 -0.77684038293E+01  0.29510292218E+02  0.10000000000E+01 0.  0.
    9000005    1    3    3    0    0 -0.18705997568E+02 -0.21438164654E+02 -0.32033442997E+03  0.32159704021E+03  0.10000000000E+01 0.  0.
<mgrwt>
<rscale>  0 0.12499956E+03</rscale>
<asrwt>0</asrwt>
<pdfrwt beam="2">  1        4 0.52246928E-01 0.12499956E+03</pdfrwt>
<pdfrwt beam="1">  1       -4 0.17695771E-02 0.12499956E+03</pdfrwt>
<totfact> 0.69603593E+03</totfact>
</mgrwt>
</event>
<event>
 5    1  0.3227866E-002  0.1249966E+03  0.7818608E-02  0.1235075E+00
         -4   -1    0    0    0  501 -0.00000000000E+00  0.00000000000E+00  0.60331434309E+02  0.60344799824E+02  0.12700000000E+01 0.  1.
          4   -1    0    0  501    0  0.00000000000E+00 -0.00000000000E+00 -0.64716210389E+02  0.64728670518E+02  0.12700000000E+01 0.  1.
         25    2    1    2    0    0  0.00000000000E+00  0.00000000000E+00 -0.43847760792E+01  0.12507347034E+03  0.12499658684E+03 0.  0.
    9000005    1    3    3    0    0  0.10979211329E+02 -0.54509278508E+02  0.26342378068E+02  0.61536374667E+02  0.10000000000E+01 0.  0.
    9000005    1    3    3    0    0 -0.10979211329E+02  0.54509278508E+02 -0.30727154147E+02  0.63537095675E+02  0.10000000000E+01 0.  0.
<mgrwt>
<rscale>  0 0.12499659E+03</rscale>
<asrwt>0</asrwt>
<pdfrwt beam="2">  1        4 0.99583267E-02 0.12499659E+03</pdfrwt>
<pdfrwt beam="1">  1       -4 0.92837456E-02 0.12499659E+03</pdfrwt>
<totfact> 0.10452073E+04</totfact>
</mgrwt>
</event>
<event>
 5    1  0.3227866E-002  0.1250004E+03  0.7818608E-02  0.1235069E+00
         -4   -1    0    0    0  501 -0.00000000000E+00  0.00000000000E+00  0.48367874134E+03  0.48368040866E+03  0.12700000000E+01 0.  1.
          4   -1    0    0  501    0  0.00000000000E+00 -0.00000000000E+00 -0.80245587793E+01  0.81244349713E+01  0.12700000000E+01 0.  1.
         25    2    1    2    0    0  0.00000000000E+00  0.00000000000E+00  0.47565418256E+03  0.49180484363E+03  0.12500041134E+03 0.  0.
    9000005    1    3    3    0    0  0.54486501019E+02 -0.30042169137E+02  0.21489745858E+03  0.22372578846E+03  0.10000000000E+01 0.  0.
    9000005    1    3    3    0    0 -0.54486501019E+02  0.30042169137E+02  0.26075672398E+03  0.26807905517E+03  0.10000000000E+01 0.  0.
<mgrwt>
<rscale>  0 0.12500041E+03</rscale>
<asrwt>0</asrwt>
<pdfrwt beam="2">  1        4 0.12423585E-02 0.12500041E+03</pdfrwt>
<pdfrwt beam="1">  1       -4 0.74419925E-01 0.12500041E+03</pdfrwt>
<totfact> 0.56505350E+03</totfact>
</mgrwt>
</event>
<event>
 5    1  0.3227866E-002  0.1250033E+03  0.7818608E-02  0.1235064E+00
          4   -1    0    0  501    0  0.00000000000E+00  0.00000000000E+00  0.20381016541E+02  0.20420546888E+02  0.12700000000E+01 0. -1.
         -4   -1    0    0    0  501 -0.00000000000E+00 -0.00000000000E+00 -0.19144408065E+03  0.19144829306E+03  0.12700000000E+01 0. -1.
         25    2    1    2    0    0  0.00000000000E+00  0.00000000000E+00 -0.17106306411E+03  0.21186883995E+03  0.12500333371E+03 0.  0.
    9000005    1    3    3    0    0 -0.20962696114E+02 -0.26366239376E+02  0.36862908543E+01  0.33899881231E+02  0.10000000000E+01 0.  0.
    9000005    1    3    3    0    0  0.20962696114E+02  0.26366239376E+02 -0.17474935496E+03  0.17796895872E+03  0.10000000000E+01 0.  0.
<mgrwt>
<rscale>  0 0.12500333E+03</rscale>
<asrwt>0</asrwt>
<pdfrwt beam="1">  1        4 0.31389060E-02 0.12500333E+03</pdfrwt>
<pdfrwt beam="2">  1       -4 0.29456299E-01 0.12500333E+03</pdfrwt>
<totfact> 0.88165012E+03</totfact>
</mgrwt>
</event>
<event>
 5    1  0.3227866E-002  0.1250022E+03  0.7818608E-02  0.1235066E+00
         -4   -1    0    0    0  501 -0.00000000000E+00  0.00000000000E+00  0.38174420755E+02  0.38195540315E+02  0.12700000000E+01 0. -1.
          4   -1    0    0  501    0  0.00000000000E+00 -0.00000000000E+00 -0.10227663832E+03  0.10228452300E+03  0.12700000000E+01 0. -1.
         25    2    1    2    0    0  0.00000000000E+00  0.00000000000E+00 -0.64102217565E+02  0.14048006332E+03  0.12500221555E+03 0.  0.
    9000005    1    3    3    0    0 -0.30447802030E+02 -0.45175303138E+02  0.23589454969E+01  0.54538438609E+02  0.10000000000E+01 0.  0.
    9000005    1    3    3    0    0  0.30447802030E+02  0.45175303138E+02 -0.66461163062E+02  0.85941624709E+02  0.10000000000E+01 0.  0.
<mgrwt>
<rscale>  0 0.12500222E+03</rscale>
<asrwt>0</asrwt>
<pdfrwt beam="2">  1        4 0.15737098E-01 0.12500222E+03</pdfrwt>
<pdfrwt beam="1">  1       -4 0.58752190E-02 0.12500222E+03</pdfrwt>
<totfact> 0.10123141E+04</totfact>
</mgrwt>
</event>
<event>
 5    1  0.3227866E-002  0.1249914E+03  0.7818608E-02  0.1235083E+00
         -4   -1    0    0    0  501 -0.00000000000E+00  0.00000000000E+00  0.29654393100E+03  0.29654665049E+03  0.12700000000E+01 0.  1.
          4   -1    0    0  501    0  0.00000000000E+00 -0.00000000000E+00 -0.13137359893E+02  0.13198603144E+02  0.12700000000E+01 0.  1.
         25    2    1    2    0    0  0.00000000000E+00  0.00000000000E+00  0.28340657111E+03  0.30974525363E+03  0.12499135009E+03 0.  0.
    9000005    1    3    3    0    0  0.19913012006E+02 -0.15911184452E+02  0.28308760174E+03  0.28423455824E+03  0.10000000000E+01 0.  0.
    9000005    1    3    3    0    0 -0.19913012006E+02  0.15911184452E+02  0.31896936724E+00  0.25510695390E+02  0.10000000000E+01 0.  0.
<mgrwt>
<rscale>  0 0.12499135E+03</rscale>
<asrwt>0</asrwt>
<pdfrwt beam="2">  1        4 0.20260527E-02 0.12499135E+03</pdfrwt>
<pdfrwt beam="1">  1       -4 0.45627060E-01 0.12499135E+03</pdfrwt>
<totfact> 0.74406728E+03</totfact>
</mgrwt>
</event>
<event>
 5    1  0.3227866E-002  0.1250022E+03  0.7818608E-02  0.1235066E+00
          4   -1    0    0  501    0  0.00000000000E+00  0.00000000000E+00  0.88840052348E+03  0.88840143124E+03  0.12700000000E+01 0. -1.
         -4   -1    0    0    0  501 -0.00000000000E+00 -0.00000000000E+00 -0.43044719490E+01  0.44879147451E+01  0.12700000000E+01 0. -1.
         25    2    1    2    0    0  0.00000000000E+00  0.00000000000E+00  0.88409605153E+03  0.89288934598E+03  0.12500222331E+03 0.  0.
    9000005    1    3    3    0    0 -0.89029190645E+01 -0.21484382822E+02  0.27720977420E+02  0.36197973178E+02  0.10000000000E+01 0.  0.
    9000005    1    3    3    0    0  0.89029190645E+01  0.21484382822E+02  0.85637507411E+03  0.85669137280E+03  0.10000000000E+01 0.  0.
<mgrwt>
<rscale>  0 0.12500222E+03</rscale>
<asrwt>0</asrwt>
<pdfrwt beam="1">  1        4 0.13669125E+00 0.12500222E+03</pdfrwt>
<pdfrwt beam="2">  1       -4 0.67640695E-03 0.12500222E+03</pdfrwt>
<totfact> 0.34431812E+03</totfact>
</mgrwt>
</event>
<event>
 5    1  0.3227866E-002  0.1249989E+03  0.7818608E-02  0.1235071E+00
         -4   -1    0    0    0  501 -0.00000000000E+00  0.00000000000E+00  0.33189281207E+03  0.33189524191E+03  0.12700000000E+01 0.  1.
          4   -1    0    0  501    0  0.00000000000E+00 -0.00000000000E+00 -0.11732671909E+02  0.11801207147E+02  0.12700000000E+01 0.  1.
         25    2    1    2    0    0  0.00000000000E+00  0.00000000000E+00  0.32016014016E+03  0.34369644906E+03  0.12499893498E+03 0.  0.
    9000005    1    3    3    0    0 -0.53056439009E+02  0.13564436910E+02  0.24285172990E+03  0.24895168685E+03  0.10000000000E+01 0.  0.
    9000005    1    3    3    0    0  0.53056439009E+02 -0.13564436910E+02  0.77308410254E+02  0.94744762204E+02  0.10000000000E+01 0.  0.
<mgrwt>
<rscale>  0 0.12499893E+03</rscale>
<asrwt>0</asrwt>
<pdfrwt beam="2">  1        4 0.18104856E-02 0.12499893E+03</pdfrwt>
<pdfrwt beam="1">  1       -4 0.51065882E-01 0.12499893E+03</pdfrwt>
<totfact> 0.70425301E+03</totfact>
</mgrwt>
</event>
<event>
 5    1  0.3227866E-002  0.1249934E+03  0.7818608E-02  0.1235080E+00
          4   -1    0    0  501    0  0.00000000000E+00  0.00000000000E+00  0.14566761516E+03  0.14567315129E+03  0.12700000000E+01 0. -1.
         -4   -1    0    0    0  501 -0.00000000000E+00 -0.00000000000E+00 -0.26792250032E+02  0.26822333265E+02  0.12700000000E+01 0. -1.
         25    2    1    2    0    0  0.00000000000E+00  0.00000000000E+00  0.11887536513E+03  0.17249548455E+03  0.12499335885E+03 0.  0.
    9000005    1    3    3    0    0  0.15817355799E+02 -0.58996137133E+02  0.77646958201E+02  0.98796675344E+02  0.10000000000E+01 0.  0.
    9000005    1    3    3    0    0 -0.15817355799E+02  0.58996137133E+02  0.41228406927E+02  0.73698809209E+02  0.10000000000E+01 0.  0.
<mgrwt>
<rscale>  0 0.12499336E+03</rscale>
<asrwt>0</asrwt>
<pdfrwt beam="1">  1        4 0.22413142E-01 0.12499336E+03</pdfrwt>
<pdfrwt beam="2">  1       -4 0.41246247E-02 0.12499336E+03</pdfrwt>
<totfact> 0.94999705E+03</totfact>
</mgrwt>
</event>
<event>
 5    1  0.3227866E-002  0.1250141E+03  0.7818608E-02  0.1235047E+00
         -4   -1    0    0    0  501 -0.00000000000E+00  0.00000000000E+00  0.38671071344E+02  0.38691919814E+02  0.12700000000E+01 0.  1.
          4   -1    0    0  501    0  0.00000000000E+00 -0.00000000000E+00 -0.10098298583E+03  0.10099097151E+03  0.12700000000E+01 0.  1.
         25    2    1    2    0    0  0.00000000000E+00  0.00000000000E+00 -0.62311914487E+02  0.13968289133E+03  0.12501414097E+03 0.  0.
    9000005    1    3    3    0    0  0.59384049340E+02 -0.18218792805E+02 -0.38876433338E+02  0.73285515597E+02  0.10000000000E+01 0.  0.
    9000005    1    3    3    0    0 -0.59384049340E+02  0.18218792805E+02 -0.23435481149E+02  0.66397375731E+02  0.10000000000E+01 0.  0.
<mgrwt>
<rscale>  0 0.12501414E+03</rscale>
<asrwt>0</asrwt>
<pdfrwt beam="2">  1        4 0.15538062E-01 0.12501414E+03</pdfrwt>
<pdfrwt beam="1">  1       -4 0.59516136E-02 0.12501414E+03</pdfrwt>
<totfact> 0.10136932E+04</totfact>
</mgrwt>
</event>
<event>
 5    1  0.3227866E-002  0.1250045E+03  0.7818608E-02  0.1235062E+00
         -4   -1    0    0    0  501 -0.00000000000E+00  0.00000000000E+00  0.27385726041E+03  0.27386020518E+03  0.12700000000E+01 0. -1.
          4   -1    0    0  501    0  0.00000000000E+00 -0.00000000000E+00 -0.14233544492E+02  0.14290090580E+02  0.12700000000E+01 0. -1.
         25    2    1    2    0    0  0.00000000000E+00  0.00000000000E+00  0.25962371592E+03  0.28815029576E+03  0.12500447623E+03 0.  0.
    9000005    1    3    3    0    0  0.35328441613E+02  0.49847510834E+02  0.99522842610E+02  0.11678471357E+03  0.10000000000E+01 0.  0.
    9000005    1    3    3    0    0 -0.35328441613E+02 -0.49847510834E+02  0.16010087331E+03  0.17136558219E+03  0.10000000000E+01 0.  0.
<mgrwt>
<rscale>  0 0.12500448E+03</rscale>
<asrwt>0</asrwt>
<pdfrwt beam="2">  1        4 0.21943524E-02 0.12500448E+03</pdfrwt>
<pdfrwt beam="1">  1       -4 0.42136461E-01 0.12500448E+03</pdfrwt>
<totfact> 0.77102031E+03</totfact>
</mgrwt>
</event>
<event>
 5    1  0.3227866E-002  0.1250039E+03  0.7818608E-02  0.1235063E+00
          4   -1    0    0  501    0  0.00000000000E+00  0.00000000000E+00  0.29735874441E+01  0.32334381528E+01  0.12700000000E+01 0. -1.
         -4   -1    0    0    0  501 -0.00000000000E+00 -0.00000000000E+00 -0.12584718138E+04  0.12584724547E+04  0.12700000000E+01 0. -1.
         25    2    1    2    0    0  0.00000000000E+00  0.00000000000E+00 -0.12554982264E+04  0.12617058928E+04  0.12500385381E+03 0.  0.
    9000005    1    3    3    0    0 -0.18263994757E+02 -0.60159492588E+01 -0.12279187397E+04  0.12280697034E+04  0.10000000000E+01 0.  0.
    9000005    1    3    3    0    0  0.18263994757E+02  0.60159492588E+01 -0.27579486670E+02  0.33636189364E+02  0.10000000000E+01 0.  0.
<mgrwt>
<rscale>  0 0.12500385E+03</rscale>
<asrwt>0</asrwt>
<pdfrwt beam="1">  1        4 0.47751380E-03 0.12500385E+03</pdfrwt>
<pdfrwt beam="2">  1       -4 0.19363068E+00 0.12500385E+03</pdfrwt>
<totfact> 0.23148869E+03</totfact>
</mgrwt>
</event>
<event>
 5    1  0.3227866E-002  0.1249528E+03  0.7818608E-02  0.1235143E+00
         -4   -1    0    0    0  501 -0.00000000000E+00  0.00000000000E+00  0.36853063255E+03  0.36853282082E+03  0.12700000000E+01 0.  1.
          4   -1    0    0  501    0  0.00000000000E+00 -0.00000000000E+00 -0.10551220243E+02  0.10627377316E+02  0.12700000000E+01 0.  1.
         25    2    1    2    0    0  0.00000000000E+00  0.00000000000E+00  0.35797941230E+03  0.37916019814E+03  0.12495277596E+03 0.  0.
    9000005    1    3    3    0    0  0.15489551128E+02  0.28440236589E+02  0.34108400296E+03  0.34261942491E+03  0.10000000000E+01 0.  0.
    9000005    1    3    3    0    0 -0.15489551128E+02 -0.28440236589E+02  0.16895409347E+02  0.36540773232E+02  0.10000000000E+01 0.  0.
<mgrwt>
<rscale>  0 0.12495278E+03</rscale>
<asrwt>0</asrwt>
<pdfrwt beam="2">  1        4 0.16292915E-02 0.12495278E+03</pdfrwt>
<pdfrwt beam="1">  1       -4 0.56703039E-01 0.12495278E+03</pdfrwt>
<totfact> 0.66700959E+03</totfact>
</mgrwt>
</event>
<event>
 5    1  0.3227866E-002  0.1250020E+03  0.7818608E-02  0.1235066E+00
         -4   -1    0    0    0  501 -0.00000000000E+00  0.00000000000E+00  0.11382335235E+03  0.11383043724E+03  0.12700000000E+01 0.  1.
          4   -1    0    0  501    0  0.00000000000E+00 -0.00000000000E+00 -0.34299728959E+02  0.34323232754E+02  0.12700000000E+01 0.  1.
         25    2    1    2    0    0  0.00000000000E+00  0.00000000000E+00  0.79523623395E+02  0.14815366999E+03  0.12500201300E+03 0.  0.
    9000005    1    3    3    0    0 -0.16176506795E+02 -0.58087046003E+02  0.59222066721E+02  0.84522408106E+02  0.10000000000E+01 0.  0.
    9000005    1    3    3    0    0  0.16176506795E+02  0.58087046003E+02  0.20301556675E+02  0.63631261883E+02  0.10000000000E+01 0.  0.
<mgrwt>
<rscale>  0 0.12500201E+03</rscale>
<asrwt>0</asrwt>
<pdfrwt beam="2">  1        4 0.52792344E-02 0.12500201E+03</pdfrwt>
<pdfrwt beam="1">  1       -4 0.17513638E-01 0.12500201E+03</pdfrwt>
<totfact> 0.99668501E+03</totfact>
</mgrwt>
</event>
<event>
 5    1  0.3227866E-002  0.1250007E+03  0.7818608E-02  0.1235068E+00
         -4   -1    0    0    0  501 -0.00000000000E+00  0.00000000000E+00  0.31373186678E+03  0.31373443727E+03  0.12700000000E+01 0.  1.
          4   -1    0    0  501    0  0.00000000000E+00 -0.00000000000E+00 -0.12416043531E+02  0.12480826774E+02  0.12700000000E+01 0.  1.
         25    2    1    2    0    0  0.00000000000E+00  0.00000000000E+00  0.30131582325E+03  0.32621526405E+03  0.12500069263E+03 0.  0.
    9000005    1    3    3    0    0 -0.47606994363E+02 -0.16024009237E+02  0.53637892116E+02  0.73492980991E+02  0.10000000000E+01 0.  0.
    9000005    1    3    3    0    0  0.47606994363E+02  0.16024009237E+02  0.24767793113E+03  0.25272228306E+03  0.10000000000E+01 0.  0.
<mgrwt>
<rscale>  0 0.12500069E+03</rscale>
<asrwt>0</asrwt>
<pdfrwt beam="2">  1        4 0.19153417E-02 0.12500069E+03</pdfrwt>
<pdfrwt beam="1">  1       -4 0.48271619E-01 0.12500069E+03</pdfrwt>
<totfact> 0.72421838E+03</totfact>
</mgrwt>
</event>
<event>
 5    1  0.3227866E-002  0.1249988E+03  0.7818608E-02  0.1235071E+00
         -4   -1    0    0    0  501 -0.00000000000E+00  0.00000000000E+00  0.16487099050E+01  0.20811401564E+01  0.12700000000E+01 0.  1.
          4   -1    0    0  501    0  0.00000000000E+00 -0.00000000000E+00 -0.20941166213E+04  0.20941170064E+04  0.12700000000E+01 0.  1.
         25    2    1    2    0    0  0.00000000000E+00  0.00000000000E+00 -0.20924679114E+04  0.20961981466E+04  0.12499883767E+03 0.  0.
    9000005    1    3    3    0    0 -0.30531481575E+01 -0.23403796019E+02 -0.75887700573E+02  0.79479572722E+02  0.10000000000E+01 0.  0.
    9000005    1    3    3    0    0  0.30531481575E+01  0.23403796019E+02 -0.20165802108E+04  0.20167185738E+04  0.10000000000E+01 0.  0.
<mgrwt>
<rscale>  0 0.12499884E+03</rscale>
<asrwt>0</asrwt>
<pdfrwt beam="2">  1        4 0.32220320E+00 0.12499884E+03</pdfrwt>
<pdfrwt beam="1">  1       -4 0.28694284E-03 0.12499884E+03</pdfrwt>
<totfact> 0.86577673E+02</totfact>
</mgrwt>
</event>
<event>
 5    1  0.3227866E-002  0.1250078E+03  0.7818608E-02  0.1235057E+00
          4   -1    0    0  501    0  0.00000000000E+00  0.00000000000E+00  0.10230765446E+03  0.10231553675E+03  0.12700000000E+01 0. -1.
         -4   -1    0    0    0  501 -0.00000000000E+00 -0.00000000000E+00 -0.38166261966E+02  0.38187386038E+02  0.12700000000E+01 0. -1.
         25    2    1    2    0    0  0.00000000000E+00  0.00000000000E+00  0.64141392492E+02  0.14050292279E+03  0.12500781208E+03 0.  0.
    9000005    1    3    3    0    0 -0.46090771939E+02 -0.42023350016E+02  0.27657542387E+02  0.68236799862E+02  0.10000000000E+01 0.  0.
    9000005    1    3    3    0    0  0.46090771939E+02  0.42023350016E+02  0.36483850104E+02  0.72266122927E+02  0.10000000000E+01 0.  0.
<mgrwt>
<rscale>  0 0.12500781E+03</rscale>
<asrwt>0</asrwt>
<pdfrwt beam="1">  1        4 0.15741870E-01 0.12500781E+03</pdfrwt>
<pdfrwt beam="2">  1       -4 0.58739639E-02 0.12500781E+03</pdfrwt>
<totfact> 0.10121392E+04</totfact>
</mgrwt>
</event>
<event>
 5    1  0.3227866E-002  0.1249989E+03  0.7818608E-02  0.1235071E+00
         -4   -1    0    0    0  501 -0.00000000000E+00  0.00000000000E+00  0.16982818550E+02  0.17030238574E+02  0.12700000000E+01 0. -1.
          4   -1    0    0  501    0  0.00000000000E+00 -0.00000000000E+00 -0.22963781399E+03  0.22964132579E+03  0.12700000000E+01 0. -1.
         25    2    1    2    0    0  0.00000000000E+00  0.00000000000E+00 -0.21265499544E+03  0.24667156437E+03  0.12499885433E+03 0.  0.
    9000005    1    3    3    0    0  0.22607873000E+02 -0.39333995626E+02 -0.19113507553E+03  0.19644820241E+03  0.10000000000E+01 0.  0.
    9000005    1    3    3    0    0 -0.22607873000E+02  0.39333995626E+02 -0.21519919909E+02  0.50223361958E+02  0.10000000000E+01 0.  0.
<mgrwt>
<rscale>  0 0.12499885E+03</rscale>
<asrwt>0</asrwt>
<pdfrwt beam="2">  1        4 0.35332810E-01 0.12499885E+03</pdfrwt>
<pdfrwt beam="1">  1       -4 0.26166593E-02 0.12499885E+03</pdfrwt>
<totfact> 0.82815798E+03</totfact>
</mgrwt>
</event>
<event>
 5    1  0.3227866E-002  0.1249964E+03  0.7818608E-02  0.1235075E+00
          4   -1    0    0  501    0  0.00000000000E+00  0.00000000000E+00  0.54222675471E+02  0.54237546360E+02  0.12700000000E+01 0.  1.
         -4   -1    0    0    0  501 -0.00000000000E+00 -0.00000000000E+00 -0.72006410841E+02  0.72017609667E+02  0.12700000000E+01 0.  1.
         25    2    1    2    0    0  0.00000000000E+00  0.00000000000E+00 -0.17783735370E+02  0.12625515603E+03  0.12499641267E+03 0.  0.
    9000005    1    3    3    0    0  0.22685443982E+02 -0.57343612527E+02  0.13146673203E+01  0.61689931241E+02  0.10000000000E+01 0.  0.
    9000005    1    3    3    0    0 -0.22685443982E+02  0.57343612527E+02 -0.19098402690E+02  0.64565224786E+02  0.10000000000E+01 0.  0.
<mgrwt>
<rscale>  0 0.12499641E+03</rscale>
<asrwt>0</asrwt>
<pdfrwt beam="1">  1        4 0.83439554E-02 0.12499641E+03</pdfrwt>
<pdfrwt beam="2">  1       -4 0.11079915E-01 0.12499641E+03</pdfrwt>
<totfact> 0.10426217E+04</totfact>
</mgrwt>
</event>
<event>
 5    1  0.3227866E-002  0.1250288E+03  0.7818608E-02  0.1235024E+00
         -4   -1    0    0    0  501 -0.00000000000E+00  0.00000000000E+00  0.91099001088E+02  0.91107853115E+02  0.12700000000E+01 0.  1.
          4   -1    0    0  501    0  0.00000000000E+00 -0.00000000000E+00 -0.42878590800E+02  0.42897394431E+02  0.12700000000E+01 0.  1.
         25    2    1    2    0    0  0.00000000000E+00  0.00000000000E+00  0.48220410288E+02  0.13400524755E+03  0.12502879029E+03 0.  0.
    9000005    1    3    3    0    0  0.53124251303E+02 -0.20205987956E+02 -0.37684525446E+01  0.56970775493E+02  0.10000000000E+01 0.  0.
    9000005    1    3    3    0    0 -0.53124251303E+02  0.20205987956E+02  0.51988862833E+02  0.77034472053E+02  0.10000000000E+01 0.  0.
<mgrwt>
<rscale>  0 0.12502879E+03</rscale>
<asrwt>0</asrwt>
<pdfrwt beam="2">  1        4 0.65988337E-02 0.12502879E+03</pdfrwt>
<pdfrwt beam="1">  1       -4 0.14017358E-01 0.12502879E+03</pdfrwt>
<totfact> 0.10252421E+04</totfact>
</mgrwt>
</event>
<event>
 5    1  0.3227866E-002  0.1250001E+03  0.7818608E-02  0.1235069E+00
          4   -1    0    0  501    0  0.00000000000E+00  0.00000000000E+00  0.44992072603E+01  0.46750150771E+01  0.12700000000E+01 0. -1.
         -4   -1    0    0    0  501 -0.00000000000E+00 -0.00000000000E+00 -0.85139568230E+03  0.85139662951E+03  0.12700000000E+01 0. -1.
         25    2    1    2    0    0  0.00000000000E+00  0.00000000000E+00 -0.84689647504E+03  0.85607164459E+03  0.12500008492E+03 0.  0.
    9000005    1    3    3    0    0 -0.54422362459E+02  0.16043888241E+02 -0.60283046174E+03  0.60549547107E+03  0.10000000000E+01 0.  0.
    9000005    1    3    3    0    0  0.54422362459E+02 -0.16043888241E+02 -0.24406601330E+03  0.25057617352E+03  0.10000000000E+01 0.  0.
<mgrwt>
<rscale>  0 0.12500008E+03</rscale>
<asrwt>0</asrwt>
<pdfrwt beam="1">  1        4 0.70578295E-03 0.12500008E+03</pdfrwt>
<pdfrwt beam="2">  1       -4 0.13099742E+00 0.12500008E+03</pdfrwt>
<totfact> 0.35880111E+03</totfact>
</mgrwt>
</event>
<event>
 5    1  0.3227866E-002  0.1250027E+03  0.7818608E-02  0.1235065E+00
         -4   -1    0    0    0  501 -0.00000000000E+00  0.00000000000E+00  0.13411991205E+03  0.13412592482E+03  0.12700000000E+01 0.  1.
          4   -1    0    0  501    0  0.00000000000E+00 -0.00000000000E+00 -0.29105810110E+02  0.29133504460E+02  0.12700000000E+01 0.  1.
         25    2    1    2    0    0  0.00000000000E+00  0.00000000000E+00  0.10501410194E+03  0.16325942928E+03  0.12500271854E+03 0.  0.
    9000005    1    3    3    0    0  0.15599424737E+02  0.51129884468E+02  0.94783710065E+02  0.10882352150E+03  0.10000000000E+01 0.  0.
    9000005    1    3    3    0    0 -0.15599424737E+02 -0.51129884468E+02  0.10230391875E+02  0.54435907779E+02  0.10000000000E+01 0.  0.
<mgrwt>
<rscale>  0 0.12500272E+03</rscale>
<asrwt>0</asrwt>
<pdfrwt beam="2">  1        4 0.44804098E-02 0.12500272E+03</pdfrwt>
<pdfrwt beam="1">  1       -4 0.20636425E-01 0.12500272E+03</pdfrwt>
<totfact> 0.96712140E+03</totfact>
</mgrwt>
</event>
<event>
 5    1  0.3227866E-002  0.1250018E+03  0.7818608E-02  0.1235066E+00
          4   -1    0    0  501    0  0.00000000000E+00  0.00000000000E+00  0.78912371485E+02  0.78922590387E+02  0.12700000000E+01 0. -1.
         -4   -1    0    0    0  501 -0.00000000000E+00 -0.00000000000E+00 -0.49480968830E+02  0.49497264332E+02  0.12700000000E+01 0. -1.
         25    2    1    2    0    0  0.00000000000E+00  0.00000000000E+00  0.29431402655E+02  0.12841985472E+03  0.12500180648E+03 0.  0.
    9000005    1    3    3    0    0  0.25076521494E+02 -0.24092600506E+02 -0.38627868647E+02  0.51984589693E+02  0.10000000000E+01 0.  0.
    9000005    1    3    3    0    0 -0.25076521494E+02  0.24092600506E+02  0.68059271302E+02  0.76435265025E+02  0.10000000000E+01 0.  0.
<mgrwt>
<rscale>  0 0.12500181E+03</rscale>
<asrwt>0</asrwt>
<pdfrwt beam="1">  1        4 0.12142404E-01 0.12500181E+03</pdfrwt>
<pdfrwt beam="2">  1       -4 0.76144964E-02 0.12500181E+03</pdfrwt>
<totfact> 0.10378007E+04</totfact>
</mgrwt>
</event>
<event>
 5    1  0.3227866E-002  0.1250010E+03  0.7818608E-02  0.1235068E+00
         -4   -1    0    0    0  501 -0.00000000000E+00  0.00000000000E+00  0.42878791762E+03  0.42878979838E+03  0.12700000000E+01 0.  1.
          4   -1    0    0  501    0  0.00000000000E+00 -0.00000000000E+00 -0.90639632460E+01  0.91525040139E+01  0.12700000000E+01 0.  1.
         25    2    1    2    0    0  0.00000000000E+00  0.00000000000E+00  0.41972395438E+03  0.43794230240E+03  0.12500104941E+03 0.  0.
    9000005    1    3    3    0    0 -0.40087713473E+02  0.20412437740E+02  0.36183607297E+03  0.36462314256E+03  0.10000000000E+01 0.  0.
    9000005    1    3    3    0    0  0.40087713473E+02 -0.20412437740E+02  0.57887881402E+02  0.73319159837E+02  0.10000000000E+01 0.  0.
<mgrwt>
<rscale>  0 0.12500105E+03</rscale>
<asrwt>0</asrwt>
<pdfrwt beam="2">  1        4 0.14014119E-02 0.12500105E+03</pdfrwt>
<pdfrwt beam="1">  1       -4 0.65974304E-01 0.12500105E+03</pdfrwt>
<totfact> 0.61021210E+03</totfact>
</mgrwt>
</event>
<event>
 5    1  0.3227866E-002  0.1249999E+03  0.7818608E-02  0.1235069E+00
          4   -1    0    0  501    0  0.00000000000E+00  0.00000000000E+00  0.40570699377E+03  0.40570898153E+03  0.12700000000E+01 0. -1.
         -4   -1    0    0    0  501 -0.00000000000E+00 -0.00000000000E+00 -0.95843451597E+01  0.96681214381E+01  0.12700000000E+01 0. -1.
         25    2    1    2    0    0  0.00000000000E+00  0.00000000000E+00  0.39612264861E+03  0.41537710297E+03  0.12499993971E+03 0.  0.
    9000005    1    3    3    0    0  0.12708213158E+02  0.59977933485E+01 -0.42822318265E+01  0.14724459791E+02  0.10000000000E+01 0.  0.
    9000005    1    3    3    0    0 -0.12708213158E+02 -0.59977933485E+01  0.40040488044E+03  0.40065264318E+03  0.10000000000E+01 0.  0.
<mgrwt>
<rscale>  0 0.12499994E+03</rscale>
<asrwt>0</asrwt>
<pdfrwt beam="1">  1        4 0.62423047E-01 0.12499994E+03</pdfrwt>
<pdfrwt beam="2">  1       -4 0.14811121E-02 0.12499994E+03</pdfrwt>
<totfact> 0.63084300E+03</totfact>
</mgrwt>
</event>
<event>
 5    1  0.3227866E-002  0.1250000E+03  0.7818608E-02  0.1235069E+00
          4   -1    0    0  501    0  0.00000000000E+00  0.00000000000E+00  0.12144139530E+04  0.12144146170E+04  0.12700000000E+01 0. -1.
         -4   -1    0    0    0  501 -0.00000000000E+00 -0.00000000000E+00 -0.30905249926E+01  0.33412938706E+01  0.12700000000E+01 0. -1.
         25    2    1    2    0    0  0.00000000000E+00  0.00000000000E+00  0.12113234280E+04  0.12177559109E+04  0.12500004551E+03 0.  0.
    9000005    1    3    3    0    0  0.34062351012E+02  0.31535709908E+02  0.19806362788E+03  0.20343290158E+03  0.10000000000E+01 0.  0.
    9000005    1    3    3    0    0 -0.34062351012E+02 -0.31535709908E+02  0.10132598001E+04  0.10143230093E+04  0.10000000000E+01 0.  0.
<mgrwt>
<rscale>  0 0.12500005E+03</rscale>
<asrwt>0</asrwt>
<pdfrwt beam="1">  1        4 0.18685228E+00 0.12500005E+03</pdfrwt>
<pdfrwt beam="2">  1       -4 0.49480632E-03 0.12500005E+03</pdfrwt>
<totfact> 0.24252640E+03</totfact>
</mgrwt>
</event>
<event>
 5    1  0.3227866E-002  0.1249994E+03  0.7818608E-02  0.1235070E+00
         -4   -1    0    0    0  501 -0.00000000000E+00  0.00000000000E+00  0.26046645252E+02  0.26077588632E+02  0.12700000000E+01 0. -1.
          4   -1    0    0  501    0  0.00000000000E+00 -0.00000000000E+00 -0.14984730200E+03  0.14985268372E+03  0.12700000000E+01 0. -1.
         25    2    1    2    0    0  0.00000000000E+00  0.00000000000E+00 -0.12380065675E+03  0.17593027235E+03  0.12499943247E+03 0.  0.
    9000005    1    3    3    0    0  0.37250968827E+02  0.29280672917E+02 -0.11924797783E+03  0.12832019600E+03  0.10000000000E+01 0.  0.
    9000005    1    3    3    0    0 -0.37250968827E+02 -0.29280672917E+02 -0.45526789244E+01  0.47610076353E+02  0.10000000000E+01 0.  0.
<mgrwt>
<rscale>  0 0.12499943E+03</rscale>
<asrwt>0</asrwt>
<pdfrwt beam="2">  1        4 0.23056225E-01 0.12499943E+03</pdfrwt>
<pdfrwt beam="1">  1       -4 0.40099705E-02 0.12499943E+03</pdfrwt>
<totfact> 0.94355940E+03</totfact>
</mgrwt>
</event>
<event>
 5    1  0.3227866E-002  0.1250021E+03  0.7818608E-02  0.1235066E+00
          4   -1    0    0  501    0  0.00000000000E+00  0.00000000000E+00  0.70398364145E+02  0.70409818735E+02  0.12700000000E+01 0.  1.
         -4   -1    0    0    0  501 -0.00000000000E+00 -0.00000000000E+00 -0.55466445803E+02  0.55480983318E+02  0.12700000000E+01 0.  1.
         25    2    1    2    0    0  0.00000000000E+00  0.00000000000E+00  0.14931918342E+02  0.12589080205E+03  0.12500212741E+03 0.  0.
    9000005    1    3    3    0    0  0.25972319113E+02  0.55067539339E+02 -0.67191925051E+01  0.61262899024E+02  0.10000000000E+01 0.  0.
    9000005    1    3    3    0    0 -0.25972319113E+02 -0.55067539339E+02  0.21651110847E+02  0.64627903029E+02  0.10000000000E+01 0.  0.
<mgrwt>
<rscale>  0 0.12500213E+03</rscale>
<asrwt>0</asrwt>
<pdfrwt beam="1">  1        4 0.10832517E-01 0.12500213E+03</pdfrwt>
<pdfrwt beam="2">  1       -4 0.85352988E-02 0.12500213E+03</pdfrwt>
<totfact> 0.10432851E+04</totfact>
</mgrwt>
</event>
<event>
 5    1  0.3227866E-002  0.1250035E+03  0.7818608E-02  0.1235064E+00
          4   -1    0    0  501    0  0.00000000000E+00  0.00000000000E+00  0.15187676849E+04  0.15187682159E+04  0.12700000000E+01 0. -1.
         -4   -1    0    0    0  501 -0.00000000000E+00 -0.00000000000E+00 -0.24147999306E+01  0.27283985605E+01  0.12700000000E+01 0. -1.
         25    2    1    2    0    0  0.00000000000E+00  0.00000000000E+00  0.15163528850E+04  0.15214966144E+04  0.12500350406E+03 0.  0.
    9000005    1    3    3    0    0  0.27634437934E+01 -0.20267006713E+02  0.39423211517E+02  0.44424968081E+02  0.10000000000E+01 0.  0.
    9000005    1    3    3    0    0 -0.27634437934E+01  0.20267006713E+02  0.14769296734E+04  0.14770716464E+04  0.10000000000E+01 0.  0.
<mgrwt>
<rscale>  0 0.12500350E+03</rscale>
<asrwt>0</asrwt>
<pdfrwt beam="1">  1        4 0.23368019E+00 0.12500350E+03</pdfrwt>
<pdfrwt beam="2">  1       -4 0.39567241E-03 0.12500350E+03</pdfrwt>
<totfact> 0.17510405E+03</totfact>
</mgrwt>
</event>
<event>
 4    1  0.3227866E-002  0.1251371E+03  0.7818608E-02  0.1234855E+00
          4   -1    0    0  501    0  0.00000000000E+00  0.00000000000E+00  0.87977715651E+02  0.87986881699E+02  0.12700000000E+01 0.  1.
         -4   -1    0    0    0  501 -0.00000000000E+00 -0.00000000000E+00 -0.44477366163E+02  0.44495494163E+02  0.12700000000E+01 0.  1.
    9000005    1    1    2    0    0  0.19684292498E+02  0.38928942963E+02 -0.25724959072E+02  0.50652813255E+02  0.10000000000E+01 0.  0.
    9000005    1    1    2    0    0 -0.19684292498E+02 -0.38928942963E+02  0.69225308559E+02  0.81829562607E+02  0.10000000000E+01 0.  0.
<mgrwt>
<rscale>  0 0.12513712E+03</rscale>
<asrwt>0</asrwt>
<pdfrwt beam="1">  1        4 0.13537132E-01 0.12513712E+03</pdfrwt>
<pdfrwt beam="2">  1       -4 0.68447714E-02 0.12513712E+03</pdfrwt>
<totfact> 0.10259644E+04</totfact>
</mgrwt>
</event>
<event>
 5    1  0.3227866E-002  0.1249998E+03  0.7818608E-02  0.1235070E+00
         -4   -1    0    0    0  501 -0.00000000000E+00  0.00000000000E+00  0.18614225808E+03  0.18614659047E+03  0.12700000000E+01 0. -1.
          4   -1    0    0  501    0  0.00000000000E+00 -0.00000000000E+00 -0.20961435315E+02  0.20999873106E+02  0.12700000000E+01 0. -1.
         25    2    1    2    0    0  0.00000000000E+00  0.00000000000E+00  0.16518082276E+03  0.20714646357E+03  0.12499981265E+03 0.  0.
    9000005    1    3    3    0    0  0.18877357873E+02  0.57062264750E+02  0.54234732783E+02  0.80962108042E+02  0.10000000000E+01 0.  0.
    9000005    1    3    3    0    0 -0.18877357873E+02 -0.57062264750E+02  0.11094608998E+03  0.12618435553E+03  0.10000000000E+01 0.  0.
<mgrwt>
<rscale>  0 0.12499981E+03</rscale>
<asrwt>0</asrwt>
<pdfrwt beam="2">  1        4 0.32281261E-02 0.12499981E+03</pdfrwt>
<pdfrwt beam="1">  1       -4 0.28640561E-01 0.12499981E+03</pdfrwt>
<totfact> 0.88944403E+03</totfact>
</mgrwt>
</event>
<event>
 5    1  0.3227866E-002  0.1250019E+03  0.7818608E-02  0.1235066E+00
         -4   -1    0    0    0  501 -0.00000000000E+00  0.00000000000E+00  0.40761794735E+02  0.40781574394E+02  0.12700000000E+01 0. -1.
          4   -1    0    0  501    0  0.00000000000E+00 -0.00000000000E+00 -0.95786815354E+02  0.95795234201E+02  0.12700000000E+01 0. -1.
         25    2    1    2    0    0  0.00000000000E+00  0.00000000000E+00 -0.55025020618E+02  0.13657680859E+03  0.12500188699E+03 0.  0.
    9000005    1    3    3    0    0  0.29287996350E+02 -0.30665273171E+00 -0.87828343899E+02  0.92588869516E+02  0.10000000000E+01 0.  0.
    9000005    1    3    3    0    0 -0.29287996350E+02  0.30665273171E+00  0.32803323281E+02  0.43987939079E+02  0.10000000000E+01 0.  0.
<mgrwt>
<rscale>  0 0.12500189E+03</rscale>
<asrwt>0</asrwt>
<pdfrwt beam="2">  1        4 0.14738602E-01 0.12500189E+03</pdfrwt>
<pdfrwt beam="1">  1       -4 0.62732145E-02 0.12500189E+03</pdfrwt>
<totfact> 0.10204507E+04</totfact>
</mgrwt>
</event>
<event>
 5    1  0.3227866E-002  0.1250007E+03  0.7818608E-02  0.1235068E+00
          4   -1    0    0  501    0  0.00000000000E+00  0.00000000000E+00  0.13004176833E+02  0.13066044356E+02  0.12700000000E+01 0.  1.
         -4   -1    0    0    0  501 -0.00000000000E+00 -0.00000000000E+00 -0.29961165682E+03  0.29961434845E+03  0.12700000000E+01 0.  1.
         25    2    1    2    0    0  0.00000000000E+00  0.00000000000E+00 -0.28660747998E+03  0.31268039281E+03  0.12500072186E+03 0.  0.
    9000005    1    3    3    0    0  0.42438598310E+01 -0.62108387742E+02 -0.12964105133E+03  0.14381677358E+03  0.10000000000E+01 0.  0.
    9000005    1    3    3    0    0 -0.42438598310E+01  0.62108387742E+02 -0.15696642865E+03  0.16886361923E+03  0.10000000000E+01 0.  0.
<mgrwt>
<rscale>  0 0.12500072E+03</rscale>
<asrwt>0</asrwt>
<pdfrwt beam="1">  1        4 0.20056089E-02 0.12500072E+03</pdfrwt>
<pdfrwt beam="2">  1       -4 0.46099062E-01 0.12500072E+03</pdfrwt>
<totfact> 0.74034054E+03</totfact>
</mgrwt>
</event>
<event>
 5    1  0.3227866E-002  0.1249945E+03  0.7818608E-02  0.1235078E+00
         -4   -1    0    0    0  501 -0.00000000000E+00  0.00000000000E+00  0.75985293110E+02  0.75995905607E+02  0.12700000000E+01 0. -1.
          4   -1    0    0  501    0  0.00000000000E+00 -0.00000000000E+00 -0.51381382552E+02  0.51397075529E+02  0.12700000000E+01 0. -1.
         25    2    1    2    0    0  0.00000000000E+00  0.00000000000E+00  0.24603910557E+02  0.12739298114E+03  0.12499447679E+03 0.  0.
    9000005    1    3    3    0    0 -0.89772798825E+01 -0.50061741051E+02 -0.24700852443E+02  0.56549991888E+02  0.10000000000E+01 0.  0.
    9000005    1    3    3    0    0  0.89772798825E+01  0.50061741051E+02  0.49304763000E+02  0.70842989248E+02  0.10000000000E+01 0.  0.
<mgrwt>
<rscale>  0 0.12499448E+03</rscale>
<asrwt>0</asrwt>
<pdfrwt beam="2">  1        4 0.79068516E-02 0.12499448E+03</pdfrwt>
<pdfrwt beam="1">  1       -4 0.11692069E-01 0.12499448E+03</pdfrwt>
<totfact> 0.10401916E+04</totfact>
</mgrwt>
</event>
<event>
 5    1  0.3227866E-002  0.1249657E+03  0.7818608E-02  0.1235123E+00
          4   -1    0    0  501    0  0.00000000000E+00  0.00000000000E+00  0.33301914560E+02  0.33326122087E+02  0.12700000000E+01 0.  1.
         -4   -1    0    0    0  501 -0.00000000000E+00 -0.00000000000E+00 -0.11716346775E+03  0.11717035066E+03  0.12700000000E+01 0.  1.
         25    2    1    2    0    0  0.00000000000E+00  0.00000000000E+00 -0.83861553186E+02  0.15049647275E+03  0.12496570812E+03 0.  0.
    9000005    1    3    3    0    0  0.40380581945E+02  0.40870946215E+02 -0.12380396221E+02  0.58781798657E+02  0.10000000000E+01 0.  0.
    9000005    1    3    3    0    0 -0.40380581945E+02 -0.40870946215E+02 -0.71481156966E+02  0.91714674092E+02  0.10000000000E+01 0.  0.
<mgrwt>
<rscale>  0 0.12496571E+03</rscale>
<asrwt>0</asrwt>
<pdfrwt beam="1">  1        4 0.51257631E-02 0.12496571E+03</pdfrwt>
<pdfrwt beam="2">  1       -4 0.18027540E-01 0.12496571E+03</pdfrwt>
<totfact> 0.99281423E+03</totfact>
</mgrwt>
</event>
<event>
 5    1  0.3227866E-002  0.1249984E+03  0.7818608E-02  0.1235072E+00
         -4   -1    0    0    0  501 -0.00000000000E+00  0.00000000000E+00  0.22261165728E+03  0.22261527993E+03  0.12700000000E+01 0.  1.
          4   -1    0    0  501    0  0.00000000000E+00 -0.00000000000E+00 -0.17520186676E+02  0.17566156130E+02  0.12700000000E+01 0.  1.
         25    2    1    2    0    0  0.00000000000E+00  0.00000000000E+00  0.20509147060E+03  0.24018143606E+03  0.12499844364E+03 0.  0.
    9000005    1    3    3    0    0  0.71570593513E+01  0.22442741897E+02  0.21376335751E+03  0.21505969677E+03  0.10000000000E+01 0.  0.
    9000005    1    3    3    0    0 -0.71570593513E+01 -0.22442741897E+02 -0.86718869016E+01  0.25121739287E+02  0.10000000000E+01 0.  0.
<mgrwt>
<rscale>  0 0.12499844E+03</rscale>
<asrwt>0</asrwt>
<pdfrwt beam="2">  1        4 0.26992281E-02 0.12499844E+03</pdfrwt>
<pdfrwt beam="1">  1       -4 0.34251762E-01 0.12499844E+03</pdfrwt>
<totfact> 0.83773258E+03</totfact>
</mgrwt>
</event>
<event>
 5    1  0.3227866E-002  0.1249950E+03  0.7818608E-02  0.1235077E+00
          4   -1    0    0  501    0  0.00000000000E+00  0.00000000000E+00  0.46779507908E+02  0.46796744119E+02  0.12700000000E+01 0.  1.
         -4   -1    0    0    0  501 -0.00000000000E+00 -0.00000000000E+00 -0.83459268039E+02  0.83468930277E+02  0.12700000000E+01 0.  1.
         25    2    1    2    0    0  0.00000000000E+00  0.00000000000E+00 -0.36679760131E+02  0.13026567440E+03  0.12499496439E+03 0.  0.
    9000005    1    3    3    0    0 -0.60152777007E+02  0.16169663911E+02 -0.23563277447E+02  0.66603623450E+02  0.10000000000E+01 0.  0.
    9000005    1    3    3    0    0  0.60152777007E+02 -0.16169663911E+02 -0.13116482684E+02  0.63662050946E+02  0.10000000000E+01 0.  0.
<mgrwt>
<rscale>  0 0.12499496E+03</rscale>
<asrwt>0</asrwt>
<pdfrwt beam="1">  1        4 0.71989165E-02 0.12499496E+03</pdfrwt>
<pdfrwt beam="2">  1       -4 0.12841957E-01 0.12499496E+03</pdfrwt>
<totfact> 0.10340003E+04</totfact>
</mgrwt>
</event>
<event>
 5    1  0.3227866E-002  0.1250044E+03  0.7818608E-02  0.1235062E+00
          4   -1    0    0  501    0  0.00000000000E+00  0.00000000000E+00  0.52242023215E+02  0.52257457741E+02  0.12700000000E+01 0. -1.
         -4   -1    0    0    0  501 -0.00000000000E+00 -0.00000000000E+00 -0.74745521623E+02  0.74756310120E+02  0.12700000000E+01 0. -1.
         25    2    1    2    0    0  0.00000000000E+00  0.00000000000E+00 -0.22503498409E+02  0.12701376786E+03  0.12500435907E+03 0.  0.
    9000005    1    3    3    0    0  0.49636618496E+02  0.14942769262E+02 -0.46719047492E+02  0.69790756176E+02  0.10000000000E+01 0.  0.
    9000005    1    3    3    0    0 -0.49636618496E+02 -0.14942769262E+02  0.24215549084E+02  0.57223011686E+02  0.10000000000E+01 0.  0.
<mgrwt>
<rscale>  0 0.12500436E+03</rscale>
<asrwt>0</asrwt>
<pdfrwt beam="1">  1        4 0.80392515E-02 0.12500436E+03</pdfrwt>
<pdfrwt beam="2">  1       -4 0.11501328E-01 0.12500436E+03</pdfrwt>
<totfact> 0.10407822E+04</totfact>
</mgrwt>
</event>
<event>
 5    1  0.3227866E-002  0.1249979E+03  0.7818608E-02  0.1235072E+00
         -4   -1    0    0    0  501 -0.00000000000E+00  0.00000000000E+00  0.48665267068E+02  0.48681835615E+02  0.12700000000E+01 0. -1.
          4   -1    0    0  501    0  0.00000000000E+00 -0.00000000000E+00 -0.80229828092E+02  0.80239879210E+02  0.12700000000E+01 0. -1.
         25    2    1    2    0    0  0.00000000000E+00  0.00000000000E+00 -0.31564561023E+02  0.12892171482E+03  0.12499794815E+03 0.  0.
    9000005    1    3    3    0    0  0.14161688415E+02  0.36458392542E+01 -0.78445320572E+02  0.79802969132E+02  0.10000000000E+01 0.  0.
    9000005    1    3    3    0    0 -0.14161688415E+02 -0.36458392542E+01  0.46880759548E+02  0.49118745693E+02  0.10000000000E+01 0.  0.
<mgrwt>
<rscale>  0 0.12499795E+03</rscale>
<asrwt>0</asrwt>
<pdfrwt beam="2">  1        4 0.12345098E-01 0.12499795E+03</pdfrwt>
<pdfrwt beam="1">  1       -4 0.74890118E-02 0.12499795E+03</pdfrwt>
<totfact> 0.10368109E+04</totfact>
</mgrwt>
</event>
<event>
 5    1  0.3227866E-002  0.1250005E+03  0.7818608E-02  0.1235069E+00
          4   -1    0    0  501    0  0.00000000000E+00  0.00000000000E+00  0.52050595027E+01  0.53577555401E+01  0.12700000000E+01 0.  1.
         -4   -1    0    0    0  501 -0.00000000000E+00 -0.00000000000E+00 -0.73947516147E+03  0.73947625204E+03  0.12700000000E+01 0.  1.
         25    2    1    2    0    0  0.00000000000E+00  0.00000000000E+00 -0.73427010197E+03  0.74483400758E+03  0.12500046482E+03 0.  0.
    9000005    1    3    3    0    0  0.79444332260E+00  0.23495449320E+02 -0.22118839277E+02  0.32294122219E+02  0.10000000000E+01 0.  0.
    9000005    1    3    3    0    0 -0.79444332260E+00 -0.23495449320E+02 -0.71215126269E+03  0.71253988536E+03  0.10000000000E+01 0.  0.
<mgrwt>
<rscale>  0 0.12500046E+03</rscale>
<asrwt>0</asrwt>
<pdfrwt beam="1">  1        4 0.81260871E-03 0.12500046E+03</pdfrwt>
<pdfrwt beam="2">  1       -4 0.11377716E+00 0.12500046E+03</pdfrwt>
<totfact> 0.40822062E+03</totfact>
</mgrwt>
</event>
<event>
 5    1  0.3227866E-002  0.1250003E+03  0.7818608E-02  0.1235069E+00
          4   -1    0    0  501    0  0.00000000000E+00  0.00000000000E+00  0.17768151113E+03  0.17768604981E+03  0.12700000000E+01 0. -1.
         -4   -1    0    0    0  501 -0.00000000000E+00 -0.00000000000E+00 -0.21961486263E+02  0.21998176717E+02  0.12700000000E+01 0. -1.
         25    2    1    2    0    0  0.00000000000E+00  0.00000000000E+00  0.15572002486E+03  0.19968422653E+03  0.12500025672E+03 0.  0.
    9000005    1    3    3    0    0 -0.48885874000E+02 -0.38507403105E+02  0.86983411837E+02  0.10695682636E+03  0.10000000000E+01 0.  0.
    9000005    1    3    3    0    0  0.48885874000E+02  0.38507403105E+02  0.68736613027E+02  0.92727400163E+02  0.10000000000E+01 0.  0.
<mgrwt>
<rscale>  0 0.12500026E+03</rscale>
<asrwt>0</asrwt>
<pdfrwt beam="1">  1        4 0.27338788E-01 0.12500026E+03</pdfrwt>
<pdfrwt beam="2">  1       -4 0.33818617E-02 0.12500026E+03</pdfrwt>
<totfact> 0.90188273E+03</totfact>
</mgrwt>
</event>
<event>
 5    1  0.3227866E-002  0.1250001E+03  0.7818608E-02  0.1235069E+00
         -4   -1    0    0    0  501 -0.00000000000E+00  0.00000000000E+00  0.12274268807E+02  0.12339796382E+02  0.12700000000E+01 0.  1.
          4   -1    0    0  501    0  0.00000000000E+00 -0.00000000000E+00 -0.31733362806E+03  0.31733616939E+03  0.12700000000E+01 0.  1.
         25    2    1    2    0    0  0.00000000000E+00  0.00000000000E+00 -0.30505935926E+03  0.32967596577E+03  0.12500011894E+03 0.  0.
    9000005    1    3    3    0    0 -0.60047976852E+02  0.79705866124E+01 -0.19304349108E+03  0.20232666463E+03  0.10000000000E+01 0.  0.
    9000005    1    3    3    0    0  0.60047976852E+02 -0.79705866124E+01 -0.11201586818E+03  0.12734930113E+03  0.10000000000E+01 0.  0.
<mgrwt>
<rscale>  0 0.12500012E+03</rscale>
<asrwt>0</asrwt>
<pdfrwt beam="2">  1        4 0.48825788E-01 0.12500012E+03</pdfrwt>
<pdfrwt beam="1">  1       -4 0.18935854E-02 0.12500012E+03</pdfrwt>
<totfact> 0.72019700E+03</totfact>
</mgrwt>
</event>
<event>
 5    1  0.3227866E-002  0.1250090E+03  0.7818608E-02  0.1235055E+00
         -4   -1    0    0    0  501 -0.00000000000E+00  0.00000000000E+00  0.32116994553E+03  0.32117245649E+03  0.12700000000E+01 0. -1.
          4   -1    0    0  501    0  0.00000000000E+00 -0.00000000000E+00 -0.12128595336E+02  0.12194905691E+02  0.12700000000E+01 0. -1.
         25    2    1    2    0    0  0.00000000000E+00  0.00000000000E+00  0.30904135019E+03  0.33336736219E+03  0.12500896785E+03 0.  0.
    9000005    1    3    3    0    0 -0.12840471007E+02  0.60367605911E+02  0.12829894182E+03  0.14237536307E+03  0.10000000000E+01 0.  0.
    9000005    1    3    3    0    0  0.12840471007E+02 -0.60367605911E+02  0.18074240838E+03  0.19099199911E+03  0.10000000000E+01 0.  0.
<mgrwt>
<rscale>  0 0.12500897E+03</rscale>
<asrwt>0</asrwt>
<pdfrwt beam="2">  1        4 0.18712319E-02 0.12500897E+03</pdfrwt>
<pdfrwt beam="1">  1       -4 0.49416049E-01 0.12500897E+03</pdfrwt>
<totfact> 0.71579744E+03</totfact>
</mgrwt>
</event>
<event>
 5    1  0.3227866E-002  0.1249997E+03  0.7818608E-02  0.1235070E+00
          4   -1    0    0  501    0  0.00000000000E+00  0.00000000000E+00  0.22516566670E+01  0.25851223851E+01  0.12700000000E+01 0.  1.
         -4   -1    0    0    0  501 -0.00000000000E+00 -0.00000000000E+00 -0.16148872253E+04  0.16148877247E+04  0.12700000000E+01 0.  1.
         25    2    1    2    0    0  0.00000000000E+00  0.00000000000E+00 -0.16126355686E+04  0.16174728471E+04  0.12499973515E+03 0.  0.
    9000005    1    3    3    0    0  0.76254313851E+01 -0.56535077363E+02 -0.47619503212E+03  0.47960094953E+03  0.10000000000E+01 0.  0.
    9000005    1    3    3    0    0 -0.76254313851E+01  0.56535077363E+02 -0.11364405365E+04  0.11378718975E+04  0.10000000000E+01 0.  0.
<mgrwt>
<rscale>  0 0.12499974E+03</rscale>
<asrwt>0</asrwt>
<pdfrwt beam="1">  1        4 0.37209963E-03 0.12499974E+03</pdfrwt>
<pdfrwt beam="2">  1       -4 0.24846902E+00 0.12499974E+03</pdfrwt>
<totfact> 0.15732547E+03</totfact>
</mgrwt>
</event>
<event>
 5    1  0.3227866E-002  0.1250036E+03  0.7818608E-02  0.1235064E+00
          4   -1    0    0  501    0  0.00000000000E+00  0.00000000000E+00  0.50613636050E+02  0.50629566996E+02  0.12700000000E+01 0. -1.
         -4   -1    0    0    0  501 -0.00000000000E+00 -0.00000000000E+00 -0.77148979071E+02  0.77159431515E+02  0.12700000000E+01 0. -1.
         25    2    1    2    0    0  0.00000000000E+00  0.00000000000E+00 -0.26535343021E+02  0.12778899851E+03  0.12500361479E+03 0.  0.
    9000005    1    3    3    0    0  0.27173142700E+01  0.23517061037E+02  0.45857382505E+02  0.51617201463E+02  0.10000000000E+01 0.  0.
    9000005    1    3    3    0    0 -0.27173142700E+01 -0.23517061037E+02 -0.72392725525E+02  0.76171797049E+02  0.10000000000E+01 0.  0.
<mgrwt>
<rscale>  0 0.12500361E+03</rscale>
<asrwt>0</asrwt>
<pdfrwt beam="1">  1        4 0.77887427E-02 0.12500361E+03</pdfrwt>
<pdfrwt beam="2">  1       -4 0.11871103E-01 0.12500361E+03</pdfrwt>
<totfact> 0.10391199E+04</totfact>
</mgrwt>
</event>
<event>
 5    1  0.3227866E-002  0.1250322E+03  0.7818608E-02  0.1235019E+00
         -4   -1    0    0    0  501 -0.00000000000E+00  0.00000000000E+00  0.69553589187E+02  0.69565182877E+02  0.12700000000E+01 0.  1.
          4   -1    0    0  501    0  0.00000000000E+00 -0.00000000000E+00 -0.56167259080E+02  0.56181615254E+02  0.12700000000E+01 0.  1.
         25    2    1    2    0    0  0.00000000000E+00  0.00000000000E+00  0.13386330107E+02  0.12574679813E+03  0.12503224947E+03 0.  0.
    9000005    1    3    3    0    0 -0.38486741451E+02  0.34120544381E+02  0.42418347939E+02  0.66676510543E+02  0.10000000000E+01 0.  0.
    9000005    1    3    3    0    0  0.38486741451E+02 -0.34120544381E+02 -0.29032017831E+02  0.59070287588E+02  0.10000000000E+01 0.  0.
<mgrwt>
<rscale>  0 0.12503225E+03</rscale>
<asrwt>0</asrwt>
<pdfrwt beam="2">  1        4 0.86431129E-02 0.12503225E+03</pdfrwt>
<pdfrwt beam="1">  1       -4 0.10702548E-01 0.12503225E+03</pdfrwt>
<totfact> 0.10428925E+04</totfact>
</mgrwt>
</event>
<event>
 5    1  0.3227866E-002  0.1249992E+03  0.7818608E-02  0.1235071E+00
          4   -1    0    0  501    0  0.00000000000E+00  0.00000000000E+00  0.96499165890E+02  0.96507522595E+02  0.12700000000E+01 0. -1.
         -4   -1    0    0    0  501 -0.00000000000E+00 -0.00000000000E+00 -0.40459038771E+02  0.40478966368E+02  0.12700000000E+01 0. -1.
         25    2    1    2    0    0  0.00000000000E+00  0.00000000000E+00  0.56040127120E+02  0.13698648896E+03  0.12499920924E+03 0.  0.
    9000005    1    3    3    0    0 -0.59612049111E+02  0.16586553023E+02  0.18435462499E+02  0.64572257340E+02  0.10000000000E+01 0.  0.
    9000005    1    3    3    0    0  0.59612049111E+02 -0.16586553023E+02  0.37604664620E+02  0.72414231624E+02  0.10000000000E+01 0.  0.
<mgrwt>
<rscale>  0 0.12499921E+03</rscale>
<asrwt>0</asrwt>
<pdfrwt beam="1">  1        4 0.14848201E-01 0.12499921E+03</pdfrwt>
<pdfrwt beam="2">  1       -4 0.62266433E-02 0.12499921E+03</pdfrwt>
<totfact> 0.10196550E+04</totfact>
</mgrwt>
</event>
<event>
 5    1  0.3227866E-002  0.1249986E+03  0.7818608E-02  0.1235072E+00
          4   -1    0    0  501    0  0.00000000000E+00  0.00000000000E+00  0.15819608345E+02  0.15870504345E+02  0.12700000000E+01 0.  1.
         -4   -1    0    0    0  501 -0.00000000000E+00 -0.00000000000E+00 -0.24646980530E+03  0.24647307728E+03  0.12700000000E+01 0.  1.
         25    2    1    2    0    0  0.00000000000E+00  0.00000000000E+00 -0.23065019695E+03  0.26234358162E+03  0.12499856585E+03 0.  0.
    9000005    1    3    3    0    0 -0.34899573552E+02 -0.46015500555E+02 -0.65228407100E+02  0.87127215141E+02  0.10000000000E+01 0.  0.
    9000005    1    3    3    0    0  0.34899573552E+02  0.46015500555E+02 -0.16542178985E+03  0.17521636648E+03  0.10000000000E+01 0.  0.
<mgrwt>
<rscale>  0 0.12499857E+03</rscale>
<asrwt>0</asrwt>
<pdfrwt beam="1">  1        4 0.24379528E-02 0.12499857E+03</pdfrwt>
<pdfrwt beam="2">  1       -4 0.37922596E-01 0.12499857E+03</pdfrwt>
<totfact> 0.80580867E+03</totfact>
</mgrwt>
</event>
<event>
 5    1  0.3227866E-002  0.1250014E+03  0.7818608E-02  0.1235067E+00
          4   -1    0    0  501    0  0.00000000000E+00  0.00000000000E+00  0.10689720622E+04  0.10689728167E+04  0.12700000000E+01 0. -1.
         -4   -1    0    0    0  501 -0.00000000000E+00 -0.00000000000E+00 -0.35431725398E+01  0.37639037776E+01  0.12700000000E+01 0. -1.
         25    2    1    2    0    0  0.00000000000E+00  0.00000000000E+00  0.10654288897E+04  0.10727367204E+04  0.12500140943E+03 0.  0.
    9000005    1    3    3    0    0  0.47003543040E+02  0.41014871282E+02  0.56457749696E+03  0.56801435087E+03  0.10000000000E+01 0.  0.
    9000005    1    3    3    0    0 -0.47003543040E+02 -0.41014871282E+02  0.50085139273E+03  0.50472236955E+03  0.10000000000E+01 0.  0.
<mgrwt>
<rscale>  0 0.12500141E+03</rscale>
<asrwt>0</asrwt>
<pdfrwt beam="1">  1        4 0.16447412E+00 0.12500141E+03</pdfrwt>
<pdfrwt beam="2">  1       -4 0.56214138E-03 0.12500141E+03</pdfrwt>
<totfact> 0.28294490E+03</totfact>
</mgrwt>
</event>
<event>
 5    1  0.3227866E-002  0.1249996E+03  0.7818608E-02  0.1235070E+00
          4   -1    0    0  501    0  0.00000000000E+00  0.00000000000E+00  0.41263190622E+02  0.41282730049E+02  0.12700000000E+01 0. -1.
         -4   -1    0    0    0  501 -0.00000000000E+00 -0.00000000000E+00 -0.94619923066E+02  0.94628445729E+02  0.12700000000E+01 0. -1.
         25    2    1    2    0    0  0.00000000000E+00  0.00000000000E+00 -0.53356732444E+02  0.13591117578E+03  0.12499962722E+03 0.  0.
    9000005    1    3    3    0    0  0.29845827884E+02 -0.52345697948E+02 -0.86679562043E+01  0.60884965308E+02  0.10000000000E+01 0.  0.
    9000005    1    3    3    0    0 -0.29845827884E+02  0.52345697948E+02 -0.44688776240E+02  0.75026210471E+02  0.10000000000E+01 0.  0.
<mgrwt>
<rscale>  0 0.12499963E+03</rscale>
<asrwt>0</asrwt>
<pdfrwt beam="1">  1        4 0.63503418E-02 0.12499963E+03</pdfrwt>
<pdfrwt beam="2">  1       -4 0.14559070E-01 0.12499963E+03</pdfrwt>
<totfact> 0.10218987E+04</totfact>
</mgrwt>
</event>
<event>
 5    1  0.3227866E-002  0.1249956E+03  0.7818608E-02  0.1235076E+00
         -4   -1    0    0    0  501 -0.00000000000E+00  0.00000000000E+00  0.40485582147E+03  0.40485781341E+03  0.12700000000E+01 0. -1.
          4   -1    0    0  501    0  0.00000000000E+00 -0.00000000000E+00 -0.96040045504E+01  0.96876108202E+01  0.12700000000E+01 0. -1.
         25    2    1    2    0    0  0.00000000000E+00  0.00000000000E+00  0.39525181692E+03  0.41454542423E+03  0.12499563981E+03 0.  0.
    9000005    1    3    3    0    0 -0.59098450944E+02  0.14298332407E+02  0.14980551404E+03  0.16167795537E+03  0.10000000000E+01 0.  0.
    9000005    1    3    3    0    0  0.59098450944E+02 -0.14298332407E+02  0.24544630287E+03  0.25286746886E+03  0.10000000000E+01 0.  0.
<mgrwt>
<rscale>  0 0.12499564E+03</rscale>
<asrwt>0</asrwt>
<pdfrwt beam="2">  1        4 0.14841239E-02 0.12499564E+03</pdfrwt>
<pdfrwt beam="1">  1       -4 0.62292085E-01 0.12499564E+03</pdfrwt>
<totfact> 0.63168364E+03</totfact>
</mgrwt>
</event>
<event>
 5    1  0.3227866E-002  0.1249981E+03  0.7818608E-02  0.1235072E+00
         -4   -1    0    0    0  501 -0.00000000000E+00  0.00000000000E+00  0.10020428555E+02  0.10100588518E+02  0.12700000000E+01 0.  1.
          4   -1    0    0  501    0  0.00000000000E+00 -0.00000000000E+00 -0.38818252117E+03  0.38818459866E+03  0.12700000000E+01 0.  1.
         25    2    1    2    0    0  0.00000000000E+00  0.00000000000E+00 -0.37816209261E+03  0.39828518718E+03  0.12499808814E+03 0.  0.
    9000005    1    3    3    0    0 -0.25345946547E+02 -0.53379321986E+02 -0.12429883177E+03  0.13763345742E+03  0.10000000000E+01 0.  0.
    9000005    1    3    3    0    0  0.25345946547E+02  0.53379321986E+02 -0.25386326084E+03  0.26065172976E+03  0.10000000000E+01 0.  0.
<mgrwt>
<rscale>  0 0.12499809E+03</rscale>
<asrwt>0</asrwt>
<pdfrwt beam="2">  1        4 0.59726702E-01 0.12499809E+03</pdfrwt>
<pdfrwt beam="1">  1       -4 0.15479307E-02 0.12499809E+03</pdfrwt>
<totfact> 0.64722649E+03</totfact>
</mgrwt>
</event>
<event>
 5    1  0.3227866E-002  0.1249997E+03  0.7818608E-02  0.1235070E+00
          4   -1    0    0  501    0  0.00000000000E+00  0.00000000000E+00  0.61481237058E+02  0.61494352669E+02  0.12700000000E+01 0.  1.
         -4   -1    0    0    0  501 -0.00000000000E+00 -0.00000000000E+00 -0.63509088171E+02  0.63521785085E+02  0.12700000000E+01 0.  1.
         25    2    1    2    0    0  0.00000000000E+00  0.00000000000E+00 -0.20278511132E+01  0.12501613775E+03  0.12499969007E+03 0.  0.
    9000005    1    3    3    0    0 -0.60386881064E+02  0.13787786859E+02 -0.92946380997E+01  0.62642387953E+02  0.10000000000E+01 0.  0.
    9000005    1    3    3    0    0  0.60386881064E+02 -0.13787786859E+02  0.72667869865E+01  0.62373749800E+02  0.10000000000E+01 0.  0.
<mgrwt>
<rscale>  0 0.12499969E+03</rscale>
<asrwt>0</asrwt>
<pdfrwt beam="1">  1        4 0.94606374E-02 0.12499969E+03</pdfrwt>
<pdfrwt beam="2">  1       -4 0.97726145E-02 0.12499969E+03</pdfrwt>
<totfact> 0.10452585E+04</totfact>
</mgrwt>
</event>
<event>
 5    1  0.3227866E-002  0.1249994E+03  0.7818608E-02  0.1235070E+00
         -4   -1    0    0    0  501 -0.00000000000E+00  0.00000000000E+00  0.25509734576E+02  0.25541328433E+02  0.12700000000E+01 0.  1.
          4   -1    0    0  501    0  0.00000000000E+00 -0.00000000000E+00 -0.15299723699E+03  0.15300250791E+03  0.12700000000E+01 0.  1.
         25    2    1    2    0    0  0.00000000000E+00  0.00000000000E+00 -0.12748750242E+03  0.17854383635E+03  0.12499935290E+03 0.  0.
    9000005    1    3    3    0    0 -0.41955091433E+02  0.26122637774E+02 -0.11836958124E+03  0.12827696467E+03  0.10000000000E+01 0.  0.
    9000005    1    3    3    0    0  0.41955091433E+02 -0.26122637774E+02 -0.91179211739E+01  0.50266871674E+02  0.10000000000E+01 0.  0.
<mgrwt>
<rscale>  0 0.12499935E+03</rscale>
<asrwt>0</asrwt>
<pdfrwt beam="2">  1        4 0.23540872E-01 0.12499935E+03</pdfrwt>
<pdfrwt beam="1">  1       -4 0.39274104E-02 0.12499935E+03</pdfrwt>
<totfact> 0.93881138E+03</totfact>
</mgrwt>
</event>
<event>
 5    1  0.3227866E-002  0.1249972E+03  0.7818608E-02  0.1235074E+00
         -4   -1    0    0    0  501 -0.00000000000E+00  0.00000000000E+00  0.58728433465E+02  0.58742163709E+02  0.12700000000E+01 0. -1.
          4   -1    0    0  501    0  0.00000000000E+00 -0.00000000000E+00 -0.66483254054E+02  0.66495383070E+02  0.12700000000E+01 0. -1.
         25    2    1    2    0    0  0.00000000000E+00  0.00000000000E+00 -0.77548205886E+01  0.12523754678E+03  0.12499722349E+03 0.  0.
    9000005    1    3    3    0    0 -0.57228902627E+02 -0.19343548282E+02 -0.19900540719E+02  0.63610939916E+02  0.10000000000E+01 0.  0.
    9000005    1    3    3    0    0  0.57228902627E+02  0.19343548282E+02  0.12145720130E+02  0.61626606864E+02  0.10000000000E+01 0.  0.
<mgrwt>
<rscale>  0 0.12499722E+03</rscale>
<asrwt>0</asrwt>
<pdfrwt beam="2">  1        4 0.10230182E-01 0.12499722E+03</pdfrwt>
<pdfrwt beam="1">  1       -4 0.90371328E-02 0.12499722E+03</pdfrwt>
<totfact> 0.10448361E+04</totfact>
</mgrwt>
</event>
<event>
 5    1  0.3227866E-002  0.1250032E+03  0.7818608E-02  0.1235064E+00
         -4   -1    0    0    0  501 -0.00000000000E+00  0.00000000000E+00  0.56033446720E+02  0.56047837169E+02  0.12700000000E+01 0. -1.
          4   -1    0    0  501    0  0.00000000000E+00 -0.00000000000E+00 -0.69687287528E+02  0.69698858979E+02  0.12700000000E+01 0. -1.
         25    2    1    2    0    0  0.00000000000E+00  0.00000000000E+00 -0.13653840808E+02  0.12574669615E+03  0.12500321685E+03 0.  0.
    9000005    1    3    3    0    0 -0.70513177175E+01 -0.38664032671E+02 -0.55704204556E+02  0.68180546413E+02  0.10000000000E+01 0.  0.
    9000005    1    3    3    0    0  0.70513177175E+01  0.38664032671E+02  0.42050363749E+02  0.57566149735E+02  0.10000000000E+01 0.  0.
<mgrwt>
<rscale>  0 0.12500322E+03</rscale>
<asrwt>0</asrwt>
<pdfrwt beam="2">  1        4 0.10723118E-01 0.12500322E+03</pdfrwt>
<pdfrwt beam="1">  1       -4 0.86225273E-02 0.12500322E+03</pdfrwt>
<totfact> 0.10435760E+04</totfact>
</mgrwt>
</event>
<event>
 5    1  0.3227866E-002  0.1250003E+03  0.7818608E-02  0.1235069E+00
          4   -1    0    0  501    0  0.00000000000E+00  0.00000000000E+00  0.48000811162E+03  0.48000979169E+03  0.12700000000E+01 0.  1.
         -4   -1    0    0    0  501 -0.00000000000E+00 -0.00000000000E+00 -0.80866752967E+01  0.81857936301E+01  0.12700000000E+01 0.  1.
         25    2    1    2    0    0  0.00000000000E+00  0.00000000000E+00  0.47192143632E+03  0.48819558532E+03  0.12500034987E+03 0.  0.
    9000005    1    3    3    0    0  0.54004867282E+00  0.62375476568E+02  0.25071944210E+03  0.25836453002E+03  0.10000000000E+01 0.  0.
    9000005    1    3    3    0    0 -0.54004867282E+00 -0.62375476568E+02  0.22120199423E+03  0.22983105530E+03  0.10000000000E+01 0.  0.
<mgrwt>
<rscale>  0 0.12500035E+03</rscale>
<asrwt>0</asrwt>
<pdfrwt beam="1">  1        4 0.73855168E-01 0.12500035E+03</pdfrwt>
<pdfrwt beam="2">  1       -4 0.12518574E-02 0.12500035E+03</pdfrwt>
<totfact> 0.56791573E+03</totfact>
</mgrwt>
</event>
<event>
 5    1  0.3227866E-002  0.1250000E+03  0.7818608E-02  0.1235069E+00
          4   -1    0    0  501    0  0.00000000000E+00  0.00000000000E+00  0.63794712947E+02  0.63807353024E+02  0.12700000000E+01 0. -1.
         -4   -1    0    0    0  501 -0.00000000000E+00 -0.00000000000E+00 -0.61206224955E+02  0.61219399484E+02  0.12700000000E+01 0. -1.
         25    2    1    2    0    0  0.00000000000E+00  0.00000000000E+00  0.25884879919E+01  0.12502675251E+03  0.12499995429E+03 0.  0.
    9000005    1    3    3    0    0 -0.52775962806E+02 -0.16567048344E+02 -0.27789090718E+02  0.61911250220E+02  0.10000000000E+01 0.  0.
    9000005    1    3    3    0    0  0.52775962806E+02  0.16567048344E+02  0.30377578710E+02  0.63115502289E+02  0.10000000000E+01 0.  0.
<mgrwt>
<rscale>  0 0.12499995E+03</rscale>
<asrwt>0</asrwt>
<pdfrwt beam="1">  1        4 0.98165569E-02 0.12499995E+03</pdfrwt>
<pdfrwt beam="2">  1       -4 0.94183281E-02 0.12499995E+03</pdfrwt>
<totfact> 0.10452292E+04</totfact>
</mgrwt>
</event>
<event>
 5    1  0.3227866E-002  0.1250049E+03  0.7818608E-02  0.1235062E+00
         -4   -1    0    0    0  501 -0.00000000000E+00  0.00000000000E+00  0.37016935236E+03  0.37017153095E+03  0.12700000000E+01 0.  1.
          4   -1    0    0  501    0  0.00000000000E+00 -0.00000000000E+00 -0.10512997786E+02  0.10589429751E+02  0.12700000000E+01 0.  1.
         25    2    1    2    0    0  0.00000000000E+00  0.00000000000E+00  0.35965635457E+03  0.38076096070E+03  0.12500486314E+03 0.  0.
    9000005    1    3    3    0    0 -0.12511335791E+02 -0.22565791613E+00 -0.66729490524E+01  0.14216634406E+02  0.10000000000E+01 0.  0.
    9000005    1    3    3    0    0  0.12511335791E+02  0.22565791613E+00  0.36632930363E+03  0.36654432630E+03  0.10000000000E+01 0.  0.
<mgrwt>
<rscale>  0 0.12500486E+03</rscale>
<asrwt>0</asrwt>
<pdfrwt beam="2">  1        4 0.16234316E-02 0.12500486E+03</pdfrwt>
<pdfrwt beam="1">  1       -4 0.56955167E-01 0.12500486E+03</pdfrwt>
<totfact> 0.66460829E+03</totfact>
</mgrwt>
</event>
<event>
 5    1  0.3227866E-002  0.1250001E+03  0.7818608E-02  0.1235069E+00
         -4   -1    0    0    0  501 -0.00000000000E+00  0.00000000000E+00  0.62770951767E+03  0.62771080242E+03  0.12700000000E+01 0.  1.
          4   -1    0    0  501    0  0.00000000000E+00 -0.00000000000E+00 -0.61569331708E+01  0.62865512064E+01  0.12700000000E+01 0.  1.
         25    2    1    2    0    0  0.00000000000E+00  0.00000000000E+00  0.62155258450E+03  0.63399735362E+03  0.12500011643E+03 0.  0.
    9000005    1    3    3    0    0  0.42527179510E+02 -0.12039681782E+02  0.86703941903E+02  0.97324655026E+02  0.10000000000E+01 0.  0.
    9000005    1    3    3    0    0 -0.42527179510E+02  0.12039681782E+02  0.53484864259E+03  0.53667269860E+03  0.10000000000E+01 0.  0.
<mgrwt>
<rscale>  0 0.12500012E+03</rscale>
<asrwt>0</asrwt>
<pdfrwt beam="2">  1        4 0.95728972E-03 0.12500012E+03</pdfrwt>
<pdfrwt beam="1">  1       -4 0.96580786E-01 0.12500012E+03</pdfrwt>
<totfact> 0.46789467E+03</totfact>
</mgrwt>
</event>
<event>
 5    1  0.3227866E-002  0.1249983E+03  0.7818608E-02  0.1235072E+00
         -4   -1    0    0    0  501 -0.00000000000E+00  0.00000000000E+00  0.14255068264E+03  0.14255633982E+03  0.12700000000E+01 0. -1.
          4   -1    0    0  501    0  0.00000000000E+00 -0.00000000000E+00 -0.27380882018E+02  0.27410319226E+02  0.12700000000E+01 0. -1.
         25    2    1    2    0    0  0.00000000000E+00  0.00000000000E+00  0.11516980062E+03  0.16996665904E+03  0.12499832883E+03 0.  0.
    9000005    1    3    3    0    0 -0.86875313001E+01  0.16406173046E+02  0.13872128011E+03  0.13996152782E+03  0.10000000000E+01 0.  0.
    9000005    1    3    3    0    0  0.86875313001E+01 -0.16406173046E+02 -0.23551479482E+02  0.30005131226E+02  0.10000000000E+01 0.  0.
<mgrwt>
<rscale>  0 0.12499833E+03</rscale>
<asrwt>0</asrwt>
<pdfrwt beam="2">  1        4 0.42151429E-02 0.12499833E+03</pdfrwt>
<pdfrwt beam="1">  1       -4 0.21933574E-01 0.12499833E+03</pdfrwt>
<totfact> 0.95458431E+03</totfact>
</mgrwt>
</event>
<event>
 5    1  0.3227866E-002  0.1250004E+03  0.7818608E-02  0.1235069E+00
         -4   -1    0    0    0  501 -0.00000000000E+00  0.00000000000E+00  0.27529906586E+01  0.30318076401E+01  0.12700000000E+01 0.  1.
          4   -1    0    0  501    0  0.00000000000E+00 -0.00000000000E+00 -0.13502530273E+04  0.13502536246E+04  0.12700000000E+01 0.  1.
         25    2    1    2    0    0  0.00000000000E+00  0.00000000000E+00 -0.13475000367E+04  0.13532854322E+04  0.12500044901E+03 0.  0.
    9000005    1    3    3    0    0  0.62173675754E+02 -0.32070600702E+01 -0.61502138651E+03  0.61816515355E+03  0.10000000000E+01 0.  0.
    9000005    1    3    3    0    0 -0.62173675754E+02  0.32070600702E+01 -0.73247865016E+03  0.73512027868E+03  0.10000000000E+01 0.  0.
<mgrwt>
<rscale>  0 0.12500045E+03</rscale>
<asrwt>0</asrwt>
<pdfrwt beam="2">  1        4 0.20775222E+00 0.12500045E+03</pdfrwt>
<pdfrwt beam="1">  1       -4 0.44503151E-03 0.12500045E+03</pdfrwt>
<totfact> 0.21004548E+03</totfact>
</mgrwt>
</event>
<event>
 5    1  0.3227866E-002  0.1250004E+03  0.7818608E-02  0.1235069E+00
         -4   -1    0    0    0  501 -0.00000000000E+00  0.00000000000E+00  0.36184751053E+02  0.36207031206E+02  0.12700000000E+01 0. -1.
          4   -1    0    0  501    0  0.00000000000E+00 -0.00000000000E+00 -0.10789443218E+03  0.10790190636E+03  0.12700000000E+01 0. -1.
         25    2    1    2    0    0  0.00000000000E+00  0.00000000000E+00 -0.71709681127E+02  0.14410893756E+03  0.12500043007E+03 0.  0.
    9000005    1    3    3    0    0  0.26065413574E+02 -0.51254265014E+02 -0.76420399016E+01  0.58015568951E+02  0.10000000000E+01 0.  0.
    9000005    1    3    3    0    0 -0.26065413574E+02  0.51254265014E+02 -0.64067641226E+02  0.86093368613E+02  0.10000000000E+01 0.  0.
<mgrwt>
<rscale>  0 0.12500043E+03</rscale>
<asrwt>0</asrwt>
<pdfrwt beam="2">  1        4 0.16601432E-01 0.12500043E+03</pdfrwt>
<pdfrwt beam="1">  1       -4 0.55691736E-02 0.12500043E+03</pdfrwt>
<totfact> 0.10049027E+04</totfact>
</mgrwt>
</event>
<event>
 5    1  0.3227866E-002  0.1250004E+03  0.7818608E-02  0.1235069E+00
         -4   -1    0    0    0  501 -0.00000000000E+00  0.00000000000E+00  0.25449316684E+02  0.25480985454E+02  0.12700000000E+01 0. -1.
          4   -1    0    0  501    0  0.00000000000E+00 -0.00000000000E+00 -0.15336253264E+03  0.15336779101E+03  0.12700000000E+01 0. -1.
         25    2    1    2    0    0  0.00000000000E+00  0.00000000000E+00 -0.12791321596E+03  0.17884877646E+03  0.12500037610E+03 0.  0.
    9000005    1    3    3    0    0  0.15108659448E+02  0.41396778235E+02 -0.12735364279E+03  0.13476614995E+03  0.10000000000E+01 0.  0.
    9000005    1    3    3    0    0 -0.15108659448E+02 -0.41396778235E+02 -0.55957316810E+00  0.44082626518E+02  0.10000000000E+01 0.  0.
<mgrwt>
<rscale>  0 0.12500038E+03</rscale>
<asrwt>0</asrwt>
<pdfrwt beam="2">  1        4 0.23597076E-01 0.12500038E+03</pdfrwt>
<pdfrwt beam="1">  1       -4 0.39181201E-02 0.12500038E+03</pdfrwt>
<totfact> 0.93823847E+03</totfact>
</mgrwt>
</event>
<event>
 5    1  0.3227866E-002  0.1249710E+03  0.7818608E-02  0.1235115E+00
         -4   -1    0    0    0  501 -0.00000000000E+00  0.00000000000E+00  0.14255418982E+04  0.14255424639E+04  0.12700000000E+01 0. -1.
          4   -1    0    0  501    0  0.00000000000E+00 -0.00000000000E+00 -0.25910961318E+01  0.28855985799E+01  0.12700000000E+01 0. -1.
         25    2    1    2    0    0  0.00000000000E+00  0.00000000000E+00  0.14229508021E+04  0.14284280625E+04  0.12497097509E+03 0.  0.
    9000005    1    3    3    0    0 -0.57352841335E+02 -0.11135106741E+02  0.45843474760E+03  0.46214365388E+03  0.10000000000E+01 0.  0.
    9000005    1    3    3    0    0  0.57352841335E+02  0.11135106741E+02  0.96451605449E+03  0.96628440864E+03  0.10000000000E+01 0.  0.
<mgrwt>
<rscale>  0 0.12497098E+03</rscale>
<asrwt>0</asrwt>
<pdfrwt beam="2">  1        4 0.42132613E-03 0.12497098E+03</pdfrwt>
<pdfrwt beam="1">  1       -4 0.21933767E+00 0.12497098E+03</pdfrwt>
<totfact> 0.19391154E+03</totfact>
</mgrwt>
</event>
<event>
 5    1  0.3227866E-002  0.1250018E+03  0.7818608E-02  0.1235066E+00
          4   -1    0    0  501    0  0.00000000000E+00  0.00000000000E+00  0.20179114242E+03  0.20179513884E+03  0.12700000000E+01 0.  1.
         -4   -1    0    0    0  501 -0.00000000000E+00 -0.00000000000E+00 -0.19333427336E+02  0.19375095163E+02  0.12700000000E+01 0.  1.
         25    2    1    2    0    0  0.00000000000E+00  0.00000000000E+00  0.18245771509E+03  0.22117023401E+03  0.12500181845E+03 0.  0.
    9000005    1    3    3    0    0 -0.32454623054E+02  0.14198902149E+02  0.13893333003E+00  0.35439112324E+02  0.10000000000E+01 0.  0.
    9000005    1    3    3    0    0  0.32454623054E+02 -0.14198902149E+02  0.18231878176E+03  0.18573112168E+03  0.10000000000E+01 0.  0.
<mgrwt>
<rscale>  0 0.12500182E+03</rscale>
<asrwt>0</asrwt>
<pdfrwt beam="1">  1        4 0.31048304E-01 0.12500182E+03</pdfrwt>
<pdfrwt beam="2">  1       -4 0.29778861E-02 0.12500182E+03</pdfrwt>
<totfact> 0.86679993E+03</totfact>
</mgrwt>
</event>
<event>
 5    1  0.3227866E-002  0.1249999E+03  0.7818608E-02  0.1235069E+00
          4   -1    0    0  501    0  0.00000000000E+00  0.00000000000E+00  0.12864372541E+04  0.12864378810E+04  0.12700000000E+01 0. -1.
         -4   -1    0    0    0  501 -0.00000000000E+00 -0.00000000000E+00 -0.29030333202E+01  0.31686751898E+01  0.12700000000E+01 0. -1.
         25    2    1    2    0    0  0.00000000000E+00  0.00000000000E+00  0.12835342208E+04  0.12896065562E+04  0.12499989528E+03 0.  0.
    9000005    1    3    3    0    0  0.45743925091E+02 -0.40179827062E+02  0.49647937808E+03  0.50019965818E+03  0.10000000000E+01 0.  0.
    9000005    1    3    3    0    0 -0.45743925091E+02  0.40179827062E+02  0.78705484271E+03  0.78940689801E+03  0.10000000000E+01 0.  0.
<mgrwt>
<rscale>  0 0.12499990E+03</rscale>
<asrwt>0</asrwt>
<pdfrwt beam="1">  1        4 0.19793426E+00 0.12499990E+03</pdfrwt>
<pdfrwt beam="2">  1       -4 0.46710189E-03 0.12499990E+03</pdfrwt>
<totfact> 0.22475151E+03</totfact>
</mgrwt>
</event>
<event>
 5    1  0.3227866E-002  0.1250000E+03  0.7818608E-02  0.1235069E+00
          4   -1    0    0  501    0  0.00000000000E+00  0.00000000000E+00  0.15758851350E+02  0.15809942943E+02  0.12700000000E+01 0.  1.
         -4   -1    0    0    0  501 -0.00000000000E+00 -0.00000000000E+00 -0.24742248979E+03  0.24742574917E+03  0.12700000000E+01 0.  1.
         25    2    1    2    0    0  0.00000000000E+00  0.00000000000E+00 -0.23166363844E+03  0.26323569212E+03  0.12499995291E+03 0.  0.
    9000005    1    3    3    0    0 -0.17731051904E+02  0.57944256188E+02 -0.83664791186E+02  0.10330887818E+03  0.10000000000E+01 0.  0.
    9000005    1    3    3    0    0  0.17731051904E+02 -0.57944256188E+02 -0.14799884725E+03  0.15992681393E+03  0.10000000000E+01 0.  0.
<mgrwt>
<rscale>  0 0.12499995E+03</rscale>
<asrwt>0</asrwt>
<pdfrwt beam="1">  1        4 0.24286197E-02 0.12499995E+03</pdfrwt>
<pdfrwt beam="2">  1       -4 0.38069176E-01 0.12499995E+03</pdfrwt>
<totfact> 0.80454197E+03</totfact>
</mgrwt>
</event>
<event>
 5    1  0.3227866E-002  0.1249982E+03  0.7818608E-02  0.1235072E+00
          4   -1    0    0  501    0  0.00000000000E+00  0.00000000000E+00  0.95541101238E+02  0.95549541735E+02  0.12700000000E+01 0. -1.
         -4   -1    0    0    0  501 -0.00000000000E+00 -0.00000000000E+00 -0.40864253753E+02  0.40883983842E+02  0.12700000000E+01 0. -1.
         25    2    1    2    0    0  0.00000000000E+00  0.00000000000E+00  0.54676847485E+02  0.13643352558E+03  0.12499819699E+03 0.  0.
    9000005    1    3    3    0    0  0.58357306110E+02  0.19243481928E+02  0.39747330908E+02  0.73189733484E+02  0.10000000000E+01 0.  0.
    9000005    1    3    3    0    0 -0.58357306110E+02 -0.19243481928E+02  0.14929516577E+02  0.63243792093E+02  0.10000000000E+01 0.  0.
<mgrwt>
<rscale>  0 0.12499820E+03</rscale>
<asrwt>0</asrwt>
<pdfrwt beam="1">  1        4 0.14700798E-01 0.12499820E+03</pdfrwt>
<pdfrwt beam="2">  1       -4 0.62889753E-02 0.12499820E+03</pdfrwt>
<totfact> 0.10208358E+04</totfact>
</mgrwt>
</event>
<event>
 5    1  0.3227866E-002  0.1250217E+03  0.7818608E-02  0.1235035E+00
          4   -1    0    0  501    0  0.00000000000E+00  0.00000000000E+00  0.48433161198E+02  0.48449809119E+02  0.12700000000E+01 0.  1.
         -4   -1    0    0    0  501 -0.00000000000E+00 -0.00000000000E+00 -0.80644930075E+02  0.80654929464E+02  0.12700000000E+01 0.  1.
         25    2    1    2    0    0  0.00000000000E+00  0.00000000000E+00 -0.32211768877E+02  0.12910473858E+03  0.12502173999E+03 0.  0.
    9000005    1    3    3    0    0  0.54141435859E+02 -0.27746814764E+02 -0.30906730014E+02  0.68245195923E+02  0.10000000000E+01 0.  0.
    9000005    1    3    3    0    0 -0.54141435859E+02  0.27746814764E+02 -0.13050388628E+01  0.60859542660E+02  0.10000000000E+01 0.  0.
<mgrwt>
<rscale>  0 0.12502174E+03</rscale>
<asrwt>0</asrwt>
<pdfrwt beam="1">  1        4 0.74533054E-02 0.12502174E+03</pdfrwt>
<pdfrwt beam="2">  1       -4 0.12408962E-01 0.12502174E+03</pdfrwt>
<totfact> 0.10358612E+04</totfact>
</mgrwt>
</event>
<event>
 5    1  0.3227866E-002  0.1249989E+03  0.7818608E-02  0.1235071E+00
         -4   -1    0    0    0  501 -0.00000000000E+00  0.00000000000E+00  0.56621302224E+03  0.56621444652E+03  0.12700000000E+01 0.  1.
          4   -1    0    0  501    0  0.00000000000E+00 -0.00000000000E+00 -0.68388848384E+01  0.69558066270E+01  0.12700000000E+01 0.  1.
         25    2    1    2    0    0  0.00000000000E+00  0.00000000000E+00  0.55937413740E+03  0.57317025315E+03  0.12499885402E+03 0.  0.
    9000005    1    3    3    0    0  0.21884190446E+02 -0.54532204023E+02  0.18214621063E+03  0.19139206126E+03  0.10000000000E+01 0.  0.
    9000005    1    3    3    0    0 -0.21884190446E+02  0.54532204023E+02  0.37722792677E+03  0.38177819189E+03  0.10000000000E+01 0.  0.
<mgrwt>
<rscale>  0 0.12499885E+03</rscale>
<asrwt>0</asrwt>
<pdfrwt beam="2">  1        4 0.10612393E-02 0.12499885E+03</pdfrwt>
<pdfrwt beam="1">  1       -4 0.87118832E-01 0.12499885E+03</pdfrwt>
<totfact> 0.50607450E+03</totfact>
</mgrwt>
</event>
<event>
 5    1  0.3227866E-002  0.1249992E+03  0.7818608E-02  0.1235071E+00
         -4   -1    0    0    0  501 -0.00000000000E+00  0.00000000000E+00  0.58676071688E+02  0.58689814182E+02  0.12700000000E+01 0. -1.
          4   -1    0    0  501    0  0.00000000000E+00 -0.00000000000E+00 -0.66544634722E+02  0.66556752552E+02  0.12700000000E+01 0. -1.
         25    2    1    2    0    0  0.00000000000E+00  0.00000000000E+00 -0.78685630338E+01  0.12524656673E+03  0.12499915277E+03 0.  0.
    9000005    1    3    3    0    0  0.11233594679E+02  0.61318347906E+02  0.44054991867E+00  0.62348436416E+02  0.10000000000E+01 0.  0.
    9000005    1    3    3    0    0 -0.11233594679E+02 -0.61318347906E+02 -0.83091129525E+01  0.62898130317E+02  0.10000000000E+01 0.  0.
<mgrwt>
<rscale>  0 0.12499915E+03</rscale>
<asrwt>0</asrwt>
<pdfrwt beam="2">  1        4 0.10239625E-01 0.12499915E+03</pdfrwt>
<pdfrwt beam="1">  1       -4 0.90290772E-02 0.12499915E+03</pdfrwt>
<totfact> 0.10447710E+04</totfact>
</mgrwt>
</event>
<event>
 5    1  0.3227866E-002  0.1249903E+03  0.7818608E-02  0.1235084E+00
         -4   -1    0    0    0  501 -0.00000000000E+00  0.00000000000E+00  0.14548515623E+03  0.14549069930E+03  0.12700000000E+01 0. -1.
          4   -1    0    0  501    0  0.00000000000E+00 -0.00000000000E+00 -0.26824573865E+02  0.26854620888E+02  0.12700000000E+01 0. -1.
         25    2    1    2    0    0  0.00000000000E+00  0.00000000000E+00  0.11866058237E+03  0.17234532019E+03  0.12499030196E+03 0.  0.
    9000005    1    3    3    0    0  0.52877591899E+02  0.29752162616E+02  0.38720319787E+02  0.71982595603E+02  0.10000000000E+01 0.  0.
    9000005    1    3    3    0    0 -0.52877591899E+02 -0.29752162616E+02  0.79940262579E+02  0.10036272459E+03  0.10000000000E+01 0.  0.
<mgrwt>
<rscale>  0 0.12499030E+03</rscale>
<asrwt>0</asrwt>
<pdfrwt beam="2">  1        4 0.41295952E-02 0.12499030E+03</pdfrwt>
<pdfrwt beam="1">  1       -4 0.22385070E-01 0.12499030E+03</pdfrwt>
<totfact> 0.95033979E+03</totfact>
</mgrwt>
</event>
<event>
 5    1  0.3227866E-002  0.1250001E+03  0.7818608E-02  0.1235069E+00
          4   -1    0    0  501    0  0.00000000000E+00  0.00000000000E+00  0.18882899849E+03  0.18883326923E+03  0.12700000000E+01 0. -1.
         -4   -1    0    0    0  501 -0.00000000000E+00 -0.00000000000E+00 -0.20662730849E+02  0.20701723265E+02  0.12700000000E+01 0. -1.
         25    2    1    2    0    0  0.00000000000E+00  0.00000000000E+00  0.16816626764E+03  0.20953499250E+03  0.12500007804E+03 0.  0.
    9000005    1    3    3    0    0  0.18855787378E+02  0.59447226036E+02  0.77432408522E+02  0.99429830989E+02  0.10000000000E+01 0.  0.
    9000005    1    3    3    0    0 -0.18855787378E+02 -0.59447226036E+02  0.90733859117E+02  0.11010516151E+03  0.10000000000E+01 0.  0.
<mgrwt>
<rscale>  0 0.12500008E+03</rscale>
<asrwt>0</asrwt>
<pdfrwt beam="1">  1        4 0.29053942E-01 0.12500008E+03</pdfrwt>
<pdfrwt beam="2">  1       -4 0.31822097E-02 0.12500008E+03</pdfrwt>
<totfact> 0.88551725E+03</totfact>
</mgrwt>
</event>
<event>
 5    1  0.3227866E-002  0.1249972E+03  0.7818608E-02  0.1235074E+00
         -4   -1    0    0    0  501 -0.00000000000E+00  0.00000000000E+00  0.50671217012E+03  0.50671376166E+03  0.12700000000E+01 0.  1.
          4   -1    0    0  501    0  0.00000000000E+00 -0.00000000000E+00 -0.76547468498E+01  0.77593845977E+01  0.12700000000E+01 0.  1.
         25    2    1    2    0    0  0.00000000000E+00  0.00000000000E+00  0.49905742327E+03  0.51447314625E+03  0.12499722593E+03 0.  0.
    9000005    1    3    3    0    0 -0.12965487648E+02  0.21336962010E+02  0.48531156821E+03  0.48595440945E+03  0.10000000000E+01 0.  0.
    9000005    1    3    3    0    0  0.12965487648E+02 -0.21336962010E+02  0.13745855060E+02  0.28518736808E+02  0.10000000000E+01 0.  0.
<mgrwt>
<rscale>  0 0.12499723E+03</rscale>
<asrwt>0</asrwt>
<pdfrwt beam="2">  1        4 0.11858244E-02 0.12499723E+03</pdfrwt>
<pdfrwt beam="1">  1       -4 0.77963918E-01 0.12499723E+03</pdfrwt>
<totfact> 0.54761982E+03</totfact>
</mgrwt>
</event>
<event>
 5    1  0.3227866E-002  0.1250074E+03  0.7818608E-02  0.1235058E+00
          4   -1    0    0  501    0  0.00000000000E+00  0.00000000000E+00  0.20933559015E+02  0.20972047897E+02  0.12700000000E+01 0.  1.
         -4   -1    0    0    0  501 -0.00000000000E+00 -0.00000000000E+00 -0.18641232710E+03  0.18641665321E+03  0.12700000000E+01 0.  1.
         25    2    1    2    0    0  0.00000000000E+00  0.00000000000E+00 -0.16547876808E+03  0.20738870111E+03  0.12500740242E+03 0.  0.
    9000005    1    3    3    0    0  0.18646022900E+02  0.29480139212E+02  0.32889519296E+01  0.35050962651E+02  0.10000000000E+01 0.  0.
    9000005    1    3    3    0    0 -0.18646022900E+02 -0.29480139212E+02 -0.16876772001E+03  0.17233773846E+03  0.10000000000E+01 0.  0.
<mgrwt>
<rscale>  0 0.12500740E+03</rscale>
<asrwt>0</asrwt>
<pdfrwt beam="1">  1        4 0.32238411E-02 0.12500740E+03</pdfrwt>
<pdfrwt beam="2">  1       -4 0.28682112E-01 0.12500740E+03</pdfrwt>
<totfact> 0.88889409E+03</totfact>
</mgrwt>
</event>
<event>
 5    1  0.3227866E-002  0.1249999E+03  0.7818608E-02  0.1235069E+00
          4   -1    0    0  501    0  0.00000000000E+00  0.00000000000E+00  0.51936605259E+03  0.51936760534E+03  0.12700000000E+01 0. -1.
         -4   -1    0    0    0  501 -0.00000000000E+00 -0.00000000000E+00 -0.74659910850E+01  0.75732372788E+01  0.12700000000E+01 0. -1.
         25    2    1    2    0    0  0.00000000000E+00  0.00000000000E+00  0.51190006150E+03  0.52694084262E+03  0.12499991463E+03 0.  0.
    9000005    1    3    3    0    0  0.89974423820E+01 -0.19952999929E+02  0.92004045624E+01  0.23763914233E+02  0.10000000000E+01 0.  0.
    9000005    1    3    3    0    0 -0.89974423820E+01  0.19952999929E+02  0.50269965694E+03  0.50317692839E+03  0.10000000000E+01 0.  0.
<mgrwt>
<rscale>  0 0.12499991E+03</rscale>
<asrwt>0</asrwt>
<pdfrwt beam="1">  1        4 0.79910837E-01 0.12499991E+03</pdfrwt>
<pdfrwt beam="2">  1       -4 0.11569832E-02 0.12499991E+03</pdfrwt>
<totfact> 0.53833144E+03</totfact>
</mgrwt>
</event>
<event>
 5    1  0.3227866E-002  0.1249984E+03  0.7818608E-02  0.1235072E+00
          4   -1    0    0  501    0  0.00000000000E+00  0.00000000000E+00  0.96432938135E+03  0.96433021763E+03  0.12700000000E+01 0.  1.
         -4   -1    0    0    0  501 -0.00000000000E+00 -0.00000000000E+00 -0.39502371100E+01  0.41493702203E+01  0.12700000000E+01 0.  1.
         25    2    1    2    0    0  0.00000000000E+00  0.00000000000E+00  0.96037914424E+03  0.96847958785E+03  0.12499844556E+03 0.  0.
    9000005    1    3    3    0    0 -0.57202822816E+02  0.12841157330E+01  0.67486800494E+03  0.67728992018E+03  0.10000000000E+01 0.  0.
    9000005    1    3    3    0    0  0.57202822816E+02 -0.12841157330E+01  0.28551113930E+03  0.29118966767E+03  0.10000000000E+01 0.  0.
<mgrwt>
<rscale>  0 0.12499845E+03</rscale>
<asrwt>0</asrwt>
<pdfrwt beam="1">  1        4 0.14837396E+00 0.12499845E+03</pdfrwt>
<pdfrwt beam="2">  1       -4 0.62311017E-03 0.12499845E+03</pdfrwt>
<totfact> 0.31669853E+03</totfact>
</mgrwt>
</event>
<event>
 5    1  0.3227866E-002  0.1250001E+03  0.7818608E-02  0.1235069E+00
          4   -1    0    0  501    0  0.00000000000E+00  0.00000000000E+00  0.37130460342E+02  0.37152173358E+02  0.12700000000E+01 0. -1.
         -4   -1    0    0    0  501 -0.00000000000E+00 -0.00000000000E+00 -0.10514729287E+03  0.10515496231E+03  0.12700000000E+01 0. -1.
         25    2    1    2    0    0  0.00000000000E+00  0.00000000000E+00 -0.68016832528E+02  0.14230713567E+03  0.12500012542E+03 0.  0.
    9000005    1    3    3    0    0 -0.21766459044E+02 -0.29190639796E+02 -0.91827921100E+02  0.98788862148E+02  0.10000000000E+01 0.  0.
    9000005    1    3    3    0    0  0.21766459044E+02  0.29190639796E+02  0.23811088572E+02  0.43518273518E+02  0.10000000000E+01 0.  0.
<mgrwt>
<rscale>  0 0.12500013E+03</rscale>
<asrwt>0</asrwt>
<pdfrwt beam="1">  1        4 0.57146388E-02 0.12500013E+03</pdfrwt>
<pdfrwt beam="2">  1       -4 0.16178767E-01 0.12500013E+03</pdfrwt>
<totfact> 0.10085963E+04</totfact>
</mgrwt>
</event>
<event>
 5    1  0.3227866E-002  0.1250163E+03  0.7818608E-02  0.1235044E+00
         -4   -1    0    0    0  501 -0.00000000000E+00  0.00000000000E+00  0.46964740339E+02  0.46981908594E+02  0.12700000000E+01 0. -1.
          4   -1    0    0  501    0  0.00000000000E+00 -0.00000000000E+00 -0.83158564837E+02  0.83168262010E+02  0.12700000000E+01 0. -1.
         25    2    1    2    0    0  0.00000000000E+00  0.00000000000E+00 -0.36193824497E+02  0.13015017060E+03  0.12501629484E+03 0.  0.
    9000005    1    3    3    0    0 -0.24109570143E+02  0.14311402038E+02 -0.76249360684E+02  0.81246862127E+02  0.10000000000E+01 0.  0.
    9000005    1    3    3    0    0  0.24109570143E+02 -0.14311402038E+02  0.40055536187E+02  0.48903308477E+02  0.10000000000E+01 0.  0.
<mgrwt>
<rscale>  0 0.12501629E+03</rscale>
<asrwt>0</asrwt>
<pdfrwt beam="2">  1        4 0.12795692E-01 0.12501629E+03</pdfrwt>
<pdfrwt beam="1">  1       -4 0.72274112E-02 0.12501629E+03</pdfrwt>
<totfact> 0.10337493E+04</totfact>
</mgrwt>
</event>
<event>
 5    1  0.3227866E-002  0.1249993E+03  0.7818608E-02  0.1235070E+00
         -4   -1    0    0    0  501 -0.00000000000E+00  0.00000000000E+00  0.17481692171E+02  0.17527762582E+02  0.12700000000E+01 0. -1.
          4   -1    0    0  501    0  0.00000000000E+00 -0.00000000000E+00 -0.22310372631E+03  0.22310734097E+03  0.12700000000E+01 0. -1.
         25    2    1    2    0    0  0.00000000000E+00  0.00000000000E+00 -0.20562203414E+03  0.24063510355E+03  0.12499932854E+03 0.  0.
    9000005    1    3    3    0    0 -0.21246234449E+02  0.49018424890E+02 -0.16522078569E+03  0.17364652741E+03  0.10000000000E+01 0.  0.
    9000005    1    3    3    0    0  0.21246234449E+02 -0.49018424890E+02 -0.40401248445E+02  0.66988576137E+02  0.10000000000E+01 0.  0.
<mgrwt>
<rscale>  0 0.12499933E+03</rscale>
<asrwt>0</asrwt>
<pdfrwt beam="2">  1        4 0.34327470E-01 0.12499933E+03</pdfrwt>
<pdfrwt beam="1">  1       -4 0.26933132E-02 0.12499933E+03</pdfrwt>
<totfact> 0.83704125E+03</totfact>
</mgrwt>
</event>
<event>
 5    1  0.3227866E-002  0.1249980E+03  0.7818608E-02  0.1235072E+00
         -4   -1    0    0    0  501 -0.00000000000E+00  0.00000000000E+00  0.35860713357E+03  0.35860938240E+03  0.12700000000E+01 0.  1.
          4   -1    0    0  501    0  0.00000000000E+00 -0.00000000000E+00 -0.10853181618E+02  0.10927234382E+02  0.12700000000E+01 0.  1.
         25    2    1    2    0    0  0.00000000000E+00  0.00000000000E+00  0.34775395195E+03  0.36953661679E+03  0.12499800017E+03 0.  0.
    9000005    1    3    3    0    0  0.42941236366E+02  0.94737806845E+00  0.39687858985E+02  0.58489088356E+02  0.10000000000E+01 0.  0.
    9000005    1    3    3    0    0 -0.42941236366E+02 -0.94737806845E+00  0.30806609297E+03  0.31104752843E+03  0.10000000000E+01 0.  0.
<mgrwt>
<rscale>  0 0.12499800E+03</rscale>
<asrwt>0</asrwt>
<pdfrwt beam="2">  1        4 0.16755899E-02 0.12499800E+03</pdfrwt>
<pdfrwt beam="1">  1       -4 0.55176187E-01 0.12499800E+03</pdfrwt>
<totfact> 0.67630439E+03</totfact>
</mgrwt>
</event>
<event>
 5    1  0.3227866E-002  0.1249996E+03  0.7818608E-02  0.1235070E+00
          4   -1    0    0  501    0  0.00000000000E+00  0.00000000000E+00  0.38197330829E+03  0.38197541955E+03  0.12700000000E+01 0.  1.
         -4   -1    0    0    0  501 -0.00000000000E+00 -0.00000000000E+00 -0.10184861865E+02  0.10263737683E+02  0.12700000000E+01 0.  1.
         25    2    1    2    0    0  0.00000000000E+00  0.00000000000E+00  0.37178844642E+03  0.39223915724E+03  0.12499963031E+03 0.  0.
    9000005    1    3    3    0    0 -0.60100631452E+02  0.16601506943E+02  0.19903270174E+03  0.20857303827E+03  0.10000000000E+01 0.  0.
    9000005    1    3    3    0    0  0.60100631452E+02 -0.16601506943E+02  0.17275574469E+03  0.18366611896E+03  0.10000000000E+01 0.  0.
<mgrwt>
<rscale>  0 0.12499963E+03</rscale>
<asrwt>0</asrwt>
<pdfrwt beam="1">  1        4 0.58771363E-01 0.12499963E+03</pdfrwt>
<pdfrwt beam="2">  1       -4 0.15731314E-02 0.12499963E+03</pdfrwt>
<totfact> 0.65315190E+03</totfact>
</mgrwt>
</event>
<event>
 5    1  0.3227866E-002  0.1249995E+03  0.7818608E-02  0.1235070E+00
         -4   -1    0    0    0  501 -0.00000000000E+00  0.00000000000E+00  0.91595701842E+02  0.91604505871E+02  0.12700000000E+01 0.  1.
          4   -1    0    0  501    0  0.00000000000E+00 -0.00000000000E+00 -0.42626010259E+02  0.42644925262E+02  0.12700000000E+01 0.  1.
         25    2    1    2    0    0  0.00000000000E+00  0.00000000000E+00  0.48969691583E+02  0.13424943113E+03  0.12499951626E+03 0.  0.
    9000005    1    3    3    0    0  0.40161871181E+01 -0.48172371765E+02 -0.18050319860E+02  0.51609313186E+02  0.10000000000E+01 0.  0.
    9000005    1    3    3    0    0 -0.40161871181E+01  0.48172371765E+02  0.67020011444E+02  0.82640117947E+02  0.10000000000E+01 0.  0.
<mgrwt>
<rscale>  0 0.12499952E+03</rscale>
<asrwt>0</asrwt>
<pdfrwt beam="2">  1        4 0.65599799E-02 0.12499952E+03</pdfrwt>
<pdfrwt beam="1">  1       -4 0.14093779E-01 0.12499952E+03</pdfrwt>
<totfact> 0.10254027E+04</totfact>
</mgrwt>
</event>
<event>
 5    1  0.3227866E-002  0.1249973E+03  0.7818608E-02  0.1235074E+00
         -4   -1    0    0    0  501 -0.00000000000E+00  0.00000000000E+00  0.29594752448E+02  0.29621989677E+02  0.12700000000E+01 0.  1.
          4   -1    0    0  501    0  0.00000000000E+00 -0.00000000000E+00 -0.13189454044E+03  0.13190065465E+03  0.12700000000E+01 0.  1.
         25    2    1    2    0    0  0.00000000000E+00  0.00000000000E+00 -0.10229978799E+03  0.16152264433E+03  0.12499727200E+03 0.  0.
    9000005    1    3    3    0    0  0.47231628172E+02 -0.24184653781E+02 -0.93799759025E+02  0.10777346135E+03  0.10000000000E+01 0.  0.
    9000005    1    3    3    0    0 -0.47231628172E+02  0.24184653781E+02 -0.85000289642E+01  0.53749182977E+02  0.10000000000E+01 0.  0.
<mgrwt>
<rscale>  0 0.12499727E+03</rscale>
<asrwt>0</asrwt>
<pdfrwt beam="2">  1        4 0.20294033E-01 0.12499727E+03</pdfrwt>
<pdfrwt beam="1">  1       -4 0.45556044E-02 0.12499727E+03</pdfrwt>
<totfact> 0.97055982E+03</totfact>
</mgrwt>
</event>
<event>
 5    1  0.3227866E-002  0.1249767E+03  0.7818608E-02  0.1235106E+00
          4   -1    0    0  501    0  0.00000000000E+00  0.00000000000E+00  0.95240703931E+01  0.96083722270E+01  0.12700000000E+01 0.  1.
         -4   -1    0    0    0  501 -0.00000000000E+00 -0.00000000000E+00 -0.40810041516E+03  0.40810239126E+03  0.12700000000E+01 0.  1.
         25    2    1    2    0    0  0.00000000000E+00  0.00000000000E+00 -0.39857634477E+03  0.41771076349E+03  0.12497671514E+03 0.  0.
    9000005    1    3    3    0    0 -0.35304162560E+02 -0.11800929456E+02 -0.36700910658E+03  0.36889338588E+03  0.10000000000E+01 0.  0.
    9000005    1    3    3    0    0  0.35304162560E+02  0.11800929456E+02 -0.31567238181E+02  0.48817377608E+02  0.10000000000E+01 0.  0.
<mgrwt>
<rscale>  0 0.12497672E+03</rscale>
<asrwt>0</asrwt>
<pdfrwt beam="1">  1        4 0.14718787E-02 0.12497672E+03</pdfrwt>
<pdfrwt beam="2">  1       -4 0.62791303E-01 0.12497672E+03</pdfrwt>
<totfact> 0.62898264E+03</totfact>
</mgrwt>
</event>
<event>
 5    1  0.3227866E-002  0.1250023E+03  0.7818608E-02  0.1235066E+00
         -4   -1    0    0    0  501 -0.00000000000E+00  0.00000000000E+00  0.24141539087E+02  0.24174921085E+02  0.12700000000E+01 0. -1.
          4   -1    0    0  501    0  0.00000000000E+00 -0.00000000000E+00 -0.16166445336E+03  0.16166944170E+03  0.12700000000E+01 0. -1.
         25    2    1    2    0    0  0.00000000000E+00  0.00000000000E+00 -0.13752291427E+03  0.18584436279E+03  0.12500230090E+03 0.  0.
    9000005    1    3    3    0    0 -0.15732568190E+01 -0.32262571453E+02 -0.14829853398E+03  0.15177879903E+03  0.10000000000E+01 0.  0.
    9000005    1    3    3    0    0  0.15732568190E+01  0.32262571453E+02  0.10775619712E+02  0.34065563755E+02  0.10000000000E+01 0.  0.
<mgrwt>
<rscale>  0 0.12500230E+03</rscale>
<asrwt>0</asrwt>
<pdfrwt beam="2">  1        4 0.24874405E-01 0.12500230E+03</pdfrwt>
<pdfrwt beam="1">  1       -4 0.37170346E-02 0.12500230E+03</pdfrwt>
<totfact> 0.92570679E+03</totfact>
</mgrwt>
</event>
<event>
 5    1  0.3227866E-002  0.1249980E+03  0.7818608E-02  0.1235072E+00
          4   -1    0    0  501    0  0.00000000000E+00  0.00000000000E+00  0.47881511063E+02  0.47898350720E+02  0.12700000000E+01 0. -1.
         -4   -1    0    0    0  501 -0.00000000000E+00 -0.00000000000E+00 -0.81542794749E+02  0.81552684048E+02  0.12700000000E+01 0. -1.
         25    2    1    2    0    0  0.00000000000E+00  0.00000000000E+00 -0.33661283686E+02  0.12945103477E+03  0.12499795352E+03 0.  0.
    9000005    1    3    3    0    0 -0.15091993261E+02  0.53258480298E+02 -0.46861775705E+02  0.72534543539E+02  0.10000000000E+01 0.  0.
    9000005    1    3    3    0    0  0.15091993261E+02 -0.53258480298E+02  0.13200492019E+02  0.56916491229E+02  0.10000000000E+01 0.  0.
<mgrwt>
<rscale>  0 0.12499795E+03</rscale>
<asrwt>0</asrwt>
<pdfrwt beam="1">  1        4 0.73684424E-02 0.12499795E+03</pdfrwt>
<pdfrwt beam="2">  1       -4 0.12547101E-01 0.12499795E+03</pdfrwt>
<totfact> 0.10356743E+04</totfact>
</mgrwt>
</event>
<event>
 5    1  0.3227866E-002  0.1250491E+03  0.7818608E-02  0.1234993E+00
          4   -1    0    0  501    0  0.00000000000E+00  0.00000000000E+00  0.31144126493E+03  0.31144385433E+03  0.12700000000E+01 0. -1.
         -4   -1    0    0    0  501 -0.00000000000E+00 -0.00000000000E+00 -0.12517569962E+02  0.12581830461E+02  0.12700000000E+01 0. -1.
         25    2    1    2    0    0  0.00000000000E+00  0.00000000000E+00  0.29892369497E+03  0.32402568479E+03  0.12504906634E+03 0.  0.
    9000005    1    3    3    0    0 -0.46528819125E+02  0.39641344776E+02  0.18344002672E+03  0.19335876145E+03  0.10000000000E+01 0.  0.
    9000005    1    3    3    0    0  0.46528819125E+02 -0.39641344776E+02  0.11548366825E+03  0.13066692334E+03  0.10000000000E+01 0.  0.
<mgrwt>
<rscale>  0 0.12504907E+03</rscale>
<asrwt>0</asrwt>
<pdfrwt beam="1">  1        4 0.47919175E-01 0.12504907E+03</pdfrwt>
<pdfrwt beam="2">  1       -4 0.19309226E-02 0.12504907E+03</pdfrwt>
<totfact> 0.72600896E+03</totfact>
</mgrwt>
</event>
<event>
 5    1  0.3227866E-002  0.1250008E+03  0.7818608E-02  0.1235068E+00
          4   -1    0    0  501    0  0.00000000000E+00  0.00000000000E+00  0.20310902153E+03  0.20311299202E+03  0.12700000000E+01 0.  1.
         -4   -1    0    0    0  501 -0.00000000000E+00 -0.00000000000E+00 -0.19207411335E+02  0.19249351942E+02  0.12700000000E+01 0.  1.
         25    2    1    2    0    0  0.00000000000E+00  0.00000000000E+00  0.18390161020E+03  0.22236234397E+03  0.12500083912E+03 0.  0.
    9000005    1    3    3    0    0 -0.52427473381E+02  0.28275066950E+02  0.58331111809E+02  0.83376483382E+02  0.10000000000E+01 0.  0.
    9000005    1    3    3    0    0  0.52427473381E+02 -0.28275066950E+02  0.12557049839E+03  0.13898586058E+03  0.10000000000E+01 0.  0.
<mgrwt>
<rscale>  0 0.12500084E+03</rscale>
<asrwt>0</asrwt>
<pdfrwt beam="1">  1        4 0.31251073E-01 0.12500084E+03</pdfrwt>
<pdfrwt beam="2">  1       -4 0.29585180E-02 0.12500084E+03</pdfrwt>
<totfact> 0.86494294E+03</totfact>
</mgrwt>
</event>
<event>
 5    1  0.3227866E-002  0.1250114E+03  0.7818608E-02  0.1235051E+00
         -4   -1    0    0    0  501 -0.00000000000E+00  0.00000000000E+00  0.27573278966E+02  0.27602510989E+02  0.12700000000E+01 0.  1.
          4   -1    0    0  501    0  0.00000000000E+00 -0.00000000000E+00 -0.14158671118E+03  0.14159240687E+03  0.12700000000E+01 0.  1.
         25    2    1    2    0    0  0.00000000000E+00  0.00000000000E+00 -0.11401343221E+03  0.16919491786E+03  0.12501142949E+03 0.  0.
    9000005    1    3    3    0    0 -0.40628526960E+02 -0.40778489583E+02 -0.24065029130E+02  0.62399423416E+02  0.10000000000E+01 0.  0.
    9000005    1    3    3    0    0  0.40628526960E+02  0.40778489583E+02 -0.89948403083E+02  0.10679549444E+03  0.10000000000E+01 0.  0.
<mgrwt>
<rscale>  0 0.12501143E+03</rscale>
<asrwt>0</asrwt>
<pdfrwt beam="2">  1        4 0.21785257E-01 0.12501143E+03</pdfrwt>
<pdfrwt beam="1">  1       -4 0.42447298E-02 0.12501143E+03</pdfrwt>
<totfact> 0.95574256E+03</totfact>
</mgrwt>
</event>
<event>
 5    1  0.3227866E-002  0.1250021E+03  0.7818608E-02  0.1235066E+00
         -4   -1    0    0    0  501 -0.00000000000E+00  0.00000000000E+00  0.33410489347E+02  0.33434618263E+02  0.12700000000E+01 0.  1.
          4   -1    0    0  501    0  0.00000000000E+00 -0.00000000000E+00 -0.11685095987E+03  0.11685786119E+03  0.12700000000E+01 0.  1.
         25    2    1    2    0    0  0.00000000000E+00  0.00000000000E+00 -0.83440470521E+02  0.15029247945E+03  0.12500206902E+03 0.  0.
    9000005    1    3    3    0    0 -0.14193926631E+02  0.50700808605E+02 -0.12439999571E+01  0.52674349377E+02  0.10000000000E+01 0.  0.
    9000005    1    3    3    0    0  0.14193926631E+02 -0.50700808605E+02 -0.82196470564E+02  0.97618130076E+02  0.10000000000E+01 0.  0.
<mgrwt>
<rscale>  0 0.12500207E+03</rscale>
<asrwt>0</asrwt>
<pdfrwt beam="2">  1        4 0.17979458E-01 0.12500207E+03</pdfrwt>
<pdfrwt beam="1">  1       -4 0.51424623E-02 0.12500207E+03</pdfrwt>
<totfact> 0.99240808E+03</totfact>
</mgrwt>
</event>
<event>
 5    1  0.3227866E-002  0.1250005E+03  0.7818608E-02  0.1235068E+00
          4   -1    0    0  501    0  0.00000000000E+00  0.00000000000E+00  0.73014377617E+01  0.74110656041E+01  0.12700000000E+01 0.  1.
         -4   -1    0    0    0  501 -0.00000000000E+00 -0.00000000000E+00 -0.53090505612E+03  0.53090657513E+03  0.12700000000E+01 0.  1.
         25    2    1    2    0    0  0.00000000000E+00  0.00000000000E+00 -0.52360361836E+03  0.53831764074E+03  0.12500053266E+03 0.  0.
    9000005    1    3    3    0    0  0.29278434749E+02  0.34068174653E+02 -0.74707504490E+02  0.87178429056E+02  0.10000000000E+01 0.  0.
    9000005    1    3    3    0    0 -0.29278434749E+02 -0.34068174653E+02 -0.44889611387E+03  0.45113921168E+03  0.10000000000E+01 0.  0.
<mgrwt>
<rscale>  0 0.12500053E+03</rscale>
<asrwt>0</asrwt>
<pdfrwt beam="1">  1        4 0.11318483E-02 0.12500053E+03</pdfrwt>
<pdfrwt beam="2">  1       -4 0.81686221E-01 0.12500053E+03</pdfrwt>
<totfact> 0.53008703E+03</totfact>
</mgrwt>
</event>
<event>
 5    1  0.3227866E-002  0.1249999E+03  0.7818608E-02  0.1235069E+00
          4   -1    0    0  501    0  0.00000000000E+00  0.00000000000E+00  0.17166570649E+03  0.17167040422E+03  0.12700000000E+01 0. -1.
         -4   -1    0    0    0  501 -0.00000000000E+00 -0.00000000000E+00 -0.22732209080E+02  0.22767657536E+02  0.12700000000E+01 0. -1.
         25    2    1    2    0    0  0.00000000000E+00  0.00000000000E+00  0.14893349741E+03  0.19443806175E+03  0.12499989283E+03 0.  0.
    9000005    1    3    3    0    0  0.89796532818E+01  0.60026004274E+02  0.97616518907E+02  0.11495103360E+03  0.10000000000E+01 0.  0.
    9000005    1    3    3    0    0 -0.89796532818E+01 -0.60026004274E+02  0.51316978500E+02  0.79487028153E+02  0.10000000000E+01 0.  0.
<mgrwt>
<rscale>  0 0.12499989E+03</rscale>
<asrwt>0</asrwt>
<pdfrwt beam="1">  1        4 0.26413198E-01 0.12499989E+03</pdfrwt>
<pdfrwt beam="2">  1       -4 0.35003510E-02 0.12499989E+03</pdfrwt>
<totfact> 0.91081007E+03</totfact>
</mgrwt>
</event>
<event>
 5    1  0.3227866E-002  0.1250020E+03  0.7818608E-02  0.1235066E+00
         -4   -1    0    0    0  501 -0.00000000000E+00  0.00000000000E+00  0.25135287328E+04  0.25135290537E+04  0.12700000000E+01 0.  1.
          4   -1    0    0  501    0  0.00000000000E+00 -0.00000000000E+00 -0.12943134163E+01  0.18133249074E+01  0.12700000000E+01 0.  1.
         25    2    1    2    0    0  0.00000000000E+00  0.00000000000E+00  0.25122344194E+04  0.25153423786E+04  0.12500201358E+03 0.  0.
    9000005    1    3    3    0    0  0.95197353966E+01  0.13183152866E+02  0.41924131290E+02  0.44978368867E+02  0.10000000000E+01 0.  0.
    9000005    1    3    3    0    0 -0.95197353966E+01 -0.13183152866E+02  0.24703102881E+04  0.24703640097E+04  0.10000000000E+01 0.  0.
<mgrwt>
<rscale>  0 0.12500201E+03</rscale>
<asrwt>0</asrwt>
<pdfrwt beam="2">  1        4 0.23907316E-03 0.12500201E+03</pdfrwt>
<pdfrwt beam="1">  1       -4 0.38673768E+00 0.12500201E+03</pdfrwt>
<totfact> 0.45496708E+02</totfact>
</mgrwt>
</event>
<event>
 5    1  0.3227866E-002  0.1249973E+03  0.7818608E-02  0.1235073E+00
         -4   -1    0    0    0  501 -0.00000000000E+00  0.00000000000E+00  0.15244893540E+02  0.15297701757E+02  0.12700000000E+01 0. -1.
          4   -1    0    0  501    0  0.00000000000E+00 -0.00000000000E+00 -0.25572493225E+03  0.25572808581E+03  0.12700000000E+01 0. -1.
         25    2    1    2    0    0  0.00000000000E+00  0.00000000000E+00 -0.24048003871E+03  0.27102578757E+03  0.12499731401E+03 0.  0.
    9000005    1    3    3    0    0 -0.20814308149E+02 -0.47700883443E+02 -0.45240016346E+02  0.68965707304E+02  0.10000000000E+01 0.  0.
    9000005    1    3    3    0    0  0.20814308149E+02  0.47700883443E+02 -0.19524002236E+03  0.20206008026E+03  0.10000000000E+01 0.  0.
<mgrwt>
<rscale>  0 0.12499731E+03</rscale>
<asrwt>0</asrwt>
<pdfrwt beam="2">  1        4 0.39346599E-01 0.12499731E+03</pdfrwt>
<pdfrwt beam="1">  1       -4 0.23496732E-02 0.12499731E+03</pdfrwt>
<totfact> 0.79387966E+03</totfact>
</mgrwt>
</event>
<event>
 5    1  0.3227866E-002  0.1249982E+03  0.7818608E-02  0.1235072E+00
         -4   -1    0    0    0  501 -0.00000000000E+00  0.00000000000E+00  0.12767822994E+02  0.12830830215E+02  0.12700000000E+01 0.  1.
          4   -1    0    0  501    0  0.00000000000E+00 -0.00000000000E+00 -0.30511888519E+03  0.30512152825E+03  0.12700000000E+01 0.  1.
         25    2    1    2    0    0  0.00000000000E+00  0.00000000000E+00 -0.29235106220E+03  0.31795235846E+03  0.12499823473E+03 0.  0.
    9000005    1    3    3    0    0 -0.52348425247E+02 -0.50092635122E+01 -0.60303564089E+02  0.80018561526E+02  0.10000000000E+01 0.  0.
    9000005    1    3    3    0    0  0.52348425247E+02  0.50092635122E+01 -0.23204749811E+03  0.23793379694E+03  0.10000000000E+01 0.  0.
<mgrwt>
<rscale>  0 0.12499823E+03</rscale>
<asrwt>0</asrwt>
<pdfrwt beam="2">  1        4 0.46946412E-01 0.12499823E+03</pdfrwt>
<pdfrwt beam="1">  1       -4 0.19693307E-02 0.12499823E+03</pdfrwt>
<totfact> 0.73403203E+03</totfact>
</mgrwt>
</event>
<event>
 5    1  0.3227866E-002  0.1250034E+03  0.7818608E-02  0.1235064E+00
         -4   -1    0    0    0  501 -0.00000000000E+00  0.00000000000E+00  0.56757742461E+03  0.56757884547E+03  0.12700000000E+01 0. -1.
          4   -1    0    0  501    0  0.00000000000E+00 -0.00000000000E+00 -0.68226724404E+01  0.69398673783E+01  0.12700000000E+01 0. -1.
         25    2    1    2    0    0  0.00000000000E+00  0.00000000000E+00  0.56075475217E+03  0.57451871285E+03  0.12500343729E+03 0.  0.
    9000005    1    3    3    0    0  0.32217631360E+02 -0.53498387098E+02  0.26968567740E+03  0.27682380278E+03  0.10000000000E+01 0.  0.
    9000005    1    3    3    0    0 -0.32217631360E+02  0.53498387098E+02  0.29106907478E+03  0.29769491007E+03  0.10000000000E+01 0.  0.
<mgrwt>
<rscale>  0 0.12500344E+03</rscale>
<asrwt>0</asrwt>
<pdfrwt beam="2">  1        4 0.10587659E-02 0.12500344E+03</pdfrwt>
<pdfrwt beam="1">  1       -4 0.87328752E-01 0.12500344E+03</pdfrwt>
<totfact> 0.50512786E+03</totfact>
</mgrwt>
</event>
<event>
 5    1  0.3227866E-002  0.1250020E+03  0.7818608E-02  0.1235066E+00
          4   -1    0    0  501    0  0.00000000000E+00  0.00000000000E+00  0.36484914234E+03  0.36485135270E+03  0.12700000000E+01 0. -1.
         -4   -1    0    0    0  501 -0.00000000000E+00 -0.00000000000E+00 -0.10666904756E+02  0.10742241716E+02  0.12700000000E+01 0. -1.
         25    2    1    2    0    0  0.00000000000E+00  0.00000000000E+00  0.35418223758E+03  0.37559359441E+03  0.12500196297E+03 0.  0.
    9000005    1    3    3    0    0 -0.17620620826E+02  0.59511593998E+02  0.19901856293E+03  0.20847422980E+03  0.10000000000E+01 0.  0.
    9000005    1    3    3    0    0  0.17620620826E+02 -0.59511593998E+02  0.15516367465E+03  0.16711936462E+03  0.10000000000E+01 0.  0.
<mgrwt>
<rscale>  0 0.12500196E+03</rscale>
<asrwt>0</asrwt>
<pdfrwt beam="1">  1        4 0.56136600E-01 0.12500196E+03</pdfrwt>
<pdfrwt beam="2">  1       -4 0.16470275E-02 0.12500196E+03</pdfrwt>
<totfact> 0.66994868E+03</totfact>
</mgrwt>
</event>
<event>
 5    1  0.3227866E-002  0.1250032E+03  0.7818608E-02  0.1235064E+00
          4   -1    0    0  501    0  0.00000000000E+00  0.00000000000E+00  0.35007520407E+02  0.35030549311E+02  0.12700000000E+01 0.  1.
         -4   -1    0    0    0  501 -0.00000000000E+00 -0.00000000000E+00 -0.11152548169E+03  0.11153271254E+03  0.12700000000E+01 0.  1.
         25    2    1    2    0    0  0.00000000000E+00  0.00000000000E+00 -0.76517961282E+02  0.14656326185E+03  0.12500316526E+03 0.  0.
    9000005    1    3    3    0    0 -0.35565735225E+02  0.30909242731E+02  0.98717830632E+01  0.48153451685E+02  0.10000000000E+01 0.  0.
    9000005    1    3    3    0    0  0.35565735225E+02 -0.30909242731E+02 -0.86389744345E+02  0.98409810163E+02  0.10000000000E+01 0.  0.
<mgrwt>
<rscale>  0 0.12500317E+03</rscale>
<asrwt>0</asrwt>
<pdfrwt beam="1">  1        4 0.53881001E-02 0.12500317E+03</pdfrwt>
<pdfrwt beam="2">  1       -4 0.17160094E-01 0.12500317E+03</pdfrwt>
<totfact> 0.99986101E+03</totfact>
</mgrwt>
</event>
<event>
 5    1  0.3227866E-002  0.1250220E+03  0.7818608E-02  0.1235035E+00
          4   -1    0    0  501    0  0.00000000000E+00  0.00000000000E+00  0.27531615603E+02  0.27560891816E+02  0.12700000000E+01 0. -1.
         -4   -1    0    0    0  501 -0.00000000000E+00 -0.00000000000E+00 -0.14182476109E+03  0.14183044722E+03  0.12700000000E+01 0. -1.
         25    2    1    2    0    0  0.00000000000E+00  0.00000000000E+00 -0.11429314548E+03  0.16939133903E+03  0.12502200860E+03 0.  0.
    9000005    1    3    3    0    0  0.47163245059E+02 -0.11895494874E+02 -0.11032934634E+03  0.12057959673E+03  0.10000000000E+01 0.  0.
    9000005    1    3    3    0    0 -0.47163245059E+02  0.11895494874E+02 -0.39637991392E+01  0.48811742301E+02  0.10000000000E+01 0.  0.
<mgrwt>
<rscale>  0 0.12502201E+03</rscale>
<asrwt>0</asrwt>
<pdfrwt beam="1">  1        4 0.42383226E-02 0.12502201E+03</pdfrwt>
<pdfrwt beam="2">  1       -4 0.21821883E-01 0.12502201E+03</pdfrwt>
<totfact> 0.95514936E+03</totfact>
</mgrwt>
</event>
<event>
 5    1  0.3227866E-002  0.1250050E+03  0.7818608E-02  0.1235061E+00
          4   -1    0    0  501    0  0.00000000000E+00  0.00000000000E+00  0.33723398540E+02  0.33747303730E+02  0.12700000000E+01 0.  1.
         -4   -1    0    0    0  501 -0.00000000000E+00 -0.00000000000E+00 -0.11577291565E+03  0.11577988123E+03  0.12700000000E+01 0.  1.
         25    2    1    2    0    0  0.00000000000E+00  0.00000000000E+00 -0.82049517107E+02  0.14952718496E+03  0.12500502304E+03 0.  0.
    9000005    1    3    3    0    0  0.32050070440E+02  0.52975363764E+02 -0.30877196860E+02  0.69195357266E+02  0.10000000000E+01 0.  0.
    9000005    1    3    3    0    0 -0.32050070440E+02 -0.52975363764E+02 -0.51172320247E+02  0.80331827694E+02  0.10000000000E+01 0.  0.
<mgrwt>
<rscale>  0 0.12500502E+03</rscale>
<asrwt>0</asrwt>
<pdfrwt beam="1">  1        4 0.51905899E-02 0.12500502E+03</pdfrwt>
<pdfrwt beam="2">  1       -4 0.17813592E-01 0.12500502E+03</pdfrwt>
<totfact> 0.99386794E+03</totfact>
</mgrwt>
</event>
<event>
 5    1  0.3227866E-002  0.1249998E+03  0.7818608E-02  0.1235070E+00
          4   -1    0    0  501    0  0.00000000000E+00  0.00000000000E+00  0.30644482219E+01  0.33171890065E+01  0.12700000000E+01 0. -1.
         -4   -1    0    0    0  501 -0.00000000000E+00 -0.00000000000E+00 -0.12239579997E+04  0.12239586586E+04  0.12700000000E+01 0. -1.
         25    2    1    2    0    0  0.00000000000E+00  0.00000000000E+00 -0.12208935515E+04  0.12272758476E+04  0.12499976818E+03 0.  0.
    9000005    1    3    3    0    0  0.21492862416E+02  0.31667115476E+02 -0.10954796285E+04  0.10961484233E+04  0.10000000000E+01 0.  0.
    9000005    1    3    3    0    0 -0.21492862416E+02 -0.31667115476E+02 -0.12541392294E+03  0.13112742430E+03  0.10000000000E+01 0.  0.
<mgrwt>
<rscale>  0 0.12499977E+03</rscale>
<asrwt>0</asrwt>
<pdfrwt beam="1">  1        4 0.49094683E-03 0.12499977E+03</pdfrwt>
<pdfrwt beam="2">  1       -4 0.18832035E+00 0.12499977E+03</pdfrwt>
<totfact> 0.24009952E+03</totfact>
</mgrwt>
</event>
<event>
 5    1  0.3227866E-002  0.1250002E+03  0.7818608E-02  0.1235069E+00
         -4   -1    0    0    0  501 -0.00000000000E+00  0.00000000000E+00  0.21312218737E+03  0.21312597132E+03  0.12700000000E+01 0. -1.
          4   -1    0    0  501    0  0.00000000000E+00 -0.00000000000E+00 -0.18302799351E+02  0.18346808008E+02  0.12700000000E+01 0. -1.
         25    2    1    2    0    0  0.00000000000E+00  0.00000000000E+00  0.19481938802E+03  0.23147277933E+03  0.12500021448E+03 0.  0.
    9000005    1    3    3    0    0 -0.37264399169E+02  0.41511099552E+02  0.45248112634E+02  0.71834521842E+02  0.10000000000E+01 0.  0.
    9000005    1    3    3    0    0  0.37264399169E+02 -0.41511099552E+02  0.14957127539E+03  0.15963825748E+03  0.10000000000E+01 0.  0.
<mgrwt>
<rscale>  0 0.12500021E+03</rscale>
<asrwt>0</asrwt>
<pdfrwt beam="2">  1        4 0.28194915E-02 0.12500021E+03</pdfrwt>
<pdfrwt beam="1">  1       -4 0.32791706E-01 0.12500021E+03</pdfrwt>
<totfact> 0.85083553E+03</totfact>
</mgrwt>
</event>
<event>
 5    1  0.3227866E-002  0.1250014E+03  0.7818608E-02  0.1235067E+00
         -4   -1    0    0    0  501 -0.00000000000E+00  0.00000000000E+00  0.82208735688E+03  0.82208833786E+03  0.12700000000E+01 0.  1.
          4   -1    0    0  501    0  0.00000000000E+00 -0.00000000000E+00 -0.46658706695E+01  0.48356229283E+01  0.12700000000E+01 0.  1.
         25    2    1    2    0    0  0.00000000000E+00  0.00000000000E+00  0.81742148621E+03  0.82692396078E+03  0.12500140321E+03 0.  0.
    9000005    1    3    3    0    0 -0.10305799630E+02  0.34300032633E+02  0.69929237738E+02  0.78573532664E+02  0.10000000000E+01 0.  0.
    9000005    1    3    3    0    0  0.10305799630E+02 -0.34300032633E+02  0.74749224847E+03  0.74835042812E+03  0.10000000000E+01 0.  0.
<mgrwt>
<rscale>  0 0.12500140E+03</rscale>
<asrwt>0</asrwt>
<pdfrwt beam="2">  1        4 0.73096019E-03 0.12500140E+03</pdfrwt>
<pdfrwt beam="1">  1       -4 0.12648801E+00 0.12500140E+03</pdfrwt>
<totfact> 0.37089545E+03</totfact>
</mgrwt>
</event>
<event>
 5    1  0.3227866E-002  0.1250061E+03  0.7818608E-02  0.1235060E+00
          4   -1    0    0  501    0  0.00000000000E+00  0.00000000000E+00  0.98907292655E+02  0.98915445914E+02  0.12700000000E+01 0. -1.
         -4   -1    0    0    0  501 -0.00000000000E+00 -0.00000000000E+00 -0.39477909687E+02  0.39498332285E+02  0.12700000000E+01 0. -1.
         25    2    1    2    0    0  0.00000000000E+00  0.00000000000E+00  0.59429382967E+02  0.13841377820E+03  0.12500608959E+03 0.  0.
    9000005    1    3    3    0    0 -0.15675025297E+02  0.55590829028E+02  0.32889602778E+01  0.57860728909E+02  0.10000000000E+01 0.  0.
    9000005    1    3    3    0    0  0.15675025297E+02 -0.55590829028E+02  0.56140422690E+02  0.80553049290E+02  0.10000000000E+01 0.  0.
<mgrwt>
<rscale>  0 0.12500609E+03</rscale>
<asrwt>0</asrwt>
<pdfrwt beam="1">  1        4 0.15218705E-01 0.12500609E+03</pdfrwt>
<pdfrwt beam="2">  1       -4 0.60757227E-02 0.12500609E+03</pdfrwt>
<totfact> 0.10165172E+04</totfact>
</mgrwt>
</event>
<event>
 5    1  0.3227866E-002  0.1249983E+03  0.7818608E-02  0.1235072E+00
          4   -1    0    0  501    0  0.00000000000E+00  0.00000000000E+00  0.40913880146E+02  0.40933586315E+02  0.12700000000E+01 0.  1.
         -4   -1    0    0    0  501 -0.00000000000E+00 -0.00000000000E+00 -0.95425472058E+02  0.95433922781E+02  0.12700000000E+01 0.  1.
         25    2    1    2    0    0  0.00000000000E+00  0.00000000000E+00 -0.54511591912E+02  0.13636750910E+03  0.12499833553E+03 0.  0.
    9000005    1    3    3    0    0 -0.57674936911E+02 -0.16273948884E+02 -0.79269185203E+01  0.60457222870E+02  0.10000000000E+01 0.  0.
    9000005    1    3    3    0    0  0.57674936911E+02  0.16273948884E+02 -0.46584673391E+02  0.75910286226E+02  0.10000000000E+01 0.  0.
<mgrwt>
<rscale>  0 0.12499834E+03</rscale>
<asrwt>0</asrwt>
<pdfrwt beam="1">  1        4 0.62966091E-02 0.12499834E+03</pdfrwt>
<pdfrwt beam="2">  1       -4 0.14683008E-01 0.12499834E+03</pdfrwt>
<totfact> 0.10209710E+04</totfact>
</mgrwt>
</event>
<event>
 5    1  0.3227866E-002  0.1250005E+03  0.7818608E-02  0.1235069E+00
         -4   -1    0    0    0  501 -0.00000000000E+00  0.00000000000E+00  0.82756609901E+02  0.82766354168E+02  0.12700000000E+01 0. -1.
          4   -1    0    0  501    0  0.00000000000E+00 -0.00000000000E+00 -0.47180945616E+02  0.47198035226E+02  0.12700000000E+01 0. -1.
         25    2    1    2    0    0  0.00000000000E+00  0.00000000000E+00  0.35575664285E+02  0.12996438939E+03  0.12500045848E+03 0.  0.
    9000005    1    3    3    0    0 -0.54461663847E+01 -0.37539310238E+02  0.69423062089E+02  0.79116509600E+02  0.10000000000E+01 0.  0.
    9000005    1    3    3    0    0  0.54461663847E+01  0.37539310238E+02 -0.33847397804E+02  0.50847879794E+02  0.10000000000E+01 0.  0.
<mgrwt>
<rscale>  0 0.12500046E+03</rscale>
<asrwt>0</asrwt>
<pdfrwt beam="2">  1        4 0.72606712E-02 0.12500046E+03</pdfrwt>
<pdfrwt beam="1">  1       -4 0.12733850E-01 0.12500046E+03</pdfrwt>
<totfact> 0.10345162E+04</totfact>
</mgrwt>
</event>
<event>
 5    1  0.3227866E-002  0.1250310E+03  0.7818608E-02  0.1235021E+00
          4   -1    0    0  501    0  0.00000000000E+00  0.00000000000E+00  0.30451974082E+02  0.30478445261E+02  0.12700000000E+01 0. -1.
         -4   -1    0    0    0  501 -0.00000000000E+00 -0.00000000000E+00 -0.12825401472E+03  0.12826030247E+03  0.12700000000E+01 0. -1.
         25    2    1    2    0    0  0.00000000000E+00  0.00000000000E+00 -0.97802040633E+02  0.15873874773E+03  0.12503099968E+03 0.  0.
    9000005    1    3    3    0    0  0.10811084335E+02 -0.31563563703E+02 -0.11601025772E+03  0.12071668483E+03  0.10000000000E+01 0.  0.
    9000005    1    3    3    0    0 -0.10811084335E+02  0.31563563703E+02  0.18208217091E+02  0.38022062908E+02  0.10000000000E+01 0.  0.
<mgrwt>
<rscale>  0 0.12503100E+03</rscale>
<asrwt>0</asrwt>
<pdfrwt beam="1">  1        4 0.46874391E-02 0.12503100E+03</pdfrwt>
<pdfrwt beam="2">  1       -4 0.19733907E-01 0.12503100E+03</pdfrwt>
<totfact> 0.97518521E+03</totfact>
</mgrwt>
</event>
<event>
 5    1  0.3227866E-002  0.1250005E+03  0.7818608E-02  0.1235069E+00
         -4   -1    0    0    0  501 -0.00000000000E+00  0.00000000000E+00  0.34528731634E+02  0.34552079652E+02  0.12700000000E+01 0. -1.
          4   -1    0    0  501    0  0.00000000000E+00 -0.00000000000E+00 -0.11306613428E+03  0.11307326661E+03  0.12700000000E+01 0. -1.
         25    2    1    2    0    0  0.00000000000E+00  0.00000000000E+00 -0.78537402649E+02  0.14762534626E+03  0.12500047698E+03 0.  0.
    9000005    1    3    3    0    0  0.61083367285E+01  0.53034700994E+02 -0.77633671660E+02  0.94223024057E+02  0.10000000000E+01 0.  0.
    9000005    1    3    3    0    0 -0.61083367285E+01 -0.53034700994E+02 -0.90373098967E+00  0.53402322205E+02  0.10000000000E+01 0.  0.
<mgrwt>
<rscale>  0 0.12500048E+03</rscale>
<asrwt>0</asrwt>
<pdfrwt beam="2">  1        4 0.17397134E-01 0.12500048E+03</pdfrwt>
<pdfrwt beam="1">  1       -4 0.53144573E-02 0.12500048E+03</pdfrwt>
<totfact> 0.99778101E+03</totfact>
</mgrwt>
</event>
<event>
 5    1  0.3227866E-002  0.1250014E+03  0.7818608E-02  0.1235067E+00
         -4   -1    0    0    0  501 -0.00000000000E+00  0.00000000000E+00  0.52545892829E+03  0.52546046304E+03  0.12700000000E+01 0.  1.
          4   -1    0    0  501    0  0.00000000000E+00 -0.00000000000E+00 -0.73783527727E+01  0.74868544555E+01  0.12700000000E+01 0.  1.
         25    2    1    2    0    0  0.00000000000E+00  0.00000000000E+00  0.51808057551E+03  0.53294731749E+03  0.12500144199E+03 0.  0.
    9000005    1    3    3    0    0 -0.29452671059E+02 -0.14936200846E+02  0.48524011689E+03  0.48636356871E+03  0.10000000000E+01 0.  0.
    9000005    1    3    3    0    0  0.29452671059E+02  0.14936200846E+02  0.32840458626E+02  0.46583748787E+02  0.10000000000E+01 0.  0.
<mgrwt>
<rscale>  0 0.12500144E+03</rscale>
<asrwt>0</asrwt>
<pdfrwt beam="2">  1        4 0.11435950E-02 0.12500144E+03</pdfrwt>
<pdfrwt beam="1">  1       -4 0.80848338E-01 0.12500144E+03</pdfrwt>
<totfact> 0.53393998E+03</totfact>
</mgrwt>
</event>
<event>
 5    1  0.3227866E-002  0.1249989E+03  0.7818608E-02  0.1235071E+00
         -4   -1    0    0    0  501 -0.00000000000E+00  0.00000000000E+00  0.25779902610E+02  0.25811165774E+02  0.12700000000E+01 0.  1.
          4   -1    0    0  501    0  0.00000000000E+00 -0.00000000000E+00 -0.15139463597E+03  0.15139996268E+03  0.12700000000E+01 0.  1.
         25    2    1    2    0    0  0.00000000000E+00  0.00000000000E+00 -0.12561473336E+03  0.17721112845E+03  0.12499889124E+03 0.  0.
    9000005    1    3    3    0    0 -0.61324076591E+01  0.26428029084E+02  0.17002227309E+02  0.32033152802E+02  0.10000000000E+01 0.  0.
    9000005    1    3    3    0    0  0.61324076591E+01 -0.26428029084E+02 -0.14261696066E+03  0.14517797565E+03  0.10000000000E+01 0.  0.
<mgrwt>
<rscale>  0 0.12499889E+03</rscale>
<asrwt>0</asrwt>
<pdfrwt beam="2">  1        4 0.23294297E-01 0.12499889E+03</pdfrwt>
<pdfrwt beam="1">  1       -4 0.39689536E-02 0.12499889E+03</pdfrwt>
<totfact> 0.94123772E+03</totfact>
</mgrwt>
</event>
<event>
 5    1  0.3227866E-002  0.1249895E+03  0.7818608E-02  0.1235086E+00
          4   -1    0    0  501    0  0.00000000000E+00  0.00000000000E+00  0.20662239377E+02  0.20701232719E+02  0.12700000000E+01 0.  1.
         -4   -1    0    0    0  501 -0.00000000000E+00 -0.00000000000E+00 -0.18880155100E+03  0.18880582237E+03  0.12700000000E+01 0.  1.
         25    2    1    2    0    0  0.00000000000E+00  0.00000000000E+00 -0.16813931163E+03  0.20950705509E+03  0.12498951163E+03 0.  0.
    9000005    1    3    3    0    0 -0.35275766309E+02  0.38421863781E+02 -0.14174582191E+03  0.15104137623E+03  0.10000000000E+01 0.  0.
    9000005    1    3    3    0    0  0.35275766309E+02 -0.38421863781E+02 -0.26393489720E+02  0.58465678861E+02  0.10000000000E+01 0.  0.
<mgrwt>
<rscale>  0 0.12498951E+03</rscale>
<asrwt>0</asrwt>
<pdfrwt beam="1">  1        4 0.31821342E-02 0.12498951E+03</pdfrwt>
<pdfrwt beam="2">  1       -4 0.29049719E-01 0.12498951E+03</pdfrwt>
<totfact> 0.88577218E+03</totfact>
</mgrwt>
</event>
<event>
 5    1  0.3227866E-002  0.1249994E+03  0.7818608E-02  0.1235070E+00
          4   -1    0    0  501    0  0.00000000000E+00  0.00000000000E+00  0.10944116737E+02  0.11017558312E+02  0.12700000000E+01 0. -1.
         -4   -1    0    0    0  501 -0.00000000000E+00 -0.00000000000E+00 -0.35565541058E+03  0.35565767808E+03  0.12700000000E+01 0. -1.
         25    2    1    2    0    0  0.00000000000E+00  0.00000000000E+00 -0.34471129385E+03  0.36667523639E+03  0.12499941151E+03 0.  0.
    9000005    1    3    3    0    0 -0.41289476183E+02 -0.28927180318E+02 -0.64033115932E+02  0.81503635137E+02  0.10000000000E+01 0.  0.
    9000005    1    3    3    0    0  0.41289476183E+02  0.28927180318E+02 -0.28067817792E+03  0.28517160126E+03  0.10000000000E+01 0.  0.
<mgrwt>
<rscale>  0 0.12499941E+03</rscale>
<asrwt>0</asrwt>
<pdfrwt beam="1">  1        4 0.16895343E-02 0.12499941E+03</pdfrwt>
<pdfrwt beam="2">  1       -4 0.54722032E-01 0.12499941E+03</pdfrwt>
<totfact> 0.67929097E+03</totfact>
</mgrwt>
</event>
<event>
 5    1  0.3227866E-002  0.1250014E+03  0.7818608E-02  0.1235067E+00
         -4   -1    0    0    0  501 -0.00000000000E+00  0.00000000000E+00  0.46518252802E+03  0.46518426163E+03  0.12700000000E+01 0. -1.
          4   -1    0    0  501    0  0.00000000000E+00 -0.00000000000E+00 -0.83476471998E+01  0.84437026104E+01  0.12700000000E+01 0. -1.
         25    2    1    2    0    0  0.00000000000E+00  0.00000000000E+00  0.45683488082E+03  0.47362796425E+03  0.12500136073E+03 0.  0.
    9000005    1    3    3    0    0 -0.21414950424E+01  0.32466608895E+02  0.43057548691E+03  0.43180425730E+03  0.10000000000E+01 0.  0.
    9000005    1    3    3    0    0  0.21414950424E+01 -0.32466608895E+02  0.26259393904E+02  0.41823706942E+02  0.10000000000E+01 0.  0.
<mgrwt>
<rscale>  0 0.12500136E+03</rscale>
<asrwt>0</asrwt>
<pdfrwt beam="2">  1        4 0.12917755E-02 0.12500136E+03</pdfrwt>
<pdfrwt beam="1">  1       -4 0.71574073E-01 0.12500136E+03</pdfrwt>
<totfact> 0.57968446E+03</totfact>
</mgrwt>
</event>
<event>
 5    1  0.3227866E-002  0.1250006E+03  0.7818608E-02  0.1235068E+00
          4   -1    0    0  501    0  0.00000000000E+00  0.00000000000E+00  0.36404713500E+02  0.36426859116E+02  0.12700000000E+01 0.  1.
         -4   -1    0    0    0  501 -0.00000000000E+00 -0.00000000000E+00 -0.10724310448E+03  0.10725062404E+03  0.12700000000E+01 0.  1.
         25    2    1    2    0    0  0.00000000000E+00  0.00000000000E+00 -0.70838390976E+02  0.14367748316E+03  0.12500056612E+03 0.  0.
    9000005    1    3    3    0    0 -0.43536794202E+02 -0.20376924708E+02  0.10479939489E+02  0.49208745581E+02  0.10000000000E+01 0.  0.
    9000005    1    3    3    0    0  0.43536794202E+02  0.20376924708E+02 -0.81318330465E+02  0.94468737578E+02  0.10000000000E+01 0.  0.
<mgrwt>
<rscale>  0 0.12500057E+03</rscale>
<asrwt>0</asrwt>
<pdfrwt beam="1">  1        4 0.56030071E-02 0.12500057E+03</pdfrwt>
<pdfrwt beam="2">  1       -4 0.16501221E-01 0.12500057E+03</pdfrwt>
<totfact> 0.10057800E+04</totfact>
</mgrwt>
</event>
<event>
 5    1  0.3227866E-002  0.1249996E+03  0.7818608E-02  0.1235070E+00
          4   -1    0    0  501    0  0.00000000000E+00  0.00000000000E+00  0.69583047732E+01  0.70732528102E+01  0.12700000000E+01 0. -1.
         -4   -1    0    0    0  501 -0.00000000000E+00 -0.00000000000E+00 -0.55666149110E+03  0.55666293982E+03  0.12700000000E+01 0. -1.
         25    2    1    2    0    0  0.00000000000E+00  0.00000000000E+00 -0.54970318632E+03  0.56373619263E+03  0.12499960731E+03 0.  0.
    9000005    1    3    3    0    0 -0.66360225874E+01 -0.46374955251E+02 -0.88327286820E+02  0.99986913480E+02  0.10000000000E+01 0.  0.
    9000005    1    3    3    0    0  0.66360225874E+01  0.46374955251E+02 -0.46137589950E+03  0.46374927915E+03  0.10000000000E+01 0.  0.
<mgrwt>
<rscale>  0 0.12499961E+03</rscale>
<asrwt>0</asrwt>
<pdfrwt beam="1">  1        4 0.10794625E-02 0.12499961E+03</pdfrwt>
<pdfrwt beam="2">  1       -4 0.85649148E-01 0.12499961E+03</pdfrwt>
<totfact> 0.51240185E+03</totfact>
</mgrwt>
</event>
<event>
 5    1  0.3227866E-002  0.1249945E+03  0.7818608E-02  0.1235078E+00
         -4   -1    0    0    0  501 -0.00000000000E+00  0.00000000000E+00  0.18792571911E+02  0.18835436258E+02  0.12700000000E+01 0.  1.
          4   -1    0    0  501    0  0.00000000000E+00 -0.00000000000E+00 -0.20756139533E+03  0.20756528065E+03  0.12700000000E+01 0.  1.
         25    2    1    2    0    0  0.00000000000E+00  0.00000000000E+00 -0.18876882342E+03  0.22640071691E+03  0.12499446356E+03 0.  0.
    9000005    1    3    3    0    0 -0.20201411996E+02 -0.45880390740E+02 -0.16195767905E+03  0.16954172673E+03  0.10000000000E+01 0.  0.
    9000005    1    3    3    0    0  0.20201411996E+02  0.45880390740E+02 -0.26811144368E+02  0.56858990172E+02  0.10000000000E+01 0.  0.
<mgrwt>
<rscale>  0 0.12499446E+03</rscale>
<asrwt>0</asrwt>
<pdfrwt beam="2">  1        4 0.31936117E-01 0.12499446E+03</pdfrwt>
<pdfrwt beam="1">  1       -4 0.28947612E-02 0.12499446E+03</pdfrwt>
<totfact> 0.85875963E+03</totfact>
</mgrwt>
</event>
<event>
 5    1  0.3227866E-002  0.1250015E+03  0.7818608E-02  0.1235067E+00
         -4   -1    0    0    0  501 -0.00000000000E+00  0.00000000000E+00  0.29254092670E+02  0.29281646777E+02  0.12700000000E+01 0.  1.
          4   -1    0    0  501    0  0.00000000000E+00 -0.00000000000E+00 -0.13343799295E+03  0.13344403645E+03  0.12700000000E+01 0.  1.
         25    2    1    2    0    0  0.00000000000E+00  0.00000000000E+00 -0.10418390028E+03  0.16272568322E+03  0.12500145160E+03 0.  0.
    9000005    1    3    3    0    0 -0.47686327658E+02 -0.36311430137E+02 -0.75116898293E+02  0.96104392268E+02  0.10000000000E+01 0.  0.
    9000005    1    3    3    0    0  0.47686327658E+02  0.36311430137E+02 -0.29067001990E+02  0.66621290957E+02  0.10000000000E+01 0.  0.
<mgrwt>
<rscale>  0 0.12500145E+03</rscale>
<asrwt>0</asrwt>
<pdfrwt beam="2">  1        4 0.20531506E-01 0.12500145E+03</pdfrwt>
<pdfrwt beam="1">  1       -4 0.45032141E-02 0.12500145E+03</pdfrwt>
<totfact> 0.96816696E+03</totfact>
</mgrwt>
</event>
<event>
 5    1  0.3227866E-002  0.1249984E+03  0.7818608E-02  0.1235072E+00
          4   -1    0    0  501    0  0.00000000000E+00  0.00000000000E+00  0.16219200732E+03  0.16219697944E+03  0.12700000000E+01 0.  1.
         -4   -1    0    0    0  501 -0.00000000000E+00 -0.00000000000E+00 -0.24061410931E+02  0.24094903943E+02  0.12700000000E+01 0.  1.
         25    2    1    2    0    0  0.00000000000E+00  0.00000000000E+00  0.13813059639E+03  0.18629188338E+03  0.12499841661E+03 0.  0.
    9000005    1    3    3    0    0 -0.55969274352E+02 -0.26751489081E+02  0.80312208498E+02  0.10148523377E+03  0.10000000000E+01 0.  0.
    9000005    1    3    3    0    0  0.55969274352E+02  0.26751489081E+02  0.57818387888E+02  0.84806649607E+02  0.10000000000E+01 0.  0.
<mgrwt>
<rscale>  0 0.12499842E+03</rscale>
<asrwt>0</asrwt>
<pdfrwt beam="1">  1        4 0.24955576E-01 0.12499842E+03</pdfrwt>
<pdfrwt beam="2">  1       -4 0.37047143E-02 0.12499842E+03</pdfrwt>
<totfact> 0.92499829E+03</totfact>
</mgrwt>
</event>
<event>
 5    1  0.3227866E-002  0.1250003E+03  0.7818608E-02  0.1235069E+00
         -4   -1    0    0    0  501 -0.00000000000E+00  0.00000000000E+00  0.15885016651E+04  0.15885021728E+04  0.12700000000E+01 0. -1.
          4   -1    0    0  501    0  0.00000000000E+00 -0.00000000000E+00 -0.22945733527E+01  0.26225878195E+01  0.12700000000E+01 0. -1.
         25    2    1    2    0    0  0.00000000000E+00  0.00000000000E+00  0.15862070917E+04  0.15911247606E+04  0.12500026353E+03 0.  0.
    9000005    1    3    3    0    0  0.38934211961E+02 -0.48863691239E+02  0.80986179575E+03  0.81226883567E+03  0.10000000000E+01 0.  0.
    9000005    1    3    3    0    0 -0.38934211961E+02  0.48863691239E+02  0.77634529600E+03  0.77885592493E+03  0.10000000000E+01 0.  0.
<mgrwt>
<rscale>  0 0.12500026E+03</rscale>
<asrwt>0</asrwt>
<pdfrwt beam="2">  1        4 0.37828323E-03 0.12500026E+03</pdfrwt>
<pdfrwt beam="1">  1       -4 0.24440949E+00 0.12500026E+03</pdfrwt>
<totfact> 0.16206983E+03</totfact>
</mgrwt>
</event>
<event>
 5    1  0.3227866E-002  0.1249737E+03  0.7818608E-02  0.1235110E+00
         -4   -1    0    0    0  501 -0.00000000000E+00  0.00000000000E+00  0.15182829617E+02  0.15235852952E+02  0.12700000000E+01 0. -1.
          4   -1    0    0  501    0  0.00000000000E+00 -0.00000000000E+00 -0.25666961874E+03  0.25667276070E+03  0.12700000000E+01 0. -1.
         25    2    1    2    0    0  0.00000000000E+00  0.00000000000E+00 -0.24148678913E+03  0.27190861365E+03  0.12497369666E+03 0.  0.
    9000005    1    3    3    0    0  0.21931080546E+02 -0.48449498927E+02 -0.49398134043E+02  0.72591334794E+02  0.10000000000E+01 0.  0.
    9000005    1    3    3    0    0 -0.21931080546E+02  0.48449498927E+02 -0.19208865508E+03  0.19931727886E+03  0.10000000000E+01 0.  0.
<mgrwt>
<rscale>  0 0.12497370E+03</rscale>
<asrwt>0</asrwt>
<pdfrwt beam="2">  1        4 0.39491951E-01 0.12497370E+03</pdfrwt>
<pdfrwt beam="1">  1       -4 0.23401405E-02 0.12497370E+03</pdfrwt>
<totfact> 0.79309732E+03</totfact>
</mgrwt>
</event>
<event>
 5    1  0.3227866E-002  0.1250049E+03  0.7818608E-02  0.1235062E+00
          4   -1    0    0  501    0  0.00000000000E+00  0.00000000000E+00  0.20044520009E+03  0.20044922334E+03  0.12700000000E+01 0. -1.
         -4   -1    0    0    0  501 -0.00000000000E+00 -0.00000000000E+00 -0.19464492483E+02  0.19505880335E+02  0.12700000000E+01 0. -1.
         25    2    1    2    0    0  0.00000000000E+00  0.00000000000E+00  0.18098070761E+03  0.21995510368E+03  0.12500492434E+03 0.  0.
    9000005    1    3    3    0    0 -0.37995401517E+02  0.42162288174E+02  0.13651748548E+03  0.14784902070E+03  0.10000000000E+01 0.  0.
    9000005    1    3    3    0    0  0.37995401517E+02 -0.42162288174E+02  0.44463222128E+02  0.72106082978E+02  0.10000000000E+01 0.  0.
<mgrwt>
<rscale>  0 0.12500492E+03</rscale>
<asrwt>0</asrwt>
<pdfrwt beam="1">  1        4 0.30841216E-01 0.12500492E+03</pdfrwt>
<pdfrwt beam="2">  1       -4 0.29980305E-02 0.12500492E+03</pdfrwt>
<totfact> 0.86865899E+03</totfact>
</mgrwt>
</event>
<event>
 5    1  0.3227866E-002  0.1249967E+03  0.7818608E-02  0.1235074E+00
         -4   -1    0    0    0  501 -0.00000000000E+00  0.00000000000E+00  0.10933068683E+03  0.10933806283E+03  0.12700000000E+01 0.  1.
          4   -1    0    0  501    0  0.00000000000E+00 -0.00000000000E+00 -0.35707008784E+02  0.35729586848E+02  0.12700000000E+01 0.  1.
         25    2    1    2    0    0  0.00000000000E+00  0.00000000000E+00  0.73623678048E+02  0.14506764968E+03  0.12499670801E+03 0.  0.
    9000005    1    3    3    0    0  0.37994527059E+02 -0.72938013242E+01 -0.20142096916E+02  0.43628977668E+02  0.10000000000E+01 0.  0.
    9000005    1    3    3    0    0 -0.37994527059E+02  0.72938013242E+01  0.93765774964E+02  0.10143867201E+03  0.10000000000E+01 0.  0.
<mgrwt>
<rscale>  0 0.12499671E+03</rscale>
<asrwt>0</asrwt>
<pdfrwt beam="2">  1        4 0.54956902E-02 0.12499671E+03</pdfrwt>
<pdfrwt beam="1">  1       -4 0.16822409E-01 0.12499671E+03</pdfrwt>
<totfact> 0.10030358E+04</totfact>
</mgrwt>
</event>
<event>
 5    1  0.3227866E-002  0.1249995E+03  0.7818608E-02  0.1235070E+00
          4   -1    0    0  501    0  0.00000000000E+00  0.00000000000E+00  0.51665989882E+02  0.51681596440E+02  0.12700000000E+01 0.  1.
         -4   -1    0    0    0  501 -0.00000000000E+00 -0.00000000000E+00 -0.75572816993E+02  0.75583487405E+02  0.12700000000E+01 0.  1.
         25    2    1    2    0    0  0.00000000000E+00  0.00000000000E+00 -0.23906827111E+02  0.12726508384E+03  0.12499946073E+03 0.  0.
    9000005    1    3    3    0    0  0.21518087984E+02  0.45024034837E+02 -0.50252031662E+02  0.70826961743E+02  0.10000000000E+01 0.  0.
    9000005    1    3    3    0    0 -0.21518087984E+02 -0.45024034837E+02  0.26345204552E+02  0.56438122102E+02  0.10000000000E+01 0.  0.
<mgrwt>
<rscale>  0 0.12499946E+03</rscale>
<asrwt>0</asrwt>
<pdfrwt beam="1">  1        4 0.79506352E-02 0.12499946E+03</pdfrwt>
<pdfrwt beam="2">  1       -4 0.11628608E-01 0.12499946E+03</pdfrwt>
<totfact> 0.10403518E+04</totfact>
</mgrwt>
</event>
<event>
 5    1  0.3227866E-002  0.1250134E+03  0.7818608E-02  0.1235048E+00
          4   -1    0    0  501    0  0.00000000000E+00  0.00000000000E+00  0.87343054900E+03  0.87343147232E+03  0.12700000000E+01 0.  1.
         -4   -1    0    0    0  501 -0.00000000000E+00 -0.00000000000E+00 -0.43821830578E+01  0.45625024222E+01  0.12700000000E+01 0.  1.
         25    2    1    2    0    0  0.00000000000E+00  0.00000000000E+00  0.86904836594E+03  0.87799397474E+03  0.12501342858E+03 0.  0.
    9000005    1    3    3    0    0  0.16537345690E+02  0.12920321331E+02  0.21068919948E+02  0.29754292019E+02  0.10000000000E+01 0.  0.
    9000005    1    3    3    0    0 -0.16537345690E+02 -0.12920321331E+02  0.84797944600E+03  0.84823968272E+03  0.10000000000E+01 0.  0.
<mgrwt>
<rscale>  0 0.12501343E+03</rscale>
<asrwt>0</asrwt>
<pdfrwt beam="1">  1        4 0.13438769E+00 0.12501343E+03</pdfrwt>
<pdfrwt beam="2">  1       -4 0.68812467E-03 0.12501343E+03</pdfrwt>
<totfact> 0.34998141E+03</totfact>
</mgrwt>
</event>
<event>
 5    1  0.3227866E-002  0.1249985E+03  0.7818608E-02  0.1235072E+00
         -4   -1    0    0    0  501 -0.00000000000E+00  0.00000000000E+00  0.43203722290E+01  0.45031673517E+01  0.12700000000E+01 0. -1.
          4   -1    0    0  501    0  0.00000000000E+00 -0.00000000000E+00 -0.88521140653E+03  0.88521231756E+03  0.12700000000E+01 0. -1.
         25    2    1    2    0    0  0.00000000000E+00  0.00000000000E+00 -0.88089103430E+03  0.88971548491E+03  0.12499851907E+03 0.  0.
    9000005    1    3    3    0    0 -0.29165735353E+02  0.39561240489E+02 -0.71514363575E+03  0.71683132717E+03  0.10000000000E+01 0.  0.
    9000005    1    3    3    0    0  0.29165735353E+02 -0.39561240489E+02 -0.16574739856E+03  0.17288415773E+03  0.10000000000E+01 0.  0.
<mgrwt>
<rscale>  0 0.12499852E+03</rscale>
<asrwt>0</asrwt>
<pdfrwt beam="2">  1        4 0.13620036E+00 0.12499852E+03</pdfrwt>
<pdfrwt beam="1">  1       -4 0.67880460E-03 0.12499852E+03</pdfrwt>
<totfact> 0.34556010E+03</totfact>
</mgrwt>
</event>
<event>
 5    1  0.3227866E-002  0.1250024E+03  0.7818608E-02  0.1235066E+00
          4   -1    0    0  501    0  0.00000000000E+00  0.00000000000E+00  0.71400329885E+02  0.71411623757E+02  0.12700000000E+01 0.  1.
         -4   -1    0    0    0  501 -0.00000000000E+00 -0.00000000000E+00 -0.54688195947E+02  0.54702940286E+02  0.12700000000E+01 0.  1.
         25    2    1    2    0    0  0.00000000000E+00  0.00000000000E+00  0.16712133938E+02  0.12611456404E+03  0.12500235135E+03 0.  0.
    9000005    1    3    3    0    0 -0.18849327877E+02  0.53173036691E+02  0.35478865084E+02  0.66651473052E+02  0.10000000000E+01 0.  0.
    9000005    1    3    3    0    0  0.18849327877E+02 -0.53173036691E+02 -0.18766731146E+02  0.59463090991E+02  0.10000000000E+01 0.  0.
<mgrwt>
<rscale>  0 0.12500235E+03</rscale>
<asrwt>0</asrwt>
<pdfrwt beam="1">  1        4 0.10986669E-01 0.12500235E+03</pdfrwt>
<pdfrwt beam="2">  1       -4 0.84155715E-02 0.12500235E+03</pdfrwt>
<totfact> 0.10427895E+04</totfact>
</mgrwt>
</event>
<event>
 5    1  0.3227866E-002  0.1249991E+03  0.7818608E-02  0.1235071E+00
         -4   -1    0    0    0  501 -0.00000000000E+00  0.00000000000E+00  0.21483167191E+02  0.21520673143E+02  0.12700000000E+01 0.  1.
          4   -1    0    0  501    0  0.00000000000E+00 -0.00000000000E+00 -0.18162734581E+03  0.18163178589E+03  0.12700000000E+01 0.  1.
         25    2    1    2    0    0  0.00000000000E+00  0.00000000000E+00 -0.16014417862E+03  0.20315245904E+03  0.12499905466E+03 0.  0.
    9000005    1    3    3    0    0  0.59288678490E+02 -0.18002975469E+02 -0.93269172376E+02  0.11197943132E+03  0.10000000000E+01 0.  0.
    9000005    1    3    3    0    0 -0.59288678490E+02  0.18002975469E+02 -0.66875006245E+02  0.91173027717E+02  0.10000000000E+01 0.  0.
<mgrwt>
<rscale>  0 0.12499905E+03</rscale>
<asrwt>0</asrwt>
<pdfrwt beam="2">  1        4 0.27945894E-01 0.12499905E+03</pdfrwt>
<pdfrwt beam="1">  1       -4 0.33083294E-02 0.12499905E+03</pdfrwt>
<totfact> 0.89608424E+03</totfact>
</mgrwt>
</event>
<event>
 5    1  0.3227866E-002  0.1249990E+03  0.7818608E-02  0.1235071E+00
          4   -1    0    0  501    0  0.00000000000E+00  0.00000000000E+00  0.56410411288E+02  0.56424705597E+02  0.12700000000E+01 0. -1.
         -4   -1    0    0    0  501 -0.00000000000E+00 -0.00000000000E+00 -0.69216984300E+02  0.69228634361E+02  0.12700000000E+01 0. -1.
         25    2    1    2    0    0  0.00000000000E+00  0.00000000000E+00 -0.12806573012E+02  0.12565333996E+03  0.12499901412E+03 0.  0.
    9000005    1    3    3    0    0  0.25886126120E+02 -0.53856694411E+02 -0.24789831294E+02  0.64700624371E+02  0.10000000000E+01 0.  0.
    9000005    1    3    3    0    0 -0.25886126120E+02  0.53856694411E+02  0.11983258282E+02  0.60952715587E+02  0.10000000000E+01 0.  0.
<mgrwt>
<rscale>  0 0.12499901E+03</rscale>
<asrwt>0</asrwt>
<pdfrwt beam="1">  1        4 0.86805205E-02 0.12499901E+03</pdfrwt>
<pdfrwt beam="2">  1       -4 0.10650763E-01 0.12499901E+03</pdfrwt>
<totfact> 0.10438804E+04</totfact>
</mgrwt>
</event>
<event>
 5    1  0.3227866E-002  0.1249986E+03  0.7818608E-02  0.1235071E+00
          4   -1    0    0  501    0  0.00000000000E+00  0.00000000000E+00  0.25068139308E+03  0.25068461010E+03  0.12700000000E+01 0. -1.
         -4   -1    0    0    0  501 -0.00000000000E+00 -0.00000000000E+00 -0.15552983293E+02  0.15604748935E+02  0.12700000000E+01 0. -1.
         25    2    1    2    0    0  0.00000000000E+00  0.00000000000E+00  0.23512840979E+03  0.26628935903E+03  0.12499861456E+03 0.  0.
    9000005    1    3    3    0    0 -0.52159614991E+02 -0.50804522387E+01  0.19008109522E+03  0.19717570639E+03  0.10000000000E+01 0.  0.
    9000005    1    3    3    0    0  0.52159614991E+02  0.50804522387E+01  0.45047314570E+02  0.69113652638E+02  0.10000000000E+01 0.  0.
<mgrwt>
<rscale>  0 0.12499861E+03</rscale>
<asrwt>0</asrwt>
<pdfrwt beam="1">  1        4 0.38570598E-01 0.12499861E+03</pdfrwt>
<pdfrwt beam="2">  1       -4 0.23969961E-02 0.12499861E+03</pdfrwt>
<totfact> 0.80033927E+03</totfact>
</mgrwt>
</event>
<event>
 5    1  0.3227866E-002  0.1250002E+03  0.7818608E-02  0.1235069E+00
         -4   -1    0    0    0  501 -0.00000000000E+00  0.00000000000E+00  0.30610437436E+01  0.33140441759E+01  0.12700000000E+01 0. -1.
          4   -1    0    0  501    0  0.00000000000E+00 -0.00000000000E+00 -0.12252235263E+04  0.12252241845E+04  0.12700000000E+01 0. -1.
         25    2    1    2    0    0  0.00000000000E+00  0.00000000000E+00 -0.12221624825E+04  0.12285382286E+04  0.12500018226E+03 0.  0.
    9000005    1    3    3    0    0 -0.17854328281E+02  0.29379603902E+01 -0.23200464020E+02  0.29439262565E+02  0.10000000000E+01 0.  0.
    9000005    1    3    3    0    0  0.17854328281E+02 -0.29379603902E+01 -0.11989620185E+04  0.11990989661E+04  0.10000000000E+01 0.  0.
<mgrwt>
<rscale>  0 0.12500018E+03</rscale>
<asrwt>0</asrwt>
<pdfrwt beam="2">  1        4 0.18851506E+00 0.12500018E+03</pdfrwt>
<pdfrwt beam="1">  1       -4 0.49044299E-03 0.12500018E+03</pdfrwt>
<totfact> 0.23977719E+03</totfact>
</mgrwt>
</event>
<event>
 5    1  0.3227866E-002  0.1249963E+03  0.7818608E-02  0.1235075E+00
          4   -1    0    0  501    0  0.00000000000E+00  0.00000000000E+00  0.12917115777E+02  0.12979398291E+02  0.12700000000E+01 0.  1.
         -4   -1    0    0    0  501 -0.00000000000E+00 -0.00000000000E+00 -0.30160014650E+03  0.30160282039E+03  0.12700000000E+01 0.  1.
         25    2    1    2    0    0  0.00000000000E+00  0.00000000000E+00 -0.28868303072E+03  0.31458221868E+03  0.12499632028E+03 0.  0.
    9000005    1    3    3    0    0  0.20267262630E+02 -0.21772704096E+02 -0.60309585627E+01  0.30367499722E+02  0.10000000000E+01 0.  0.
    9000005    1    3    3    0    0 -0.20267262630E+02  0.21772704096E+02 -0.28265207216E+03  0.28421471896E+03  0.10000000000E+01 0.  0.
<mgrwt>
<rscale>  0 0.12499632E+03</rscale>
<asrwt>0</asrwt>
<pdfrwt beam="1">  1        4 0.19922455E-02 0.12499632E+03</pdfrwt>
<pdfrwt beam="2">  1       -4 0.46405014E-01 0.12499632E+03</pdfrwt>
<totfact> 0.73811190E+03</totfact>
</mgrwt>
</event>
<event>
 5    1  0.3227866E-002  0.1249990E+03  0.7818608E-02  0.1235071E+00
          4   -1    0    0  501    0  0.00000000000E+00  0.00000000000E+00  0.20188494779E+02  0.20228401357E+02  0.12700000000E+01 0. -1.
         -4   -1    0    0    0  501 -0.00000000000E+00 -0.00000000000E+00 -0.19325281183E+03  0.19325698482E+03  0.12700000000E+01 0. -1.
         25    2    1    2    0    0  0.00000000000E+00  0.00000000000E+00 -0.17306431705E+03  0.21348538618E+03  0.12499900909E+03 0.  0.
    9000005    1    3    3    0    0 -0.48900206083E+02 -0.11881037707E+02 -0.14981194944E+03  0.15804116365E+03  0.10000000000E+01 0.  0.
    9000005    1    3    3    0    0  0.48900206083E+02  0.11881037707E+02 -0.23252367611E+02  0.55444222526E+02  0.10000000000E+01 0.  0.
<mgrwt>
<rscale>  0 0.12499901E+03</rscale>
<asrwt>0</asrwt>
<pdfrwt beam="1">  1        4 0.31093131E-02 0.12499901E+03</pdfrwt>
<pdfrwt beam="2">  1       -4 0.29734591E-01 0.12499901E+03</pdfrwt>
<totfact> 0.87911764E+03</totfact>
</mgrwt>
</event>
<event>
 5    1  0.3227866E-002  0.1250001E+03  0.7818608E-02  0.1235069E+00
         -4   -1    0    0    0  501 -0.00000000000E+00  0.00000000000E+00  0.46737105664E+01  0.48431880470E+01  0.12700000000E+01 0.  1.
          4   -1    0    0  501    0  0.00000000000E+00 -0.00000000000E+00 -0.82073946127E+03  0.82074044386E+03  0.12700000000E+01 0.  1.
         25    2    1    2    0    0  0.00000000000E+00  0.00000000000E+00 -0.81606575070E+03  0.82558363190E+03  0.12500009520E+03 0.  0.
    9000005    1    3    3    0    0 -0.61116363204E+01 -0.20464717354E+02 -0.20147350727E+02  0.29378095517E+02  0.10000000000E+01 0.  0.
    9000005    1    3    3    0    0  0.61116363204E+01  0.20464717354E+02 -0.79591839997E+03  0.79620553639E+03  0.10000000000E+01 0.  0.
<mgrwt>
<rscale>  0 0.12500010E+03</rscale>
<asrwt>0</asrwt>
<pdfrwt beam="2">  1        4 0.12628061E+00 0.12500010E+03</pdfrwt>
<pdfrwt beam="1">  1       -4 0.73214536E-03 0.12500010E+03</pdfrwt>
<totfact> 0.37147755E+03</totfact>
</mgrwt>
</event>
<event>
 5    1  0.3227866E-002  0.1250045E+03  0.7818608E-02  0.1235062E+00
          4   -1    0    0  501    0  0.00000000000E+00  0.00000000000E+00  0.87773603443E+01  0.88687628570E+01  0.12700000000E+01 0.  1.
         -4   -1    0    0    0  501 -0.00000000000E+00 -0.00000000000E+00 -0.44267105466E+03  0.44267287643E+03  0.12700000000E+01 0.  1.
         25    2    1    2    0    0  0.00000000000E+00  0.00000000000E+00 -0.43389369431E+03  0.45154163929E+03  0.12500445612E+03 0.  0.
    9000005    1    3    3    0    0  0.76688829809E+01 -0.54909049555E+02 -0.11277291404E+03  0.12566839551E+03  0.10000000000E+01 0.  0.
    9000005    1    3    3    0    0 -0.76688829809E+01  0.54909049555E+02 -0.32112078027E+03  0.32587324378E+03  0.10000000000E+01 0.  0.
<mgrwt>
<rscale>  0 0.12500446E+03</rscale>
<asrwt>0</asrwt>
<pdfrwt beam="1">  1        4 0.13575346E-02 0.12500446E+03</pdfrwt>
<pdfrwt beam="2">  1       -4 0.68110393E-01 0.12500446E+03</pdfrwt>
<totfact> 0.59824610E+03</totfact>
</mgrwt>
</event>
<event>
 5    1  0.3227866E-002  0.1249998E+03  0.7818608E-02  0.1235070E+00
         -4   -1    0    0    0  501 -0.00000000000E+00  0.00000000000E+00  0.21109704517E+02  0.21147872820E+02  0.12700000000E+01 0. -1.
          4   -1    0    0  501    0  0.00000000000E+00 -0.00000000000E+00 -0.18483719760E+03  0.18484156058E+03  0.12700000000E+01 0. -1.
         25    2    1    2    0    0  0.00000000000E+00  0.00000000000E+00 -0.16372749308E+03  0.20598943340E+03  0.12499981872E+03 0.  0.
    9000005    1    3    3    0    0  0.45451376739E+02  0.28493524720E+02 -0.13468793457E+03  0.14498119988E+03  0.10000000000E+01 0.  0.
    9000005    1    3    3    0    0 -0.45451376739E+02 -0.28493524720E+02 -0.29039558507E+02  0.61008233516E+02  0.10000000000E+01 0.  0.
<mgrwt>
<rscale>  0 0.12499982E+03</rscale>
<asrwt>0</asrwt>
<pdfrwt beam="2">  1        4 0.28439762E-01 0.12499982E+03</pdfrwt>
<pdfrwt beam="1">  1       -4 0.32509186E-02 0.12499982E+03</pdfrwt>
<totfact> 0.89135438E+03</totfact>
</mgrwt>
</event>
<event>
 5    1  0.3227866E-002  0.1250014E+03  0.7818608E-02  0.1235067E+00
         -4   -1    0    0    0  501 -0.00000000000E+00  0.00000000000E+00  0.51972213344E+02  0.51987727974E+02  0.12700000000E+01 0. -1.
          4   -1    0    0  501    0  0.00000000000E+00 -0.00000000000E+00 -0.75129914734E+02  0.75140648041E+02  0.12700000000E+01 0. -1.
         25    2    1    2    0    0  0.00000000000E+00  0.00000000000E+00 -0.23157701390E+02  0.12712837601E+03  0.12500137941E+03 0.  0.
    9000005    1    3    3    0    0 -0.59887080778E+02 -0.63788787279E+01  0.53837920066E+01  0.60474273491E+02  0.10000000000E+01 0.  0.
    9000005    1    3    3    0    0  0.59887080778E+02  0.63788787279E+01 -0.28541493396E+02  0.66654102524E+02  0.10000000000E+01 0.  0.
<mgrwt>
<rscale>  0 0.12500138E+03</rscale>
<asrwt>0</asrwt>
<pdfrwt beam="2">  1        4 0.11560467E-01 0.12500138E+03</pdfrwt>
<pdfrwt beam="1">  1       -4 0.79977442E-02 0.12500138E+03</pdfrwt>
<totfact> 0.10406034E+04</totfact>
</mgrwt>
</event>
<event>
 5    1  0.3227866E-002  0.1250001E+03  0.7818608E-02  0.1235069E+00
         -4   -1    0    0    0  501 -0.00000000000E+00  0.00000000000E+00  0.12267262359E+03  0.12267919742E+03  0.12700000000E+01 0. -1.
          4   -1    0    0  501    0  0.00000000000E+00 -0.00000000000E+00 -0.31822844645E+02  0.31848176420E+02  0.12700000000E+01 0. -1.
         25    2    1    2    0    0  0.00000000000E+00  0.00000000000E+00  0.90849778948E+02  0.15452737384E+03  0.12500010772E+03 0.  0.
    9000005    1    3    3    0    0 -0.55650155190E+02  0.19285057099E+02  0.71249820211E+02  0.92446687773E+02  0.10000000000E+01 0.  0.
    9000005    1    3    3    0    0  0.55650155190E+02 -0.19285057099E+02  0.19599958737E+02  0.62080686066E+02  0.10000000000E+01 0.  0.
<mgrwt>
<rscale>  0 0.12500011E+03</rscale>
<asrwt>0</asrwt>
<pdfrwt beam="2">  1        4 0.48982765E-02 0.12500011E+03</pdfrwt>
<pdfrwt beam="1">  1       -4 0.18875166E-01 0.12500011E+03</pdfrwt>
<totfact> 0.98408122E+03</totfact>
</mgrwt>
</event>
<event>
 5    1  0.3227866E-002  0.1250002E+03  0.7818608E-02  0.1235069E+00
         -4   -1    0    0    0  501 -0.00000000000E+00  0.00000000000E+00  0.18261827803E+02  0.18305934959E+02  0.12700000000E+01 0.  1.
          4   -1    0    0  501    0  0.00000000000E+00 -0.00000000000E+00 -0.21359911244E+03  0.21360288794E+03  0.12700000000E+01 0.  1.
         25    2    1    2    0    0  0.00000000000E+00  0.00000000000E+00 -0.19533728464E+03  0.23190882290E+03  0.12500018947E+03 0.  0.
    9000005    1    3    3    0    0  0.58045466289E+02  0.21398146416E+02 -0.11406495005E+03  0.12976505561E+03  0.10000000000E+01 0.  0.
    9000005    1    3    3    0    0 -0.58045466289E+02 -0.21398146416E+02 -0.81272334584E+02  0.10214376729E+03  0.10000000000E+01 0.  0.
<mgrwt>
<rscale>  0 0.12500019E+03</rscale>
<asrwt>0</asrwt>
<pdfrwt beam="2">  1        4 0.32865083E-01 0.12500019E+03</pdfrwt>
<pdfrwt beam="1">  1       -4 0.28131954E-02 0.12500019E+03</pdfrwt>
<totfact> 0.85016996E+03</totfact>
</mgrwt>
</event>
<event>
 5    1  0.3227866E-002  0.1250027E+03  0.7818608E-02  0.1235065E+00
          4   -1    0    0  501    0  0.00000000000E+00  0.00000000000E+00  0.86349826396E+03  0.86349919789E+03  0.12700000000E+01 0.  1.
         -4   -1    0    0    0  501 -0.00000000000E+00 -0.00000000000E+00 -0.44338562808E+01  0.46121558428E+01  0.12700000000E+01 0.  1.
         25    2    1    2    0    0  0.00000000000E+00  0.00000000000E+00  0.85906440768E+03  0.86811135373E+03  0.12500266375E+03 0.  0.
    9000005    1    3    3    0    0 -0.42929322657E+02  0.34146924336E+02  0.63746635184E+03  0.63982285745E+03  0.10000000000E+01 0.  0.
    9000005    1    3    3    0    0  0.42929322657E+02 -0.34146924336E+02  0.22159805584E+03  0.22828849629E+03  0.10000000000E+01 0.  0.
<mgrwt>
<rscale>  0 0.12500266E+03</rscale>
<asrwt>0</asrwt>
<pdfrwt beam="1">  1        4 0.13285954E+00 0.12500266E+03</pdfrwt>
<pdfrwt beam="2">  1       -4 0.69591965E-03 0.12500266E+03</pdfrwt>
<totfact> 0.35395415E+03</totfact>
</mgrwt>
</event>
<event>
 5    1  0.3227866E-002  0.1249934E+03  0.7818608E-02  0.1235080E+00
          4   -1    0    0  501    0  0.00000000000E+00  0.00000000000E+00  0.29718732124E+03  0.29719003484E+03  0.12700000000E+01 0.  1.
         -4   -1    0    0    0  501 -0.00000000000E+00 -0.00000000000E+00 -0.13109215241E+02  0.13170589365E+02  0.12700000000E+01 0.  1.
         25    2    1    2    0    0  0.00000000000E+00  0.00000000000E+00  0.28407810600E+03  0.31036062420E+03  0.12499338681E+03 0.  0.
    9000005    1    3    3    0    0 -0.49700359453E+02 -0.25321843980E+02  0.21198413746E+03  0.21920218075E+03  0.10000000000E+01 0.  0.
    9000005    1    3    3    0    0  0.49700359453E+02  0.25321843980E+02  0.72093968546E+02  0.91158443454E+02  0.10000000000E+01 0.  0.
<mgrwt>
<rscale>  0 0.12499339E+03</rscale>
<asrwt>0</asrwt>
<pdfrwt beam="1">  1        4 0.45726053E-01 0.12499339E+03</pdfrwt>
<pdfrwt beam="2">  1       -4 0.20217323E-02 0.12499339E+03</pdfrwt>
<totfact> 0.74328237E+03</totfact>
</mgrwt>
</event>
<event>
 5    1  0.3227866E-002  0.1250018E+03  0.7818608E-02  0.1235067E+00
          4   -1    0    0  501    0  0.00000000000E+00  0.00000000000E+00  0.36135592181E+03  0.36135815354E+03  0.12700000000E+01 0. -1.
         -4   -1    0    0    0  501 -0.00000000000E+00 -0.00000000000E+00 -0.10770712152E+02  0.10845328039E+02  0.12700000000E+01 0. -1.
         25    2    1    2    0    0  0.00000000000E+00  0.00000000000E+00  0.35058520966E+03  0.37220348158E+03  0.12500176985E+03 0.  0.
    9000005    1    3    3    0    0 -0.50115271112E+02 -0.31767486136E+02  0.23369026787E+03  0.24110755872E+03  0.10000000000E+01 0.  0.
    9000005    1    3    3    0    0  0.50115271112E+02  0.31767486136E+02  0.11689494179E+03  0.13109592286E+03  0.10000000000E+01 0.  0.
<mgrwt>
<rscale>  0 0.12500177E+03</rscale>
<asrwt>0</asrwt>
<pdfrwt beam="1">  1        4 0.55599132E-01 0.12500177E+03</pdfrwt>
<pdfrwt beam="2">  1       -4 0.16629439E-02 0.12500177E+03</pdfrwt>
<totfact> 0.67346402E+03</totfact>
</mgrwt>
</event>
<event>
 5    1  0.3227866E-002  0.1250019E+03  0.7818608E-02  0.1235066E+00
         -4   -1    0    0    0  501 -0.00000000000E+00  0.00000000000E+00  0.10414289383E+03  0.10415063723E+03  0.12700000000E+01 0. -1.
          4   -1    0    0  501    0  0.00000000000E+00 -0.00000000000E+00 -0.37489833067E+02  0.37511338064E+02  0.12700000000E+01 0. -1.
         25    2    1    2    0    0  0.00000000000E+00  0.00000000000E+00  0.66653060762E+02  0.14166197529E+03  0.12500193892E+03 0.  0.
    9000005    1    3    3    0    0 -0.12697915536E+01 -0.62361998874E+02  0.37677478982E+02  0.72878142791E+02  0.10000000000E+01 0.  0.
    9000005    1    3    3    0    0  0.12697915536E+01  0.62361998874E+02  0.28975581780E+02  0.68783832502E+02  0.10000000000E+01 0.  0.
<mgrwt>
<rscale>  0 0.12500194E+03</rscale>
<asrwt>0</asrwt>
<pdfrwt beam="2">  1        4 0.57699166E-02 0.12500194E+03</pdfrwt>
<pdfrwt beam="1">  1       -4 0.16024233E-01 0.12500194E+03</pdfrwt>
<totfact> 0.10098815E+04</totfact>
</mgrwt>
</event>
<event>
 5    1  0.3227866E-002  0.1250015E+03  0.7818608E-02  0.1235067E+00
         -4   -1    0    0    0  501 -0.00000000000E+00  0.00000000000E+00  0.29395706223E+03  0.29395980564E+03  0.12700000000E+01 0.  1.
          4   -1    0    0  501    0  0.00000000000E+00 -0.00000000000E+00 -0.13255679763E+02  0.13316378862E+02  0.12700000000E+01 0.  1.
         25    2    1    2    0    0  0.00000000000E+00  0.00000000000E+00  0.28070138247E+03  0.30727618451E+03  0.12500154978E+03 0.  0.
    9000005    1    3    3    0    0  0.52019277692E+02 -0.33330760960E+02  0.16346306274E+03  0.17475158871E+03  0.10000000000E+01 0.  0.
    9000005    1    3    3    0    0 -0.52019277692E+02  0.33330760960E+02  0.11723831973E+03  0.13252459579E+03  0.10000000000E+01 0.  0.
<mgrwt>
<rscale>  0 0.12500155E+03</rscale>
<asrwt>0</asrwt>
<pdfrwt beam="2">  1        4 0.20442156E-02 0.12500155E+03</pdfrwt>
<pdfrwt beam="1">  1       -4 0.45229042E-01 0.12500155E+03</pdfrwt>
<totfact> 0.74692530E+03</totfact>
</mgrwt>
</event>
<event>
 5    1  0.3227866E-002  0.1250354E+03  0.7818608E-02  0.1235014E+00
          4   -1    0    0  501    0  0.00000000000E+00  0.00000000000E+00  0.33331355391E+03  0.33331597339E+03  0.12700000000E+01 0. -1.
         -4   -1    0    0    0  501 -0.00000000000E+00 -0.00000000000E+00 -0.11689221706E+02  0.11758010210E+02  0.12700000000E+01 0. -1.
         25    2    1    2    0    0  0.00000000000E+00  0.00000000000E+00  0.32162433220E+03  0.34507398360E+03  0.12503536738E+03 0.  0.
    9000005    1    3    3    0    0 -0.30410817675E+00  0.28287811478E+01  0.33314830532E+03  0.33316195435E+03  0.10000000000E+01 0.  0.
    9000005    1    3    3    0    0  0.30410817675E+00 -0.28287811478E+01 -0.11523973120E+02  0.11912029258E+02  0.10000000000E+01 0.  0.
<mgrwt>
<rscale>  0 0.12503537E+03</rscale>
<asrwt>0</asrwt>
<pdfrwt beam="1">  1        4 0.51284493E-01 0.12503537E+03</pdfrwt>
<pdfrwt beam="2">  1       -4 0.18038191E-02 0.12503537E+03</pdfrwt>
<totfact> 0.70214906E+03</totfact>
</mgrwt>
</event>
<event>
 5    1  0.3227866E-002  0.1250002E+03  0.7818608E-02  0.1235069E+00
          4   -1    0    0  501    0  0.00000000000E+00  0.00000000000E+00  0.27503855953E+03  0.27504149165E+03  0.12700000000E+01 0.  1.
         -4   -1    0    0    0  501 -0.00000000000E+00 -0.00000000000E+00 -0.14171184885E+02  0.14227978811E+02  0.12700000000E+01 0.  1.
         25    2    1    2    0    0  0.00000000000E+00  0.00000000000E+00  0.26086737465E+03  0.28926947046E+03  0.12500015754E+03 0.  0.
    9000005    1    3    3    0    0  0.32363482073E+02  0.40098620630E+02  0.48617157934E+02  0.70851410670E+02  0.10000000000E+01 0.  0.
    9000005    1    3    3    0    0 -0.32363482073E+02 -0.40098620630E+02  0.21225021671E+03  0.21841805979E+03  0.10000000000E+01 0.  0.
<mgrwt>
<rscale>  0 0.12500016E+03</rscale>
<asrwt>0</asrwt>
<pdfrwt beam="1">  1        4 0.42318217E-01 0.12500016E+03</pdfrwt>
<pdfrwt beam="2">  1       -4 0.21847767E-02 0.12500016E+03</pdfrwt>
<totfact> 0.76964608E+03</totfact>
</mgrwt>
</event>
<event>
 5    1  0.3227866E-002  0.1249994E+03  0.7818608E-02  0.1235070E+00
         -4   -1    0    0    0  501 -0.00000000000E+00  0.00000000000E+00  0.36499026364E+03  0.36499247315E+03  0.12700000000E+01 0.  1.
          4   -1    0    0  501    0  0.00000000000E+00 -0.00000000000E+00 -0.10662307409E+02  0.10737676624E+02  0.12700000000E+01 0.  1.
         25    2    1    2    0    0  0.00000000000E+00  0.00000000000E+00  0.35432795624E+03  0.37573014977E+03  0.12499937951E+03 0.  0.
    9000005    1    3    3    0    0 -0.10629869469E+02  0.57919340752E+02  0.24004078806E+03  0.24716032063E+03  0.10000000000E+01 0.  0.
    9000005    1    3    3    0    0  0.10629869469E+02 -0.57919340752E+02  0.11428716817E+03  0.12856982915E+03  0.10000000000E+01 0.  0.
<mgrwt>
<rscale>  0 0.12499938E+03</rscale>
<asrwt>0</asrwt>
<pdfrwt beam="2">  1        4 0.16463228E-02 0.12499938E+03</pdfrwt>
<pdfrwt beam="1">  1       -4 0.56158309E-01 0.12499938E+03</pdfrwt>
<totfact> 0.66984608E+03</totfact>
</mgrwt>
</event>
<event>
 5    1  0.3227866E-002  0.1250500E+03  0.7818608E-02  0.1234991E+00
         -4   -1    0    0    0  501 -0.00000000000E+00  0.00000000000E+00  0.95168459899E+02  0.95176933443E+02  0.12700000000E+01 0.  1.
          4   -1    0    0  501    0  0.00000000000E+00 -0.00000000000E+00 -0.41058333459E+02  0.41077970329E+02  0.12700000000E+01 0.  1.
         25    2    1    2    0    0  0.00000000000E+00  0.00000000000E+00  0.54110126441E+02  0.13625490377E+03  0.12504996209E+03 0.  0.
    9000005    1    3    3    0    0  0.14490329971E+02 -0.20522832818E+02  0.89431587499E+02  0.92898682295E+02  0.10000000000E+01 0.  0.
    9000005    1    3    3    0    0 -0.14490329971E+02  0.20522832818E+02 -0.35321461058E+02  0.43356221478E+02  0.10000000000E+01 0.  0.
<mgrwt>
<rscale>  0 0.12504996E+03</rscale>
<asrwt>0</asrwt>
<pdfrwt beam="2">  1        4 0.63188291E-02 0.12504996E+03</pdfrwt>
<pdfrwt beam="1">  1       -4 0.14643464E-01 0.12504996E+03</pdfrwt>
<totfact> 0.10200192E+04</totfact>
</mgrwt>
</event>
<event>
 5    1  0.3227866E-002  0.1249996E+03  0.7818608E-02  0.1235070E+00
          4   -1    0    0  501    0  0.00000000000E+00  0.00000000000E+00  0.24674653256E+01  0.27751189403E+01  0.12700000000E+01 0. -1.
         -4   -1    0    0    0  501 -0.00000000000E+00 -0.00000000000E+00 -0.14898833022E+04  0.14898838435E+04  0.12700000000E+01 0. -1.
         25    2    1    2    0    0  0.00000000000E+00  0.00000000000E+00 -0.14874158369E+04  0.14926589624E+04  0.12499962528E+03 0.  0.
    9000005    1    3    3    0    0  0.58691079914E+02  0.13296818359E+01 -0.99949052013E+03  0.10012136189E+04  0.10000000000E+01 0.  0.
    9000005    1    3    3    0    0 -0.58691079914E+02 -0.13296818359E+01 -0.48792531676E+03  0.49144534350E+03  0.10000000000E+01 0.  0.
<mgrwt>
<rscale>  0 0.12499963E+03</rscale>
<asrwt>0</asrwt>
<pdfrwt beam="1">  1        4 0.40331854E-03 0.12499963E+03</pdfrwt>
<pdfrwt beam="2">  1       -4 0.22923585E+00 0.12499963E+03</pdfrwt>
<totfact> 0.18075471E+03</totfact>
</mgrwt>
</event>
<event>
 5    1  0.3227866E-002  0.1250006E+03  0.7818608E-02  0.1235068E+00
         -4   -1    0    0    0  501 -0.00000000000E+00  0.00000000000E+00  0.13452436755E+02  0.13512252019E+02  0.12700000000E+01 0.  1.
          4   -1    0    0  501    0  0.00000000000E+00 -0.00000000000E+00 -0.28967236353E+03  0.28967514752E+03  0.12700000000E+01 0.  1.
         25    2    1    2    0    0  0.00000000000E+00  0.00000000000E+00 -0.27621992677E+03  0.30318739954E+03  0.12500060517E+03 0.  0.
    9000005    1    3    3    0    0 -0.25132865289E+02  0.49371310038E+02 -0.20824391562E+03  0.21548947902E+03  0.10000000000E+01 0.  0.
    9000005    1    3    3    0    0  0.25132865289E+02 -0.49371310038E+02 -0.67976011148E+02  0.87697920524E+02  0.10000000000E+01 0.  0.
<mgrwt>
<rscale>  0 0.12500061E+03</rscale>
<asrwt>0</asrwt>
<pdfrwt beam="2">  1        4 0.44569790E-01 0.12500061E+03</pdfrwt>
<pdfrwt beam="1">  1       -4 0.20744212E-02 0.12500061E+03</pdfrwt>
<totfact> 0.75199741E+03</totfact>
</mgrwt>
</event>
<event>
 5    1  0.3227866E-002  0.1250132E+03  0.7818608E-02  0.1235049E+00
         -4   -1    0    0    0  501 -0.00000000000E+00  0.00000000000E+00  0.26557990466E+02  0.26588338752E+02  0.12700000000E+01 0. -1.
          4   -1    0    0  501    0  0.00000000000E+00 -0.00000000000E+00 -0.14699776048E+03  0.14700324652E+03  0.12700000000E+01 0. -1.
         25    2    1    2    0    0  0.00000000000E+00  0.00000000000E+00 -0.12043977002E+03  0.17359158527E+03  0.12501320040E+03 0.  0.
    9000005    1    3    3    0    0  0.54303353947E+02 -0.16423932275E+02 -0.23811506705E+02  0.61535255365E+02  0.10000000000E+01 0.  0.
    9000005    1    3    3    0    0 -0.54303353947E+02  0.16423932275E+02 -0.96628263312E+02  0.11205632991E+03  0.10000000000E+01 0.  0.
<mgrwt>
<rscale>  0 0.12501320E+03</rscale>
<asrwt>0</asrwt>
<pdfrwt beam="2">  1        4 0.22617796E-01 0.12501320E+03</pdfrwt>
<pdfrwt beam="1">  1       -4 0.40886013E-02 0.12501320E+03</pdfrwt>
<totfact> 0.94755357E+03</totfact>
</mgrwt>
</event>
<event>
 5    1  0.3227866E-002  0.1250175E+03  0.7818608E-02  0.1235042E+00
          4   -1    0    0  501    0  0.00000000000E+00  0.00000000000E+00  0.28749964998E+01  0.31430088886E+01  0.12700000000E+01 0.  1.
         -4   -1    0    0    0  501 -0.00000000000E+00 -0.00000000000E+00 -0.12982822456E+04  0.12982828667E+04  0.12700000000E+01 0.  1.
         25    2    1    2    0    0  0.00000000000E+00  0.00000000000E+00 -0.12954072491E+04  0.13014258756E+04  0.12501747399E+03 0.  0.
    9000005    1    3    3    0    0 -0.59725939910E+02 -0.84260687174E+01 -0.81817136665E+03  0.82039232794E+03  0.10000000000E+01 0.  0.
    9000005    1    3    3    0    0  0.59725939910E+02  0.84260687174E+01 -0.47723588241E+03  0.48103354768E+03  0.10000000000E+01 0.  0.
<mgrwt>
<rscale>  0 0.12501747E+03</rscale>
<asrwt>0</asrwt>
<pdfrwt beam="1">  1        4 0.46297231E-03 0.12501747E+03</pdfrwt>
<pdfrwt beam="2">  1       -4 0.19975595E+00 0.12501747E+03</pdfrwt>
<totfact> 0.22186492E+03</totfact>
</mgrwt>
</event>
<event>
 5    1  0.3227866E-002  0.1250015E+03  0.7818608E-02  0.1235067E+00
         -4   -1    0    0    0  501 -0.00000000000E+00  0.00000000000E+00  0.45437319396E+01  0.47178808737E+01  0.12700000000E+01 0.  1.
          4   -1    0    0  501    0  0.00000000000E+00 -0.00000000000E+00 -0.84338065798E+03  0.84338161419E+03  0.12700000000E+01 0.  1.
         25    2    1    2    0    0  0.00000000000E+00  0.00000000000E+00 -0.83883692604E+03  0.84809949506E+03  0.12500146015E+03 0.  0.
    9000005    1    3    3    0    0  0.13268307021E+02 -0.36819886501E+02 -0.88870487604E+02  0.97111871468E+02  0.10000000000E+01 0.  0.
    9000005    1    3    3    0    0 -0.13268307021E+02  0.36819886501E+02 -0.74996643844E+03  0.75098762360E+03  0.10000000000E+01 0.  0.
<mgrwt>
<rscale>  0 0.12500146E+03</rscale>
<asrwt>0</asrwt>
<pdfrwt beam="2">  1        4 0.12976422E+00 0.12500146E+03</pdfrwt>
<pdfrwt beam="1">  1       -4 0.71250598E-03 0.12500146E+03</pdfrwt>
<totfact> 0.36204096E+03</totfact>
</mgrwt>
</event>
<event>
 5    1  0.3227866E-002  0.1250009E+03  0.7818608E-02  0.1235068E+00
         -4   -1    0    0    0  501 -0.00000000000E+00  0.00000000000E+00  0.11168351343E+03  0.11169073405E+03  0.12700000000E+01 0. -1.
          4   -1    0    0  501    0  0.00000000000E+00 -0.00000000000E+00 -0.34956714283E+02  0.34979776635E+02  0.12700000000E+01 0. -1.
         25    2    1    2    0    0  0.00000000000E+00  0.00000000000E+00  0.76726799145E+02  0.14667051068E+03  0.12500094798E+03 0.  0.
    9000005    1    3    3    0    0 -0.28806566509E+02  0.10946769212E+02  0.10215399813E+03  0.10670562011E+03  0.10000000000E+01 0.  0.
    9000005    1    3    3    0    0  0.28806566509E+02 -0.10946769212E+02 -0.25427198981E+02  0.39964890569E+02  0.10000000000E+01 0.  0.
<mgrwt>
<rscale>  0 0.12500095E+03</rscale>
<asrwt>0</asrwt>
<pdfrwt beam="2">  1        4 0.53802855E-02 0.12500095E+03</pdfrwt>
<pdfrwt beam="1">  1       -4 0.17184409E-01 0.12500095E+03</pdfrwt>
<totfact> 0.99969438E+03</totfact>
</mgrwt>
</event>
<event>
 5    1  0.3227866E-002  0.1249979E+03  0.7818608E-02  0.1235073E+00
          4   -1    0    0  501    0  0.00000000000E+00  0.00000000000E+00  0.92617855531E+03  0.92617942604E+03  0.12700000000E+01 0.  1.
         -4   -1    0    0    0  501 -0.00000000000E+00 -0.00000000000E+00 -0.41209551637E+01  0.43122118990E+01  0.12700000000E+01 0.  1.
         25    2    1    2    0    0  0.00000000000E+00  0.00000000000E+00  0.92205760015E+03  0.93049163794E+03  0.12499788111E+03 0.  0.
    9000005    1    3    3    0    0  0.21166640079E+02 -0.35846976081E+02  0.80796391103E+03  0.80903628712E+03  0.10000000000E+01 0.  0.
    9000005    1    3    3    0    0 -0.21166640079E+02  0.35846976081E+02  0.11409368911E+03  0.12145535082E+03  0.10000000000E+01 0.  0.
<mgrwt>
<rscale>  0 0.12499788E+03</rscale>
<asrwt>0</asrwt>
<pdfrwt beam="1">  1        4 0.14250407E+00 0.12499788E+03</pdfrwt>
<pdfrwt beam="2">  1       -4 0.64877084E-03 0.12499788E+03</pdfrwt>
<totfact> 0.33020336E+03</totfact>
</mgrwt>
</event>
<event>
 5    1  0.3227866E-002  0.1249999E+03  0.7818608E-02  0.1235069E+00
         -4   -1    0    0    0  501 -0.00000000000E+00  0.00000000000E+00  0.11872497788E+03  0.11873177028E+03  0.12700000000E+01 0.  1.
          4   -1    0    0  501    0  0.00000000000E+00 -0.00000000000E+00 -0.32881606308E+02  0.32906123038E+02  0.12700000000E+01 0.  1.
         25    2    1    2    0    0  0.00000000000E+00  0.00000000000E+00  0.85843371574E+02  0.15163789332E+03  0.12499986498E+03 0.  0.
    9000005    1    3    3    0    0  0.40245245837E+02  0.46829575316E+02  0.54592269230E+02  0.82425753235E+02  0.10000000000E+01 0.  0.
    9000005    1    3    3    0    0 -0.40245245837E+02 -0.46829575316E+02  0.31251102344E+02  0.69212140080E+02  0.10000000000E+01 0.  0.
<mgrwt>
<rscale>  0 0.12499986E+03</rscale>
<asrwt>0</asrwt>
<pdfrwt beam="2">  1        4 0.50611171E-02 0.12499986E+03</pdfrwt>
<pdfrwt beam="1">  1       -4 0.18267789E-01 0.12499986E+03</pdfrwt>
<totfact> 0.98978506E+03</totfact>
</mgrwt>
</event>
<event>
 5    1  0.3227866E-002  0.1250033E+03  0.7818608E-02  0.1235064E+00
          4   -1    0    0  501    0  0.00000000000E+00  0.00000000000E+00  0.59591669164E+01  0.60929935448E+01  0.12700000000E+01 0. -1.
         -4   -1    0    0    0  501 -0.00000000000E+00 -0.00000000000E+00 -0.64812412273E+03  0.64812536701E+03  0.12700000000E+01 0. -1.
         25    2    1    2    0    0  0.00000000000E+00  0.00000000000E+00 -0.64216495581E+03  0.65421836055E+03  0.12500333121E+03 0.  0.
    9000005    1    3    3    0    0 -0.50040636365E+02 -0.28461855816E+02 -0.44834802217E+03  0.45202996749E+03  0.10000000000E+01 0.  0.
    9000005    1    3    3    0    0  0.50040636365E+02  0.28461855816E+02 -0.19381693364E+03  0.20218839306E+03  0.10000000000E+01 0.  0.
<mgrwt>
<rscale>  0 0.12500333E+03</rscale>
<asrwt>0</asrwt>
<pdfrwt beam="1">  1        4 0.92718549E-03 0.12500333E+03</pdfrwt>
<pdfrwt beam="2">  1       -4 0.99721738E-01 0.12500333E+03</pdfrwt>
<totfact> 0.45611248E+03</totfact>
</mgrwt>
</event>
<event>
 5    1  0.3227866E-002  0.1249985E+03  0.7818608E-02  0.1235072E+00
          4   -1    0    0  501    0  0.00000000000E+00  0.00000000000E+00  0.18873214255E+02  0.18915895863E+02  0.12700000000E+01 0.  1.
         -4   -1    0    0    0  501 -0.00000000000E+00 -0.00000000000E+00 -0.20668980794E+03  0.20669370964E+03  0.12700000000E+01 0.  1.
         25    2    1    2    0    0  0.00000000000E+00  0.00000000000E+00 -0.18781659368E+03  0.22560960550E+03  0.12499848492E+03 0.  0.
    9000005    1    3    3    0    0  0.60327650400E+02 -0.72533976485E+01 -0.67559363817E+02  0.90869713434E+02  0.10000000000E+01 0.  0.
    9000005    1    3    3    0    0 -0.60327650400E+02  0.72533976485E+01 -0.12025722986E+03  0.13473989207E+03  0.10000000000E+01 0.  0.
<mgrwt>
<rscale>  0 0.12499848E+03</rscale>
<asrwt>0</asrwt>
<pdfrwt beam="1">  1        4 0.29071549E-02 0.12499848E+03</pdfrwt>
<pdfrwt beam="2">  1       -4 0.31802014E-01 0.12499848E+03</pdfrwt>
<totfact> 0.85991246E+03</totfact>
</mgrwt>
</event>
<event>
 5    1  0.3227866E-002  0.1250002E+03  0.7818608E-02  0.1235069E+00
          4   -1    0    0  501    0  0.00000000000E+00  0.00000000000E+00  0.77980807591E+02  0.77991148553E+02  0.12700000000E+01 0.  1.
         -4   -1    0    0    0  501 -0.00000000000E+00 -0.00000000000E+00 -0.50070932047E+02  0.50087035609E+02  0.12700000000E+01 0.  1.
         25    2    1    2    0    0  0.00000000000E+00  0.00000000000E+00  0.27909875544E+02  0.12807818416E+03  0.12500024042E+03 0.  0.
    9000005    1    3    3    0    0  0.41085287083E+02 -0.46797580570E+02  0.86061808498E+01  0.62873529491E+02  0.10000000000E+01 0.  0.
    9000005    1    3    3    0    0 -0.41085287083E+02  0.46797580570E+02  0.19303694694E+02  0.65204654671E+02  0.10000000000E+01 0.  0.
<mgrwt>
<rscale>  0 0.12500024E+03</rscale>
<asrwt>0</asrwt>
<pdfrwt beam="1">  1        4 0.11999081E-01 0.12500024E+03</pdfrwt>
<pdfrwt beam="2">  1       -4 0.77052545E-02 0.12500024E+03</pdfrwt>
<totfact> 0.10385743E+04</totfact>
</mgrwt>
</event>
<event>
 5    1  0.3227866E-002  0.1250023E+03  0.7818608E-02  0.1235066E+00
         -4   -1    0    0    0  501 -0.00000000000E+00  0.00000000000E+00  0.79911356990E+01  0.80914244580E+01  0.12700000000E+01 0.  1.
          4   -1    0    0  501    0  0.00000000000E+00 -0.00000000000E+00 -0.48569120095E+03  0.48569286137E+03  0.12700000000E+01 0.  1.
         25    2    1    2    0    0  0.00000000000E+00  0.00000000000E+00 -0.47770006526E+03  0.49378428583E+03  0.12500227432E+03 0.  0.
    9000005    1    3    3    0    0  0.61437908522E+02  0.19921168174E+01 -0.19436734833E+03  0.20385840976E+03  0.10000000000E+01 0.  0.
    9000005    1    3    3    0    0 -0.61437908522E+02 -0.19921168174E+01 -0.28333271693E+03  0.28992587607E+03  0.10000000000E+01 0.  0.
<mgrwt>
<rscale>  0 0.12500227E+03</rscale>
<asrwt>0</asrwt>
<pdfrwt beam="2">  1        4 0.74729543E-01 0.12500227E+03</pdfrwt>
<pdfrwt beam="1">  1       -4 0.12372481E-02 0.12500227E+03</pdfrwt>
<totfact> 0.56347066E+03</totfact>
</mgrwt>
</event>
<event>
 5    1  0.3227866E-002  0.1250015E+03  0.7818608E-02  0.1235067E+00
          4   -1    0    0  501    0  0.00000000000E+00  0.00000000000E+00  0.19583555097E+03  0.19583966893E+03  0.12700000000E+01 0. -1.
         -4   -1    0    0    0  501 -0.00000000000E+00 -0.00000000000E+00 -0.19922522961E+02  0.19962961232E+02  0.12700000000E+01 0. -1.
         25    2    1    2    0    0  0.00000000000E+00  0.00000000000E+00  0.17591302801E+03  0.21580263016E+03  0.12500152703E+03 0.  0.
    9000005    1    3    3    0    0  0.24549485573E+02  0.24353489054E+02  0.17782182156E+03  0.18115565101E+03  0.10000000000E+01 0.  0.
    9000005    1    3    3    0    0 -0.24549485573E+02 -0.24353489054E+02 -0.19087935498E+01  0.34646979144E+02  0.10000000000E+01 0.  0.
<mgrwt>
<rscale>  0 0.12500153E+03</rscale>
<asrwt>0</asrwt>
<pdfrwt beam="1">  1        4 0.30131973E-01 0.12500153E+03</pdfrwt>
<pdfrwt beam="2">  1       -4 0.30684310E-02 0.12500153E+03</pdfrwt>
<totfact> 0.87533930E+03</totfact>
</mgrwt>
</event>
<event>
 5    1  0.3227866E-002  0.1249988E+03  0.7818608E-02  0.1235071E+00
          4   -1    0    0  501    0  0.00000000000E+00  0.00000000000E+00  0.71783887090E+03  0.71783999434E+03  0.12700000000E+01 0.  1.
         -4   -1    0    0    0  501 -0.00000000000E+00 -0.00000000000E+00 -0.53663354608E+01  0.55145676420E+01  0.12700000000E+01 0.  1.
         25    2    1    2    0    0  0.00000000000E+00  0.00000000000E+00  0.71247253544E+03  0.72335456199E+03  0.12499883434E+03 0.  0.
    9000005    1    3    3    0    0 -0.19978899990E+02 -0.50079067185E+02  0.17341194570E+03  0.18160333788E+03  0.10000000000E+01 0.  0.
    9000005    1    3    3    0    0  0.19978899990E+02  0.50079067185E+02  0.53906058974E+03  0.54175122411E+03  0.10000000000E+01 0.  0.
<mgrwt>
<rscale>  0 0.12499883E+03</rscale>
<asrwt>0</asrwt>
<pdfrwt beam="1">  1        4 0.11044818E+00 0.12499883E+03</pdfrwt>
<pdfrwt beam="2">  1       -4 0.83707943E-03 0.12499883E+03</pdfrwt>
<totfact> 0.41883221E+03</totfact>
</mgrwt>
</event>
<event>
 5    1  0.3227866E-002  0.1249940E+03  0.7818608E-02  0.1235079E+00
          4   -1    0    0  501    0  0.00000000000E+00  0.00000000000E+00  0.10242544573E+02  0.10320979572E+02  0.12700000000E+01 0. -1.
         -4   -1    0    0    0  501 -0.00000000000E+00 -0.00000000000E+00 -0.37980460116E+03  0.37980672448E+03  0.12700000000E+01 0. -1.
         25    2    1    2    0    0  0.00000000000E+00  0.00000000000E+00 -0.36956205658E+03  0.39012770405E+03  0.12499404707E+03 0.  0.
    9000005    1    3    3    0    0 -0.12184578008E+00 -0.15892417471E+02 -0.37340649921E+03  0.37374589955E+03  0.10000000000E+01 0.  0.
    9000005    1    3    3    0    0  0.12184578008E+00  0.15892417471E+02  0.38444426282E+01  0.16381804497E+02  0.10000000000E+01 0.  0.
<mgrwt>
<rscale>  0 0.12499405E+03</rscale>
<asrwt>0</asrwt>
<pdfrwt beam="1">  1        4 0.15819732E-02 0.12499405E+03</pdfrwt>
<pdfrwt beam="2">  1       -4 0.58437663E-01 0.12499405E+03</pdfrwt>
<totfact> 0.65533038E+03</totfact>
</mgrwt>
</event>
<event>
 5    1  0.3227866E-002  0.1249996E+03  0.7818608E-02  0.1235070E+00
         -4   -1    0    0    0  501 -0.00000000000E+00  0.00000000000E+00  0.31156671681E+03  0.31156930517E+03  0.12700000000E+01 0. -1.
          4   -1    0    0  501    0  0.00000000000E+00 -0.00000000000E+00 -0.12502559514E+02  0.12566896769E+02  0.12700000000E+01 0. -1.
         25    2    1    2    0    0  0.00000000000E+00  0.00000000000E+00  0.29906415730E+03  0.32413620194E+03  0.12499962891E+03 0.  0.
    9000005    1    3    3    0    0  0.49490329946E+01 -0.48227565790E+02  0.25178155157E+03  0.25640854264E+03  0.10000000000E+01 0.  0.
    9000005    1    3    3    0    0 -0.49490329946E+01  0.48227565790E+02  0.47282605733E+02  0.67727659302E+02  0.10000000000E+01 0.  0.
<mgrwt>
<rscale>  0 0.12499963E+03</rscale>
<asrwt>0</asrwt>
<pdfrwt beam="2">  1        4 0.19286189E-02 0.12499963E+03</pdfrwt>
<pdfrwt beam="1">  1       -4 0.47938486E-01 0.12499963E+03</pdfrwt>
<totfact> 0.72667463E+03</totfact>
</mgrwt>
</event>
<event>
 5    1  0.3227866E-002  0.1249974E+03  0.7818608E-02  0.1235073E+00
         -4   -1    0    0    0  501 -0.00000000000E+00  0.00000000000E+00  0.50158021251E+02  0.50174096861E+02  0.12700000000E+01 0. -1.
          4   -1    0    0  501    0  0.00000000000E+00 -0.00000000000E+00 -0.77841947215E+02  0.77852306621E+02  0.12700000000E+01 0. -1.
         25    2    1    2    0    0  0.00000000000E+00  0.00000000000E+00 -0.27683925964E+02  0.12802640348E+03  0.12499744090E+03 0.  0.
    9000005    1    3    3    0    0 -0.47447497209E+02 -0.19148221949E+02 -0.50588506139E+02  0.71959129710E+02  0.10000000000E+01 0.  0.
    9000005    1    3    3    0    0  0.47447497209E+02  0.19148221949E+02  0.22904580175E+02  0.56067273772E+02  0.10000000000E+01 0.  0.
<mgrwt>
<rscale>  0 0.12499744E+03</rscale>
<asrwt>0</asrwt>
<pdfrwt beam="2">  1        4 0.11977718E-01 0.12499744E+03</pdfrwt>
<pdfrwt beam="1">  1       -4 0.77186521E-02 0.12499744E+03</pdfrwt>
<totfact> 0.10387517E+04</totfact>
</mgrwt>
</event>
<event>
 5    1  0.3227866E-002  0.1249970E+03  0.7818608E-02  0.1235074E+00
         -4   -1    0    0    0  501 -0.00000000000E+00  0.00000000000E+00  0.11117037937E+03  0.11117763331E+03  0.12700000000E+01 0.  1.
          4   -1    0    0  501    0  0.00000000000E+00 -0.00000000000E+00 -0.35115923745E+02  0.35138881605E+02  0.12700000000E+01 0.  1.
         25    2    1    2    0    0  0.00000000000E+00  0.00000000000E+00  0.76054455620E+02  0.14631651491E+03  0.12499696923E+03 0.  0.
    9000005    1    3    3    0    0  0.25477790954E+02  0.20637540999E+02  0.10029878724E+03  0.10552664428E+03  0.10000000000E+01 0.  0.
    9000005    1    3    3    0    0 -0.25477790954E+02 -0.20637540999E+02 -0.24244331624E+02  0.40789870633E+02  0.10000000000E+01 0.  0.
<mgrwt>
<rscale>  0 0.12499697E+03</rscale>
<asrwt>0</asrwt>
<pdfrwt beam="2">  1        4 0.54047739E-02 0.12499697E+03</pdfrwt>
<pdfrwt beam="1">  1       -4 0.17105459E-01 0.12499697E+03</pdfrwt>
<totfact> 0.10004991E+04</totfact>
</mgrwt>
</event>
