<event>
 5    1  0.3486294E-002  0.1250048E+03  0.7818608E-02  0.1235062E+00
          4   -1    0    0  501    0  0.00000000000E+00  0.00000000000E+00  0.95696537699E+03  0.95696621970E+03  0.12700000000E+01 0. -1.
         -4   -1    0    0    0  501 -0.00000000000E+00 -0.00000000000E+00 -0.39825886461E+01  0.41801808961E+01  0.12700000000E+01 0. -1.
         25    2    1    2    0    0  0.00000000000E+00  0.00000000000E+00  0.95298278834E+03  0.96114640060E+03  0.12500483395E+03 0.  0.
    9000005    1    3    3    0    0  0.14084853753E+02  0.59298174954E+02  0.37025812488E+03  0.37524223603E+03  0.10000000000E+01 0.  0.
    9000005    1    3    3    0    0 -0.14084853753E+02 -0.59298174954E+02  0.58272466346E+03  0.58590416457E+03  0.10000000000E+01 0.  0.
<mgrwt>
<rscale>  0 0.12500483E+03</rscale>
<asrwt>0</asrwt>
<pdfrwt beam="1">  1        4 0.14724084E+00 0.12500483E+03</pdfrwt>
<pdfrwt beam="2">  1       -4 0.62796959E-03 0.12500483E+03</pdfrwt>
<totfact> 0.31920107E+03</totfact>
</mgrwt>
</event>
<event>
 5    1  0.3486294E-002  0.1249983E+03  0.7818608E-02  0.1235072E+00
         -4   -1    0    0    0  501 -0.00000000000E+00  0.00000000000E+00  0.51457152275E+02  0.51472822152E+02  0.12700000000E+01 0. -1.
          4   -1    0    0  501    0  0.00000000000E+00 -0.00000000000E+00 -0.75878038052E+02  0.75888665548E+02  0.12700000000E+01 0. -1.
         25    2    1    2    0    0  0.00000000000E+00  0.00000000000E+00 -0.24420885777E+02  0.12736148770E+03  0.12499827554E+03 0.  0.
    9000005    1    3    3    0    0 -0.19890444316E+02 -0.37222561741E+01 -0.72452323887E+02  0.75231803133E+02  0.10000000000E+01 0.  0.
    9000005    1    3    3    0    0  0.19890444316E+02  0.37222561741E+01  0.48031438110E+02  0.52129684567E+02  0.10000000000E+01 0.  0.
<mgrwt>
<rscale>  0 0.12499828E+03</rscale>
<asrwt>0</asrwt>
<pdfrwt beam="2">  1        4 0.11675567E-01 0.12499828E+03</pdfrwt>
<pdfrwt beam="1">  1       -4 0.79185078E-02 0.12499828E+03</pdfrwt>
<totfact> 0.10401706E+04</totfact>
</mgrwt>
</event>
<event>
 5    1  0.3486294E-002  0.1250022E+03  0.7818608E-02  0.1235066E+00
         -4   -1    0    0    0  501 -0.00000000000E+00  0.00000000000E+00  0.19322175790E+03  0.19322593155E+03  0.12700000000E+01 0.  1.
          4   -1    0    0  501    0  0.00000000000E+00 -0.00000000000E+00 -0.20192762768E+02  0.20232660928E+02  0.12700000000E+01 0.  1.
         25    2    1    2    0    0  0.00000000000E+00  0.00000000000E+00  0.17302899513E+03  0.21345859248E+03  0.12500215018E+03 0.  0.
    9000005    1    3    3    0    0  0.45489090680E+01  0.56559595723E+02  0.13123065557E+03  0.14297610081E+03  0.10000000000E+01 0.  0.
    9000005    1    3    3    0    0 -0.45489090680E+01 -0.56559595723E+02  0.41798339558E+02  0.70482491669E+02  0.10000000000E+01 0.  0.
<mgrwt>
<rscale>  0 0.12500215E+03</rscale>
<asrwt>0</asrwt>
<pdfrwt beam="2">  1        4 0.31099689E-02 0.12500215E+03</pdfrwt>
<pdfrwt beam="1">  1       -4 0.29729815E-01 0.12500215E+03</pdfrwt>
<totfact> 0.87909918E+03</totfact>
</mgrwt>
</event>
<event>
 5    1  0.3486294E-002  0.1249977E+03  0.7818608E-02  0.1235073E+00
         -4   -1    0    0    0  501 -0.00000000000E+00  0.00000000000E+00  0.24882327608E+03  0.24882651712E+03  0.12700000000E+01 0. -1.
          4   -1    0    0  501    0  0.00000000000E+00 -0.00000000000E+00 -0.15669291252E+02  0.15720673915E+02  0.12700000000E+01 0. -1.
         25    2    1    2    0    0  0.00000000000E+00  0.00000000000E+00  0.23315398483E+03  0.26454719103E+03  0.12499774254E+03 0.  0.
    9000005    1    3    3    0    0 -0.34754750088E+02 -0.36195941482E+02  0.19539948897E+03  0.20174240784E+03  0.10000000000E+01 0.  0.
    9000005    1    3    3    0    0  0.34754750088E+02  0.36195941482E+02  0.37754495864E+02  0.62804783189E+02  0.10000000000E+01 0.  0.
<mgrwt>
<rscale>  0 0.12499774E+03</rscale>
<asrwt>0</asrwt>
<pdfrwt beam="2">  1        4 0.24148620E-02 0.12499774E+03</pdfrwt>
<pdfrwt beam="1">  1       -4 0.38284706E-01 0.12499774E+03</pdfrwt>
<totfact> 0.80276164E+03</totfact>
</mgrwt>
</event>
<event>
 5    1  0.3486294E-002  0.1249929E+03  0.7818608E-02  0.1235080E+00
          4   -1    0    0  501    0  0.00000000000E+00  0.00000000000E+00  0.35804616818E+02  0.35827133369E+02  0.12700000000E+01 0. -1.
         -4   -1    0    0    0  501 -0.00000000000E+00 -0.00000000000E+00 -0.10902617031E+03  0.10903356691E+03  0.12700000000E+01 0. -1.
         25    2    1    2    0    0  0.00000000000E+00  0.00000000000E+00 -0.73221553497E+02  0.14486070028E+03  0.12499290616E+03 0.  0.
    9000005    1    3    3    0    0 -0.25809710634E+02  0.22323350887E+02  0.24058235418E+02  0.41764480713E+02  0.10000000000E+01 0.  0.
    9000005    1    3    3    0    0  0.25809710634E+02 -0.22323350887E+02 -0.97279788914E+02  0.10309621957E+03  0.10000000000E+01 0.  0.
<mgrwt>
<rscale>  0 0.12499291E+03</rscale>
<asrwt>0</asrwt>
<pdfrwt beam="1">  1        4 0.55107036E-02 0.12499291E+03</pdfrwt>
<pdfrwt beam="2">  1       -4 0.16775558E-01 0.12499291E+03</pdfrwt>
<totfact> 0.10035422E+04</totfact>
</mgrwt>
</event>
<event>
 5    1  0.3486294E-002  0.1250022E+03  0.7818608E-02  0.1235066E+00
         -4   -1    0    0    0  501 -0.00000000000E+00  0.00000000000E+00  0.12206838567E+02  0.12272726176E+02  0.12700000000E+01 0.  1.
          4   -1    0    0  501    0  0.00000000000E+00 -0.00000000000E+00 -0.31908804275E+03  0.31909057010E+03  0.12700000000E+01 0.  1.
         25    2    1    2    0    0  0.00000000000E+00  0.00000000000E+00 -0.30688120418E+03  0.33136329628E+03  0.12500224253E+03 0.  0.
    9000005    1    3    3    0    0  0.34009285077E+02  0.32503634480E+02 -0.26248961468E+03  0.26667379987E+03  0.10000000000E+01 0.  0.
    9000005    1    3    3    0    0 -0.34009285077E+02 -0.32503634480E+02 -0.44391589508E+02  0.64689496403E+02  0.10000000000E+01 0.  0.
<mgrwt>
<rscale>  0 0.12500224E+03</rscale>
<asrwt>0</asrwt>
<pdfrwt beam="2">  1        4 0.49095725E-01 0.12500224E+03</pdfrwt>
<pdfrwt beam="1">  1       -4 0.18832381E-02 0.12500224E+03</pdfrwt>
<totfact> 0.71821122E+03</totfact>
</mgrwt>
</event>
<event>
 5    1  0.3486294E-002  0.1249985E+03  0.7818608E-02  0.1235072E+00
          4   -1    0    0  501    0  0.00000000000E+00  0.00000000000E+00  0.22770899602E+02  0.22806287920E+02  0.12700000000E+01 0. -1.
         -4   -1    0    0    0  501 -0.00000000000E+00 -0.00000000000E+00 -0.17137066928E+03  0.17137537509E+03  0.12700000000E+01 0. -1.
         25    2    1    2    0    0  0.00000000000E+00  0.00000000000E+00 -0.14859976968E+03  0.19418166301E+03  0.12499850680E+03 0.  0.
    9000005    1    3    3    0    0 -0.53858158411E+02 -0.30642587583E+02 -0.86871232851E+02  0.10671120137E+03  0.10000000000E+01 0.  0.
    9000005    1    3    3    0    0  0.53858158411E+02  0.30642587583E+02 -0.61728536824E+02  0.87470461641E+02  0.10000000000E+01 0.  0.
<mgrwt>
<rscale>  0 0.12499851E+03</rscale>
<asrwt>0</asrwt>
<pdfrwt beam="1">  1        4 0.35062996E-02 0.12499851E+03</pdfrwt>
<pdfrwt beam="2">  1       -4 0.26367802E-01 0.12499851E+03</pdfrwt>
<totfact> 0.91127814E+03</totfact>
</mgrwt>
</event>
<event>
 5    1  0.3486294E-002  0.1250013E+03  0.7818608E-02  0.1235067E+00
         -4   -1    0    0    0  501 -0.00000000000E+00  0.00000000000E+00  0.13191738763E+02  0.13252730722E+02  0.12700000000E+01 0. -1.
          4   -1    0    0  501    0  0.00000000000E+00 -0.00000000000E+00 -0.29537420659E+03  0.29537693684E+03  0.12700000000E+01 0. -1.
         25    2    1    2    0    0  0.00000000000E+00  0.00000000000E+00 -0.28218246782E+03  0.30862966756E+03  0.12500130620E+03 0.  0.
    9000005    1    3    3    0    0  0.56036654245E+02  0.14395112131E+02 -0.19941458417E+03  0.20764031943E+03  0.10000000000E+01 0.  0.
    9000005    1    3    3    0    0 -0.56036654245E+02 -0.14395112131E+02 -0.82767883655E+02  0.10098934814E+03  0.10000000000E+01 0.  0.
<mgrwt>
<rscale>  0 0.12500131E+03</rscale>
<asrwt>0</asrwt>
<pdfrwt beam="2">  1        4 0.45447082E-01 0.12500131E+03</pdfrwt>
<pdfrwt beam="1">  1       -4 0.20344002E-02 0.12500131E+03</pdfrwt>
<totfact> 0.74526787E+03</totfact>
</mgrwt>
</event>
<event>
 5    1  0.3486294E-002  0.1250009E+03  0.7818608E-02  0.1235068E+00
         -4   -1    0    0    0  501 -0.00000000000E+00  0.00000000000E+00  0.12275437168E+03  0.12276094112E+03  0.12700000000E+01 0.  1.
          4   -1    0    0  501    0  0.00000000000E+00 -0.00000000000E+00 -0.31802015407E+02  0.31827363760E+02  0.12700000000E+01 0.  1.
         25    2    1    2    0    0  0.00000000000E+00  0.00000000000E+00  0.90952356269E+02  0.15458830488E+03  0.12500085158E+03 0.  0.
    9000005    1    3    3    0    0 -0.27733085271E+02  0.79248423782E+01  0.11403628986E+03  0.11763163924E+03  0.10000000000E+01 0.  0.
    9000005    1    3    3    0    0  0.27733085271E+02 -0.79248423782E+01 -0.23083933591E+02  0.36956665643E+02  0.10000000000E+01 0.  0.
<mgrwt>
<rscale>  0 0.12500085E+03</rscale>
<asrwt>0</asrwt>
<pdfrwt beam="2">  1        4 0.48950730E-02 0.12500085E+03</pdfrwt>
<pdfrwt beam="1">  1       -4 0.18887743E-01 0.12500085E+03</pdfrwt>
<totfact> 0.98394496E+03</totfact>
</mgrwt>
</event>
<event>
 5    1  0.3486294E-002  0.1250127E+03  0.7818608E-02  0.1235049E+00
         -4   -1    0    0    0  501 -0.00000000000E+00  0.00000000000E+00  0.10837621122E+03  0.10838365217E+03  0.12700000000E+01 0. -1.
          4   -1    0    0  501    0  0.00000000000E+00 -0.00000000000E+00 -0.36030895670E+02  0.36053270902E+02  0.12700000000E+01 0. -1.
         25    2    1    2    0    0  0.00000000000E+00  0.00000000000E+00  0.72345315547E+02  0.14443692307E+03  0.12501271961E+03 0.  0.
    9000005    1    3    3    0    0 -0.37492932681E+02  0.48598769834E+02  0.22576232408E+02  0.65408307578E+02  0.10000000000E+01 0.  0.
    9000005    1    3    3    0    0  0.37492932681E+02 -0.48598769834E+02  0.49769083139E+02  0.79028615494E+02  0.10000000000E+01 0.  0.
<mgrwt>
<rscale>  0 0.12501272E+03</rscale>
<asrwt>0</asrwt>
<pdfrwt beam="2">  1        4 0.55455084E-02 0.12501272E+03</pdfrwt>
<pdfrwt beam="1">  1       -4 0.16675556E-01 0.12501272E+03</pdfrwt>
<totfact> 0.10039565E+04</totfact>
</mgrwt>
</event>
<event>
 5    1  0.3486294E-002  0.1250023E+03  0.7818608E-02  0.1235066E+00
          4   -1    0    0  501    0  0.00000000000E+00  0.00000000000E+00  0.12676375166E+03  0.12677011334E+03  0.12700000000E+01 0. -1.
         -4   -1    0    0    0  501 -0.00000000000E+00 -0.00000000000E+00 -0.30796083803E+02  0.30822259450E+02  0.12700000000E+01 0. -1.
         25    2    1    2    0    0  0.00000000000E+00  0.00000000000E+00  0.95967667860E+02  0.15759237279E+03  0.12500225073E+03 0.  0.
    9000005    1    3    3    0    0  0.28779671920E+02  0.44519445060E+02  0.89704594390E+02  0.10420251801E+03  0.10000000000E+01 0.  0.
    9000005    1    3    3    0    0 -0.28779671920E+02 -0.44519445060E+02  0.62630734698E+01  0.53389854781E+02  0.10000000000E+01 0.  0.
<mgrwt>
<rscale>  0 0.12500225E+03</rscale>
<asrwt>0</asrwt>
<pdfrwt beam="1">  1        4 0.19504619E-01 0.12500225E+03</pdfrwt>
<pdfrwt beam="2">  1       -4 0.47403619E-02 0.12500225E+03</pdfrwt>
<totfact> 0.97804025E+03</totfact>
</mgrwt>
</event>
<event>
 5    1  0.3486294E-002  0.1250018E+03  0.7818608E-02  0.1235067E+00
          4   -1    0    0  501    0  0.00000000000E+00  0.00000000000E+00  0.23366533700E+02  0.23401021284E+02  0.12700000000E+01 0.  1.
         -4   -1    0    0    0  501 -0.00000000000E+00 -0.00000000000E+00 -0.16701741503E+03  0.16702224350E+03  0.12700000000E+01 0.  1.
         25    2    1    2    0    0  0.00000000000E+00  0.00000000000E+00 -0.14365088133E+03  0.19042326478E+03  0.12500177624E+03 0.  0.
    9000005    1    3    3    0    0  0.25950087951E+02  0.50541833769E+02 -0.32174718887E+02  0.65300050236E+02  0.10000000000E+01 0.  0.
    9000005    1    3    3    0    0 -0.25950087951E+02 -0.50541833769E+02 -0.11147616244E+03  0.12512321455E+03  0.10000000000E+01 0.  0.
<mgrwt>
<rscale>  0 0.12500178E+03</rscale>
<asrwt>0</asrwt>
<pdfrwt beam="1">  1        4 0.35978758E-02 0.12500178E+03</pdfrwt>
<pdfrwt beam="2">  1       -4 0.25698010E-01 0.12500178E+03</pdfrwt>
<totfact> 0.91770069E+03</totfact>
</mgrwt>
</event>
<event>
 5    1  0.3486294E-002  0.1249986E+03  0.7818608E-02  0.1235071E+00
         -4   -1    0    0    0  501 -0.00000000000E+00  0.00000000000E+00  0.17077121643E+02  0.17124280529E+02  0.12700000000E+01 0. -1.
          4   -1    0    0  501    0  0.00000000000E+00 -0.00000000000E+00 -0.22837235930E+03  0.22837589056E+03  0.12700000000E+01 0. -1.
         25    2    1    2    0    0  0.00000000000E+00  0.00000000000E+00 -0.21129523765E+03  0.24550017109E+03  0.12499862620E+03 0.  0.
    9000005    1    3    3    0    0  0.56312589041E+02 -0.25791083232E+02 -0.89347828120E+02  0.10872130448E+03  0.10000000000E+01 0.  0.
    9000005    1    3    3    0    0 -0.56312589041E+02  0.25791083232E+02 -0.12194740953E+03  0.13677886661E+03  0.10000000000E+01 0.  0.
<mgrwt>
<rscale>  0 0.12499863E+03</rscale>
<asrwt>0</asrwt>
<pdfrwt beam="2">  1        4 0.35138106E-01 0.12499863E+03</pdfrwt>
<pdfrwt beam="1">  1       -4 0.26311489E-02 0.12499863E+03</pdfrwt>
<totfact> 0.82987515E+03</totfact>
</mgrwt>
</event>
<event>
 5    1  0.3486294E-002  0.1249980E+03  0.7818608E-02  0.1235072E+00
         -4   -1    0    0    0  501 -0.00000000000E+00  0.00000000000E+00  0.22508790074E+01  0.25844450673E+01  0.12700000000E+01 0. -1.
          4   -1    0    0  501    0  0.00000000000E+00 -0.00000000000E+00 -0.16153270930E+04  0.16153275922E+04  0.12700000000E+01 0. -1.
         25    2    1    2    0    0  0.00000000000E+00  0.00000000000E+00 -0.16130762140E+04  0.16179120373E+04  0.12499795335E+03 0.  0.
    9000005    1    3    3    0    0  0.25377497617E+02 -0.24967819785E+02 -0.14177677832E+03  0.14618161403E+03  0.10000000000E+01 0.  0.
    9000005    1    3    3    0    0 -0.25377497617E+02  0.24967819785E+02 -0.14712994356E+04  0.14717304232E+04  0.10000000000E+01 0.  0.
<mgrwt>
<rscale>  0 0.12499795E+03</rscale>
<asrwt>0</asrwt>
<pdfrwt beam="2">  1        4 0.24853670E+00 0.12499795E+03</pdfrwt>
<pdfrwt beam="1">  1       -4 0.37198770E-03 0.12499795E+03</pdfrwt>
<totfact> 0.15725322E+03</totfact>
</mgrwt>
</event>
<event>
 5    1  0.3486294E-002  0.1250123E+03  0.7818608E-02  0.1235050E+00
          4   -1    0    0  501    0  0.00000000000E+00  0.00000000000E+00  0.99501040316E+02  0.99509144926E+02  0.12700000000E+01 0. -1.
         -4   -1    0    0    0  501 -0.00000000000E+00 -0.00000000000E+00 -0.39246103660E+02  0.39266646820E+02  0.12700000000E+01 0. -1.
         25    2    1    2    0    0  0.00000000000E+00  0.00000000000E+00  0.60254936656E+02  0.13877579175E+03  0.12501225133E+03 0.  0.
    9000005    1    3    3    0    0  0.53102624623E+02 -0.17260174070E+02 -0.10386735146E+01  0.55855896676E+02  0.10000000000E+01 0.  0.
    9000005    1    3    3    0    0 -0.53102624623E+02  0.17260174070E+02  0.61293610170E+02  0.82919895070E+02  0.10000000000E+01 0.  0.
<mgrwt>
<rscale>  0 0.12501225E+03</rscale>
<asrwt>0</asrwt>
<pdfrwt beam="1">  1        4 0.15310056E-01 0.12501225E+03</pdfrwt>
<pdfrwt beam="2">  1       -4 0.60400658E-02 0.12501225E+03</pdfrwt>
<totfact> 0.10156217E+04</totfact>
</mgrwt>
</event>
<event>
 5    1  0.3486294E-002  0.1249854E+03  0.7818608E-02  0.1235092E+00
         -4   -1    0    0    0  501 -0.00000000000E+00  0.00000000000E+00  0.32284598403E+02  0.32309568150E+02  0.12700000000E+01 0. -1.
          4   -1    0    0  501    0  0.00000000000E+00 -0.00000000000E+00 -0.12089080077E+03  0.12089747148E+03  0.12700000000E+01 0. -1.
         25    2    1    2    0    0  0.00000000000E+00  0.00000000000E+00 -0.88606202363E+02  0.15320703963E+03  0.12498535072E+03 0.  0.
    9000005    1    3    3    0    0  0.43677355955E+02  0.23520631128E+02 -0.90873869590E+02  0.10353739270E+03  0.10000000000E+01 0.  0.
    9000005    1    3    3    0    0 -0.43677355955E+02 -0.23520631128E+02  0.22676672265E+01  0.49669646934E+02  0.10000000000E+01 0.  0.
<mgrwt>
<rscale>  0 0.12498535E+03</rscale>
<asrwt>0</asrwt>
<pdfrwt beam="2">  1        4 0.18601018E-01 0.12498535E+03</pdfrwt>
<pdfrwt beam="1">  1       -4 0.49692952E-02 0.12498535E+03</pdfrwt>
<totfact> 0.98700747E+03</totfact>
</mgrwt>
</event>
<event>
 5    1  0.3486294E-002  0.1250093E+03  0.7818608E-02  0.1235055E+00
          4   -1    0    0  501    0  0.00000000000E+00  0.00000000000E+00  0.60372056808E+01  0.61693397080E+01  0.12700000000E+01 0.  1.
         -4   -1    0    0    0  501 -0.00000000000E+00 -0.00000000000E+00 -0.63998782576E+03  0.63998908586E+03  0.12700000000E+01 0.  1.
         25    2    1    2    0    0  0.00000000000E+00  0.00000000000E+00 -0.63395062008E+03  0.64615842557E+03  0.12500928859E+03 0.  0.
    9000005    1    3    3    0    0  0.70376931061E+01 -0.56747967230E+02 -0.18662414318E+03  0.19519075728E+03  0.10000000000E+01 0.  0.
    9000005    1    3    3    0    0 -0.70376931061E+01  0.56747967230E+02 -0.44732647690E+03  0.45096766830E+03  0.10000000000E+01 0.  0.
<mgrwt>
<rscale>  0 0.12500929E+03</rscale>
<asrwt>0</asrwt>
<pdfrwt beam="1">  1        4 0.93906247E-03 0.12500929E+03</pdfrwt>
<pdfrwt beam="2">  1       -4 0.98469874E-01 0.12500929E+03</pdfrwt>
<totfact> 0.46068342E+03</totfact>
</mgrwt>
</event>
<event>
 5    1  0.3486294E-002  0.1250312E+03  0.7818608E-02  0.1235020E+00
          4   -1    0    0  501    0  0.00000000000E+00  0.00000000000E+00  0.40948803201E+02  0.40968492572E+02  0.12700000000E+01 0. -1.
         -4   -1    0    0    0  501 -0.00000000000E+00 -0.00000000000E+00 -0.95394308016E+02  0.95402761501E+02  0.12700000000E+01 0. -1.
         25    2    1    2    0    0  0.00000000000E+00  0.00000000000E+00 -0.54445504816E+02  0.13637125407E+03  0.12503121987E+03 0.  0.
    9000005    1    3    3    0    0  0.10554821650E+02  0.59597893624E+02 -0.44256093772E+02  0.74986098848E+02  0.10000000000E+01 0.  0.
    9000005    1    3    3    0    0 -0.10554821650E+02 -0.59597893624E+02 -0.10189411044E+02  0.61385155224E+02  0.10000000000E+01 0.  0.
<mgrwt>
<rscale>  0 0.12503122E+03</rscale>
<asrwt>0</asrwt>
<pdfrwt beam="1">  1        4 0.63019807E-02 0.12503122E+03</pdfrwt>
<pdfrwt beam="2">  1       -4 0.14678212E-01 0.12503122E+03</pdfrwt>
<totfact> 0.10202065E+04</totfact>
</mgrwt>
</event>
<event>
 5    1  0.3486294E-002  0.1250015E+03  0.7818608E-02  0.1235067E+00
          4   -1    0    0  501    0  0.00000000000E+00  0.00000000000E+00  0.21689795502E+02  0.21726944768E+02  0.12700000000E+01 0.  1.
         -4   -1    0    0    0  501 -0.00000000000E+00 -0.00000000000E+00 -0.17990705664E+03  0.17991153918E+03  0.12700000000E+01 0.  1.
         25    2    1    2    0    0  0.00000000000E+00  0.00000000000E+00 -0.15821726114E+03  0.20163848395E+03  0.12500150593E+03 0.  0.
    9000005    1    3    3    0    0  0.50227649365E+02 -0.11112038563E+02 -0.21871261899E+02  0.55907479453E+02  0.10000000000E+01 0.  0.
    9000005    1    3    3    0    0 -0.50227649365E+02  0.11112038563E+02 -0.13634599924E+03  0.14573100450E+03  0.10000000000E+01 0.  0.
<mgrwt>
<rscale>  0 0.12500151E+03</rscale>
<asrwt>0</asrwt>
<pdfrwt beam="1">  1        4 0.33400942E-02 0.12500151E+03</pdfrwt>
<pdfrwt beam="2">  1       -4 0.27681210E-01 0.12500151E+03</pdfrwt>
<totfact> 0.89856870E+03</totfact>
</mgrwt>
</event>
<event>
 5    1  0.3486294E-002  0.1249990E+03  0.7818608E-02  0.1235071E+00
          4   -1    0    0  501    0  0.00000000000E+00  0.00000000000E+00  0.43253742182E+02  0.43272382795E+02  0.12700000000E+01 0.  1.
         -4   -1    0    0    0  501 -0.00000000000E+00 -0.00000000000E+00 -0.90266123020E+02  0.90275056715E+02  0.12700000000E+01 0.  1.
         25    2    1    2    0    0  0.00000000000E+00  0.00000000000E+00 -0.47012380837E+02  0.13354743951E+03  0.12499901859E+03 0.  0.
    9000005    1    3    3    0    0  0.51148037971E+02  0.34828947530E+02 -0.14191508967E+02  0.63494695063E+02  0.10000000000E+01 0.  0.
    9000005    1    3    3    0    0 -0.51148037971E+02 -0.34828947530E+02 -0.32820871870E+02  0.70052744448E+02  0.10000000000E+01 0.  0.
<mgrwt>
<rscale>  0 0.12499902E+03</rscale>
<asrwt>0</asrwt>
<pdfrwt beam="1">  1        4 0.66565430E-02 0.12499902E+03</pdfrwt>
<pdfrwt beam="2">  1       -4 0.13889217E-01 0.12499902E+03</pdfrwt>
<totfact> 0.10269006E+04</totfact>
</mgrwt>
</event>
<event>
 5    1  0.3486294E-002  0.1249507E+03  0.7818608E-02  0.1235146E+00
          4   -1    0    0  501    0  0.00000000000E+00  0.00000000000E+00  0.23592163634E+02  0.23626321866E+02  0.12700000000E+01 0.  1.
         -4   -1    0    0    0  501 -0.00000000000E+00 -0.00000000000E+00 -0.16528707946E+03  0.16529195848E+03  0.12700000000E+01 0.  1.
         25    2    1    2    0    0  0.00000000000E+00  0.00000000000E+00 -0.14169491583E+03  0.18891828034E+03  0.12495066017E+03 0.  0.
    9000005    1    3    3    0    0  0.38556132711E+02 -0.34318616974E+02 -0.17653184267E+02  0.54561687615E+02  0.10000000000E+01 0.  0.
    9000005    1    3    3    0    0 -0.38556132711E+02  0.34318616974E+02 -0.12404173156E+03  0.13435659273E+03  0.10000000000E+01 0.  0.
<mgrwt>
<rscale>  0 0.12495066E+03</rscale>
<asrwt>0</asrwt>
<pdfrwt beam="1">  1        4 0.36325666E-02 0.12495066E+03</pdfrwt>
<pdfrwt beam="2">  1       -4 0.25431784E-01 0.12495066E+03</pdfrwt>
<totfact> 0.92137675E+03</totfact>
</mgrwt>
</event>
<event>
 5    1  0.3486294E-002  0.1250016E+03  0.7818608E-02  0.1235067E+00
         -4   -1    0    0    0  501 -0.00000000000E+00  0.00000000000E+00  0.73653479493E+03  0.73653588985E+03  0.12700000000E+01 0. -1.
          4   -1    0    0  501    0  0.00000000000E+00 -0.00000000000E+00 -0.52265435773E+01  0.53786297294E+01  0.12700000000E+01 0. -1.
         25    2    1    2    0    0  0.00000000000E+00  0.00000000000E+00  0.73130825135E+03  0.74191451958E+03  0.12500158348E+03 0.  0.
    9000005    1    3    3    0    0 -0.50678736458E+02  0.84481645750E+01  0.57680553923E+03  0.57909009308E+03  0.10000000000E+01 0.  0.
    9000005    1    3    3    0    0  0.50678736458E+02 -0.84481645750E+01  0.15450271212E+03  0.16282442650E+03  0.10000000000E+01 0.  0.
<mgrwt>
<rscale>  0 0.12500158E+03</rscale>
<asrwt>0</asrwt>
<pdfrwt beam="2">  1        4 0.81586704E-03 0.12500158E+03</pdfrwt>
<pdfrwt beam="1">  1       -4 0.11332479E+00 0.12500158E+03</pdfrwt>
<totfact> 0.40962475E+03</totfact>
</mgrwt>
</event>
<event>
 5    1  0.3486294E-002  0.1249981E+03  0.7818608E-02  0.1235072E+00
         -4   -1    0    0    0  501 -0.00000000000E+00  0.00000000000E+00  0.92595067226E+02  0.92603776243E+02  0.12700000000E+01 0.  1.
          4   -1    0    0  501    0  0.00000000000E+00 -0.00000000000E+00 -0.42164818944E+02  0.42183940743E+02  0.12700000000E+01 0.  1.
         25    2    1    2    0    0  0.00000000000E+00  0.00000000000E+00  0.50430248282E+02  0.13478771699E+03  0.12499807482E+03 0.  0.
    9000005    1    3    3    0    0  0.40327028151E+02  0.28528154140E+02 -0.16057922823E+02  0.51951724356E+02  0.10000000000E+01 0.  0.
    9000005    1    3    3    0    0 -0.40327028151E+02 -0.28528154140E+02  0.66488171105E+02  0.82835992630E+02  0.10000000000E+01 0.  0.
<mgrwt>
<rscale>  0 0.12499807E+03</rscale>
<asrwt>0</asrwt>
<pdfrwt beam="2">  1        4 0.64890361E-02 0.12499807E+03</pdfrwt>
<pdfrwt beam="1">  1       -4 0.14247536E-01 0.12499807E+03</pdfrwt>
<totfact> 0.10242992E+04</totfact>
</mgrwt>
</event>
<event>
 5    1  0.3486294E-002  0.1250016E+03  0.7818608E-02  0.1235067E+00
         -4   -1    0    0    0  501 -0.00000000000E+00  0.00000000000E+00  0.16377639255E+02  0.16426806371E+02  0.12700000000E+01 0. -1.
          4   -1    0    0  501    0  0.00000000000E+00 -0.00000000000E+00 -0.23810901573E+03  0.23811240260E+03  0.12700000000E+01 0. -1.
         25    2    1    2    0    0  0.00000000000E+00  0.00000000000E+00 -0.22173137647E+03  0.25453920897E+03  0.12500162235E+03 0.  0.
    9000005    1    3    3    0    0  0.37807401690E+02 -0.16555324542E+02 -0.15314702009E+02  0.44034287673E+02  0.10000000000E+01 0.  0.
    9000005    1    3    3    0    0 -0.37807401690E+02  0.16555324542E+02 -0.20641667446E+03  0.21050492130E+03  0.10000000000E+01 0.  0.
<mgrwt>
<rscale>  0 0.12500162E+03</rscale>
<asrwt>0</asrwt>
<pdfrwt beam="2">  1        4 0.36636196E-01 0.12500162E+03</pdfrwt>
<pdfrwt beam="1">  1       -4 0.25236796E-02 0.12500162E+03</pdfrwt>
<totfact> 0.81675616E+03</totfact>
</mgrwt>
</event>
<event>
 5    1  0.3486294E-002  0.1250154E+03  0.7818608E-02  0.1235045E+00
          4   -1    0    0  501    0  0.00000000000E+00  0.00000000000E+00  0.64484341645E+02  0.64496846569E+02  0.12700000000E+01 0. -1.
         -4   -1    0    0    0  501 -0.00000000000E+00 -0.00000000000E+00 -0.60566615468E+02  0.60579929095E+02  0.12700000000E+01 0. -1.
         25    2    1    2    0    0  0.00000000000E+00  0.00000000000E+00  0.39177261774E+01  0.12507677566E+03  0.12501540398E+03 0.  0.
    9000005    1    3    3    0    0 -0.21361704071E+00  0.46307137985E+02 -0.40035736194E+02  0.61223009018E+02  0.10000000000E+01 0.  0.
    9000005    1    3    3    0    0  0.21361704071E+00 -0.46307137985E+02  0.43953462371E+02  0.63853766647E+02  0.10000000000E+01 0.  0.
<mgrwt>
<rscale>  0 0.12501540E+03</rscale>
<asrwt>0</asrwt>
<pdfrwt beam="1">  1        4 0.99226539E-02 0.12501540E+03</pdfrwt>
<pdfrwt beam="2">  1       -4 0.93199269E-02 0.12501540E+03</pdfrwt>
<totfact> 0.10447558E+04</totfact>
</mgrwt>
</event>
<event>
 5    1  0.3486294E-002  0.1249992E+03  0.7818608E-02  0.1235071E+00
         -4   -1    0    0    0  501 -0.00000000000E+00  0.00000000000E+00  0.32212383340E+03  0.32212633693E+03  0.12700000000E+01 0.  1.
          4   -1    0    0  501    0  0.00000000000E+00 -0.00000000000E+00 -0.12090586424E+02  0.12157104100E+02  0.12700000000E+01 0.  1.
         25    2    1    2    0    0  0.00000000000E+00  0.00000000000E+00  0.31003324697E+03  0.33428344103E+03  0.12499921886E+03 0.  0.
    9000005    1    3    3    0    0  0.40803282204E+02  0.21996072738E+02  0.26709645106E+03  0.27109085050E+03  0.10000000000E+01 0.  0.
    9000005    1    3    3    0    0 -0.40803282204E+02 -0.21996072738E+02  0.42936795909E+02  0.63192590526E+02  0.10000000000E+01 0.  0.
<mgrwt>
<rscale>  0 0.12499922E+03</rscale>
<asrwt>0</asrwt>
<pdfrwt beam="2">  1        4 0.18653998E-02 0.12499922E+03</pdfrwt>
<pdfrwt beam="1">  1       -4 0.49562815E-01 0.12499922E+03</pdfrwt>
<totfact> 0.71490136E+03</totfact>
</mgrwt>
</event>
<event>
 5    1  0.3486294E-002  0.1249942E+03  0.7818608E-02  0.1235078E+00
          4   -1    0    0  501    0  0.00000000000E+00  0.00000000000E+00  0.56880607279E+01  0.58281158915E+01  0.12700000000E+01 0. -1.
         -4   -1    0    0    0  501 -0.00000000000E+00 -0.00000000000E+00 -0.67818971491E+03  0.67819090403E+03  0.12700000000E+01 0. -1.
         25    2    1    2    0    0  0.00000000000E+00  0.00000000000E+00 -0.67250165418E+03  0.68401901992E+03  0.12499417881E+03 0.  0.
    9000005    1    3    3    0    0 -0.18647087844E+02  0.49464227279E+02 -0.51861114580E+03  0.52129928468E+03  0.10000000000E+01 0.  0.
    9000005    1    3    3    0    0  0.18647087844E+02 -0.49464227279E+02 -0.15389050838E+03  0.16271973524E+03  0.10000000000E+01 0.  0.
<mgrwt>
<rscale>  0 0.12499418E+03</rscale>
<asrwt>0</asrwt>
<pdfrwt beam="1">  1        4 0.88595175E-03 0.12499418E+03</pdfrwt>
<pdfrwt beam="2">  1       -4 0.10434768E+00 0.12499418E+03</pdfrwt>
<totfact> 0.43949463E+03</totfact>
</mgrwt>
</event>
<event>
 5    1  0.3486294E-002  0.1249986E+03  0.7818608E-02  0.1235071E+00
         -4   -1    0    0    0  501 -0.00000000000E+00  0.00000000000E+00  0.50983635010E+02  0.50999450377E+02  0.12700000000E+01 0. -1.
          4   -1    0    0  501    0  0.00000000000E+00 -0.00000000000E+00 -0.76583057493E+02  0.76593587166E+02  0.12700000000E+01 0. -1.
         25    2    1    2    0    0  0.00000000000E+00  0.00000000000E+00 -0.25599422483E+02  0.12759303754E+03  0.12499861118E+03 0.  0.
    9000005    1    3    3    0    0  0.46553636593E+02 -0.41299676942E+02 -0.70021423336E+01  0.62633332921E+02  0.10000000000E+01 0.  0.
    9000005    1    3    3    0    0 -0.46553636593E+02  0.41299676942E+02 -0.18597280150E+02  0.64959704622E+02  0.10000000000E+01 0.  0.
<mgrwt>
<rscale>  0 0.12499861E+03</rscale>
<asrwt>0</asrwt>
<pdfrwt beam="2">  1        4 0.11784035E-01 0.12499861E+03</pdfrwt>
<pdfrwt beam="1">  1       -4 0.78456627E-02 0.12499861E+03</pdfrwt>
<totfact> 0.10396612E+04</totfact>
</mgrwt>
</event>
<event>
 5    1  0.3486294E-002  0.1249970E+03  0.7818608E-02  0.1235074E+00
          4   -1    0    0  501    0  0.00000000000E+00  0.00000000000E+00  0.29804700019E+03  0.29804970596E+03  0.12700000000E+01 0. -1.
         -4   -1    0    0    0  501 -0.00000000000E+00 -0.00000000000E+00 -0.13071994166E+02  0.13133542229E+02  0.12700000000E+01 0. -1.
         25    2    1    2    0    0  0.00000000000E+00  0.00000000000E+00  0.28497500603E+03  0.31118324819E+03  0.12499703954E+03 0.  0.
    9000005    1    3    3    0    0 -0.52005275952E+02  0.20904604361E+02  0.21127744095E+03  0.21858798747E+03  0.10000000000E+01 0.  0.
    9000005    1    3    3    0    0  0.52005275952E+02 -0.20904604361E+02  0.73697565076E+02  0.92595260724E+02  0.10000000000E+01 0.  0.
<mgrwt>
<rscale>  0 0.12499704E+03</rscale>
<asrwt>0</asrwt>
<pdfrwt beam="1">  1        4 0.45858327E-01 0.12499704E+03</pdfrwt>
<pdfrwt beam="2">  1       -4 0.20160186E-02 0.12499704E+03</pdfrwt>
<totfact> 0.74221982E+03</totfact>
</mgrwt>
</event>
<event>
 5    1  0.3486294E-002  0.1249962E+03  0.7818608E-02  0.1235075E+00
          4   -1    0    0  501    0  0.00000000000E+00  0.00000000000E+00  0.70528860713E+01  0.71663171808E+01  0.12700000000E+01 0. -1.
         -4   -1    0    0    0  501 -0.00000000000E+00 -0.00000000000E+00 -0.54928512357E+03  0.54928659175E+03  0.12700000000E+01 0. -1.
         25    2    1    2    0    0  0.00000000000E+00  0.00000000000E+00 -0.54223223750E+03  0.55645290893E+03  0.12499616184E+03 0.  0.
    9000005    1    3    3    0    0  0.26530735821E+02 -0.20039735566E+02 -0.50666172845E+03  0.50775247712E+03  0.10000000000E+01 0.  0.
    9000005    1    3    3    0    0 -0.26530735821E+02  0.20039735566E+02 -0.35570509055E+02  0.48700431817E+02  0.10000000000E+01 0.  0.
<mgrwt>
<rscale>  0 0.12499616E+03</rscale>
<asrwt>0</asrwt>
<pdfrwt beam="1">  1        4 0.10938982E-02 0.12499616E+03</pdfrwt>
<pdfrwt beam="2">  1       -4 0.84514208E-01 0.12499616E+03</pdfrwt>
<totfact> 0.51741472E+03</totfact>
</mgrwt>
</event>
<event>
 5    1  0.3486294E-002  0.1249997E+03  0.7818608E-02  0.1235070E+00
         -4   -1    0    0    0  501 -0.00000000000E+00  0.00000000000E+00  0.11188165075E+03  0.11188885858E+03  0.12700000000E+01 0.  1.
          4   -1    0    0  501    0  0.00000000000E+00 -0.00000000000E+00 -0.34894046198E+02  0.34917149942E+02  0.12700000000E+01 0.  1.
         25    2    1    2    0    0  0.00000000000E+00  0.00000000000E+00  0.76987604555E+02  0.14680600853E+03  0.12499965154E+03 0.  0.
    9000005    1    3    3    0    0  0.62025741376E+02  0.46989046090E+01  0.45536195180E+02  0.77096156644E+02  0.10000000000E+01 0.  0.
    9000005    1    3    3    0    0 -0.62025741376E+02 -0.46989046090E+01  0.31451409375E+02  0.69709851883E+02  0.10000000000E+01 0.  0.
<mgrwt>
<rscale>  0 0.12499965E+03</rscale>
<asrwt>0</asrwt>
<pdfrwt beam="2">  1        4 0.53706466E-02 0.12499965E+03</pdfrwt>
<pdfrwt beam="1">  1       -4 0.17214893E-01 0.12499965E+03</pdfrwt>
<totfact> 0.99945010E+03</totfact>
</mgrwt>
</event>
<event>
 5    1  0.3486294E-002  0.1249990E+03  0.7818608E-02  0.1235071E+00
         -4   -1    0    0    0  501 -0.00000000000E+00  0.00000000000E+00  0.10387241888E+02  0.10464592397E+02  0.12700000000E+01 0. -1.
          4   -1    0    0  501    0  0.00000000000E+00 -0.00000000000E+00 -0.37458272815E+03  0.37458488107E+03  0.12700000000E+01 0. -1.
         25    2    1    2    0    0  0.00000000000E+00  0.00000000000E+00 -0.36419548626E+03  0.38504947346E+03  0.12499897922E+03 0.  0.
    9000005    1    3    3    0    0  0.53406786862E+02 -0.27287644913E+02 -0.12801150261E+03  0.14136776594E+03  0.10000000000E+01 0.  0.
    9000005    1    3    3    0    0 -0.53406786862E+02  0.27287644913E+02 -0.23618398365E+03  0.24368170752E+03  0.10000000000E+01 0.  0.
<mgrwt>
<rscale>  0 0.12499898E+03</rscale>
<asrwt>0</asrwt>
<pdfrwt beam="2">  1        4 0.57634217E-01 0.12499898E+03</pdfrwt>
<pdfrwt beam="1">  1       -4 0.16041532E-02 0.12499898E+03</pdfrwt>
<totfact> 0.66034799E+03</totfact>
</mgrwt>
</event>
<event>
 5    1  0.3486294E-002  0.1249949E+03  0.7818608E-02  0.1235077E+00
         -4   -1    0    0    0  501 -0.00000000000E+00  0.00000000000E+00  0.76433769007E+02  0.76444319243E+02  0.12700000000E+01 0. -1.
          4   -1    0    0  501    0  0.00000000000E+00 -0.00000000000E+00 -0.51080216787E+02  0.51096002260E+02  0.12700000000E+01 0. -1.
         25    2    1    2    0    0  0.00000000000E+00  0.00000000000E+00  0.25353552220E+02  0.12754032150E+03  0.12499492389E+03 0.  0.
    9000005    1    3    3    0    0  0.52126361315E+02  0.22287335336E+02 -0.14146377202E+02  0.58438025705E+02  0.10000000000E+01 0.  0.
    9000005    1    3    3    0    0 -0.52126361315E+02 -0.22287335336E+02  0.39499929422E+02  0.69102295799E+02  0.10000000000E+01 0.  0.
<mgrwt>
<rscale>  0 0.12499492E+03</rscale>
<asrwt>0</asrwt>
<pdfrwt beam="2">  1        4 0.78605208E-02 0.12499492E+03</pdfrwt>
<pdfrwt beam="1">  1       -4 0.11761067E-01 0.12499492E+03</pdfrwt>
<totfact> 0.10398619E+04</totfact>
</mgrwt>
</event>
<event>
 5    1  0.3486294E-002  0.1250022E+03  0.7818608E-02  0.1235066E+00
          4   -1    0    0  501    0  0.00000000000E+00  0.00000000000E+00  0.85636213212E+03  0.85636307384E+03  0.12700000000E+01 0.  1.
         -4   -1    0    0    0  501 -0.00000000000E+00 -0.00000000000E+00 -0.44722526346E+01  0.46490798689E+01  0.12700000000E+01 0.  1.
         25    2    1    2    0    0  0.00000000000E+00  0.00000000000E+00  0.85188987949E+03  0.86101215371E+03  0.12500224821E+03 0.  0.
    9000005    1    3    3    0    0 -0.36969823343E+02 -0.49740740797E+02  0.37063430740E+03  0.37578145105E+03  0.10000000000E+01 0.  0.
    9000005    1    3    3    0    0  0.36969823343E+02  0.49740740797E+02  0.48125557209E+03  0.48523070266E+03  0.10000000000E+01 0.  0.
<mgrwt>
<rscale>  0 0.12500225E+03</rscale>
<asrwt>0</asrwt>
<pdfrwt beam="1">  1        4 0.13176169E+00 0.12500225E+03</pdfrwt>
<pdfrwt beam="2">  1       -4 0.70171343E-03 0.12500225E+03</pdfrwt>
<totfact> 0.35679135E+03</totfact>
</mgrwt>
</event>
<event>
 5    1  0.3486294E-002  0.1250068E+03  0.7818608E-02  0.1235059E+00
          4   -1    0    0  501    0  0.00000000000E+00  0.00000000000E+00  0.74485157384E+03  0.74485265654E+03  0.12700000000E+01 0. -1.
         -4   -1    0    0    0  501 -0.00000000000E+00 -0.00000000000E+00 -0.51669208382E+01  0.53207115077E+01  0.12700000000E+01 0. -1.
         25    2    1    2    0    0  0.00000000000E+00  0.00000000000E+00  0.73968465301E+03  0.75017336805E+03  0.12500678477E+03 0.  0.
    9000005    1    3    3    0    0 -0.16997365828E+02 -0.35284206642E+02  0.77584584048E+02  0.86915207906E+02  0.10000000000E+01 0.  0.
    9000005    1    3    3    0    0  0.16997365828E+02  0.35284206642E+02  0.66210006896E+03  0.66325816014E+03  0.10000000000E+01 0.  0.
<mgrwt>
<rscale>  0 0.12500678E+03</rscale>
<asrwt>0</asrwt>
<pdfrwt beam="1">  1        4 0.11460445E+00 0.12500678E+03</pdfrwt>
<pdfrwt beam="2">  1       -4 0.80682430E-03 0.12500678E+03</pdfrwt>
<totfact> 0.40559829E+03</totfact>
</mgrwt>
</event>
<event>
 5    1  0.3486294E-002  0.1249999E+03  0.7818608E-02  0.1235069E+00
         -4   -1    0    0    0  501 -0.00000000000E+00  0.00000000000E+00  0.17685431973E+02  0.17730973016E+02  0.12700000000E+01 0. -1.
          4   -1    0    0  501    0  0.00000000000E+00 -0.00000000000E+00 -0.22054220638E+03  0.22054586302E+03  0.12700000000E+01 0. -1.
         25    2    1    2    0    0  0.00000000000E+00  0.00000000000E+00 -0.20285677441E+03  0.23827683604E+03  0.12499991867E+03 0.  0.
    9000005    1    3    3    0    0 -0.25832689584E+02 -0.18859607760E+02  0.90953183970E+00  0.32013120813E+02  0.10000000000E+01 0.  0.
    9000005    1    3    3    0    0  0.25832689584E+02  0.18859607760E+02 -0.20376630625E+03  0.20626371523E+03  0.10000000000E+01 0.  0.
<mgrwt>
<rscale>  0 0.12499992E+03</rscale>
<asrwt>0</asrwt>
<pdfrwt beam="2">  1        4 0.33933353E-01 0.12499992E+03</pdfrwt>
<pdfrwt beam="1">  1       -4 0.27246203E-02 0.12499992E+03</pdfrwt>
<totfact> 0.84054826E+03</totfact>
</mgrwt>
</event>
<event>
 4    1  0.3486294E-002  0.1243874E+03  0.7818608E-02  0.1236030E+00
          4   -1    0    0  501    0  0.00000000000E+00  0.00000000000E+00  0.60630375337E+01  0.61946205804E+01  0.12700000000E+01 0.  1.
         -4   -1    0    0    0  501 -0.00000000000E+00 -0.00000000000E+00 -0.63099295667E+03  0.63099423474E+03  0.12700000000E+01 0.  1.
    9000005    1    1    2    0    0  0.52926578245E+02 -0.11060455475E+02 -0.46981363159E+03  0.47291585382E+03  0.10000000000E+01 0.  0.
    9000005    1    1    2    0    0 -0.52926578245E+02  0.11060455475E+02 -0.15511628755E+03  0.16427300150E+03  0.10000000000E+01 0.  0.
<mgrwt>
<rscale>  0 0.12438743E+03</rscale>
<asrwt>0</asrwt>
<pdfrwt beam="1">  1        4 0.94299559E-03 0.12438743E+03</pdfrwt>
<pdfrwt beam="2">  1       -4 0.97086008E-01 0.12438743E+03</pdfrwt>
<totfact> 0.47232174E+03</totfact>
</mgrwt>
</event>
<event>
 5    1  0.3486294E-002  0.1250017E+03  0.7818608E-02  0.1235067E+00
         -4   -1    0    0    0  501 -0.00000000000E+00  0.00000000000E+00  0.35965279633E+03  0.35965503862E+03  0.12700000000E+01 0.  1.
          4   -1    0    0  501    0  0.00000000000E+00 -0.00000000000E+00 -0.10822058509E+02  0.10896322791E+02  0.12700000000E+01 0.  1.
         25    2    1    2    0    0  0.00000000000E+00  0.00000000000E+00  0.34883073782E+03  0.37055136141E+03  0.12500171118E+03 0.  0.
    9000005    1    3    3    0    0 -0.48451498113E+02 -0.36077459012E+02  0.22186624656E+03  0.22994512841E+03  0.10000000000E+01 0.  0.
    9000005    1    3    3    0    0  0.48451498113E+02  0.36077459012E+02  0.12696449126E+03  0.14060623300E+03  0.10000000000E+01 0.  0.
<mgrwt>
<rscale>  0 0.12500171E+03</rscale>
<asrwt>0</asrwt>
<pdfrwt beam="2">  1        4 0.16708177E-02 0.12500171E+03</pdfrwt>
<pdfrwt beam="1">  1       -4 0.55337069E-01 0.12500171E+03</pdfrwt>
<totfact> 0.67518748E+03</totfact>
</mgrwt>
</event>
<event>
 5    1  0.3486294E-002  0.1250037E+03  0.7818608E-02  0.1235064E+00
         -4   -1    0    0    0  501 -0.00000000000E+00  0.00000000000E+00  0.53482082381E+02  0.53497159137E+02  0.12700000000E+01 0.  1.
          4   -1    0    0  501    0  0.00000000000E+00 -0.00000000000E+00 -0.73011887781E+02  0.73022932407E+02  0.12700000000E+01 0.  1.
         25    2    1    2    0    0  0.00000000000E+00  0.00000000000E+00 -0.19529805400E+02  0.12652009154E+03  0.12500368101E+03 0.  0.
    9000005    1    3    3    0    0 -0.23919559398E+02  0.57698853955E+02 -0.11833465769E+02  0.63579351850E+02  0.10000000000E+01 0.  0.
    9000005    1    3    3    0    0  0.23919559398E+02 -0.57698853955E+02 -0.76963396310E+01  0.62940739694E+02  0.10000000000E+01 0.  0.
<mgrwt>
<rscale>  0 0.12500368E+03</rscale>
<asrwt>0</asrwt>
<pdfrwt beam="2">  1        4 0.11234607E-01 0.12500368E+03</pdfrwt>
<pdfrwt beam="1">  1       -4 0.82300221E-02 0.12500368E+03</pdfrwt>
<totfact> 0.10418724E+04</totfact>
</mgrwt>
</event>
<event>
 5    1  0.3486294E-002  0.1249986E+03  0.7818608E-02  0.1235071E+00
         -4   -1    0    0    0  501 -0.00000000000E+00  0.00000000000E+00  0.75810020507E+03  0.75810126885E+03  0.12700000000E+01 0.  1.
          4   -1    0    0  501    0  0.00000000000E+00 -0.00000000000E+00 -0.50732253677E+01  0.52297720439E+01  0.12700000000E+01 0.  1.
         25    2    1    2    0    0  0.00000000000E+00  0.00000000000E+00  0.75302697970E+03  0.76333104089E+03  0.12499858330E+03 0.  0.
    9000005    1    3    3    0    0  0.51884659730E+02 -0.32078498065E+01  0.16471924541E+03  0.17273024640E+03  0.10000000000E+01 0.  0.
    9000005    1    3    3    0    0 -0.51884659730E+02  0.32078498065E+01  0.58830773430E+03  0.59060079449E+03  0.10000000000E+01 0.  0.
<mgrwt>
<rscale>  0 0.12499858E+03</rscale>
<asrwt>0</asrwt>
<pdfrwt beam="2">  1        4 0.79261958E-03 0.12499858E+03</pdfrwt>
<pdfrwt beam="1">  1       -4 0.11664300E+00 0.12499858E+03</pdfrwt>
<totfact> 0.39945701E+03</totfact>
</mgrwt>
</event>
<event>
 5    1  0.3486294E-002  0.1249980E+03  0.7818608E-02  0.1235072E+00
         -4   -1    0    0    0  501 -0.00000000000E+00  0.00000000000E+00  0.36115869995E+02  0.36138192615E+02  0.12700000000E+01 0.  1.
          4   -1    0    0  501    0  0.00000000000E+00 -0.00000000000E+00 -0.10809582513E+03  0.10810328538E+03  0.12700000000E+01 0.  1.
         25    2    1    2    0    0  0.00000000000E+00  0.00000000000E+00 -0.71979955134E+02  0.14424147800E+03  0.12499796012E+03 0.  0.
    9000005    1    3    3    0    0 -0.41970828848E+02 -0.71745624041E+01  0.16791095810E+02  0.45781718168E+02  0.10000000000E+01 0.  0.
    9000005    1    3    3    0    0  0.41970828848E+02  0.71745624041E+01 -0.88771050943E+02  0.98459759829E+02  0.10000000000E+01 0.  0.
<mgrwt>
<rscale>  0 0.12499796E+03</rscale>
<asrwt>0</asrwt>
<pdfrwt beam="2">  1        4 0.16632418E-01 0.12499796E+03</pdfrwt>
<pdfrwt beam="1">  1       -4 0.55585787E-02 0.12499796E+03</pdfrwt>
<totfact> 0.10046884E+04</totfact>
</mgrwt>
</event>
<event>
 5    1  0.3486294E-002  0.1250013E+03  0.7818608E-02  0.1235067E+00
          4   -1    0    0  501    0  0.00000000000E+00  0.00000000000E+00  0.52977490292E+02  0.52992710608E+02  0.12700000000E+01 0.  1.
         -4   -1    0    0    0  501 -0.00000000000E+00 -0.00000000000E+00 -0.73704437967E+02  0.73715378830E+02  0.12700000000E+01 0.  1.
         25    2    1    2    0    0  0.00000000000E+00  0.00000000000E+00 -0.20726947675E+02  0.12670808944E+03  0.12500133427E+03 0.  0.
    9000005    1    3    3    0    0  0.89333907909E+01 -0.60670533397E+02 -0.22553238232E+02  0.65348050073E+02  0.10000000000E+01 0.  0.
    9000005    1    3    3    0    0 -0.89333907909E+01  0.60670533397E+02  0.18262905564E+01  0.61360039365E+02  0.10000000000E+01 0.  0.
<mgrwt>
<rscale>  0 0.12500133E+03</rscale>
<asrwt>0</asrwt>
<pdfrwt beam="1">  1        4 0.81523955E-02 0.12500133E+03</pdfrwt>
<pdfrwt beam="2">  1       -4 0.11341157E-01 0.12500133E+03</pdfrwt>
<totfact> 0.10415180E+04</totfact>
</mgrwt>
</event>
<event>
 5    1  0.3486294E-002  0.1249996E+03  0.7818608E-02  0.1235070E+00
          4   -1    0    0  501    0  0.00000000000E+00  0.00000000000E+00  0.96602524397E+02  0.96610872162E+02  0.12700000000E+01 0. -1.
         -4   -1    0    0    0  501 -0.00000000000E+00 -0.00000000000E+00 -0.40415990132E+02  0.40435938944E+02  0.12700000000E+01 0. -1.
         25    2    1    2    0    0  0.00000000000E+00  0.00000000000E+00  0.56186534265E+02  0.13704681111E+03  0.12499960721E+03 0.  0.
    9000005    1    3    3    0    0  0.80654400803E+01  0.51888437193E+02 -0.90505579802E+01  0.53295157733E+02  0.10000000000E+01 0.  0.
    9000005    1    3    3    0    0 -0.80654400803E+01 -0.51888437193E+02  0.65237092246E+02  0.83751653373E+02  0.10000000000E+01 0.  0.
<mgrwt>
<rscale>  0 0.12499961E+03</rscale>
<asrwt>0</asrwt>
<pdfrwt beam="1">  1        4 0.14864103E-01 0.12499961E+03</pdfrwt>
<pdfrwt beam="2">  1       -4 0.62200214E-02 0.12499961E+03</pdfrwt>
<totfact> 0.10195197E+04</totfact>
</mgrwt>
</event>
<event>
 5    1  0.3486294E-002  0.1250008E+03  0.7818608E-02  0.1235068E+00
          4   -1    0    0  501    0  0.00000000000E+00  0.00000000000E+00  0.52705033927E+01  0.54213564735E+01  0.12700000000E+01 0.  1.
         -4   -1    0    0    0  501 -0.00000000000E+00 -0.00000000000E+00 -0.73055412832E+03  0.73055523220E+03  0.12700000000E+01 0.  1.
         25    2    1    2    0    0  0.00000000000E+00  0.00000000000E+00 -0.72528362492E+03  0.73597658868E+03  0.12500080999E+03 0.  0.
    9000005    1    3    3    0    0 -0.18000251568E+02 -0.57244451573E+02 -0.25992345857E+03  0.26676232982E+03  0.10000000000E+01 0.  0.
    9000005    1    3    3    0    0  0.18000251568E+02  0.57244451573E+02 -0.46536016635E+03  0.46921425886E+03  0.10000000000E+01 0.  0.
<mgrwt>
<rscale>  0 0.12500081E+03</rscale>
<asrwt>0</asrwt>
<pdfrwt beam="1">  1        4 0.82253625E-03 0.12500081E+03</pdfrwt>
<pdfrwt beam="2">  1       -4 0.11240455E+00 0.12500081E+03</pdfrwt>
<totfact> 0.41253321E+03</totfact>
</mgrwt>
</event>
<event>
 5    1  0.3486294E-002  0.1249990E+03  0.7818608E-02  0.1235071E+00
          4   -1    0    0  501    0  0.00000000000E+00  0.00000000000E+00  0.56861208633E+01  0.58262226590E+01  0.12700000000E+01 0. -1.
         -4   -1    0    0    0  501 -0.00000000000E+00 -0.00000000000E+00 -0.67846744719E+03  0.67846863582E+03  0.12700000000E+01 0. -1.
         25    2    1    2    0    0  0.00000000000E+00  0.00000000000E+00 -0.67278132632E+03  0.68429485848E+03  0.12499896116E+03 0.  0.
    9000005    1    3    3    0    0  0.12320771656E+02  0.27384817482E+02 -0.36372554433E+02  0.47177244077E+02  0.10000000000E+01 0.  0.
    9000005    1    3    3    0    0 -0.12320771656E+02 -0.27384817482E+02 -0.63640877189E+03  0.63711761440E+03  0.10000000000E+01 0.  0.
<mgrwt>
<rscale>  0 0.12499896E+03</rscale>
<asrwt>0</asrwt>
<pdfrwt beam="1">  1        4 0.88565686E-03 0.12499896E+03</pdfrwt>
<pdfrwt beam="2">  1       -4 0.10439041E+00 0.12499896E+03</pdfrwt>
<totfact> 0.43929837E+03</totfact>
</mgrwt>
</event>
<event>
 5    1  0.3486294E-002  0.1250033E+03  0.7818608E-02  0.1235064E+00
         -4   -1    0    0    0  501 -0.00000000000E+00  0.00000000000E+00  0.27056011407E+03  0.27056309473E+03  0.12700000000E+01 0. -1.
          4   -1    0    0  501    0  0.00000000000E+00 -0.00000000000E+00 -0.14407411055E+02  0.14463277406E+02  0.12700000000E+01 0. -1.
         25    2    1    2    0    0  0.00000000000E+00  0.00000000000E+00  0.25615270302E+03  0.28502637213E+03  0.12500330214E+03 0.  0.
    9000005    1    3    3    0    0  0.62307476980E+02 -0.38382640385E+01  0.13472502561E+03  0.14848833788E+03  0.10000000000E+01 0.  0.
    9000005    1    3    3    0    0 -0.62307476980E+02  0.38382640385E+01  0.12142767740E+03  0.13653803426E+03  0.10000000000E+01 0.  0.
<mgrwt>
<rscale>  0 0.12500330E+03</rscale>
<asrwt>0</asrwt>
<pdfrwt beam="2">  1        4 0.22210513E-02 0.12500330E+03</pdfrwt>
<pdfrwt beam="1">  1       -4 0.41629164E-01 0.12500330E+03</pdfrwt>
<totfact> 0.77510639E+03</totfact>
</mgrwt>
</event>
<event>
 5    1  0.3486294E-002  0.1249967E+03  0.7818608E-02  0.1235074E+00
          4   -1    0    0  501    0  0.00000000000E+00  0.00000000000E+00  0.16125062645E+02  0.16174997537E+02  0.12700000000E+01 0. -1.
         -4   -1    0    0    0  501 -0.00000000000E+00 -0.00000000000E+00 -0.24180815315E+03  0.24181148821E+03  0.12700000000E+01 0. -1.
         25    2    1    2    0    0  0.00000000000E+00  0.00000000000E+00 -0.22568309051E+03  0.25798648575E+03  0.12499667791E+03 0.  0.
    9000005    1    3    3    0    0  0.24832452294E+02 -0.30575299995E+02 -0.12712626055E+02  0.41401817810E+02  0.10000000000E+01 0.  0.
    9000005    1    3    3    0    0 -0.24832452294E+02  0.30575299995E+02 -0.21297046445E+03  0.21658466794E+03  0.10000000000E+01 0.  0.
<mgrwt>
<rscale>  0 0.12499668E+03</rscale>
<asrwt>0</asrwt>
<pdfrwt beam="1">  1        4 0.24848767E-02 0.12499668E+03</pdfrwt>
<pdfrwt beam="2">  1       -4 0.37205349E-01 0.12499668E+03</pdfrwt>
<totfact> 0.81195468E+03</totfact>
</mgrwt>
</event>
<event>
 5    1  0.3486294E-002  0.1250008E+03  0.7818608E-02  0.1235068E+00
          4   -1    0    0  501    0  0.00000000000E+00  0.00000000000E+00  0.19479620064E+03  0.19480034056E+03  0.12700000000E+01 0. -1.
         -4   -1    0    0    0  501 -0.00000000000E+00 -0.00000000000E+00 -0.20028796897E+02  0.20069021031E+02  0.12700000000E+01 0. -1.
         25    2    1    2    0    0  0.00000000000E+00  0.00000000000E+00  0.17476740374E+03  0.21486936159E+03  0.12500078856E+03 0.  0.
    9000005    1    3    3    0    0 -0.34981341948E+02 -0.51782647955E+02  0.86691047351E+02  0.10687129926E+03  0.10000000000E+01 0.  0.
    9000005    1    3    3    0    0  0.34981341948E+02  0.51782647955E+02  0.88076356389E+02  0.10799806234E+03  0.10000000000E+01 0.  0.
<mgrwt>
<rscale>  0 0.12500079E+03</rscale>
<asrwt>0</asrwt>
<pdfrwt beam="1">  1        4 0.29972059E-01 0.12500079E+03</pdfrwt>
<pdfrwt beam="2">  1       -4 0.30847659E-02 0.12500079E+03</pdfrwt>
<totfact> 0.87685228E+03</totfact>
</mgrwt>
</event>
<event>
 4    1  0.3486294E-002  0.1248410E+03  0.7818608E-02  0.1235318E+00
          4   -1    0    0  501    0  0.00000000000E+00  0.00000000000E+00  0.19106589205E+03  0.19107011280E+03  0.12700000000E+01 0.  1.
         -4   -1    0    0    0  501 -0.00000000000E+00 -0.00000000000E+00 -0.20368331753E+02  0.20407886672E+02  0.12700000000E+01 0.  1.
    9000005    1    1    2    0    0 -0.27733179556E+02 -0.54017144611E+02  0.10979967611E+03  0.12547489802E+03  0.10000000000E+01 0.  0.
    9000005    1    1    2    0    0  0.27733179556E+02  0.54017144611E+02  0.60897884191E+02  0.86003101451E+02  0.10000000000E+01 0.  0.
<mgrwt>
<rscale>  0 0.12484105E+03</rscale>
<asrwt>0</asrwt>
<pdfrwt beam="1">  1        4 0.29398120E-01 0.12484105E+03</pdfrwt>
<pdfrwt beam="2">  1       -4 0.31369569E-02 0.12484105E+03</pdfrwt>
<totfact> 0.88549319E+03</totfact>
</mgrwt>
</event>
<event>
 5    1  0.3486294E-002  0.1249968E+03  0.7818608E-02  0.1235074E+00
         -4   -1    0    0    0  501 -0.00000000000E+00  0.00000000000E+00  0.69359479365E+03  0.69359595636E+03  0.12700000000E+01 0.  1.
          4   -1    0    0  501    0  0.00000000000E+00 -0.00000000000E+00 -0.55588179380E+01  0.57020484800E+01  0.12700000000E+01 0.  1.
         25    2    1    2    0    0  0.00000000000E+00  0.00000000000E+00  0.68803597571E+03  0.69929800484E+03  0.12499678275E+03 0.  0.
    9000005    1    3    3    0    0  0.20715779391E+02 -0.47760237384E+02  0.53740303847E+03  0.53991963249E+03  0.10000000000E+01 0.  0.
    9000005    1    3    3    0    0 -0.20715779391E+02  0.47760237384E+02  0.15063293724E+03  0.15937837235E+03  0.10000000000E+01 0.  0.
<mgrwt>
<rscale>  0 0.12499678E+03</rscale>
<asrwt>0</asrwt>
<pdfrwt beam="2">  1        4 0.86631041E-03 0.12499678E+03</pdfrwt>
<pdfrwt beam="1">  1       -4 0.10671794E+00 0.12499678E+03</pdfrwt>
<totfact> 0.43126827E+03</totfact>
</mgrwt>
</event>
<event>
 5    1  0.3486294E-002  0.1250053E+03  0.7818608E-02  0.1235061E+00
          4   -1    0    0  501    0  0.00000000000E+00  0.00000000000E+00  0.69597667372E+02  0.69609253721E+02  0.12700000000E+01 0.  1.
         -4   -1    0    0    0  501 -0.00000000000E+00 -0.00000000000E+00 -0.56107438217E+02  0.56121809694E+02  0.12700000000E+01 0.  1.
         25    2    1    2    0    0  0.00000000000E+00  0.00000000000E+00  0.13490229155E+02  0.12573106341E+03  0.12500525599E+03 0.  0.
    9000005    1    3    3    0    0  0.58806316419E+01 -0.19231731803E+02 -0.52768849436E+02  0.56480021312E+02  0.10000000000E+01 0.  0.
    9000005    1    3    3    0    0 -0.58806316419E+01  0.19231731803E+02  0.66259078590E+02  0.69251042103E+02  0.10000000000E+01 0.  0.
<mgrwt>
<rscale>  0 0.12500526E+03</rscale>
<asrwt>0</asrwt>
<pdfrwt beam="1">  1        4 0.10709330E-01 0.12500526E+03</pdfrwt>
<pdfrwt beam="2">  1       -4 0.86339104E-02 0.12500526E+03</pdfrwt>
<totfact> 0.10435623E+04</totfact>
</mgrwt>
</event>
<event>
 5    1  0.3486294E-002  0.1249958E+03  0.7818608E-02  0.1235076E+00
          4   -1    0    0  501    0  0.00000000000E+00  0.00000000000E+00  0.28113213874E+02  0.28141885053E+02  0.12700000000E+01 0. -1.
         -4   -1    0    0    0  501 -0.00000000000E+00 -0.00000000000E+00 -0.13883547937E+03  0.13884128792E+03  0.12700000000E+01 0. -1.
         25    2    1    2    0    0  0.00000000000E+00  0.00000000000E+00 -0.11072226549E+03  0.16698317297E+03  0.12499583985E+03 0.  0.
    9000005    1    3    3    0    0  0.10803929871E+02 -0.34052972029E+02  0.13131581083E+02  0.38075822071E+02  0.10000000000E+01 0.  0.
    9000005    1    3    3    0    0 -0.10803929871E+02  0.34052972029E+02 -0.12385384658E+03  0.12890735090E+03  0.10000000000E+01 0.  0.
<mgrwt>
<rscale>  0 0.12499584E+03</rscale>
<asrwt>0</asrwt>
<pdfrwt beam="1">  1        4 0.43277622E-02 0.12499584E+03</pdfrwt>
<pdfrwt beam="2">  1       -4 0.21361956E-01 0.12499584E+03</pdfrwt>
<totfact> 0.96022096E+03</totfact>
</mgrwt>
</event>
<event>
 5    1  0.3486294E-002  0.1249998E+03  0.7818608E-02  0.1235070E+00
          4   -1    0    0  501    0  0.00000000000E+00  0.00000000000E+00  0.16423994381E+02  0.16473023142E+02  0.12700000000E+01 0.  1.
         -4   -1    0    0    0  501 -0.00000000000E+00 -0.00000000000E+00 -0.23743206590E+03  0.23743546243E+03  0.12700000000E+01 0.  1.
         25    2    1    2    0    0  0.00000000000E+00  0.00000000000E+00 -0.22100807152E+03  0.25390848557E+03  0.12499980547E+03 0.  0.
    9000005    1    3    3    0    0  0.96289016818E+01  0.61661590298E+02 -0.11704535175E+03  0.13264796204E+03  0.10000000000E+01 0.  0.
    9000005    1    3    3    0    0 -0.96289016818E+01 -0.61661590298E+02 -0.10396271977E+03  0.12126052353E+03  0.10000000000E+01 0.  0.
<mgrwt>
<rscale>  0 0.12499981E+03</rscale>
<asrwt>0</asrwt>
<pdfrwt beam="1">  1        4 0.25308013E-02 0.12499981E+03</pdfrwt>
<pdfrwt beam="2">  1       -4 0.36532040E-01 0.12499981E+03</pdfrwt>
<totfact> 0.81768947E+03</totfact>
</mgrwt>
</event>
<event>
 5    1  0.3486294E-002  0.1249916E+03  0.7818608E-02  0.1235082E+00
         -4   -1    0    0    0  501 -0.00000000000E+00  0.00000000000E+00  0.14801374779E+02  0.14855759669E+02  0.12700000000E+01 0. -1.
          4   -1    0    0  501    0  0.00000000000E+00 -0.00000000000E+00 -0.26333612612E+03  0.26333918854E+03  0.12700000000E+01 0. -1.
         25    2    1    2    0    0  0.00000000000E+00  0.00000000000E+00 -0.24853475135E+03  0.27819494821E+03  0.12499162605E+03 0.  0.
    9000005    1    3    3    0    0  0.36520255689E+02 -0.49833059680E+02 -0.10342830717E+03  0.12048019603E+03  0.10000000000E+01 0.  0.
    9000005    1    3    3    0    0 -0.36520255689E+02  0.49833059680E+02 -0.14510644418E+03  0.15771475218E+03  0.10000000000E+01 0.  0.
<mgrwt>
<rscale>  0 0.12499163E+03</rscale>
<asrwt>0</asrwt>
<pdfrwt beam="2">  1        4 0.40517666E-01 0.12499163E+03</pdfrwt>
<pdfrwt beam="1">  1       -4 0.22815538E-02 0.12499163E+03</pdfrwt>
<totfact> 0.78432654E+03</totfact>
</mgrwt>
</event>
<event>
 5    1  0.3486294E-002  0.1250021E+03  0.7818608E-02  0.1235066E+00
         -4   -1    0    0    0  501 -0.00000000000E+00  0.00000000000E+00  0.12894072715E+03  0.12894698142E+03  0.12700000000E+01 0.  1.
          4   -1    0    0  501    0  0.00000000000E+00 -0.00000000000E+00 -0.30275635763E+02  0.30302260986E+02  0.12700000000E+01 0.  1.
         25    2    1    2    0    0  0.00000000000E+00  0.00000000000E+00  0.98665091382E+02  0.15924924240E+03  0.12500208378E+03 0.  0.
    9000005    1    3    3    0    0 -0.50400894684E+02  0.32292781440E+02  0.26461051793E+02  0.65454267853E+02  0.10000000000E+01 0.  0.
    9000005    1    3    3    0    0  0.50400894684E+02 -0.32292781440E+02  0.72204039589E+02  0.93794974551E+02  0.10000000000E+01 0.  0.
<mgrwt>
<rscale>  0 0.12500208E+03</rscale>
<asrwt>0</asrwt>
<pdfrwt beam="2">  1        4 0.46603194E-02 0.12500208E+03</pdfrwt>
<pdfrwt beam="1">  1       -4 0.19839564E-01 0.12500208E+03</pdfrwt>
<totfact> 0.97483154E+03</totfact>
</mgrwt>
</event>
<event>
 5    1  0.3486294E-002  0.1250048E+03  0.7818608E-02  0.1235062E+00
         -4   -1    0    0    0  501 -0.00000000000E+00  0.00000000000E+00  0.16085316870E+03  0.16085818220E+03  0.12700000000E+01 0.  1.
          4   -1    0    0  501    0  0.00000000000E+00 -0.00000000000E+00 -0.24264446843E+02  0.24297659982E+02  0.12700000000E+01 0.  1.
         25    2    1    2    0    0  0.00000000000E+00  0.00000000000E+00  0.13658872186E+03  0.18515584218E+03  0.12500482773E+03 0.  0.
    9000005    1    3    3    0    0  0.53957868067E+02  0.28821150774E+02  0.49358206887E+02  0.78608796234E+02  0.10000000000E+01 0.  0.
    9000005    1    3    3    0    0 -0.53957868067E+02 -0.28821150774E+02  0.87230514969E+02  0.10654704595E+03  0.10000000000E+01 0.  0.
<mgrwt>
<rscale>  0 0.12500483E+03</rscale>
<asrwt>0</asrwt>
<pdfrwt beam="2">  1        4 0.37359325E-02 0.12500483E+03</pdfrwt>
<pdfrwt beam="1">  1       -4 0.24749581E-01 0.12500483E+03</pdfrwt>
<totfact> 0.92687054E+03</totfact>
</mgrwt>
</event>
<event>
 5    1  0.3486294E-002  0.1250002E+03  0.7818608E-02  0.1235069E+00
         -4   -1    0    0    0  501 -0.00000000000E+00  0.00000000000E+00  0.22528157706E+03  0.22528515677E+03  0.12700000000E+01 0. -1.
          4   -1    0    0  501    0  0.00000000000E+00 -0.00000000000E+00 -0.17312489246E+02  0.17359008724E+02  0.12700000000E+01 0. -1.
         25    2    1    2    0    0  0.00000000000E+00  0.00000000000E+00  0.20796908781E+03  0.24264416550E+03  0.12500019825E+03 0.  0.
    9000005    1    3    3    0    0 -0.14107731192E+02 -0.49623836508E+02  0.35527432803E+02  0.62647838835E+02  0.10000000000E+01 0.  0.
    9000005    1    3    3    0    0  0.14107731192E+02  0.49623836508E+02  0.17244165501E+03  0.17999632666E+03  0.10000000000E+01 0.  0.
<mgrwt>
<rscale>  0 0.12500020E+03</rscale>
<asrwt>0</asrwt>
<pdfrwt beam="2">  1        4 0.26673139E-02 0.12500020E+03</pdfrwt>
<pdfrwt beam="1">  1       -4 0.34662555E-01 0.12500020E+03</pdfrwt>
<totfact> 0.83404769E+03</totfact>
</mgrwt>
</event>
<event>
 5    1  0.3486294E-002  0.1249997E+03  0.7818608E-02  0.1235070E+00
         -4   -1    0    0    0  501 -0.00000000000E+00  0.00000000000E+00  0.44783930668E+01  0.46549870527E+01  0.12700000000E+01 0. -1.
          4   -1    0    0  501    0  0.00000000000E+00 -0.00000000000E+00 -0.85519745777E+03  0.85519840077E+03  0.12700000000E+01 0. -1.
         25    2    1    2    0    0  0.00000000000E+00  0.00000000000E+00 -0.85071906470E+03  0.85985338782E+03  0.12499968599E+03 0.  0.
    9000005    1    3    3    0    0 -0.94584502623E+01 -0.42294320872E+02 -0.73505718584E+03  0.73633439300E+03  0.10000000000E+01 0.  0.
    9000005    1    3    3    0    0  0.94584502623E+01  0.42294320872E+02 -0.11566187886E+03  0.12351899482E+03  0.10000000000E+01 0.  0.
<mgrwt>
<rscale>  0 0.12499969E+03</rscale>
<asrwt>0</asrwt>
<pdfrwt beam="2">  1        4 0.13158237E+00 0.12499969E+03</pdfrwt>
<pdfrwt beam="1">  1       -4 0.70264092E-03 0.12499969E+03</pdfrwt>
<totfact> 0.35727750E+03</totfact>
</mgrwt>
</event>
<event>
 5    1  0.3486294E-002  0.1250006E+03  0.7818608E-02  0.1235068E+00
         -4   -1    0    0    0  501 -0.00000000000E+00  0.00000000000E+00  0.56761012375E+01  0.58164443828E+01  0.12700000000E+01 0.  1.
          4   -1    0    0  501    0  0.00000000000E+00 -0.00000000000E+00 -0.67965439900E+03  0.67965558556E+03  0.12700000000E+01 0.  1.
         25    2    1    2    0    0  0.00000000000E+00  0.00000000000E+00 -0.67397829776E+03  0.68547202994E+03  0.12500063190E+03 0.  0.
    9000005    1    3    3    0    0 -0.27221607985E+02 -0.17180047065E+02 -0.43256750555E+02  0.53928808878E+02  0.10000000000E+01 0.  0.
    9000005    1    3    3    0    0  0.27221607985E+02  0.17180047065E+02 -0.63072154721E+03  0.63154322106E+03  0.10000000000E+01 0.  0.
<mgrwt>
<rscale>  0 0.12500063E+03</rscale>
<asrwt>0</asrwt>
<pdfrwt beam="2">  1        4 0.10457304E+00 0.12500063E+03</pdfrwt>
<pdfrwt beam="1">  1       -4 0.88413378E-03 0.12500063E+03</pdfrwt>
<totfact> 0.43864197E+03</totfact>
</mgrwt>
</event>
<event>
 5    1  0.3486294E-002  0.1250015E+03  0.7818608E-02  0.1235067E+00
          4   -1    0    0  501    0  0.00000000000E+00  0.00000000000E+00  0.78008119227E+01  0.79035160943E+01  0.12700000000E+01 0. -1.
         -4   -1    0    0    0  501 -0.00000000000E+00 -0.00000000000E+00 -0.49738258717E+03  0.49738420855E+03  0.12700000000E+01 0. -1.
         25    2    1    2    0    0  0.00000000000E+00  0.00000000000E+00 -0.48958177525E+03  0.50528772465E+03  0.12500148010E+03 0.  0.
    9000005    1    3    3    0    0  0.23312269028E+01  0.49215731414E+02 -0.89402121062E+02  0.10208507280E+03  0.10000000000E+01 0.  0.
    9000005    1    3    3    0    0 -0.23312269028E+01 -0.49215731414E+02 -0.40017965418E+03  0.40320265185E+03  0.10000000000E+01 0.  0.
<mgrwt>
<rscale>  0 0.12500148E+03</rscale>
<asrwt>0</asrwt>
<pdfrwt beam="1">  1        4 0.12081503E-02 0.12500148E+03</pdfrwt>
<pdfrwt beam="2">  1       -4 0.76528398E-01 0.12500148E+03</pdfrwt>
<totfact> 0.55454632E+03</totfact>
</mgrwt>
</event>
<event>
 5    1  0.3486294E-002  0.1250021E+03  0.7818608E-02  0.1235066E+00
         -4   -1    0    0    0  501 -0.00000000000E+00  0.00000000000E+00  0.13081756994E+02  0.13143259339E+02  0.12700000000E+01 0. -1.
          4   -1    0    0  501    0  0.00000000000E+00 -0.00000000000E+00 -0.29784949678E+03  0.29785220434E+03  0.12700000000E+01 0. -1.
         25    2    1    2    0    0  0.00000000000E+00  0.00000000000E+00 -0.28476773978E+03  0.31099546368E+03  0.12500205121E+03 0.  0.
    9000005    1    3    3    0    0 -0.39357682411E+01  0.19559810353E+02 -0.28972482494E+03  0.29041272465E+03  0.10000000000E+01 0.  0.
    9000005    1    3    3    0    0  0.39357682411E+01 -0.19559810353E+02  0.49570851555E+01  0.20582739029E+02  0.10000000000E+01 0.  0.
<mgrwt>
<rscale>  0 0.12500205E+03</rscale>
<asrwt>0</asrwt>
<pdfrwt beam="2">  1        4 0.45827934E-01 0.12500205E+03</pdfrwt>
<pdfrwt beam="1">  1       -4 0.20175175E-02 0.12500205E+03</pdfrwt>
<totfact> 0.74236592E+03</totfact>
</mgrwt>
</event>
<event>
 5    1  0.3486294E-002  0.1250047E+03  0.7818608E-02  0.1235062E+00
         -4   -1    0    0    0  501 -0.00000000000E+00  0.00000000000E+00  0.17513187426E+03  0.17513647902E+03  0.12700000000E+01 0. -1.
          4   -1    0    0  501    0  0.00000000000E+00 -0.00000000000E+00 -0.22283319819E+02  0.22319481225E+02  0.12700000000E+01 0. -1.
         25    2    1    2    0    0  0.00000000000E+00  0.00000000000E+00  0.15284855444E+03  0.19745596024E+03  0.12500470247E+03 0.  0.
    9000005    1    3    3    0    0 -0.60075411018E+02 -0.83959686473E+01  0.52678036808E+02  0.80346268492E+02  0.10000000000E+01 0.  0.
    9000005    1    3    3    0    0  0.60075411018E+02  0.83959686473E+01  0.10017051763E+03  0.11710969175E+03  0.10000000000E+01 0.  0.
<mgrwt>
<rscale>  0 0.12500470E+03</rscale>
<asrwt>0</asrwt>
<pdfrwt beam="2">  1        4 0.34313389E-02 0.12500470E+03</pdfrwt>
<pdfrwt beam="1">  1       -4 0.26946501E-01 0.12500470E+03</pdfrwt>
<totfact> 0.90556409E+03</totfact>
</mgrwt>
</event>
<event>
 5    1  0.3486294E-002  0.1250063E+03  0.7818608E-02  0.1235059E+00
         -4   -1    0    0    0  501 -0.00000000000E+00  0.00000000000E+00  0.11009672271E+03  0.11010404739E+03  0.12700000000E+01 0.  1.
          4   -1    0    0  501    0  0.00000000000E+00 -0.00000000000E+00 -0.35463883456E+02  0.35486616206E+02  0.12700000000E+01 0.  1.
         25    2    1    2    0    0  0.00000000000E+00  0.00000000000E+00  0.74632839256E+02  0.14559066360E+03  0.12500632237E+03 0.  0.
    9000005    1    3    3    0    0 -0.17888174900E+02  0.47801368534E+02  0.79320166637E+02  0.94327336814E+02  0.10000000000E+01 0.  0.
    9000005    1    3    3    0    0  0.17888174900E+02 -0.47801368534E+02 -0.46873273811E+01  0.51263326784E+02  0.10000000000E+01 0.  0.
<mgrwt>
<rscale>  0 0.12500632E+03</rscale>
<asrwt>0</asrwt>
<pdfrwt beam="2">  1        4 0.54582942E-02 0.12500632E+03</pdfrwt>
<pdfrwt beam="1">  1       -4 0.16940269E-01 0.12500632E+03</pdfrwt>
<totfact> 0.10017575E+04</totfact>
</mgrwt>
</event>
<event>
 5    1  0.3486294E-002  0.1250017E+03  0.7818608E-02  0.1235067E+00
          4   -1    0    0  501    0  0.00000000000E+00  0.00000000000E+00  0.42934883391E+02  0.42953662379E+02  0.12700000000E+01 0.  1.
         -4   -1    0    0    0  501 -0.00000000000E+00 -0.00000000000E+00 -0.90940147658E+02  0.90949015146E+02  0.12700000000E+01 0.  1.
         25    2    1    2    0    0  0.00000000000E+00  0.00000000000E+00 -0.48005264267E+02  0.13390267753E+03  0.12500168659E+03 0.  0.
    9000005    1    3    3    0    0 -0.16244715476E+02 -0.51618339447E+02  0.94802830626E+01  0.54947425009E+02  0.10000000000E+01 0.  0.
    9000005    1    3    3    0    0  0.16244715476E+02  0.51618339447E+02 -0.57485547329E+02  0.78955252517E+02  0.10000000000E+01 0.  0.
<mgrwt>
<rscale>  0 0.12500169E+03</rscale>
<asrwt>0</asrwt>
<pdfrwt beam="1">  1        4 0.66074933E-02 0.12500169E+03</pdfrwt>
<pdfrwt beam="2">  1       -4 0.13992919E-01 0.12500169E+03</pdfrwt>
<totfact> 0.10260861E+04</totfact>
</mgrwt>
</event>
<event>
 5    1  0.3486294E-002  0.1250030E+03  0.7818608E-02  0.1235065E+00
         -4   -1    0    0    0  501 -0.00000000000E+00  0.00000000000E+00  0.18921075470E+02  0.18963649357E+02  0.12700000000E+01 0.  1.
          4   -1    0    0  501    0  0.00000000000E+00 -0.00000000000E+00 -0.20618291953E+03  0.20618683083E+03  0.12700000000E+01 0.  1.
         25    2    1    2    0    0  0.00000000000E+00  0.00000000000E+00 -0.18726184406E+03  0.22515048018E+03  0.12500296191E+03 0.  0.
    9000005    1    3    3    0    0  0.18155498090E+02 -0.53350060989E+02 -0.44980095218E+02  0.72111442118E+02  0.10000000000E+01 0.  0.
    9000005    1    3    3    0    0 -0.18155498090E+02  0.53350060989E+02 -0.14228174884E+03  0.15303903807E+03  0.10000000000E+01 0.  0.
<mgrwt>
<rscale>  0 0.12500296E+03</rscale>
<asrwt>0</asrwt>
<pdfrwt beam="2">  1        4 0.31724023E-01 0.12500296E+03</pdfrwt>
<pdfrwt beam="1">  1       -4 0.29145106E-02 0.12500296E+03</pdfrwt>
<totfact> 0.86054163E+03</totfact>
</mgrwt>
</event>
<event>
 5    1  0.3486294E-002  0.1249975E+03  0.7818608E-02  0.1235073E+00
          4   -1    0    0  501    0  0.00000000000E+00  0.00000000000E+00  0.37445964784E+02  0.37467494961E+02  0.12700000000E+01 0. -1.
         -4   -1    0    0    0  501 -0.00000000000E+00 -0.00000000000E+00 -0.10425745124E+03  0.10426518613E+03  0.12700000000E+01 0. -1.
         25    2    1    2    0    0  0.00000000000E+00  0.00000000000E+00 -0.66811486456E+02  0.14173268109E+03  0.12499751264E+03 0.  0.
    9000005    1    3    3    0    0  0.46373906747E+02  0.39914757771E+02 -0.47809526186E+02  0.77656151778E+02  0.10000000000E+01 0.  0.
    9000005    1    3    3    0    0 -0.46373906747E+02 -0.39914757771E+02 -0.19001960270E+02  0.64076529314E+02  0.10000000000E+01 0.  0.
<mgrwt>
<rscale>  0 0.12499751E+03</rscale>
<asrwt>0</asrwt>
<pdfrwt beam="1">  1        4 0.57631688E-02 0.12499751E+03</pdfrwt>
<pdfrwt beam="2">  1       -4 0.16041859E-01 0.12499751E+03</pdfrwt>
<totfact> 0.10098366E+04</totfact>
</mgrwt>
</event>
<event>
 5    1  0.3486294E-002  0.1250027E+03  0.7818608E-02  0.1235065E+00
          4   -1    0    0  501    0  0.00000000000E+00  0.00000000000E+00  0.20071088509E+03  0.20071490302E+03  0.12700000000E+01 0.  1.
         -4   -1    0    0    0  501 -0.00000000000E+00 -0.00000000000E+00 -0.19437968727E+02  0.19479412933E+02  0.12700000000E+01 0.  1.
         25    2    1    2    0    0  0.00000000000E+00  0.00000000000E+00  0.18127291637E+03  0.22019431596E+03  0.12500266625E+03 0.  0.
    9000005    1    3    3    0    0 -0.53346354110E+02 -0.20576992595E+02  0.46206735944E+02  0.73520803639E+02  0.10000000000E+01 0.  0.
    9000005    1    3    3    0    0  0.53346354110E+02  0.20576992595E+02  0.13506618042E+03  0.14667351232E+03  0.10000000000E+01 0.  0.
<mgrwt>
<rscale>  0 0.12500267E+03</rscale>
<asrwt>0</asrwt>
<pdfrwt beam="1">  1        4 0.30882095E-01 0.12500267E+03</pdfrwt>
<pdfrwt beam="2">  1       -4 0.29939538E-02 0.12500267E+03</pdfrwt>
<totfact> 0.86832438E+03</totfact>
</mgrwt>
</event>
<event>
 5    1  0.3486294E-002  0.1249972E+03  0.7818608E-02  0.1235074E+00
          4   -1    0    0  501    0  0.00000000000E+00  0.00000000000E+00  0.10639619486E+02  0.10715148287E+02  0.12700000000E+01 0. -1.
         -4   -1    0    0    0  501 -0.00000000000E+00 -0.00000000000E+00 -0.36575039081E+03  0.36575259572E+03  0.12700000000E+01 0. -1.
         25    2    1    2    0    0  0.00000000000E+00  0.00000000000E+00 -0.35511077133E+03  0.37646774401E+03  0.12499720944E+03 0.  0.
    9000005    1    3    3    0    0 -0.52630815302E+02  0.30980327000E+02 -0.21743112648E+03  0.22584746654E+03  0.10000000000E+01 0.  0.
    9000005    1    3    3    0    0  0.52630815302E+02 -0.30980327000E+02 -0.13767964484E+03  0.15062027747E+03  0.10000000000E+01 0.  0.
<mgrwt>
<rscale>  0 0.12499721E+03</rscale>
<asrwt>0</asrwt>
<pdfrwt beam="1">  1        4 0.16428443E-02 0.12499721E+03</pdfrwt>
<pdfrwt beam="2">  1       -4 0.56275261E-01 0.12499721E+03</pdfrwt>
<totfact> 0.66911806E+03</totfact>
</mgrwt>
</event>
<event>
 5    1  0.3486294E-002  0.1249978E+03  0.7818608E-02  0.1235073E+00
          4   -1    0    0  501    0  0.00000000000E+00  0.00000000000E+00  0.77509579981E+01  0.78543140941E+01  0.12700000000E+01 0.  1.
         -4   -1    0    0    0  501 -0.00000000000E+00 -0.00000000000E+00 -0.50051053795E+03  0.50051214921E+03  0.12700000000E+01 0.  1.
         25    2    1    2    0    0  0.00000000000E+00  0.00000000000E+00 -0.49275957996E+03  0.50836646330E+03  0.12499782946E+03 0.  0.
    9000005    1    3    3    0    0 -0.32085140174E+02  0.51675399747E+02 -0.30465458092E+03  0.31066898274E+03  0.10000000000E+01 0.  0.
    9000005    1    3    3    0    0  0.32085140174E+02 -0.51675399747E+02 -0.18810499903E+03  0.19769748056E+03  0.10000000000E+01 0.  0.
<mgrwt>
<rscale>  0 0.12499783E+03</rscale>
<asrwt>0</asrwt>
<pdfrwt beam="1">  1        4 0.12005299E-02 0.12499783E+03</pdfrwt>
<pdfrwt beam="2">  1       -4 0.77009670E-01 0.12499783E+03</pdfrwt>
<totfact> 0.55223671E+03</totfact>
</mgrwt>
</event>
<event>
 5    1  0.3486294E-002  0.1249992E+03  0.7818608E-02  0.1235071E+00
          4   -1    0    0  501    0  0.00000000000E+00  0.00000000000E+00  0.97903196797E+01  0.98723482228E+01  0.12700000000E+01 0.  1.
         -4   -1    0    0    0  501 -0.00000000000E+00 -0.00000000000E+00 -0.39723833368E+03  0.39724036382E+03  0.12700000000E+01 0.  1.
         25    2    1    2    0    0  0.00000000000E+00  0.00000000000E+00 -0.38744801400E+03  0.40711271204E+03  0.12499918700E+03 0.  0.
    9000005    1    3    3    0    0  0.15447603362E+02  0.17458843169E+02 -0.38256261812E+03  0.38327352692E+03  0.10000000000E+01 0.  0.
    9000005    1    3    3    0    0 -0.15447603362E+02 -0.17458843169E+02 -0.48853958839E+01  0.23839185123E+02  0.10000000000E+01 0.  0.
<mgrwt>
<rscale>  0 0.12499919E+03</rscale>
<asrwt>0</asrwt>
<pdfrwt beam="1">  1        4 0.15126694E-02 0.12499919E+03</pdfrwt>
<pdfrwt beam="2">  1       -4 0.61120043E-01 0.12499919E+03</pdfrwt>
<totfact> 0.63867996E+03</totfact>
</mgrwt>
</event>
<event>
 5    1  0.3486294E-002  0.1249959E+03  0.7818608E-02  0.1235076E+00
          4   -1    0    0  501    0  0.00000000000E+00  0.00000000000E+00  0.17475274669E+03  0.17475736143E+03  0.12700000000E+01 0. -1.
         -4   -1    0    0    0  501 -0.00000000000E+00 -0.00000000000E+00 -0.22328598644E+02  0.22364686839E+02  0.12700000000E+01 0. -1.
         25    2    1    2    0    0  0.00000000000E+00  0.00000000000E+00  0.15242414805E+03  0.19712204827E+03  0.12499592397E+03 0.  0.
    9000005    1    3    3    0    0 -0.22462118558E+02 -0.47808696273E+02  0.23557832616E+02  0.57846259058E+02  0.10000000000E+01 0.  0.
    9000005    1    3    3    0    0  0.22462118558E+02  0.47808696273E+02  0.12886631543E+03  0.13927578922E+03  0.10000000000E+01 0.  0.
<mgrwt>
<rscale>  0 0.12499592E+03</rscale>
<asrwt>0</asrwt>
<pdfrwt beam="1">  1        4 0.26888168E-01 0.12499592E+03</pdfrwt>
<pdfrwt beam="2">  1       -4 0.34383001E-02 0.12499592E+03</pdfrwt>
<totfact> 0.90630925E+03</totfact>
</mgrwt>
</event>
<event>
 5    1  0.3486294E-002  0.1250000E+03  0.7818608E-02  0.1235069E+00
         -4   -1    0    0    0  501 -0.00000000000E+00  0.00000000000E+00  0.18394268162E+04  0.18394272546E+04  0.12700000000E+01 0.  1.
          4   -1    0    0  501    0  0.00000000000E+00 -0.00000000000E+00 -0.19332705628E+01  0.23131007477E+01  0.12700000000E+01 0.  1.
         25    2    1    2    0    0  0.00000000000E+00  0.00000000000E+00  0.18374935456E+04  0.18417403553E+04  0.12500002539E+03 0.  0.
    9000005    1    3    3    0    0 -0.12469901430E+02  0.30950347247E+01  0.17665007968E+02  0.21866188240E+02  0.10000000000E+01 0.  0.
    9000005    1    3    3    0    0  0.12469901430E+02 -0.30950347247E+01  0.18198285376E+04  0.18198741671E+04  0.10000000000E+01 0.  0.
<mgrwt>
<rscale>  0 0.12500003E+03</rscale>
<asrwt>0</asrwt>
<pdfrwt beam="2">  1        4 0.32667538E-03 0.12500003E+03</pdfrwt>
<pdfrwt beam="1">  1       -4 0.28301998E+00 0.12500003E+03</pdfrwt>
<totfact> 0.12071126E+03</totfact>
</mgrwt>
</event>
<event>
 5    1  0.3486294E-002  0.1250038E+03  0.7818608E-02  0.1235063E+00
         -4   -1    0    0    0  501 -0.00000000000E+00  0.00000000000E+00  0.68420890182E+03  0.68421008048E+03  0.12700000000E+01 0.  1.
          4   -1    0    0  501    0  0.00000000000E+00 -0.00000000000E+00 -0.56376716259E+01  0.57789481189E+01  0.12700000000E+01 0.  1.
         25    2    1    2    0    0  0.00000000000E+00  0.00000000000E+00  0.67857123020E+03  0.68998902860E+03  0.12500378050E+03 0.  0.
    9000005    1    3    3    0    0 -0.57730639915E+02 -0.12297549084E+02  0.22597211578E+03  0.23355610378E+03  0.10000000000E+01 0.  0.
    9000005    1    3    3    0    0  0.57730639915E+02  0.12297549084E+02  0.45259911441E+03  0.45643292482E+03  0.10000000000E+01 0.  0.
<mgrwt>
<rscale>  0 0.12500378E+03</rscale>
<asrwt>0</asrwt>
<pdfrwt beam="2">  1        4 0.87829258E-03 0.12500378E+03</pdfrwt>
<pdfrwt beam="1">  1       -4 0.10527382E+00 0.12500378E+03</pdfrwt>
<totfact> 0.43616858E+03</totfact>
</mgrwt>
</event>
<event>
 5    1  0.3486294E-002  0.1250004E+03  0.7818608E-02  0.1235069E+00
          4   -1    0    0  501    0  0.00000000000E+00  0.00000000000E+00  0.13742726581E+03  0.13743313388E+03  0.12700000000E+01 0. -1.
         -4   -1    0    0    0  501 -0.00000000000E+00 -0.00000000000E+00 -0.28403643706E+02  0.28432022014E+02  0.12700000000E+01 0. -1.
         25    2    1    2    0    0  0.00000000000E+00  0.00000000000E+00  0.10902362211E+03  0.16586515590E+03  0.12500039905E+03 0.  0.
    9000005    1    3    3    0    0  0.32788044894E+02  0.12241125928E+02  0.12320939304E+03  0.12808768710E+03  0.10000000000E+01 0.  0.
    9000005    1    3    3    0    0 -0.32788044894E+02 -0.12241125928E+02 -0.14185770935E+02  0.37777468801E+02  0.10000000000E+01 0.  0.
<mgrwt>
<rscale>  0 0.12500040E+03</rscale>
<asrwt>0</asrwt>
<pdfrwt beam="1">  1        4 0.21145291E-01 0.12500040E+03</pdfrwt>
<pdfrwt beam="2">  1       -4 0.43724257E-02 0.12500040E+03</pdfrwt>
<totfact> 0.96222933E+03</totfact>
</mgrwt>
</event>
<event>
 5    1  0.3486294E-002  0.1250014E+03  0.7818608E-02  0.1235067E+00
          4   -1    0    0  501    0  0.00000000000E+00  0.00000000000E+00  0.32422843057E+01  0.34821412262E+01  0.12700000000E+01 0. -1.
         -4   -1    0    0    0  501 -0.00000000000E+00 -0.00000000000E+00 -0.11615956610E+04  0.11615963553E+04  0.12700000000E+01 0. -1.
         25    2    1    2    0    0  0.00000000000E+00  0.00000000000E+00 -0.11583533767E+04  0.11650784965E+04  0.12500143070E+03 0.  0.
    9000005    1    3    3    0    0 -0.29439730539E+02  0.26352274864E+02 -0.12790564364E+03  0.13387305106E+03  0.10000000000E+01 0.  0.
    9000005    1    3    3    0    0  0.29439730539E+02 -0.26352274864E+02 -0.10304477331E+04  0.10312054455E+04  0.10000000000E+01 0.  0.
<mgrwt>
<rscale>  0 0.12500143E+03</rscale>
<asrwt>0</asrwt>
<pdfrwt beam="1">  1        4 0.51731783E-03 0.12500143E+03</pdfrwt>
<pdfrwt beam="2">  1       -4 0.17872521E+00 0.12500143E+03</pdfrwt>
<totfact> 0.25644802E+03</totfact>
</mgrwt>
</event>
<event>
 5    1  0.3486294E-002  0.1249895E+03  0.7818608E-02  0.1235086E+00
          4   -1    0    0  501    0  0.00000000000E+00  0.00000000000E+00  0.39621358769E+03  0.39621562307E+03  0.12700000000E+01 0.  1.
         -4   -1    0    0    0  501 -0.00000000000E+00 -0.00000000000E+00 -0.98143238638E+01  0.98961534398E+01  0.12700000000E+01 0.  1.
         25    2    1    2    0    0  0.00000000000E+00  0.00000000000E+00  0.38639926382E+03  0.40611177651E+03  0.12498953532E+03 0.  0.
    9000005    1    3    3    0    0  0.25802903370E+02  0.16521972194E+02  0.16251859116E+02  0.34697093714E+02  0.10000000000E+01 0.  0.
    9000005    1    3    3    0    0 -0.25802903370E+02 -0.16521972194E+02  0.37014740471E+03  0.37141468280E+03  0.10000000000E+01 0.  0.
<mgrwt>
<rscale>  0 0.12498954E+03</rscale>
<asrwt>0</asrwt>
<pdfrwt beam="1">  1        4 0.60962372E-01 0.12498954E+03</pdfrwt>
<pdfrwt beam="2">  1       -4 0.15163475E-02 0.12498954E+03</pdfrwt>
<totfact> 0.63977458E+03</totfact>
</mgrwt>
</event>
<event>
 5    1  0.3486294E-002  0.1250048E+03  0.7818608E-02  0.1235062E+00
          4   -1    0    0  501    0  0.00000000000E+00  0.00000000000E+00  0.75456223004E+01  0.76517524725E+01  0.12700000000E+01 0.  1.
         -4   -1    0    0    0  501 -0.00000000000E+00 -0.00000000000E+00 -0.51400161642E+03  0.51400318538E+03  0.12700000000E+01 0.  1.
         25    2    1    2    0    0  0.00000000000E+00  0.00000000000E+00 -0.50645599412E+03  0.52165493785E+03  0.12500480074E+03 0.  0.
    9000005    1    3    3    0    0 -0.61055816666E+02  0.33681399374E+01 -0.30705795911E+03  0.31308904064E+03  0.10000000000E+01 0.  0.
    9000005    1    3    3    0    0  0.61055816666E+02 -0.33681399374E+01 -0.19939803501E+03  0.20856589721E+03  0.10000000000E+01 0.  0.
<mgrwt>
<rscale>  0 0.12500480E+03</rscale>
<asrwt>0</asrwt>
<pdfrwt beam="1">  1        4 0.11691499E-02 0.12500480E+03</pdfrwt>
<pdfrwt beam="2">  1       -4 0.79085429E-01 0.12500480E+03</pdfrwt>
<totfact> 0.54216794E+03</totfact>
</mgrwt>
</event>
<event>
 5    1  0.3486294E-002  0.1250017E+03  0.7818608E-02  0.1235067E+00
          4   -1    0    0  501    0  0.00000000000E+00  0.00000000000E+00  0.70536347868E+03  0.70536462199E+03  0.12700000000E+01 0.  1.
         -4   -1    0    0    0  501 -0.00000000000E+00 -0.00000000000E+00 -0.54641041987E+01  0.56097535324E+01  0.12700000000E+01 0.  1.
         25    2    1    2    0    0  0.00000000000E+00  0.00000000000E+00  0.69989937448E+03  0.71097437553E+03  0.12500171299E+03 0.  0.
    9000005    1    3    3    0    0 -0.20403584795E+02  0.38334985771E+02  0.60554784848E+03  0.60710384137E+03  0.10000000000E+01 0.  0.
    9000005    1    3    3    0    0  0.20403584795E+02 -0.38334985771E+02  0.94351526001E+02  0.10387053415E+03  0.10000000000E+01 0.  0.
<mgrwt>
<rscale>  0 0.12500171E+03</rscale>
<asrwt>0</asrwt>
<pdfrwt beam="1">  1        4 0.10852873E+00 0.12500171E+03</pdfrwt>
<pdfrwt beam="2">  1       -4 0.85192335E-03 0.12500171E+03</pdfrwt>
<totfact> 0.42512088E+03</totfact>
</mgrwt>
</event>
<event>
 5    1  0.3486294E-002  0.1249858E+03  0.7818608E-02  0.1235091E+00
         -4   -1    0    0    0  501 -0.00000000000E+00  0.00000000000E+00  0.18889309004E+02  0.18931954327E+02  0.12700000000E+01 0. -1.
          4   -1    0    0  501    0  0.00000000000E+00 -0.00000000000E+00 -0.20647220989E+03  0.20647611571E+03  0.12700000000E+01 0. -1.
         25    2    1    2    0    0  0.00000000000E+00  0.00000000000E+00 -0.18758290089E+03  0.22540807003E+03  0.12498581252E+03 0.  0.
    9000005    1    3    3    0    0  0.72672724738E+01  0.21465197948E+02 -0.19880843233E+03  0.20009837765E+03  0.10000000000E+01 0.  0.
    9000005    1    3    3    0    0 -0.72672724738E+01 -0.21465197948E+02  0.11225531446E+02  0.25309692381E+02  0.10000000000E+01 0.  0.
<mgrwt>
<rscale>  0 0.12498581E+03</rscale>
<asrwt>0</asrwt>
<pdfrwt beam="2">  1        4 0.31768535E-01 0.12498581E+03</pdfrwt>
<pdfrwt beam="1">  1       -4 0.29096285E-02 0.12498581E+03</pdfrwt>
<totfact> 0.86046962E+03</totfact>
</mgrwt>
</event>
<event>
 5    1  0.3486294E-002  0.1250037E+03  0.7818608E-02  0.1235063E+00
          4   -1    0    0  501    0  0.00000000000E+00  0.00000000000E+00  0.27202746472E+03  0.27203042929E+03  0.12700000000E+01 0. -1.
         -4   -1    0    0    0  501 -0.00000000000E+00 -0.00000000000E+00 -0.14329495037E+02  0.14385663976E+02  0.12700000000E+01 0. -1.
         25    2    1    2    0    0  0.00000000000E+00  0.00000000000E+00  0.25769796968E+03  0.28641609327E+03  0.12500373957E+03 0.  0.
    9000005    1    3    3    0    0  0.52028954258E+02 -0.25257376525E+02  0.18309606777E+03  0.19201592950E+03  0.10000000000E+01 0.  0.
    9000005    1    3    3    0    0 -0.52028954258E+02  0.25257376525E+02  0.74601901907E+02  0.94400163762E+02  0.10000000000E+01 0.  0.
<mgrwt>
<rscale>  0 0.12500374E+03</rscale>
<asrwt>0</asrwt>
<pdfrwt beam="1">  1        4 0.41854930E-01 0.12500374E+03</pdfrwt>
<pdfrwt beam="2">  1       -4 0.22090863E-02 0.12500374E+03</pdfrwt>
<totfact> 0.77328569E+03</totfact>
</mgrwt>
</event>
<event>
 5    1  0.3486294E-002  0.1249983E+03  0.7818608E-02  0.1235072E+00
          4   -1    0    0  501    0  0.00000000000E+00  0.00000000000E+00  0.49347066965E+03  0.49347230389E+03  0.12700000000E+01 0.  1.
         -4   -1    0    0    0  501 -0.00000000000E+00 -0.00000000000E+00 -0.78630614194E+01  0.79649629557E+01  0.12700000000E+01 0.  1.
         25    2    1    2    0    0  0.00000000000E+00  0.00000000000E+00  0.48560760823E+03  0.50143726685E+03  0.12499833362E+03 0.  0.
    9000005    1    3    3    0    0  0.36839533893E+02 -0.22567566733E+02  0.61674384621E+02  0.75307211103E+02  0.10000000000E+01 0.  0.
    9000005    1    3    3    0    0 -0.36839533893E+02  0.22567566733E+02  0.42393322361E+03  0.42613005574E+03  0.10000000000E+01 0.  0.
<mgrwt>
<rscale>  0 0.12499833E+03</rscale>
<asrwt>0</asrwt>
<pdfrwt beam="1">  1        4 0.75926536E-01 0.12499833E+03</pdfrwt>
<pdfrwt beam="2">  1       -4 0.12176659E-02 0.12499833E+03</pdfrwt>
<totfact> 0.55755062E+03</totfact>
</mgrwt>
</event>
<event>
 5    1  0.3486294E-002  0.1250042E+03  0.7818608E-02  0.1235063E+00
          4   -1    0    0  501    0  0.00000000000E+00  0.00000000000E+00  0.47070892985E+03  0.47071064312E+03  0.12700000000E+01 0.  1.
         -4   -1    0    0    0  501 -0.00000000000E+00 -0.00000000000E+00 -0.82488909674E+01  0.83460830449E+01  0.12700000000E+01 0.  1.
         25    2    1    2    0    0  0.00000000000E+00  0.00000000000E+00  0.46246003888E+03  0.47905672616E+03  0.12500423719E+03 0.  0.
    9000005    1    3    3    0    0 -0.24973592537E+01 -0.26206064310E+02  0.14017355048E+02  0.29840925797E+02  0.10000000000E+01 0.  0.
    9000005    1    3    3    0    0  0.24973592537E+01  0.26206064310E+02  0.44844268384E+03  0.44921580036E+03  0.10000000000E+01 0.  0.
<mgrwt>
<rscale>  0 0.12500424E+03</rscale>
<asrwt>0</asrwt>
<pdfrwt beam="1">  1        4 0.72424389E-01 0.12500424E+03</pdfrwt>
<pdfrwt beam="2">  1       -4 0.12766679E-02 0.12500424E+03</pdfrwt>
<totfact> 0.57521350E+03</totfact>
</mgrwt>
</event>
<event>
 5    1  0.3486294E-002  0.1249992E+03  0.7818608E-02  0.1235071E+00
          4   -1    0    0  501    0  0.00000000000E+00  0.00000000000E+00  0.20872342947E+02  0.20910944505E+02  0.12700000000E+01 0. -1.
         -4   -1    0    0    0  501 -0.00000000000E+00 -0.00000000000E+00 -0.18693340363E+03  0.18693771769E+03  0.12700000000E+01 0. -1.
         25    2    1    2    0    0  0.00000000000E+00  0.00000000000E+00 -0.16606106069E+03  0.20784866219E+03  0.12499916199E+03 0.  0.
    9000005    1    3    3    0    0  0.59897122793E+02  0.79895786040E+01 -0.10951549868E+03  0.12508454395E+03  0.10000000000E+01 0.  0.
    9000005    1    3    3    0    0 -0.59897122793E+02 -0.79895786040E+01 -0.56545562010E+02  0.82764118241E+02  0.10000000000E+01 0.  0.
<mgrwt>
<rscale>  0 0.12499916E+03</rscale>
<asrwt>0</asrwt>
<pdfrwt beam="1">  1        4 0.32144310E-02 0.12499916E+03</pdfrwt>
<pdfrwt beam="2">  1       -4 0.28762285E-01 0.12499916E+03</pdfrwt>
<totfact> 0.88830097E+03</totfact>
</mgrwt>
</event>
<event>
 5    1  0.3486294E-002  0.1250021E+03  0.7818608E-02  0.1235066E+00
         -4   -1    0    0    0  501 -0.00000000000E+00  0.00000000000E+00  0.24034821091E+02  0.24068351105E+02  0.12700000000E+01 0. -1.
          4   -1    0    0  501    0  0.00000000000E+00 -0.00000000000E+00 -0.16238069190E+03  0.16238565824E+03  0.12700000000E+01 0. -1.
         25    2    1    2    0    0  0.00000000000E+00  0.00000000000E+00 -0.13834587081E+03  0.18645400934E+03  0.12500207051E+03 0.  0.
    9000005    1    3    3    0    0 -0.23397850860E+01 -0.42902757980E+02 -0.14852102125E+01  0.43003803156E+02  0.10000000000E+01 0.  0.
    9000005    1    3    3    0    0  0.23397850860E+01  0.42902757980E+02 -0.13686066060E+03  0.14345020619E+03  0.10000000000E+01 0.  0.
<mgrwt>
<rscale>  0 0.12500207E+03</rscale>
<asrwt>0</asrwt>
<pdfrwt beam="2">  1        4 0.24984606E-01 0.12500207E+03</pdfrwt>
<pdfrwt beam="1">  1       -4 0.37006261E-02 0.12500207E+03</pdfrwt>
<totfact> 0.92463702E+03</totfact>
</mgrwt>
</event>
<event>
 5    1  0.3486294E-002  0.1249755E+03  0.7818608E-02  0.1235108E+00
         -4   -1    0    0    0  501 -0.00000000000E+00  0.00000000000E+00  0.13930177003E+03  0.13930755914E+03  0.12700000000E+01 0. -1.
          4   -1    0    0  501    0  0.00000000000E+00 -0.00000000000E+00 -0.28009873416E+02  0.28038650267E+02  0.12700000000E+01 0. -1.
         25    2    1    2    0    0  0.00000000000E+00  0.00000000000E+00  0.11129189662E+03  0.16734620941E+03  0.12497546780E+03 0.  0.
    9000005    1    3    3    0    0 -0.19626945616E+02  0.59293536667E+02  0.57877116795E+02  0.85156920641E+02  0.10000000000E+01 0.  0.
    9000005    1    3    3    0    0  0.19626945616E+02 -0.59293536667E+02  0.53414779822E+02  0.82189288767E+02  0.10000000000E+01 0.  0.
<mgrwt>
<rscale>  0 0.12497547E+03</rscale>
<asrwt>0</asrwt>
<pdfrwt beam="2">  1        4 0.43118701E-02 0.12497547E+03</pdfrwt>
<pdfrwt beam="1">  1       -4 0.21433701E-01 0.12497547E+03</pdfrwt>
<totfact> 0.95997775E+03</totfact>
</mgrwt>
</event>
<event>
 5    1  0.3486294E-002  0.1250047E+03  0.7818608E-02  0.1235062E+00
         -4   -1    0    0    0  501 -0.00000000000E+00  0.00000000000E+00  0.52773155590E+01  0.54279793210E+01  0.12700000000E+01 0. -1.
          4   -1    0    0  501    0  0.00000000000E+00 -0.00000000000E+00 -0.72968224550E+03  0.72968335071E+03  0.12700000000E+01 0. -1.
         25    2    1    2    0    0  0.00000000000E+00  0.00000000000E+00 -0.72440492994E+03  0.73511133003E+03  0.12500465996E+03 0.  0.
    9000005    1    3    3    0    0  0.49602376225E+02  0.37353513653E+02 -0.32067786882E+03  0.32663584656E+03  0.10000000000E+01 0.  0.
    9000005    1    3    3    0    0 -0.49602376225E+02 -0.37353513653E+02 -0.40372706112E+03  0.40847548346E+03  0.10000000000E+01 0.  0.
<mgrwt>
<rscale>  0 0.12500466E+03</rscale>
<asrwt>0</asrwt>
<pdfrwt beam="2">  1        4 0.11227040E+00 0.12500466E+03</pdfrwt>
<pdfrwt beam="1">  1       -4 0.82356981E-03 0.12500466E+03</pdfrwt>
<totfact> 0.41292404E+03</totfact>
</mgrwt>
</event>
<event>
 5    1  0.3486294E-002  0.1249965E+03  0.7818608E-02  0.1235075E+00
          4   -1    0    0  501    0  0.00000000000E+00  0.00000000000E+00  0.46495263057E+01  0.48198542372E+01  0.12700000000E+01 0.  1.
         -4   -1    0    0    0  501 -0.00000000000E+00 -0.00000000000E+00 -0.82481093385E+03  0.82481191159E+03  0.12700000000E+01 0.  1.
         25    2    1    2    0    0  0.00000000000E+00  0.00000000000E+00 -0.82016140754E+03  0.82963176582E+03  0.12499652972E+03 0.  0.
    9000005    1    3    3    0    0  0.33566578262E+02 -0.33945264160E+02 -0.67772169219E+03  0.67940171342E+03  0.10000000000E+01 0.  0.
    9000005    1    3    3    0    0 -0.33566578262E+02  0.33945264160E+02 -0.14243971535E+03  0.15023005240E+03  0.10000000000E+01 0.  0.
<mgrwt>
<rscale>  0 0.12499653E+03</rscale>
<asrwt>0</asrwt>
<pdfrwt beam="1">  1        4 0.72848975E-03 0.12499653E+03</pdfrwt>
<pdfrwt beam="2">  1       -4 0.12690705E+00 0.12499653E+03</pdfrwt>
<totfact> 0.36978439E+03</totfact>
</mgrwt>
</event>
<event>
 5    1  0.3486294E-002  0.1250017E+03  0.7818608E-02  0.1235067E+00
         -4   -1    0    0    0  501 -0.00000000000E+00  0.00000000000E+00  0.52080937822E+02  0.52096420073E+02  0.12700000000E+01 0.  1.
          4   -1    0    0  501    0  0.00000000000E+00 -0.00000000000E+00 -0.74973533851E+02  0.74984289542E+02  0.12700000000E+01 0.  1.
         25    2    1    2    0    0  0.00000000000E+00  0.00000000000E+00 -0.22892596029E+02  0.12708070962E+03  0.12500174320E+03 0.  0.
    9000005    1    3    3    0    0  0.33778823511E+02  0.30882053143E+02 -0.54705716343E+02  0.71333200718E+02  0.10000000000E+01 0.  0.
    9000005    1    3    3    0    0 -0.33778823511E+02 -0.30882053143E+02  0.31813120314E+02  0.55747508897E+02  0.10000000000E+01 0.  0.
<mgrwt>
<rscale>  0 0.12500174E+03</rscale>
<asrwt>0</asrwt>
<pdfrwt beam="2">  1        4 0.11536408E-01 0.12500174E+03</pdfrwt>
<pdfrwt beam="1">  1       -4 0.80144703E-02 0.12500174E+03</pdfrwt>
<totfact> 0.10406983E+04</totfact>
</mgrwt>
</event>
<event>
 5    1  0.3486294E-002  0.1250045E+03  0.7818608E-02  0.1235062E+00
          4   -1    0    0  501    0  0.00000000000E+00  0.00000000000E+00  0.11241237021E+03  0.11241954401E+03  0.12700000000E+01 0. -1.
         -4   -1    0    0    0  501 -0.00000000000E+00 -0.00000000000E+00 -0.34731897404E+02  0.34755108938E+02  0.12700000000E+01 0. -1.
         25    2    1    2    0    0  0.00000000000E+00  0.00000000000E+00  0.77680472807E+02  0.14717465295E+03  0.12500449038E+03 0.  0.
    9000005    1    3    3    0    0  0.24416719127E+02  0.55047639834E+02  0.58509881703E+02  0.83969191262E+02  0.10000000000E+01 0.  0.
    9000005    1    3    3    0    0 -0.24416719127E+02 -0.55047639834E+02  0.19170591104E+02  0.63205461690E+02  0.10000000000E+01 0.  0.
<mgrwt>
<rscale>  0 0.12500449E+03</rscale>
<asrwt>0</asrwt>
<pdfrwt beam="1">  1        4 0.17296548E-01 0.12500449E+03</pdfrwt>
<pdfrwt beam="2">  1       -4 0.53457061E-02 0.12500449E+03</pdfrwt>
<totfact> 0.99859804E+03</totfact>
</mgrwt>
</event>
<event>
 5    1  0.3486294E-002  0.1249997E+03  0.7818608E-02  0.1235070E+00
          4   -1    0    0  501    0  0.00000000000E+00  0.00000000000E+00  0.32709331747E+03  0.32709578297E+03  0.12700000000E+01 0.  1.
         -4   -1    0    0    0  501 -0.00000000000E+00 -0.00000000000E+00 -0.11905965461E+02  0.11973508824E+02  0.12700000000E+01 0.  1.
         25    2    1    2    0    0  0.00000000000E+00  0.00000000000E+00  0.31518735201E+03  0.33906929179E+03  0.12499967107E+03 0.  0.
    9000005    1    3    3    0    0  0.26274320572E+01 -0.52991003650E+02  0.24716077894E+03  0.25279319712E+03  0.10000000000E+01 0.  0.
    9000005    1    3    3    0    0 -0.26274320572E+01  0.52991003650E+02  0.68026573077E+02  0.86276094671E+02  0.10000000000E+01 0.  0.
<mgrwt>
<rscale>  0 0.12499967E+03</rscale>
<asrwt>0</asrwt>
<pdfrwt beam="1">  1        4 0.50327433E-01 0.12499967E+03</pdfrwt>
<pdfrwt beam="2">  1       -4 0.18370723E-02 0.12499967E+03</pdfrwt>
<totfact> 0.70944562E+03</totfact>
</mgrwt>
</event>
<event>
 5    1  0.3486294E-002  0.1250035E+03  0.7818608E-02  0.1235064E+00
         -4   -1    0    0    0  501 -0.00000000000E+00  0.00000000000E+00  0.80678736367E+02  0.80688731566E+02  0.12700000000E+01 0. -1.
          4   -1    0    0  501    0  0.00000000000E+00 -0.00000000000E+00 -0.48398714677E+02  0.48415374442E+02  0.12700000000E+01 0. -1.
         25    2    1    2    0    0  0.00000000000E+00  0.00000000000E+00  0.32280021690E+02  0.12910410601E+03  0.12500348150E+03 0.  0.
    9000005    1    3    3    0    0  0.44476740339E+02 -0.37823962329E+02  0.39156369938E+02  0.70306855030E+02  0.10000000000E+01 0.  0.
    9000005    1    3    3    0    0 -0.44476740339E+02  0.37823962329E+02 -0.68763482475E+01  0.58797250979E+02  0.10000000000E+01 0.  0.
<mgrwt>
<rscale>  0 0.12500348E+03</rscale>
<asrwt>0</asrwt>
<pdfrwt beam="2">  1        4 0.74480065E-02 0.12500348E+03</pdfrwt>
<pdfrwt beam="1">  1       -4 0.12414164E-01 0.12500348E+03</pdfrwt>
<totfact> 0.10362896E+04</totfact>
</mgrwt>
</event>
<event>
 5    1  0.3486294E-002  0.1249971E+03  0.7818608E-02  0.1235074E+00
          4   -1    0    0  501    0  0.00000000000E+00  0.00000000000E+00  0.65428643436E+01  0.66649811567E+01  0.12700000000E+01 0. -1.
         -4   -1    0    0    0  501 -0.00000000000E+00 -0.00000000000E+00 -0.59135409757E+03  0.59135546131E+03  0.12700000000E+01 0. -1.
         25    2    1    2    0    0  0.00000000000E+00  0.00000000000E+00 -0.58481123323E+03  0.59802044246E+03  0.12499708433E+03 0.  0.
    9000005    1    3    3    0    0 -0.41025966117E+02 -0.30628630821E+02 -0.46382859490E+03  0.46664677044E+03  0.10000000000E+01 0.  0.
    9000005    1    3    3    0    0  0.41025966117E+02  0.30628630821E+02 -0.12098263834E+03  0.13137367202E+03  0.10000000000E+01 0.  0.
<mgrwt>
<rscale>  0 0.12499708E+03</rscale>
<asrwt>0</asrwt>
<pdfrwt beam="1">  1        4 0.10160935E-02 0.12499708E+03</pdfrwt>
<pdfrwt beam="2">  1       -4 0.90987010E-01 0.12499708E+03</pdfrwt>
<totfact> 0.48995954E+03</totfact>
</mgrwt>
</event>
<event>
 5    1  0.3486294E-002  0.1249984E+03  0.7818608E-02  0.1235072E+00
         -4   -1    0    0    0  501 -0.00000000000E+00  0.00000000000E+00  0.15258573044E+03  0.15259101558E+03  0.12700000000E+01 0. -1.
          4   -1    0    0  501    0  0.00000000000E+00 -0.00000000000E+00 -0.25578210433E+02  0.25609719814E+02  0.12700000000E+01 0. -1.
         25    2    1    2    0    0  0.00000000000E+00  0.00000000000E+00  0.12700752001E+03  0.17820073539E+03  0.12499836781E+03 0.  0.
    9000005    1    3    3    0    0 -0.39395142125E+02 -0.18052515741E+02  0.12769292757E+03  0.13484937634E+03  0.10000000000E+01 0.  0.
    9000005    1    3    3    0    0  0.39395142125E+02  0.18052515741E+02 -0.68540756542E+00  0.43351359046E+02  0.10000000000E+01 0.  0.
<mgrwt>
<rscale>  0 0.12499837E+03</rscale>
<asrwt>0</asrwt>
<pdfrwt beam="2">  1        4 0.39379396E-02 0.12499837E+03</pdfrwt>
<pdfrwt beam="1">  1       -4 0.23477558E-01 0.12499837E+03</pdfrwt>
<totfact> 0.93945321E+03</totfact>
</mgrwt>
</event>
<event>
 5    1  0.3486294E-002  0.1250016E+03  0.7818608E-02  0.1235067E+00
          4   -1    0    0  501    0  0.00000000000E+00  0.00000000000E+00  0.17284695914E+01  0.21448792806E+01  0.12700000000E+01 0.  1.
         -4   -1    0    0    0  501 -0.00000000000E+00 -0.00000000000E+00 -0.20166231788E+04  0.20166235787E+04  0.12700000000E+01 0.  1.
         25    2    1    2    0    0  0.00000000000E+00  0.00000000000E+00 -0.20148947092E+04  0.20187684579E+04  0.12500159097E+03 0.  0.
    9000005    1    3    3    0    0 -0.10277924330E+02  0.55860699565E+02 -0.58652646150E+03  0.58927102722E+03  0.10000000000E+01 0.  0.
    9000005    1    3    3    0    0  0.10277924330E+02 -0.55860699565E+02 -0.14283682477E+04  0.14294974307E+04  0.10000000000E+01 0.  0.
<mgrwt>
<rscale>  0 0.12500159E+03</rscale>
<asrwt>0</asrwt>
<pdfrwt beam="1">  1        4 0.29798229E-03 0.12500159E+03</pdfrwt>
<pdfrwt beam="2">  1       -4 0.31028010E+00 0.12500159E+03</pdfrwt>
<totfact> 0.96180014E+02</totfact>
</mgrwt>
</event>
<event>
 5    1  0.3486294E-002  0.1250022E+03  0.7818608E-02  0.1235066E+00
         -4   -1    0    0    0  501 -0.00000000000E+00  0.00000000000E+00  0.71765492271E+03  0.71765604644E+03  0.12700000000E+01 0.  1.
          4   -1    0    0  501    0  0.00000000000E+00 -0.00000000000E+00 -0.53680486150E+01  0.55162347605E+01  0.12700000000E+01 0.  1.
         25    2    1    2    0    0  0.00000000000E+00  0.00000000000E+00  0.71228687409E+03  0.72317228120E+03  0.12500222913E+03 0.  0.
    9000005    1    3    3    0    0  0.67120039956E+01  0.23470162993E+02  0.68895969670E+03  0.68939274962E+03  0.10000000000E+01 0.  0.
    9000005    1    3    3    0    0 -0.67120039956E+01 -0.23470162993E+02  0.23327177391E+02  0.33779531578E+02  0.10000000000E+01 0.  0.
<mgrwt>
<rscale>  0 0.12500223E+03</rscale>
<asrwt>0</asrwt>
<pdfrwt beam="2">  1        4 0.83733902E-03 0.12500223E+03</pdfrwt>
<pdfrwt beam="1">  1       -4 0.11041993E+00 0.12500223E+03</pdfrwt>
<totfact> 0.41889277E+03</totfact>
</mgrwt>
</event>
<event>
 5    1  0.3486294E-002  0.1250118E+03  0.7818608E-02  0.1235051E+00
          4   -1    0    0  501    0  0.00000000000E+00  0.00000000000E+00  0.22258568718E+03  0.22258931025E+03  0.12700000000E+01 0. -1.
         -4   -1    0    0    0  501 -0.00000000000E+00 -0.00000000000E+00 -0.17526001786E+02  0.17571956027E+02  0.12700000000E+01 0. -1.
         25    2    1    2    0    0  0.00000000000E+00  0.00000000000E+00  0.20505968539E+03  0.24016126627E+03  0.12501183642E+03 0.  0.
    9000005    1    3    3    0    0  0.15838395665E+02  0.59768653800E+02  0.85044268903E+02  0.10515072243E+03  0.10000000000E+01 0.  0.
    9000005    1    3    3    0    0 -0.15838395665E+02 -0.59768653800E+02  0.12001541649E+03  0.13501054384E+03  0.10000000000E+01 0.  0.
<mgrwt>
<rscale>  0 0.12501184E+03</rscale>
<asrwt>0</asrwt>
<pdfrwt beam="1">  1        4 0.34247766E-01 0.12501184E+03</pdfrwt>
<pdfrwt beam="2">  1       -4 0.27001216E-02 0.12501184E+03</pdfrwt>
<totfact> 0.83751253E+03</totfact>
</mgrwt>
</event>
<event>
 5    1  0.3486294E-002  0.1250034E+03  0.7818608E-02  0.1235064E+00
         -4   -1    0    0    0  501 -0.00000000000E+00  0.00000000000E+00  0.71080336966E+03  0.71080450422E+03  0.12700000000E+01 0.  1.
          4   -1    0    0  501    0  0.00000000000E+00 -0.00000000000E+00 -0.54213195848E+01  0.55680881854E+01  0.12700000000E+01 0.  1.
         25    2    1    2    0    0  0.00000000000E+00  0.00000000000E+00  0.70538205008E+03  0.71637259241E+03  0.12500341828E+03 0.  0.
    9000005    1    3    3    0    0  0.46197649548E+02 -0.26840749726E+02  0.16691904949E+03  0.17526442238E+03  0.10000000000E+01 0.  0.
    9000005    1    3    3    0    0 -0.46197649548E+02  0.26840749726E+02  0.53846300059E+03  0.54110817003E+03  0.10000000000E+01 0.  0.
<mgrwt>
<rscale>  0 0.12500342E+03</rscale>
<asrwt>0</asrwt>
<pdfrwt beam="2">  1        4 0.84542630E-03 0.12500342E+03</pdfrwt>
<pdfrwt beam="1">  1       -4 0.10936575E+00 0.12500342E+03</pdfrwt>
<totfact> 0.42233223E+03</totfact>
</mgrwt>
</event>
<event>
 5    1  0.3486294E-002  0.1249909E+03  0.7818608E-02  0.1235084E+00
          4   -1    0    0  501    0  0.00000000000E+00  0.00000000000E+00  0.12522692044E+02  0.12586926393E+02  0.12700000000E+01 0. -1.
         -4   -1    0    0    0  501 -0.00000000000E+00 -0.00000000000E+00 -0.31102484319E+03  0.31102743606E+03  0.12700000000E+01 0. -1.
         25    2    1    2    0    0  0.00000000000E+00  0.00000000000E+00 -0.29850215114E+03  0.32361436245E+03  0.12499088505E+03 0.  0.
    9000005    1    3    3    0    0 -0.17489752116E+02 -0.38140736231E+02 -0.29364862097E+02  0.51224040404E+02  0.10000000000E+01 0.  0.
    9000005    1    3    3    0    0  0.17489752116E+02  0.38140736231E+02 -0.26913728905E+03  0.27239032205E+03  0.10000000000E+01 0.  0.
<mgrwt>
<rscale>  0 0.12499089E+03</rscale>
<asrwt>0</asrwt>
<pdfrwt beam="1">  1        4 0.19317088E-02 0.12499089E+03</pdfrwt>
<pdfrwt beam="2">  1       -4 0.47855111E-01 0.12499089E+03</pdfrwt>
<totfact> 0.72742993E+03</totfact>
</mgrwt>
</event>
<event>
 5    1  0.3486294E-002  0.1250027E+03  0.7818608E-02  0.1235065E+00
         -4   -1    0    0    0  501 -0.00000000000E+00  0.00000000000E+00  0.10499083568E+02  0.10575616094E+02  0.12700000000E+01 0.  1.
          4   -1    0    0  501    0  0.00000000000E+00 -0.00000000000E+00 -0.37064378353E+03  0.37064595934E+03  0.12700000000E+01 0.  1.
         25    2    1    2    0    0  0.00000000000E+00  0.00000000000E+00 -0.36014469997E+03  0.38122157543E+03  0.12500273861E+03 0.  0.
    9000005    1    3    3    0    0  0.59077300122E+02 -0.26274887923E+01 -0.11844187213E+03  0.13238771907E+03  0.10000000000E+01 0.  0.
    9000005    1    3    3    0    0 -0.59077300122E+02  0.26274887923E+01 -0.24170282783E+03  0.24883385636E+03  0.10000000000E+01 0.  0.
<mgrwt>
<rscale>  0 0.12500274E+03</rscale>
<asrwt>0</asrwt>
<pdfrwt beam="2">  1        4 0.57028165E-01 0.12500274E+03</pdfrwt>
<pdfrwt beam="1">  1       -4 0.16212984E-02 0.12500274E+03</pdfrwt>
<totfact> 0.66417049E+03</totfact>
</mgrwt>
</event>
<event>
 5    1  0.3486294E-002  0.1249998E+03  0.7818608E-02  0.1235070E+00
         -4   -1    0    0    0  501 -0.00000000000E+00  0.00000000000E+00  0.50002081804E+02  0.50018207532E+02  0.12700000000E+01 0.  1.
          4   -1    0    0  501    0  0.00000000000E+00 -0.00000000000E+00 -0.78087672048E+02  0.78097998859E+02  0.12700000000E+01 0.  1.
         25    2    1    2    0    0  0.00000000000E+00  0.00000000000E+00 -0.28085590244E+02  0.12811620639E+03  0.12499984784E+03 0.  0.
    9000005    1    3    3    0    0 -0.53292572977E+02  0.32635868310E+02 -0.14253480855E+02  0.64104289649E+02  0.10000000000E+01 0.  0.
    9000005    1    3    3    0    0  0.53292572977E+02 -0.32635868310E+02 -0.13832109389E+02  0.64011916742E+02  0.10000000000E+01 0.  0.
<mgrwt>
<rscale>  0 0.12499985E+03</rscale>
<asrwt>0</asrwt>
<pdfrwt beam="2">  1        4 0.12015523E-01 0.12499985E+03</pdfrwt>
<pdfrwt beam="1">  1       -4 0.76946628E-02 0.12499985E+03</pdfrwt>
<totfact> 0.10385014E+04</totfact>
</mgrwt>
</event>
<event>
 5    1  0.3486294E-002  0.1250016E+03  0.7818608E-02  0.1235067E+00
         -4   -1    0    0    0  501 -0.00000000000E+00  0.00000000000E+00  0.44013292578E+02  0.44031611639E+02  0.12700000000E+01 0.  1.
          4   -1    0    0  501    0  0.00000000000E+00 -0.00000000000E+00 -0.88712550967E+02  0.88721641098E+02  0.12700000000E+01 0.  1.
         25    2    1    2    0    0  0.00000000000E+00  0.00000000000E+00 -0.44699258389E+02  0.13275325274E+03  0.12500160964E+03 0.  0.
    9000005    1    3    3    0    0 -0.44472702889E+02 -0.41055316158E+02 -0.58289248610E+01  0.60813951130E+02  0.10000000000E+01 0.  0.
    9000005    1    3    3    0    0  0.44472702889E+02  0.41055316158E+02 -0.38870333528E+02  0.71939301607E+02  0.10000000000E+01 0.  0.
<mgrwt>
<rscale>  0 0.12500161E+03</rscale>
<asrwt>0</asrwt>
<pdfrwt beam="2">  1        4 0.13650193E-01 0.12500161E+03</pdfrwt>
<pdfrwt beam="1">  1       -4 0.67733842E-02 0.12500161E+03</pdfrwt>
<totfact> 0.10285273E+04</totfact>
</mgrwt>
</event>
<event>
 5    1  0.3486294E-002  0.1250048E+03  0.7818608E-02  0.1235062E+00
          4   -1    0    0  501    0  0.00000000000E+00  0.00000000000E+00  0.35778969360E+03  0.35779194757E+03  0.12700000000E+01 0.  1.
         -4   -1    0    0    0  501 -0.00000000000E+00 -0.00000000000E+00 -0.10879338449E+02  0.10953214372E+02  0.12700000000E+01 0.  1.
         25    2    1    2    0    0  0.00000000000E+00  0.00000000000E+00  0.34691035515E+03  0.36874516194E+03  0.12500479969E+03 0.  0.
    9000005    1    3    3    0    0 -0.21841718651E+02 -0.53280775647E+02  0.24508537575E+03  0.25176128204E+03  0.10000000000E+01 0.  0.
    9000005    1    3    3    0    0  0.21841718651E+02  0.53280775647E+02  0.10182497939E+03  0.11698387990E+03  0.10000000000E+01 0.  0.
<mgrwt>
<rscale>  0 0.12500480E+03</rscale>
<asrwt>0</asrwt>
<pdfrwt beam="1">  1        4 0.55050417E-01 0.12500480E+03</pdfrwt>
<pdfrwt beam="2">  1       -4 0.16796007E-02 0.12500480E+03</pdfrwt>
<totfact> 0.67703239E+03</totfact>
</mgrwt>
</event>
<event>
 5    1  0.3486294E-002  0.1250329E+03  0.7818608E-02  0.1235018E+00
          4   -1    0    0  501    0  0.00000000000E+00  0.00000000000E+00  0.38673705458E+02  0.38694552509E+02  0.12700000000E+01 0.  1.
         -4   -1    0    0    0  501 -0.00000000000E+00 -0.00000000000E+00 -0.10100649210E+03  0.10101447593E+03  0.12700000000E+01 0.  1.
         25    2    1    2    0    0  0.00000000000E+00  0.00000000000E+00 -0.62332786643E+02  0.13970902844E+03  0.12503294100E+03 0.  0.
    9000005    1    3    3    0    0  0.13670334638E+02 -0.59010080201E+02 -0.48413200397E+02  0.77549375156E+02  0.10000000000E+01 0.  0.
    9000005    1    3    3    0    0 -0.13670334638E+02  0.59010080201E+02 -0.13919586246E+02  0.62159653279E+02  0.10000000000E+01 0.  0.
<mgrwt>
<rscale>  0 0.12503294E+03</rscale>
<asrwt>0</asrwt>
<pdfrwt beam="1">  1        4 0.59520186E-02 0.12503294E+03</pdfrwt>
<pdfrwt beam="2">  1       -4 0.15541678E-01 0.12503294E+03</pdfrwt>
<totfact> 0.10132098E+04</totfact>
</mgrwt>
</event>
<event>
 5    1  0.3486294E-002  0.1249992E+03  0.7818608E-02  0.1235071E+00
          4   -1    0    0  501    0  0.00000000000E+00  0.00000000000E+00  0.50170357980E+01  0.51752824269E+01  0.12700000000E+01 0. -1.
         -4   -1    0    0    0  501 -0.00000000000E+00 -0.00000000000E+00 -0.76633949897E+03  0.76634055131E+03  0.12700000000E+01 0. -1.
         25    2    1    2    0    0  0.00000000000E+00  0.00000000000E+00 -0.76132246317E+03  0.77151583374E+03  0.12499915510E+03 0.  0.
    9000005    1    3    3    0    0 -0.47411412271E+02 -0.40538329752E+02 -0.35756791583E+03  0.36296971310E+03  0.10000000000E+01 0.  0.
    9000005    1    3    3    0    0  0.47411412271E+02  0.40538329752E+02 -0.40375454734E+03  0.40854612064E+03  0.10000000000E+01 0.  0.
<mgrwt>
<rscale>  0 0.12499916E+03</rscale>
<asrwt>0</asrwt>
<pdfrwt beam="1">  1        4 0.78410604E-03 0.12499916E+03</pdfrwt>
<pdfrwt beam="2">  1       -4 0.11791055E+00 0.12499916E+03</pdfrwt>
<totfact> 0.39566310E+03</totfact>
</mgrwt>
</event>
<event>
 5    1  0.3486294E-002  0.1249941E+03  0.7818608E-02  0.1235079E+00
          4   -1    0    0  501    0  0.00000000000E+00  0.00000000000E+00  0.11782068914E+04  0.11782075759E+04  0.12700000000E+01 0. -1.
         -4   -1    0    0    0  501 -0.00000000000E+00 -0.00000000000E+00 -0.31927619550E+01  0.34360775459E+01  0.12700000000E+01 0. -1.
         25    2    1    2    0    0  0.00000000000E+00  0.00000000000E+00  0.11750141295E+04  0.11816436535E+04  0.12499407693E+03 0.  0.
    9000005    1    3    3    0    0  0.56921147440E+02  0.12441779495E+02  0.80101293410E+03  0.80312983726E+03  0.10000000000E+01 0.  0.
    9000005    1    3    3    0    0 -0.56921147440E+02 -0.12441779495E+02  0.37400119538E+03  0.37851381619E+03  0.10000000000E+01 0.  0.
<mgrwt>
<rscale>  0 0.12499408E+03</rscale>
<asrwt>0</asrwt>
<pdfrwt beam="1">  1        4 0.18128091E+00 0.12499408E+03</pdfrwt>
<pdfrwt beam="2">  1       -4 0.50996468E-03 0.12499408E+03</pdfrwt>
<totfact> 0.25201680E+03</totfact>
</mgrwt>
</event>
<event>
 5    1  0.3486294E-002  0.1249993E+03  0.7818608E-02  0.1235070E+00
         -4   -1    0    0    0  501 -0.00000000000E+00  0.00000000000E+00  0.32828257278E+02  0.32852813821E+02  0.12700000000E+01 0. -1.
          4   -1    0    0  501    0  0.00000000000E+00 -0.00000000000E+00 -0.11891663587E+03  0.11892341732E+03  0.12700000000E+01 0. -1.
         25    2    1    2    0    0  0.00000000000E+00  0.00000000000E+00 -0.86088378589E+02  0.15177623114E+03  0.12499926164E+03 0.  0.
    9000005    1    3    3    0    0 -0.34875235111E+02 -0.49134507498E+02 -0.22918858036E+02  0.64472908301E+02  0.10000000000E+01 0.  0.
    9000005    1    3    3    0    0  0.34875235111E+02  0.49134507498E+02 -0.63169520553E+02  0.87303322835E+02  0.10000000000E+01 0.  0.
<mgrwt>
<rscale>  0 0.12499926E+03</rscale>
<asrwt>0</asrwt>
<pdfrwt beam="2">  1        4 0.18297277E-01 0.12499926E+03</pdfrwt>
<pdfrwt beam="1">  1       -4 0.50529118E-02 0.12499926E+03</pdfrwt>
<totfact> 0.98952449E+03</totfact>
</mgrwt>
</event>
<event>
 5    1  0.3486294E-002  0.1249822E+03  0.7818608E-02  0.1235097E+00
         -4   -1    0    0    0  501 -0.00000000000E+00  0.00000000000E+00  0.48858344847E+02  0.48874847940E+02  0.12700000000E+01 0. -1.
          4   -1    0    0  501    0  0.00000000000E+00 -0.00000000000E+00 -0.79892735801E+02  0.79902829323E+02  0.12700000000E+01 0. -1.
         25    2    1    2    0    0  0.00000000000E+00  0.00000000000E+00 -0.31034390954E+02  0.12877767726E+03  0.12498222569E+03 0.  0.
    9000005    1    3    3    0    0  0.11349909162E+02 -0.55744627819E+02  0.11110494651E+02  0.57971778134E+02  0.10000000000E+01 0.  0.
    9000005    1    3    3    0    0 -0.11349909162E+02  0.55744627819E+02 -0.42144885606E+02  0.70805899128E+02  0.10000000000E+01 0.  0.
<mgrwt>
<rscale>  0 0.12498223E+03</rscale>
<asrwt>0</asrwt>
<pdfrwt beam="2">  1        4 0.12293236E-01 0.12498223E+03</pdfrwt>
<pdfrwt beam="1">  1       -4 0.75187143E-02 0.12498223E+03</pdfrwt>
<totfact> 0.10374889E+04</totfact>
</mgrwt>
</event>
<event>
 5    1  0.3486294E-002  0.1250001E+03  0.7818608E-02  0.1235069E+00
         -4   -1    0    0    0  501 -0.00000000000E+00  0.00000000000E+00  0.18912580173E+02  0.18955173141E+02  0.12700000000E+01 0. -1.
          4   -1    0    0  501    0  0.00000000000E+00 -0.00000000000E+00 -0.20626587444E+03  0.20626978417E+03  0.12700000000E+01 0. -1.
         25    2    1    2    0    0  0.00000000000E+00  0.00000000000E+00 -0.18735329427E+03  0.22522495731E+03  0.12500009808E+03 0.  0.
    9000005    1    3    3    0    0 -0.21342905154E+02 -0.49245257077E+02 -0.36001054786E+02  0.64635059300E+02  0.10000000000E+01 0.  0.
    9000005    1    3    3    0    0  0.21342905154E+02  0.49245257077E+02 -0.15135223949E+03  0.16058989801E+03  0.10000000000E+01 0.  0.
<mgrwt>
<rscale>  0 0.12500010E+03</rscale>
<asrwt>0</asrwt>
<pdfrwt beam="2">  1        4 0.31736787E-01 0.12500010E+03</pdfrwt>
<pdfrwt beam="1">  1       -4 0.29132050E-02 0.12500010E+03</pdfrwt>
<totfact> 0.86048056E+03</totfact>
</mgrwt>
</event>
<event>
 5    1  0.3486294E-002  0.1249966E+03  0.7818608E-02  0.1235075E+00
         -4   -1    0    0    0  501 -0.00000000000E+00  0.00000000000E+00  0.14492315256E+02  0.14547855563E+02  0.12700000000E+01 0.  1.
          4   -1    0    0  501    0  0.00000000000E+00 -0.00000000000E+00 -0.26895231656E+03  0.26895531503E+03  0.12700000000E+01 0.  1.
         25    2    1    2    0    0  0.00000000000E+00  0.00000000000E+00 -0.25446000130E+03  0.28350317059E+03  0.12499662185E+03 0.  0.
    9000005    1    3    3    0    0 -0.33053618906E+02 -0.51153820979E+02 -0.15896569171E+03  0.17023614852E+03  0.10000000000E+01 0.  0.
    9000005    1    3    3    0    0  0.33053618906E+02  0.51153820979E+02 -0.95494309591E+02  0.11326702207E+03  0.10000000000E+01 0.  0.
<mgrwt>
<rscale>  0 0.12499662E+03</rscale>
<asrwt>0</asrwt>
<pdfrwt beam="2">  1        4 0.41381779E-01 0.12499662E+03</pdfrwt>
<pdfrwt beam="1">  1       -4 0.22340901E-02 0.12499662E+03</pdfrwt>
<totfact> 0.77721728E+03</totfact>
</mgrwt>
</event>
<event>
 5    1  0.3486294E-002  0.1250006E+03  0.7818608E-02  0.1235068E+00
         -4   -1    0    0    0  501 -0.00000000000E+00  0.00000000000E+00  0.19723049425E+03  0.19723458308E+03  0.12700000000E+01 0. -1.
          4   -1    0    0  501    0  0.00000000000E+00 -0.00000000000E+00 -0.19781054900E+02  0.19821781781E+02  0.12700000000E+01 0. -1.
         25    2    1    2    0    0  0.00000000000E+00  0.00000000000E+00  0.17744943935E+03  0.21705636486E+03  0.12500064800E+03 0.  0.
    9000005    1    3    3    0    0 -0.91237289253E+01 -0.31631172102E+02 -0.35115219574E+01  0.33122564281E+02  0.10000000000E+01 0.  0.
    9000005    1    3    3    0    0  0.91237289253E+01  0.31631172102E+02  0.18096096131E+03  0.18393380058E+03  0.10000000000E+01 0.  0.
<mgrwt>
<rscale>  0 0.12500065E+03</rscale>
<asrwt>0</asrwt>
<pdfrwt beam="2">  1        4 0.30466865E-02 0.12500065E+03</pdfrwt>
<pdfrwt beam="1">  1       -4 0.30346601E-01 0.12500065E+03</pdfrwt>
<totfact> 0.87335029E+03</totfact>
</mgrwt>
</event>
<event>
 5    1  0.3486294E-002  0.1250017E+03  0.7818608E-02  0.1235067E+00
          4   -1    0    0  501    0  0.00000000000E+00  0.00000000000E+00  0.23878112493E+02  0.23911862250E+02  0.12700000000E+01 0.  1.
         -4   -1    0    0    0  501 -0.00000000000E+00 -0.00000000000E+00 -0.16344398759E+03  0.16344892162E+03  0.12700000000E+01 0.  1.
         25    2    1    2    0    0  0.00000000000E+00  0.00000000000E+00 -0.13956587510E+03  0.18736078387E+03  0.12500171935E+03 0.  0.
    9000005    1    3    3    0    0 -0.50051638685E+02  0.65154382462E+01 -0.14553450093E+02  0.52539702894E+02  0.10000000000E+01 0.  0.
    9000005    1    3    3    0    0  0.50051638685E+02 -0.65154382462E+01 -0.12501242500E+03  0.13482108098E+03  0.10000000000E+01 0.  0.
<mgrwt>
<rscale>  0 0.12500172E+03</rscale>
<asrwt>0</asrwt>
<pdfrwt beam="1">  1        4 0.36765316E-02 0.12500172E+03</pdfrwt>
<pdfrwt beam="2">  1       -4 0.25148204E-01 0.12500172E+03</pdfrwt>
<totfact> 0.92305012E+03</totfact>
</mgrwt>
</event>
<event>
 5    1  0.3486294E-002  0.1249981E+03  0.7818608E-02  0.1235072E+00
         -4   -1    0    0    0  501 -0.00000000000E+00  0.00000000000E+00  0.46172816199E+03  0.46172990858E+03  0.12700000000E+01 0. -1.
          4   -1    0    0  501    0  0.00000000000E+00 -0.00000000000E+00 -0.84103743295E+01  0.85057213898E+01  0.12700000000E+01 0. -1.
         25    2    1    2    0    0  0.00000000000E+00  0.00000000000E+00  0.45331778766E+03  0.47023562997E+03  0.12499812431E+03 0.  0.
    9000005    1    3    3    0    0  0.37521707303E+02 -0.46271740632E+02  0.29765703299E+03  0.30356162766E+03  0.10000000000E+01 0.  0.
    9000005    1    3    3    0    0 -0.37521707303E+02  0.46271740632E+02  0.15566075467E+03  0.16667400231E+03  0.10000000000E+01 0.  0.
<mgrwt>
<rscale>  0 0.12499812E+03</rscale>
<asrwt>0</asrwt>
<pdfrwt beam="2">  1        4 0.13013720E-02 0.12499812E+03</pdfrwt>
<pdfrwt beam="1">  1       -4 0.71042599E-01 0.12499812E+03</pdfrwt>
<totfact> 0.58252395E+03</totfact>
</mgrwt>
</event>
<event>
 5    1  0.3486294E-002  0.1249998E+03  0.7818608E-02  0.1235070E+00
         -4   -1    0    0    0  501 -0.00000000000E+00  0.00000000000E+00  0.67660512379E+01  0.68842101474E+01  0.12700000000E+01 0. -1.
          4   -1    0    0  501    0  0.00000000000E+00 -0.00000000000E+00 -0.57221247210E+03  0.57221388145E+03  0.12700000000E+01 0. -1.
         25    2    1    2    0    0  0.00000000000E+00  0.00000000000E+00 -0.56544642086E+03  0.57909809160E+03  0.12499977931E+03 0.  0.
    9000005    1    3    3    0    0 -0.49729429105E+02 -0.36768861985E+02 -0.32423026249E+03  0.33007760973E+03  0.10000000000E+01 0.  0.
    9000005    1    3    3    0    0  0.49729429105E+02  0.36768861985E+02 -0.24121615837E+03  0.24902048187E+03  0.10000000000E+01 0.  0.
<mgrwt>
<rscale>  0 0.12499978E+03</rscale>
<asrwt>0</asrwt>
<pdfrwt beam="2">  1        4 0.88041848E-01 0.12499978E+03</pdfrwt>
<pdfrwt beam="1">  1       -4 0.10501290E-02 0.12499978E+03</pdfrwt>
<totfact> 0.50214409E+03</totfact>
</mgrwt>
</event>
<event>
 5    1  0.3486294E-002  0.1249998E+03  0.7818608E-02  0.1235070E+00
          4   -1    0    0  501    0  0.00000000000E+00  0.00000000000E+00  0.17170020970E+03  0.17170490648E+03  0.12700000000E+01 0.  1.
         -4   -1    0    0    0  501 -0.00000000000E+00 -0.00000000000E+00 -0.22727586424E+02  0.22763042078E+02  0.12700000000E+01 0.  1.
         25    2    1    2    0    0  0.00000000000E+00  0.00000000000E+00  0.14897262327E+03  0.19446794856E+03  0.12499976213E+03 0.  0.
    9000005    1    3    3    0    0 -0.49373314603E+02 -0.32313809058E+01  0.15101016014E+02  0.51741730760E+02  0.10000000000E+01 0.  0.
    9000005    1    3    3    0    0  0.49373314603E+02  0.32313809058E+01  0.13387160726E+03  0.14272621780E+03  0.10000000000E+01 0.  0.
<mgrwt>
<rscale>  0 0.12499976E+03</rscale>
<asrwt>0</asrwt>
<pdfrwt beam="1">  1        4 0.26418505E-01 0.12499976E+03</pdfrwt>
<pdfrwt beam="2">  1       -4 0.34996405E-02 0.12499976E+03</pdfrwt>
<totfact> 0.91076151E+03</totfact>
</mgrwt>
</event>
<event>
 5    1  0.3486294E-002  0.1249925E+03  0.7818608E-02  0.1235081E+00
         -4   -1    0    0    0  501 -0.00000000000E+00  0.00000000000E+00  0.23856193688E+02  0.23889974409E+02  0.12700000000E+01 0. -1.
          4   -1    0    0  501    0  0.00000000000E+00 -0.00000000000E+00 -0.16356971050E+03  0.16357464074E+03  0.12700000000E+01 0. -1.
         25    2    1    2    0    0  0.00000000000E+00  0.00000000000E+00 -0.13971351681E+03  0.18746461515E+03  0.12499246038E+03 0.  0.
    9000005    1    3    3    0    0  0.34273213870E+02  0.65967285378E+01  0.78820182278E+01  0.35795198389E+02  0.10000000000E+01 0.  0.
    9000005    1    3    3    0    0 -0.34273213870E+02 -0.65967285378E+01 -0.14759553504E+03  0.15166941676E+03  0.10000000000E+01 0.  0.
<mgrwt>
<rscale>  0 0.12499246E+03</rscale>
<asrwt>0</asrwt>
<pdfrwt beam="2">  1        4 0.25167548E-01 0.12499246E+03</pdfrwt>
<pdfrwt beam="1">  1       -4 0.36731615E-02 0.12499246E+03</pdfrwt>
<totfact> 0.92305936E+03</totfact>
</mgrwt>
</event>
<event>
 5    1  0.3486294E-002  0.1249971E+03  0.7818608E-02  0.1235074E+00
         -4   -1    0    0    0  501 -0.00000000000E+00  0.00000000000E+00  0.27694970659E+03  0.27695261847E+03  0.12700000000E+01 0.  1.
          4   -1    0    0  501    0  0.00000000000E+00 -0.00000000000E+00 -0.14072308494E+02  0.14129499862E+02  0.12700000000E+01 0.  1.
         25    2    1    2    0    0  0.00000000000E+00  0.00000000000E+00  0.26287739809E+03  0.29108211833E+03  0.12499709271E+03 0.  0.
    9000005    1    3    3    0    0 -0.78472996653E+01  0.59210552452E+02  0.88651291493E+02  0.10689958427E+03  0.10000000000E+01 0.  0.
    9000005    1    3    3    0    0  0.78472996653E+01 -0.59210552452E+02  0.17422610660E+03  0.18418253406E+03  0.10000000000E+01 0.  0.
<mgrwt>
<rscale>  0 0.12499709E+03</rscale>
<asrwt>0</asrwt>
<pdfrwt beam="2">  1        4 0.21695939E-02 0.12499709E+03</pdfrwt>
<pdfrwt beam="1">  1       -4 0.42612269E-01 0.12499709E+03</pdfrwt>
<totfact> 0.76736228E+03</totfact>
</mgrwt>
</event>
<event>
 5    1  0.3486294E-002  0.1250007E+03  0.7818608E-02  0.1235068E+00
          4   -1    0    0  501    0  0.00000000000E+00  0.00000000000E+00  0.63182605925E+01  0.64446347387E+01  0.12700000000E+01 0. -1.
         -4   -1    0    0    0  501 -0.00000000000E+00 -0.00000000000E+00 -0.61200535541E+03  0.61200667312E+03  0.12700000000E+01 0. -1.
         25    2    1    2    0    0  0.00000000000E+00  0.00000000000E+00 -0.60568709481E+03  0.61845130786E+03  0.12500065348E+03 0.  0.
    9000005    1    3    3    0    0 -0.17915808384E+02  0.17232937513E+02 -0.19172132335E+02  0.31408931590E+02  0.10000000000E+01 0.  0.
    9000005    1    3    3    0    0  0.17915808384E+02 -0.17232937513E+02 -0.58651496248E+03  0.58704237627E+03  0.10000000000E+01 0.  0.
<mgrwt>
<rscale>  0 0.12500065E+03</rscale>
<asrwt>0</asrwt>
<pdfrwt beam="1">  1        4 0.98186303E-03 0.12500065E+03</pdfrwt>
<pdfrwt beam="2">  1       -4 0.94164446E-01 0.12500065E+03</pdfrwt>
<totfact> 0.47722580E+03</totfact>
</mgrwt>
</event>
<event>
 5    1  0.3486294E-002  0.1249999E+03  0.7818608E-02  0.1235069E+00
          4   -1    0    0  501    0  0.00000000000E+00  0.00000000000E+00  0.88939453642E+02  0.88948520584E+02  0.12700000000E+01 0.  1.
         -4   -1    0    0    0  501 -0.00000000000E+00 -0.00000000000E+00 -0.43899767426E+02  0.43918133841E+02  0.12700000000E+01 0.  1.
         25    2    1    2    0    0  0.00000000000E+00  0.00000000000E+00  0.45039686215E+02  0.13286665443E+03  0.12499989809E+03 0.  0.
    9000005    1    3    3    0    0  0.26477204838E+02  0.36208541326E+02  0.68768383036E+02  0.82110847922E+02  0.10000000000E+01 0.  0.
    9000005    1    3    3    0    0 -0.26477204838E+02 -0.36208541326E+02 -0.23728696821E+02  0.50755806503E+02  0.10000000000E+01 0.  0.
<mgrwt>
<rscale>  0 0.12499990E+03</rscale>
<asrwt>0</asrwt>
<pdfrwt beam="1">  1        4 0.13685103E-01 0.12499990E+03</pdfrwt>
<pdfrwt beam="2">  1       -4 0.67559206E-02 0.12499990E+03</pdfrwt>
<totfact> 0.10283258E+04</totfact>
</mgrwt>
</event>
<event>
 5    1  0.3486294E-002  0.1250104E+03  0.7818608E-02  0.1235053E+00
         -4   -1    0    0    0  501 -0.00000000000E+00  0.00000000000E+00  0.15531283395E+02  0.15583121122E+02  0.12700000000E+01 0. -1.
          4   -1    0    0  501    0  0.00000000000E+00 -0.00000000000E+00 -0.25107789668E+03  0.25108110861E+03  0.12700000000E+01 0. -1.
         25    2    1    2    0    0  0.00000000000E+00  0.00000000000E+00 -0.23554661328E+03  0.26666422973E+03  0.12501041712E+03 0.  0.
    9000005    1    3    3    0    0  0.61709049994E+02 -0.87085423339E+01 -0.12779122232E+03  0.14218101865E+03  0.10000000000E+01 0.  0.
    9000005    1    3    3    0    0 -0.61709049994E+02  0.87085423339E+01 -0.10775539096E+03  0.12448321108E+03  0.10000000000E+01 0.  0.
<mgrwt>
<rscale>  0 0.12501042E+03</rscale>
<asrwt>0</asrwt>
<pdfrwt beam="2">  1        4 0.38631600E-01 0.12501042E+03</pdfrwt>
<pdfrwt beam="1">  1       -4 0.23936630E-02 0.12501042E+03</pdfrwt>
<totfact> 0.79961300E+03</totfact>
</mgrwt>
</event>
<event>
 5    1  0.3486294E-002  0.1250016E+03  0.7818608E-02  0.1235067E+00
         -4   -1    0    0    0  501 -0.00000000000E+00  0.00000000000E+00  0.43661380231E+02  0.43679846882E+02  0.12700000000E+01 0.  1.
          4   -1    0    0  501    0  0.00000000000E+00 -0.00000000000E+00 -0.89427297715E+02  0.89436315200E+02  0.12700000000E+01 0.  1.
         25    2    1    2    0    0  0.00000000000E+00  0.00000000000E+00 -0.45765917484E+02  0.13311616208E+03  0.12500157361E+03 0.  0.
    9000005    1    3    3    0    0  0.22463673897E+02 -0.55178963684E+02 -0.27897800547E+01  0.59649958516E+02  0.10000000000E+01 0.  0.
    9000005    1    3    3    0    0 -0.22463673897E+02  0.55178963684E+02 -0.42976137429E+02  0.73466203566E+02  0.10000000000E+01 0.  0.
<mgrwt>
<rscale>  0 0.12500157E+03</rscale>
<asrwt>0</asrwt>
<pdfrwt beam="2">  1        4 0.13760160E-01 0.12500157E+03</pdfrwt>
<pdfrwt beam="1">  1       -4 0.67192496E-02 0.12500157E+03</pdfrwt>
<totfact> 0.10277567E+04</totfact>
</mgrwt>
</event>
<event>
 5    1  0.3486294E-002  0.1249931E+03  0.7818608E-02  0.1235080E+00
          4   -1    0    0  501    0  0.00000000000E+00  0.00000000000E+00  0.12053396008E+03  0.12054065054E+03  0.12700000000E+01 0.  1.
         -4   -1    0    0    0  501 -0.00000000000E+00 -0.00000000000E+00 -0.32384245015E+02  0.32409137989E+02  0.12700000000E+01 0.  1.
         25    2    1    2    0    0  0.00000000000E+00  0.00000000000E+00  0.88149715068E+02  0.15294978853E+03  0.12499306199E+03 0.  0.
    9000005    1    3    3    0    0 -0.26297737697E+02  0.49656388187E+02  0.10619534423E+02  0.57193552147E+02  0.10000000000E+01 0.  0.
    9000005    1    3    3    0    0  0.26297737697E+02 -0.49656388187E+02  0.77530180645E+02  0.95756236385E+02  0.10000000000E+01 0.  0.
<mgrwt>
<rscale>  0 0.12499306E+03</rscale>
<asrwt>0</asrwt>
<pdfrwt beam="1">  1        4 0.18546116E-01 0.12499306E+03</pdfrwt>
<pdfrwt beam="2">  1       -4 0.49846211E-02 0.12499306E+03</pdfrwt>
<totfact> 0.98734330E+03</totfact>
</mgrwt>
</event>
<event>
 5    1  0.3486294E-002  0.1250026E+03  0.7818608E-02  0.1235065E+00
         -4   -1    0    0    0  501 -0.00000000000E+00  0.00000000000E+00  0.85884908035E+01  0.86818819551E+01  0.12700000000E+01 0. -1.
          4   -1    0    0  501    0  0.00000000000E+00 -0.00000000000E+00 -0.45228878376E+03  0.45229056680E+03  0.12700000000E+01 0. -1.
         25    2    1    2    0    0  0.00000000000E+00  0.00000000000E+00 -0.44370029296E+03  0.46097244875E+03  0.12500259413E+03 0.  0.
    9000005    1    3    3    0    0 -0.57061968523E+02  0.14141990994E+02 -0.30002144704E+03  0.30572852802E+03  0.10000000000E+01 0.  0.
    9000005    1    3    3    0    0  0.57061968523E+02 -0.14141990994E+02 -0.14367884591E+03  0.15524392073E+03  0.10000000000E+01 0.  0.
<mgrwt>
<rscale>  0 0.12500259E+03</rscale>
<asrwt>0</asrwt>
<pdfrwt beam="2">  1        4 0.69590192E-01 0.12500259E+03</pdfrwt>
<pdfrwt beam="1">  1       -4 0.13286277E-02 0.12500259E+03</pdfrwt>
<totfact> 0.59021537E+03</totfact>
</mgrwt>
</event>
<event>
 5    1  0.3486294E-002  0.1249975E+03  0.7818608E-02  0.1235073E+00
          4   -1    0    0  501    0  0.00000000000E+00  0.00000000000E+00  0.27857954117E+03  0.27858243602E+03  0.12700000000E+01 0. -1.
         -4   -1    0    0    0  501 -0.00000000000E+00 -0.00000000000E+00 -0.13989741832E+02  0.14047269362E+02  0.12700000000E+01 0. -1.
         25    2    1    2    0    0  0.00000000000E+00  0.00000000000E+00  0.26458979934E+03  0.29262970539E+03  0.12499753021E+03 0.  0.
    9000005    1    3    3    0    0  0.14765784227E+02  0.54547329895E+02  0.69842079700E+02  0.89846289179E+02  0.10000000000E+01 0.  0.
    9000005    1    3    3    0    0 -0.14765784227E+02 -0.54547329895E+02  0.19474771964E+03  0.20278341621E+03  0.10000000000E+01 0.  0.
<mgrwt>
<rscale>  0 0.12499753E+03</rscale>
<asrwt>0</asrwt>
<pdfrwt beam="1">  1        4 0.42863038E-01 0.12499753E+03</pdfrwt>
<pdfrwt beam="2">  1       -4 0.21569159E-02 0.12499753E+03</pdfrwt>
<totfact> 0.76536951E+03</totfact>
</mgrwt>
</event>
<event>
 5    1  0.3486294E-002  0.1250017E+03  0.7818608E-02  0.1235067E+00
         -4   -1    0    0    0  501 -0.00000000000E+00  0.00000000000E+00  0.99908669401E+01  0.10071262196E+02  0.12700000000E+01 0.  1.
          4   -1    0    0  501    0  0.00000000000E+00 -0.00000000000E+00 -0.38934434485E+03  0.38934641615E+03  0.12700000000E+01 0.  1.
         25    2    1    2    0    0  0.00000000000E+00  0.00000000000E+00 -0.37935347791E+03  0.39941767834E+03  0.12500168227E+03 0.  0.
    9000005    1    3    3    0    0 -0.55067361670E+01  0.60602482422E+02 -0.23513204894E+03  0.24288076387E+03  0.10000000000E+01 0.  0.
    9000005    1    3    3    0    0  0.55067361670E+01 -0.60602482422E+02 -0.14422142897E+03  0.15653691447E+03  0.10000000000E+01 0.  0.
<mgrwt>
<rscale>  0 0.12500168E+03</rscale>
<asrwt>0</asrwt>
<pdfrwt beam="2">  1        4 0.59905462E-01 0.12500168E+03</pdfrwt>
<pdfrwt beam="1">  1       -4 0.15434003E-02 0.12500168E+03</pdfrwt>
<totfact> 0.64607070E+03</totfact>
</mgrwt>
</event>
<event>
 5    1  0.3486294E-002  0.1250037E+03  0.7818608E-02  0.1235064E+00
          4   -1    0    0  501    0  0.00000000000E+00  0.00000000000E+00  0.28443249767E+01  0.31149774594E+01  0.12700000000E+01 0. -1.
         -4   -1    0    0    0  501 -0.00000000000E+00 -0.00000000000E+00 -0.13107820301E+04  0.13107826453E+04  0.12700000000E+01 0. -1.
         25    2    1    2    0    0  0.00000000000E+00  0.00000000000E+00 -0.13079377051E+04  0.13138976228E+04  0.12500369084E+03 0.  0.
    9000005    1    3    3    0    0 -0.52267357916E+02 -0.32131228804E+02 -0.52907595042E+03  0.53262243088E+03  0.10000000000E+01 0.  0.
    9000005    1    3    3    0    0  0.52267357916E+02  0.32131228804E+02 -0.77886175470E+03  0.78127519192E+03  0.10000000000E+01 0.  0.
<mgrwt>
<rscale>  0 0.12500369E+03</rscale>
<asrwt>0</asrwt>
<pdfrwt beam="1">  1        4 0.45845625E-03 0.12500369E+03</pdfrwt>
<pdfrwt beam="2">  1       -4 0.20167918E+00 0.12500369E+03</pdfrwt>
<totfact> 0.21901173E+03</totfact>
</mgrwt>
</event>
<event>
 5    1  0.3486294E-002  0.1249978E+03  0.7818608E-02  0.1235073E+00
          4   -1    0    0  501    0  0.00000000000E+00  0.00000000000E+00  0.88689457673E+01  0.89594139888E+01  0.12700000000E+01 0. -1.
         -4   -1    0    0    0  501 -0.00000000000E+00 -0.00000000000E+00 -0.43809957001E+03  0.43810141080E+03  0.12700000000E+01 0. -1.
         25    2    1    2    0    0  0.00000000000E+00  0.00000000000E+00 -0.42923062424E+03  0.44706082479E+03  0.12499780906E+03 0.  0.
    9000005    1    3    3    0    0  0.10409028943E+02  0.61180840431E+02 -0.24081703222E+03  0.24868712497E+03  0.10000000000E+01 0.  0.
    9000005    1    3    3    0    0 -0.10409028943E+02 -0.61180840431E+02 -0.18841359203E+03  0.19837369982E+03  0.10000000000E+01 0.  0.
<mgrwt>
<rscale>  0 0.12499781E+03</rscale>
<asrwt>0</asrwt>
<pdfrwt beam="1">  1        4 0.13715542E-02 0.12499781E+03</pdfrwt>
<pdfrwt beam="2">  1       -4 0.67407018E-01 0.12499781E+03</pdfrwt>
<totfact> 0.60222178E+03</totfact>
</mgrwt>
</event>
<event>
 5    1  0.3486294E-002  0.1249988E+03  0.7818608E-02  0.1235071E+00
          4   -1    0    0  501    0  0.00000000000E+00  0.00000000000E+00  0.52297265851E+03  0.52297420056E+03  0.12700000000E+01 0. -1.
         -4   -1    0    0    0  501 -0.00000000000E+00 -0.00000000000E+00 -0.74136261587E+01  0.75216190293E+01  0.12700000000E+01 0. -1.
         25    2    1    2    0    0  0.00000000000E+00  0.00000000000E+00  0.51555903236E+03  0.53049581959E+03  0.12499879504E+03 0.  0.
    9000005    1    3    3    0    0  0.26750358415E+02  0.21695555996E+02  0.36484095779E+02  0.50183344549E+02  0.10000000000E+01 0.  0.
    9000005    1    3    3    0    0 -0.26750358415E+02 -0.21695555996E+02  0.47907493658E+03  0.48031247504E+03  0.10000000000E+01 0.  0.
<mgrwt>
<rscale>  0 0.12499880E+03</rscale>
<asrwt>0</asrwt>
<pdfrwt beam="1">  1        4 0.80465752E-01 0.12499880E+03</pdfrwt>
<pdfrwt beam="2">  1       -4 0.11489837E-02 0.12499880E+03</pdfrwt>
<totfact> 0.53574959E+03</totfact>
</mgrwt>
</event>
<event>
 5    1  0.3486294E-002  0.1250007E+03  0.7818608E-02  0.1235068E+00
          4   -1    0    0  501    0  0.00000000000E+00  0.00000000000E+00  0.84106882107E+02  0.84116469956E+02  0.12700000000E+01 0. -1.
         -4   -1    0    0    0  501 -0.00000000000E+00 -0.00000000000E+00 -0.46423517408E+02  0.46440885742E+02  0.12700000000E+01 0. -1.
         25    2    1    2    0    0  0.00000000000E+00  0.00000000000E+00  0.37683364699E+02  0.13055735570E+03  0.12500074860E+03 0.  0.
    9000005    1    3    3    0    0 -0.25849916194E+02  0.56311302309E+02  0.27334299259E+02  0.67729940580E+02  0.10000000000E+01 0.  0.
    9000005    1    3    3    0    0  0.25849916194E+02 -0.56311302309E+02  0.10349065440E+02  0.62827415118E+02  0.10000000000E+01 0.  0.
<mgrwt>
<rscale>  0 0.12500075E+03</rscale>
<asrwt>0</asrwt>
<pdfrwt beam="1">  1        4 0.12941594E-01 0.12500075E+03</pdfrwt>
<pdfrwt beam="2">  1       -4 0.71441532E-02 0.12500075E+03</pdfrwt>
<totfact> 0.10332414E+04</totfact>
</mgrwt>
</event>
<event>
 5    1  0.3486294E-002  0.1250012E+03  0.7818608E-02  0.1235067E+00
         -4   -1    0    0    0  501 -0.00000000000E+00  0.00000000000E+00  0.44096156316E+03  0.44096339200E+03  0.12700000000E+01 0.  1.
          4   -1    0    0  501    0  0.00000000000E+00 -0.00000000000E+00 -0.88112790272E+01  0.89023332950E+01  0.12700000000E+01 0.  1.
         25    2    1    2    0    0  0.00000000000E+00  0.00000000000E+00  0.43215028413E+03  0.44986572530E+03  0.12500121087E+03 0.  0.
    9000005    1    3    3    0    0  0.24114586757E+02  0.52414574113E+02  0.30248786399E+03  0.30794270366E+03  0.10000000000E+01 0.  0.
    9000005    1    3    3    0    0 -0.24114586757E+02 -0.52414574113E+02  0.12966242014E+03  0.14192302164E+03  0.10000000000E+01 0.  0.
<mgrwt>
<rscale>  0 0.12500121E+03</rscale>
<asrwt>0</asrwt>
<pdfrwt beam="2">  1        4 0.13627262E-02 0.12500121E+03</pdfrwt>
<pdfrwt beam="1">  1       -4 0.67847387E-01 0.12500121E+03</pdfrwt>
<totfact> 0.59973826E+03</totfact>
</mgrwt>
</event>
<event>
 5    1  0.3486294E-002  0.1250052E+03  0.7818608E-02  0.1235061E+00
         -4   -1    0    0    0  501 -0.00000000000E+00  0.00000000000E+00  0.16078164053E+03  0.16078665626E+03  0.12700000000E+01 0. -1.
          4   -1    0    0  501    0  0.00000000000E+00 -0.00000000000E+00 -0.24275392281E+02  0.24308590465E+02  0.12700000000E+01 0. -1.
         25    2    1    2    0    0  0.00000000000E+00  0.00000000000E+00  0.13650624825E+03  0.18509524673E+03  0.12500517809E+03 0.  0.
    9000005    1    3    3    0    0  0.16629717479E+01  0.36820068829E+02  0.14298217520E+03  0.14765969446E+03  0.10000000000E+01 0.  0.
    9000005    1    3    3    0    0 -0.16629717479E+01 -0.36820068829E+02 -0.64759269493E+01  0.37435552266E+02  0.10000000000E+01 0.  0.
<mgrwt>
<rscale>  0 0.12500518E+03</rscale>
<asrwt>0</asrwt>
<pdfrwt beam="2">  1        4 0.37376152E-02 0.12500518E+03</pdfrwt>
<pdfrwt beam="1">  1       -4 0.24738577E-01 0.12500518E+03</pdfrwt>
<totfact> 0.92697041E+03</totfact>
</mgrwt>
</event>
<event>
 5    1  0.3486294E-002  0.1250069E+03  0.7818608E-02  0.1235058E+00
         -4   -1    0    0    0  501 -0.00000000000E+00  0.00000000000E+00  0.48641445345E+03  0.48641611139E+03  0.12700000000E+01 0. -1.
          4   -1    0    0  501    0  0.00000000000E+00 -0.00000000000E+00 -0.79797084104E+01  0.80801390034E+01  0.12700000000E+01 0. -1.
         25    2    1    2    0    0  0.00000000000E+00  0.00000000000E+00  0.47843474503E+03  0.49449625039E+03  0.12500694540E+03 0.  0.
    9000005    1    3    3    0    0 -0.16985750381E+02 -0.24431415889E+02  0.45661362501E+03  0.45758322996E+03  0.10000000000E+01 0.  0.
    9000005    1    3    3    0    0  0.16985750381E+02  0.24431415889E+02  0.21821120028E+02  0.36913020434E+02  0.10000000000E+01 0.  0.
<mgrwt>
<rscale>  0 0.12500695E+03</rscale>
<asrwt>0</asrwt>
<pdfrwt beam="2">  1        4 0.12355001E-02 0.12500695E+03</pdfrwt>
<pdfrwt beam="1">  1       -4 0.74840867E-01 0.12500695E+03</pdfrwt>
<totfact> 0.56285322E+03</totfact>
</mgrwt>
</event>
<event>
 5    1  0.3486294E-002  0.1250006E+03  0.7818608E-02  0.1235068E+00
          4   -1    0    0  501    0  0.00000000000E+00  0.00000000000E+00  0.89687392673E+02  0.89696384010E+02  0.12700000000E+01 0. -1.
         -4   -1    0    0    0  501 -0.00000000000E+00 -0.00000000000E+00 -0.43534018633E+02  0.43552539287E+02  0.12700000000E+01 0. -1.
         25    2    1    2    0    0  0.00000000000E+00  0.00000000000E+00  0.46153374040E+02  0.13324892330E+03  0.12500056650E+03 0.  0.
    9000005    1    3    3    0    0 -0.57393459987E+02 -0.19237549360E+02  0.39631868396E+02  0.72358672924E+02  0.10000000000E+01 0.  0.
    9000005    1    3    3    0    0  0.57393459987E+02  0.19237549360E+02  0.65215056438E+01  0.60890250374E+02  0.10000000000E+01 0.  0.
<mgrwt>
<rscale>  0 0.12500057E+03</rscale>
<asrwt>0</asrwt>
<pdfrwt beam="1">  1        4 0.13800176E-01 0.12500057E+03</pdfrwt>
<pdfrwt beam="2">  1       -4 0.66996578E-02 0.12500057E+03</pdfrwt>
<totfact> 0.10274981E+04</totfact>
</mgrwt>
</event>
<event>
 5    1  0.3486294E-002  0.1250084E+03  0.7818608E-02  0.1235056E+00
          4   -1    0    0  501    0  0.00000000000E+00  0.00000000000E+00  0.63037847901E+03  0.63037975832E+03  0.12700000000E+01 0.  1.
         -4   -1    0    0    0  501 -0.00000000000E+00 -0.00000000000E+00 -0.61311413333E+01  0.62612933208E+01  0.12700000000E+01 0.  1.
         25    2    1    2    0    0  0.00000000000E+00  0.00000000000E+00  0.62424733768E+03  0.63664105164E+03  0.12500835987E+03 0.  0.
    9000005    1    3    3    0    0 -0.42203324371E+02  0.41684478240E+02  0.41231787150E+03  0.41656421291E+03  0.10000000000E+01 0.  0.
    9000005    1    3    3    0    0  0.42203324371E+02 -0.41684478240E+02  0.21192946617E+03  0.22007683873E+03  0.10000000000E+01 0.  0.
<mgrwt>
<rscale>  0 0.12500836E+03</rscale>
<asrwt>0</asrwt>
<pdfrwt beam="1">  1        4 0.96991413E-01 0.12500836E+03</pdfrwt>
<pdfrwt beam="2">  1       -4 0.95336262E-03 0.12500836E+03</pdfrwt>
<totfact> 0.46624950E+03</totfact>
</mgrwt>
</event>
<event>
 5    1  0.3486294E-002  0.1250006E+03  0.7818608E-02  0.1235068E+00
         -4   -1    0    0    0  501 -0.00000000000E+00  0.00000000000E+00  0.22046683372E+02  0.22083232275E+02  0.12700000000E+01 0. -1.
          4   -1    0    0  501    0  0.00000000000E+00 -0.00000000000E+00 -0.17699701418E+03  0.17700157041E+03  0.12700000000E+01 0. -1.
         25    2    1    2    0    0  0.00000000000E+00  0.00000000000E+00 -0.15495033081E+03  0.19908480269E+03  0.12500061457E+03 0.  0.
    9000005    1    3    3    0    0  0.48067884741E+02  0.31466525149E+02 -0.38312802295E+02  0.69061817005E+02  0.10000000000E+01 0.  0.
    9000005    1    3    3    0    0 -0.48067884741E+02 -0.31466525149E+02 -0.11663752851E+03  0.13002298568E+03  0.10000000000E+01 0.  0.
<mgrwt>
<rscale>  0 0.12500061E+03</rscale>
<asrwt>0</asrwt>
<pdfrwt beam="2">  1        4 0.27233471E-01 0.12500061E+03</pdfrwt>
<pdfrwt beam="1">  1       -4 0.33949595E-02 0.12500061E+03</pdfrwt>
<totfact> 0.90288850E+03</totfact>
</mgrwt>
</event>
<event>
 5    1  0.3486294E-002  0.1250005E+03  0.7818608E-02  0.1235068E+00
          4   -1    0    0  501    0  0.00000000000E+00  0.00000000000E+00  0.71769639186E+03  0.71769751552E+03  0.12700000000E+01 0. -1.
         -4   -1    0    0    0  501 -0.00000000000E+00 -0.00000000000E+00 -0.53675798296E+01  0.55157785694E+01  0.12700000000E+01 0. -1.
         25    2    1    2    0    0  0.00000000000E+00  0.00000000000E+00  0.71232881203E+03  0.72321329409E+03  0.12500052922E+03 0.  0.
    9000005    1    3    3    0    0  0.11329520226E+02 -0.51383723803E+02  0.55122324281E+03  0.55372981544E+03  0.10000000000E+01 0.  0.
    9000005    1    3    3    0    0 -0.11329520226E+02  0.51383723803E+02  0.16110556922E+03  0.16948347865E+03  0.10000000000E+01 0.  0.
<mgrwt>
<rscale>  0 0.12500053E+03</rscale>
<asrwt>0</asrwt>
<pdfrwt beam="1">  1        4 0.11042621E+00 0.12500053E+03</pdfrwt>
<pdfrwt beam="2">  1       -4 0.83726868E-03 0.12500053E+03</pdfrwt>
<totfact> 0.41888802E+03</totfact>
</mgrwt>
</event>
<event>
 5    1  0.3486294E-002  0.1250114E+03  0.7818608E-02  0.1235051E+00
         -4   -1    0    0    0  501 -0.00000000000E+00  0.00000000000E+00  0.27751869672E+02  0.27780913777E+02  0.12700000000E+01 0. -1.
          4   -1    0    0  501    0  0.00000000000E+00 -0.00000000000E+00 -0.14067650138E+03  0.14068223391E+03  0.12700000000E+01 0. -1.
         25    2    1    2    0    0  0.00000000000E+00  0.00000000000E+00 -0.11292463170E+03  0.16846314769E+03  0.12501143822E+03 0.  0.
    9000005    1    3    3    0    0 -0.23151198845E+02  0.53985211658E+02 -0.27698975995E+02  0.64950861095E+02  0.10000000000E+01 0.  0.
    9000005    1    3    3    0    0  0.23151198845E+02 -0.53985211658E+02 -0.85225655708E+02  0.10351228660E+03  0.10000000000E+01 0.  0.
<mgrwt>
<rscale>  0 0.12501144E+03</rscale>
<asrwt>0</asrwt>
<pdfrwt beam="2">  1        4 0.21645213E-01 0.12501144E+03</pdfrwt>
<pdfrwt beam="1">  1       -4 0.42721936E-02 0.12501144E+03</pdfrwt>
<totfact> 0.95710931E+03</totfact>
</mgrwt>
</event>
<event>
 5    1  0.3486294E-002  0.1250005E+03  0.7818608E-02  0.1235068E+00
          4   -1    0    0  501    0  0.00000000000E+00  0.00000000000E+00  0.79260607004E+02  0.79270781015E+02  0.12700000000E+01 0. -1.
         -4   -1    0    0    0  501 -0.00000000000E+00 -0.00000000000E+00 -0.49262531567E+02  0.49278899302E+02  0.12700000000E+01 0. -1.
         25    2    1    2    0    0  0.00000000000E+00  0.00000000000E+00  0.29998075437E+02  0.12854968032E+03  0.12500054312E+03 0.  0.
    9000005    1    3    3    0    0 -0.37305050485E+02  0.44732047011E+02 -0.82858577915E+01  0.58841127291E+02  0.10000000000E+01 0.  0.
    9000005    1    3    3    0    0  0.37305050485E+02 -0.44732047011E+02  0.38283933228E+02  0.69708553026E+02  0.10000000000E+01 0.  0.
<mgrwt>
<rscale>  0 0.12500054E+03</rscale>
<asrwt>0</asrwt>
<pdfrwt beam="1">  1        4 0.12195981E-01 0.12500054E+03</pdfrwt>
<pdfrwt beam="2">  1       -4 0.75808926E-02 0.12500054E+03</pdfrwt>
<totfact> 0.10375506E+04</totfact>
</mgrwt>
</event>
<event>
 5    1  0.3486294E-002  0.1250009E+03  0.7818608E-02  0.1235068E+00
          4   -1    0    0  501    0  0.00000000000E+00  0.00000000000E+00  0.10217536535E+03  0.10218325785E+03  0.12700000000E+01 0. -1.
         -4   -1    0    0    0  501 -0.00000000000E+00 -0.00000000000E+00 -0.38211453147E+02  0.38232552250E+02  0.12700000000E+01 0. -1.
         25    2    1    2    0    0  0.00000000000E+00  0.00000000000E+00  0.63963912205E+02  0.14041581010E+03  0.12500087064E+03 0.  0.
    9000005    1    3    3    0    0 -0.52325719226E+02 -0.34151159037E+02  0.30846426327E+02  0.69690634760E+02  0.10000000000E+01 0.  0.
    9000005    1    3    3    0    0  0.52325719226E+02  0.34151159037E+02  0.33117485878E+02  0.70725175340E+02  0.10000000000E+01 0.  0.
<mgrwt>
<rscale>  0 0.12500087E+03</rscale>
<asrwt>0</asrwt>
<pdfrwt beam="1">  1        4 0.15721517E-01 0.12500087E+03</pdfrwt>
<pdfrwt beam="2">  1       -4 0.58809153E-02 0.12500087E+03</pdfrwt>
<totfact> 0.10124777E+04</totfact>
</mgrwt>
</event>
<event>
 5    1  0.3486294E-002  0.1250001E+03  0.7818608E-02  0.1235069E+00
         -4   -1    0    0    0  501 -0.00000000000E+00  0.00000000000E+00  0.26856248205E+01  0.29707710576E+01  0.12700000000E+01 0. -1.
          4   -1    0    0  501    0  0.00000000000E+00 -0.00000000000E+00 -0.13808962590E+04  0.13808968430E+04  0.12700000000E+01 0. -1.
         25    2    1    2    0    0  0.00000000000E+00  0.00000000000E+00 -0.13782106342E+04  0.13838676141E+04  0.12500008434E+03 0.  0.
    9000005    1    3    3    0    0  0.21320834965E+02 -0.56676217532E+02 -0.51813782932E+03  0.52166520088E+03  0.10000000000E+01 0.  0.
    9000005    1    3    3    0    0 -0.21320834965E+02  0.56676217532E+02 -0.86007280486E+03  0.86220241318E+03  0.10000000000E+01 0.  0.
<mgrwt>
<rscale>  0 0.12500008E+03</rscale>
<asrwt>0</asrwt>
<pdfrwt beam="2">  1        4 0.21246702E+00 0.12500008E+03</pdfrwt>
<pdfrwt beam="1">  1       -4 0.43515340E-03 0.12500008E+03</pdfrwt>
<totfact> 0.20329820E+03</totfact>
</mgrwt>
</event>
<event>
 5    1  0.3486294E-002  0.1250012E+03  0.7818608E-02  0.1235067E+00
          4   -1    0    0  501    0  0.00000000000E+00  0.00000000000E+00  0.39585398061E+01  0.41572752371E+01  0.12700000000E+01 0.  1.
         -4   -1    0    0    0  501 -0.00000000000E+00 -0.00000000000E+00 -0.96244556172E+03  0.96244639963E+03  0.12700000000E+01 0.  1.
         25    2    1    2    0    0  0.00000000000E+00  0.00000000000E+00 -0.95848702191E+03  0.96660367487E+03  0.12500117241E+03 0.  0.
    9000005    1    3    3    0    0  0.61423170051E+02  0.45645313248E+01 -0.56096324400E+03  0.56433536296E+03  0.10000000000E+01 0.  0.
    9000005    1    3    3    0    0 -0.61423170051E+02 -0.45645313248E+01 -0.39752377791E+03  0.40226831191E+03  0.10000000000E+01 0.  0.
<mgrwt>
<rscale>  0 0.12500117E+03</rscale>
<asrwt>0</asrwt>
<pdfrwt beam="1">  1        4 0.62435869E-03 0.12500117E+03</pdfrwt>
<pdfrwt beam="2">  1       -4 0.14808372E+00 0.12500117E+03</pdfrwt>
<totfact> 0.31732942E+03</totfact>
</mgrwt>
</event>
<event>
 5    1  0.3486294E-002  0.1250043E+03  0.7818608E-02  0.1235063E+00
         -4   -1    0    0    0  501 -0.00000000000E+00  0.00000000000E+00  0.12907806059E+02  0.12970133278E+02  0.12700000000E+01 0.  1.
          4   -1    0    0  501    0  0.00000000000E+00 -0.00000000000E+00 -0.30185497429E+03  0.30185764593E+03  0.12700000000E+01 0.  1.
         25    2    1    2    0    0  0.00000000000E+00  0.00000000000E+00 -0.28894716823E+03  0.31482777920E+03  0.12500425804E+03 0.  0.
    9000005    1    3    3    0    0 -0.25191427641E+02 -0.54338711246E+02 -0.99546637676E+02  0.11618019039E+03  0.10000000000E+01 0.  0.
    9000005    1    3    3    0    0  0.25191427641E+02  0.54338711246E+02 -0.18940053056E+03  0.19864758881E+03  0.10000000000E+01 0.  0.
<mgrwt>
<rscale>  0 0.12500426E+03</rscale>
<asrwt>0</asrwt>
<pdfrwt beam="2">  1        4 0.46444221E-01 0.12500426E+03</pdfrwt>
<pdfrwt beam="1">  1       -4 0.19908165E-02 0.12500426E+03</pdfrwt>
<totfact> 0.73768581E+03</totfact>
</mgrwt>
</event>
<event>
 5    1  0.3486294E-002  0.1249994E+03  0.7818608E-02  0.1235070E+00
         -4   -1    0    0    0  501 -0.00000000000E+00  0.00000000000E+00  0.18811386020E+02  0.18854207594E+02  0.12700000000E+01 0.  1.
          4   -1    0    0  501    0  0.00000000000E+00 -0.00000000000E+00 -0.20737078302E+03  0.20737467191E+03  0.12700000000E+01 0.  1.
         25    2    1    2    0    0  0.00000000000E+00  0.00000000000E+00 -0.18855939700E+03  0.22622887951E+03  0.12499943890E+03 0.  0.
    9000005    1    3    3    0    0 -0.40230159436E+02 -0.18991342149E+02 -0.17370830266E+03  0.17931734779E+03  0.10000000000E+01 0.  0.
    9000005    1    3    3    0    0  0.40230159436E+02  0.18991342149E+02 -0.14851094340E+02  0.46911531716E+02  0.10000000000E+01 0.  0.
<mgrwt>
<rscale>  0 0.12499944E+03</rscale>
<asrwt>0</asrwt>
<pdfrwt beam="2">  1        4 0.31906789E-01 0.12499944E+03</pdfrwt>
<pdfrwt beam="1">  1       -4 0.28976526E-02 0.12499944E+03</pdfrwt>
<totfact> 0.85893116E+03</totfact>
</mgrwt>
</event>
<event>
 5    1  0.3486294E-002  0.1250032E+03  0.7818608E-02  0.1235064E+00
         -4   -1    0    0    0  501 -0.00000000000E+00  0.00000000000E+00  0.75098857487E+03  0.75098964872E+03  0.12700000000E+01 0.  1.
          4   -1    0    0  501    0  0.00000000000E+00 -0.00000000000E+00 -0.51231330702E+01  0.52781997362E+01  0.12700000000E+01 0.  1.
         25    2    1    2    0    0  0.00000000000E+00  0.00000000000E+00  0.74586544180E+03  0.75626784846E+03  0.12500320531E+03 0.  0.
    9000005    1    3    3    0    0  0.48295498423E+02 -0.34103496531E+02  0.49542766977E+03  0.49894396440E+03  0.10000000000E+01 0.  0.
    9000005    1    3    3    0    0 -0.48295498423E+02  0.34103496531E+02  0.25043777203E+03  0.25732388405E+03  0.10000000000E+01 0.  0.
<mgrwt>
<rscale>  0 0.12500321E+03</rscale>
<asrwt>0</asrwt>
<pdfrwt beam="2">  1        4 0.80018552E-03 0.12500321E+03</pdfrwt>
<pdfrwt beam="1">  1       -4 0.11554866E+00 0.12500321E+03</pdfrwt>
<totfact> 0.40273320E+03</totfact>
</mgrwt>
</event>
<event>
 5    1  0.3486294E-002  0.1249985E+03  0.7818608E-02  0.1235072E+00
          4   -1    0    0  501    0  0.00000000000E+00  0.00000000000E+00  0.18184788718E+03  0.18185232188E+03  0.12700000000E+01 0.  1.
         -4   -1    0    0    0  501 -0.00000000000E+00 -0.00000000000E+00 -0.21456889130E+02  0.21494440935E+02  0.12700000000E+01 0.  1.
         25    2    1    2    0    0  0.00000000000E+00  0.00000000000E+00  0.16039099805E+03  0.20334676281E+03  0.12499853475E+03 0.  0.
    9000005    1    3    3    0    0 -0.23349675386E+02 -0.11396834827E+01 -0.14083477185E+02  0.27310264529E+02  0.10000000000E+01 0.  0.
    9000005    1    3    3    0    0  0.23349675386E+02  0.11396834827E+01  0.17447447524E+03  0.17603649828E+03  0.10000000000E+01 0.  0.
<mgrwt>
<rscale>  0 0.12499853E+03</rscale>
<asrwt>0</asrwt>
<pdfrwt beam="1">  1        4 0.27979828E-01 0.12499853E+03</pdfrwt>
<pdfrwt beam="2">  1       -4 0.33042896E-02 0.12499853E+03</pdfrwt>
<totfact> 0.89577037E+03</totfact>
</mgrwt>
</event>
<event>
 5    1  0.3486294E-002  0.1249995E+03  0.7818608E-02  0.1235070E+00
         -4   -1    0    0    0  501 -0.00000000000E+00  0.00000000000E+00  0.34882034243E+03  0.34882265436E+03  0.12700000000E+01 0. -1.
          4   -1    0    0  501    0  0.00000000000E+00 -0.00000000000E+00 -0.11159997699E+02  0.11232027806E+02  0.12700000000E+01 0. -1.
         25    2    1    2    0    0  0.00000000000E+00  0.00000000000E+00  0.33766034474E+03  0.36005468217E+03  0.12499946298E+03 0.  0.
    9000005    1    3    3    0    0  0.54433875322E+02 -0.25755888860E+02  0.12073409104E+03  0.13492269392E+03  0.10000000000E+01 0.  0.
    9000005    1    3    3    0    0 -0.54433875322E+02  0.25755888860E+02  0.21692625369E+03  0.22513198825E+03  0.10000000000E+01 0.  0.
<mgrwt>
<rscale>  0 0.12499946E+03</rscale>
<asrwt>0</asrwt>
<pdfrwt beam="2">  1        4 0.17226417E-02 0.12499946E+03</pdfrwt>
<pdfrwt beam="1">  1       -4 0.53670376E-01 0.12499946E+03</pdfrwt>
<totfact> 0.68633220E+03</totfact>
</mgrwt>
</event>
<event>
 5    1  0.3486294E-002  0.1250070E+03  0.7818608E-02  0.1235058E+00
         -4   -1    0    0    0  501 -0.00000000000E+00  0.00000000000E+00  0.14643923399E+02  0.14698890860E+02  0.12700000000E+01 0. -1.
          4   -1    0    0  501    0  0.00000000000E+00 -0.00000000000E+00 -0.26622234219E+03  0.26622537141E+03  0.12700000000E+01 0. -1.
         25    2    1    2    0    0  0.00000000000E+00  0.00000000000E+00 -0.25157841879E+03  0.28092426227E+03  0.12500696112E+03 0.  0.
    9000005    1    3    3    0    0  0.27376162408E+02  0.28964198153E+02 -0.17609266452E+02  0.43582855663E+02  0.10000000000E+01 0.  0.
    9000005    1    3    3    0    0 -0.27376162408E+02 -0.28964198153E+02 -0.23396915234E+03  0.23734140660E+03  0.10000000000E+01 0.  0.
<mgrwt>
<rscale>  0 0.12500696E+03</rscale>
<asrwt>0</asrwt>
<pdfrwt beam="2">  1        4 0.40961741E-01 0.12500696E+03</pdfrwt>
<pdfrwt beam="1">  1       -4 0.22573728E-02 0.12500696E+03</pdfrwt>
<totfact> 0.78043640E+03</totfact>
</mgrwt>
</event>
<event>
 5    1  0.3486294E-002  0.1249883E+03  0.7818608E-02  0.1235088E+00
         -4   -1    0    0    0  501 -0.00000000000E+00  0.00000000000E+00  0.10631792702E+03  0.10632551202E+03  0.12700000000E+01 0. -1.
          4   -1    0    0  501    0  0.00000000000E+00 -0.00000000000E+00 -0.36714486518E+02  0.36736445395E+02  0.12700000000E+01 0. -1.
         25    2    1    2    0    0  0.00000000000E+00  0.00000000000E+00  0.69603440502E+02  0.14306195741E+03  0.12498833837E+03 0.  0.
    9000005    1    3    3    0    0 -0.14629619067E+02  0.40366528132E+02 -0.17161703247E+02  0.46249393573E+02  0.10000000000E+01 0.  0.
    9000005    1    3    3    0    0  0.14629619067E+02 -0.40366528132E+02  0.86765143749E+02  0.96812563840E+02  0.10000000000E+01 0.  0.
<mgrwt>
<rscale>  0 0.12498834E+03</rscale>
<asrwt>0</asrwt>
<pdfrwt beam="2">  1        4 0.56506552E-02 0.12498834E+03</pdfrwt>
<pdfrwt beam="1">  1       -4 0.16358877E-01 0.12498834E+03</pdfrwt>
<totfact> 0.10073160E+04</totfact>
</mgrwt>
</event>
<event>
 5    1  0.3486294E-002  0.1250001E+03  0.7818608E-02  0.1235069E+00
         -4   -1    0    0    0  501 -0.00000000000E+00  0.00000000000E+00  0.11708536203E+02  0.11777211895E+02  0.12700000000E+01 0. -1.
          4   -1    0    0  501    0  0.00000000000E+00 -0.00000000000E+00 -0.33257923777E+03  0.33258166259E+03  0.12700000000E+01 0. -1.
         25    2    1    2    0    0  0.00000000000E+00  0.00000000000E+00 -0.32087070156E+03  0.34435887449E+03  0.12500010927E+03 0.  0.
    9000005    1    3    3    0    0  0.46145858423E+02 -0.80384356996E+00 -0.27650559888E+03  0.28033271772E+03  0.10000000000E+01 0.  0.
    9000005    1    3    3    0    0 -0.46145858423E+02  0.80384356996E+00 -0.44365102687E+02  0.64026156768E+02  0.10000000000E+01 0.  0.
<mgrwt>
<rscale>  0 0.12500011E+03</rscale>
<asrwt>0</asrwt>
<pdfrwt beam="2">  1        4 0.51171499E-01 0.12500011E+03</pdfrwt>
<pdfrwt beam="1">  1       -4 0.18067828E-02 0.12500011E+03</pdfrwt>
<totfact> 0.70349472E+03</totfact>
</mgrwt>
</event>
<event>
 5    1  0.3486294E-002  0.1249995E+03  0.7818608E-02  0.1235070E+00
         -4   -1    0    0    0  501 -0.00000000000E+00  0.00000000000E+00  0.25108327550E+01  0.28137485893E+01  0.12700000000E+01 0.  1.
          4   -1    0    0  501    0  0.00000000000E+00 -0.00000000000E+00 -0.14669370223E+04  0.14669375721E+04  0.12700000000E+01 0.  1.
         25    2    1    2    0    0  0.00000000000E+00  0.00000000000E+00 -0.14644261896E+04  0.14697513207E+04  0.12499951959E+03 0.  0.
    9000005    1    3    3    0    0 -0.35953074133E+02 -0.45894993424E+02 -0.99676830767E+03  0.99847234971E+03  0.10000000000E+01 0.  0.
    9000005    1    3    3    0    0  0.35953074133E+02  0.45894993424E+02 -0.46765788191E+03  0.47127897097E+03  0.10000000000E+01 0.  0.
<mgrwt>
<rscale>  0 0.12499952E+03</rscale>
<asrwt>0</asrwt>
<pdfrwt beam="2">  1        4 0.22570532E+00 0.12499952E+03</pdfrwt>
<pdfrwt beam="1">  1       -4 0.40962664E-03 0.12499952E+03</pdfrwt>
<totfact> 0.18532069E+03</totfact>
</mgrwt>
</event>
<event>
 5    1  0.3486294E-002  0.1250099E+03  0.7818608E-02  0.1235054E+00
          4   -1    0    0  501    0  0.00000000000E+00  0.00000000000E+00  0.52136852653E+02  0.52152318305E+02  0.12700000000E+01 0.  1.
         -4   -1    0    0    0  501 -0.00000000000E+00 -0.00000000000E+00 -0.74902883364E+02  0.74913649198E+02  0.12700000000E+01 0.  1.
         25    2    1    2    0    0  0.00000000000E+00  0.00000000000E+00 -0.22766030711E+02  0.12706596750E+03  0.12500987138E+03 0.  0.
    9000005    1    3    3    0    0 -0.14916129196E+01  0.59472330453E+01 -0.74601410862E+02  0.74859635269E+02  0.10000000000E+01 0.  0.
    9000005    1    3    3    0    0  0.14916129196E+01 -0.59472330453E+01  0.51835380151E+02  0.52206332234E+02  0.10000000000E+01 0.  0.
<mgrwt>
<rscale>  0 0.12500987E+03</rscale>
<asrwt>0</asrwt>
<pdfrwt beam="1">  1        4 0.80230721E-02 0.12500987E+03</pdfrwt>
<pdfrwt beam="2">  1       -4 0.11525538E-01 0.12500987E+03</pdfrwt>
<totfact> 0.10405394E+04</totfact>
</mgrwt>
</event>
<event>
 5    1  0.3486294E-002  0.1249978E+03  0.7818608E-02  0.1235073E+00
          4   -1    0    0  501    0  0.00000000000E+00  0.00000000000E+00  0.34021843653E+03  0.34022080691E+03  0.12700000000E+01 0.  1.
         -4   -1    0    0    0  501 -0.00000000000E+00 -0.00000000000E+00 -0.11443651811E+02  0.11513907537E+02  0.12700000000E+01 0.  1.
         25    2    1    2    0    0  0.00000000000E+00  0.00000000000E+00  0.32877478472E+03  0.35173471445E+03  0.12499780110E+03 0.  0.
    9000005    1    3    3    0    0  0.35331639688E+02 -0.38316056983E+02  0.67371458241E+02  0.85184261289E+02  0.10000000000E+01 0.  0.
    9000005    1    3    3    0    0 -0.35331639688E+02  0.38316056983E+02  0.26140332648E+03  0.26655045316E+03  0.10000000000E+01 0.  0.
<mgrwt>
<rscale>  0 0.12499780E+03</rscale>
<asrwt>0</asrwt>
<pdfrwt beam="1">  1        4 0.52346884E-01 0.12499780E+03</pdfrwt>
<pdfrwt beam="2">  1       -4 0.17661485E-02 0.12499780E+03</pdfrwt>
<totfact> 0.69537519E+03</totfact>
</mgrwt>
</event>
<event>
 5    1  0.3486294E-002  0.1249892E+03  0.7818608E-02  0.1235086E+00
         -4   -1    0    0    0  501 -0.00000000000E+00  0.00000000000E+00  0.83432032489E+01  0.84393092402E+01  0.12700000000E+01 0. -1.
          4   -1    0    0  501    0  0.00000000000E+00 -0.00000000000E+00 -0.46533691815E+03  0.46533865119E+03  0.12700000000E+01 0. -1.
         25    2    1    2    0    0  0.00000000000E+00  0.00000000000E+00 -0.45699371490E+03  0.47377796043E+03  0.12498920086E+03 0.  0.
    9000005    1    3    3    0    0 -0.35150219883E+01 -0.53223030661E+02 -0.10511289101E+03  0.11787606300E+03  0.10000000000E+01 0.  0.
    9000005    1    3    3    0    0  0.35150219883E+01  0.53223030661E+02 -0.35188082389E+03  0.35590189743E+03  0.10000000000E+01 0.  0.
<mgrwt>
<rscale>  0 0.12498920E+03</rscale>
<asrwt>0</asrwt>
<pdfrwt beam="2">  1        4 0.71597801E-01 0.12498920E+03</pdfrwt>
<pdfrwt beam="1">  1       -4 0.12910962E-02 0.12498920E+03</pdfrwt>
<totfact> 0.57971649E+03</totfact>
</mgrwt>
</event>
<event>
 5    1  0.3486294E-002  0.1250029E+03  0.7818608E-02  0.1235065E+00
          4   -1    0    0  501    0  0.00000000000E+00  0.00000000000E+00  0.14673385249E+02  0.14728242756E+02  0.12700000000E+01 0.  1.
         -4   -1    0    0    0  501 -0.00000000000E+00 -0.00000000000E+00 -0.26567233297E+03  0.26567536846E+03  0.12700000000E+01 0.  1.
         25    2    1    2    0    0  0.00000000000E+00  0.00000000000E+00 -0.25099894772E+03  0.28040361121E+03  0.12500285367E+03 0.  0.
    9000005    1    3    3    0    0 -0.25690437719E+02 -0.17396580920E+02 -0.24718620297E+03  0.24912779563E+03  0.10000000000E+01 0.  0.
    9000005    1    3    3    0    0  0.25690437719E+02  0.17396580920E+02 -0.38127447531E+01  0.31275815584E+02  0.10000000000E+01 0.  0.
<mgrwt>
<rscale>  0 0.12500285E+03</rscale>
<asrwt>0</asrwt>
<pdfrwt beam="1">  1        4 0.22618974E-02 0.12500285E+03</pdfrwt>
<pdfrwt beam="2">  1       -4 0.40877116E-01 0.12500285E+03</pdfrwt>
<totfact> 0.78119666E+03</totfact>
</mgrwt>
</event>
<event>
 5    1  0.3486294E-002  0.1250067E+03  0.7818608E-02  0.1235059E+00
         -4   -1    0    0    0  501 -0.00000000000E+00  0.00000000000E+00  0.29881382960E+02  0.29908359159E+02  0.12700000000E+01 0. -1.
          4   -1    0    0  501    0  0.00000000000E+00 -0.00000000000E+00 -0.13065014550E+03  0.13065631794E+03  0.12700000000E+01 0. -1.
         25    2    1    2    0    0  0.00000000000E+00  0.00000000000E+00 -0.10076876254E+03  0.16056467710E+03  0.12500668794E+03 0.  0.
    9000005    1    3    3    0    0  0.77064250560E+01 -0.28125087952E+02 -0.12138150233E+03  0.12483941151E+03  0.10000000000E+01 0.  0.
    9000005    1    3    3    0    0 -0.77064250560E+01  0.28125087952E+02  0.20612739794E+02  0.35725265587E+02  0.10000000000E+01 0.  0.
<mgrwt>
<rscale>  0 0.12500669E+03</rscale>
<asrwt>0</asrwt>
<pdfrwt beam="2">  1        4 0.20102572E-01 0.12500669E+03</pdfrwt>
<pdfrwt beam="1">  1       -4 0.45996858E-02 0.12500669E+03</pdfrwt>
<totfact> 0.97219416E+03</totfact>
</mgrwt>
</event>
<event>
 5    1  0.3486294E-002  0.1249916E+03  0.7818608E-02  0.1235082E+00
         -4   -1    0    0    0  501 -0.00000000000E+00  0.00000000000E+00  0.42181632596E+02  0.42200746776E+02  0.12700000000E+01 0.  1.
          4   -1    0    0  501    0  0.00000000000E+00 -0.00000000000E+00 -0.92548651294E+02  0.92557364679E+02  0.12700000000E+01 0.  1.
         25    2    1    2    0    0  0.00000000000E+00  0.00000000000E+00 -0.50367018698E+02  0.13475811146E+03  0.12499164784E+03 0.  0.
    9000005    1    3    3    0    0 -0.29220852930E+02 -0.49253601011E+02  0.17688907066E+01  0.57305361292E+02  0.10000000000E+01 0.  0.
    9000005    1    3    3    0    0  0.29220852930E+02  0.49253601011E+02 -0.52135909405E+02  0.77452750164E+02  0.10000000000E+01 0.  0.
<mgrwt>
<rscale>  0 0.12499165E+03</rscale>
<asrwt>0</asrwt>
<pdfrwt beam="2">  1        4 0.14240395E-01 0.12499165E+03</pdfrwt>
<pdfrwt beam="1">  1       -4 0.64916226E-02 0.12499165E+03</pdfrwt>
<totfact> 0.10245102E+04</totfact>
</mgrwt>
</event>
<event>
 5    1  0.3486294E-002  0.1250040E+03  0.7818608E-02  0.1235063E+00
         -4   -1    0    0    0  501 -0.00000000000E+00  0.00000000000E+00  0.15057311291E+03  0.15057846868E+03  0.12700000000E+01 0.  1.
          4   -1    0    0  501    0  0.00000000000E+00 -0.00000000000E+00 -0.25922841498E+02  0.25953932483E+02  0.12700000000E+01 0.  1.
         25    2    1    2    0    0  0.00000000000E+00  0.00000000000E+00  0.12465027141E+03  0.17653240117E+03  0.12500399393E+03 0.  0.
    9000005    1    3    3    0    0  0.49901577463E+01  0.18438265092E+02  0.14635636355E+03  0.14760100421E+03  0.10000000000E+01 0.  0.
    9000005    1    3    3    0    0 -0.49901577463E+01 -0.18438265092E+02 -0.21706092136E+02  0.28931396955E+02  0.10000000000E+01 0.  0.
<mgrwt>
<rscale>  0 0.12500399E+03</rscale>
<asrwt>0</asrwt>
<pdfrwt beam="2">  1        4 0.39909330E-02 0.12500399E+03</pdfrwt>
<pdfrwt beam="1">  1       -4 0.23167899E-01 0.12500399E+03</pdfrwt>
<totfact> 0.94236489E+03</totfact>
</mgrwt>
</event>
<event>
 5    1  0.3486294E-002  0.1250430E+03  0.7818608E-02  0.1235002E+00
          4   -1    0    0  501    0  0.00000000000E+00  0.00000000000E+00  0.13762036169E+03  0.13762622152E+03  0.12700000000E+01 0.  1.
         -4   -1    0    0    0  501 -0.00000000000E+00 -0.00000000000E+00 -0.28383095866E+02  0.28411494698E+02  0.12700000000E+01 0.  1.
         25    2    1    2    0    0  0.00000000000E+00  0.00000000000E+00  0.10923726582E+03  0.16603771622E+03  0.12504296447E+03 0.  0.
    9000005    1    3    3    0    0  0.41008370567E+02 -0.40931690129E+02  0.23453958003E+02  0.62515420973E+02  0.10000000000E+01 0.  0.
    9000005    1    3    3    0    0 -0.41008370567E+02  0.40931690129E+02  0.85783307816E+02  0.10352229525E+03  0.10000000000E+01 0.  0.
<mgrwt>
<rscale>  0 0.12504296E+03</rscale>
<asrwt>0</asrwt>
<pdfrwt beam="1">  1        4 0.21174999E-01 0.12504296E+03</pdfrwt>
<pdfrwt beam="2">  1       -4 0.43692654E-02 0.12504296E+03</pdfrwt>
<totfact> 0.96098452E+03</totfact>
</mgrwt>
</event>
<event>
 5    1  0.3486294E-002  0.1250004E+03  0.7818608E-02  0.1235069E+00
          4   -1    0    0  501    0  0.00000000000E+00  0.00000000000E+00  0.42696890022E+02  0.42715773639E+02  0.12700000000E+01 0.  1.
         -4   -1    0    0    0  501 -0.00000000000E+00 -0.00000000000E+00 -0.91444954948E+02  0.91453773489E+02  0.12700000000E+01 0.  1.
         25    2    1    2    0    0  0.00000000000E+00  0.00000000000E+00 -0.48748064926E+02  0.13416954713E+03  0.12500037417E+03 0.  0.
    9000005    1    3    3    0    0  0.33427065955E+02  0.47027082378E+02  0.13944514627E+01  0.57722263558E+02  0.10000000000E+01 0.  0.
    9000005    1    3    3    0    0 -0.33427065955E+02 -0.47027082378E+02 -0.50142516388E+02  0.76447283570E+02  0.10000000000E+01 0.  0.
<mgrwt>
<rscale>  0 0.12500037E+03</rscale>
<asrwt>0</asrwt>
<pdfrwt beam="1">  1        4 0.65708833E-02 0.12500037E+03</pdfrwt>
<pdfrwt beam="2">  1       -4 0.14070586E-01 0.12500037E+03</pdfrwt>
<totfact> 0.10255518E+04</totfact>
</mgrwt>
</event>
<event>
 5    1  0.3486294E-002  0.1250007E+03  0.7818608E-02  0.1235068E+00
         -4   -1    0    0    0  501 -0.00000000000E+00  0.00000000000E+00  0.40509967267E+02  0.40529869824E+02  0.12700000000E+01 0. -1.
          4   -1    0    0  501    0  0.00000000000E+00 -0.00000000000E+00 -0.96380214597E+02  0.96388581615E+02  0.12700000000E+01 0. -1.
         25    2    1    2    0    0  0.00000000000E+00  0.00000000000E+00 -0.55870247330E+02  0.13691845144E+03  0.12500071123E+03 0.  0.
    9000005    1    3    3    0    0 -0.35055421230E+02  0.48225362877E+02 -0.74219128849E+01  0.60088709198E+02  0.10000000000E+01 0.  0.
    9000005    1    3    3    0    0  0.35055421230E+02 -0.48225362877E+02 -0.48448334445E+02  0.76829742240E+02  0.10000000000E+01 0.  0.
<mgrwt>
<rscale>  0 0.12500071E+03</rscale>
<asrwt>0</asrwt>
<pdfrwt beam="2">  1        4 0.14829900E-01 0.12500071E+03</pdfrwt>
<pdfrwt beam="1">  1       -4 0.62344773E-02 0.12500071E+03</pdfrwt>
<totfact> 0.10197628E+04</totfact>
</mgrwt>
</event>
<event>
 5    1  0.3486294E-002  0.1249866E+03  0.7818608E-02  0.1235090E+00
          4   -1    0    0  501    0  0.00000000000E+00  0.00000000000E+00  0.66102549495E+02  0.66114748352E+02  0.12700000000E+01 0. -1.
         -4   -1    0    0    0  501 -0.00000000000E+00 -0.00000000000E+00 -0.59056648735E+02  0.59070302689E+02  0.12700000000E+01 0. -1.
         25    2    1    2    0    0  0.00000000000E+00  0.00000000000E+00  0.70459007595E+01  0.12518505104E+03  0.12498660843E+03 0.  0.
    9000005    1    3    3    0    0  0.56670259809E+02  0.25533764253E+02 -0.28842061296E+01  0.62231905874E+02  0.10000000000E+01 0.  0.
    9000005    1    3    3    0    0 -0.56670259809E+02 -0.25533764253E+02  0.99301068890E+01  0.62953145168E+02  0.10000000000E+01 0.  0.
<mgrwt>
<rscale>  0 0.12498661E+03</rscale>
<asrwt>0</asrwt>
<pdfrwt beam="1">  1        4 0.10171612E-01 0.12498661E+03</pdfrwt>
<pdfrwt beam="2">  1       -4 0.90876269E-02 0.12498661E+03</pdfrwt>
<totfact> 0.10452008E+04</totfact>
</mgrwt>
</event>
<event>
 5    1  0.3486294E-002  0.1249984E+03  0.7818608E-02  0.1235072E+00
          4   -1    0    0  501    0  0.00000000000E+00  0.00000000000E+00  0.68569205635E+02  0.68580965737E+02  0.12700000000E+01 0.  1.
         -4   -1    0    0    0  501 -0.00000000000E+00 -0.00000000000E+00 -0.56942849971E+02  0.56957010656E+02  0.12700000000E+01 0.  1.
         25    2    1    2    0    0  0.00000000000E+00  0.00000000000E+00  0.11626355664E+02  0.12553797639E+03  0.12499844547E+03 0.  0.
    9000005    1    3    3    0    0 -0.79129756811E+01 -0.26490506654E+02 -0.50471477506E+02  0.57556339083E+02  0.10000000000E+01 0.  0.
    9000005    1    3    3    0    0  0.79129756811E+01  0.26490506654E+02  0.62097833170E+02  0.67981637310E+02  0.10000000000E+01 0.  0.
<mgrwt>
<rscale>  0 0.12499845E+03</rscale>
<asrwt>0</asrwt>
<pdfrwt beam="1">  1        4 0.10551102E-01 0.12499845E+03</pdfrwt>
<pdfrwt beam="2">  1       -4 0.87624323E-02 0.12499845E+03</pdfrwt>
<totfact> 0.10441481E+04</totfact>
</mgrwt>
</event>
<event>
 5    1  0.3486294E-002  0.1249980E+03  0.7818608E-02  0.1235072E+00
          4   -1    0    0  501    0  0.00000000000E+00  0.00000000000E+00  0.30708376791E+02  0.30734627135E+02  0.12700000000E+01 0. -1.
         -4   -1    0    0    0  501 -0.00000000000E+00 -0.00000000000E+00 -0.12711680418E+03  0.12712314819E+03  0.12700000000E+01 0. -1.
         25    2    1    2    0    0  0.00000000000E+00  0.00000000000E+00 -0.96408427388E+02  0.15785777532E+03  0.12499796942E+03 0.  0.
    9000005    1    3    3    0    0 -0.35569383107E+02 -0.51331102130E+02 -0.51045006261E+02  0.80663843974E+02  0.10000000000E+01 0.  0.
    9000005    1    3    3    0    0  0.35569383107E+02  0.51331102130E+02 -0.45363421128E+02  0.77193931348E+02  0.10000000000E+01 0.  0.
<mgrwt>
<rscale>  0 0.12499797E+03</rscale>
<asrwt>0</asrwt>
<pdfrwt beam="1">  1        4 0.47268730E-02 0.12499797E+03</pdfrwt>
<pdfrwt beam="2">  1       -4 0.19558938E-01 0.12499797E+03</pdfrwt>
<totfact> 0.97761849E+03</totfact>
</mgrwt>
</event>
<event>
 5    1  0.3486294E-002  0.1249995E+03  0.7818608E-02  0.1235070E+00
         -4   -1    0    0    0  501 -0.00000000000E+00  0.00000000000E+00  0.10341736209E+03  0.10342515981E+03  0.12700000000E+01 0.  1.
          4   -1    0    0  501    0  0.00000000000E+00 -0.00000000000E+00 -0.37751530613E+02  0.37772886621E+02  0.12700000000E+01 0.  1.
         25    2    1    2    0    0  0.00000000000E+00  0.00000000000E+00  0.65665831473E+02  0.14119804643E+03  0.12499954757E+03 0.  0.
    9000005    1    3    3    0    0  0.48511481248E+01 -0.54474633013E+02  0.66986904848E+02  0.86482742216E+02  0.10000000000E+01 0.  0.
    9000005    1    3    3    0    0 -0.48511481248E+01  0.54474633013E+02 -0.13210733756E+01  0.54715304211E+02  0.10000000000E+01 0.  0.
<mgrwt>
<rscale>  0 0.12499955E+03</rscale>
<asrwt>0</asrwt>
<pdfrwt beam="2">  1        4 0.58101703E-02 0.12499955E+03</pdfrwt>
<pdfrwt beam="1">  1       -4 0.15912606E-01 0.12499955E+03</pdfrwt>
<totfact> 0.10108919E+04</totfact>
</mgrwt>
</event>
<event>
 5    1  0.3486294E-002  0.1250000E+03  0.7818608E-02  0.1235069E+00
         -4   -1    0    0    0  501 -0.00000000000E+00  0.00000000000E+00  0.72365413118E+01  0.73471375486E+01  0.12700000000E+01 0. -1.
          4   -1    0    0  501    0  0.00000000000E+00 -0.00000000000E+00 -0.53558991752E+03  0.53559142324E+03  0.12700000000E+01 0. -1.
         25    2    1    2    0    0  0.00000000000E+00  0.00000000000E+00 -0.52835337620E+03  0.54293856078E+03  0.12499996257E+03 0.  0.
    9000005    1    3    3    0    0 -0.28481761823E+02  0.51590905774E+02 -0.17385514408E+03  0.18357408161E+03  0.10000000000E+01 0.  0.
    9000005    1    3    3    0    0  0.28481761823E+02 -0.51590905774E+02 -0.35449823213E+03  0.35936447918E+03  0.10000000000E+01 0.  0.
<mgrwt>
<rscale>  0 0.12499996E+03</rscale>
<asrwt>0</asrwt>
<pdfrwt beam="2">  1        4 0.82407041E-01 0.12499996E+03</pdfrwt>
<pdfrwt beam="1">  1       -4 0.11219377E-02 0.12499996E+03</pdfrwt>
<totfact> 0.52680325E+03</totfact>
</mgrwt>
</event>
<event>
 5    1  0.3486294E-002  0.1250007E+03  0.7818608E-02  0.1235068E+00
         -4   -1    0    0    0  501 -0.00000000000E+00  0.00000000000E+00  0.34845472328E+03  0.34845703763E+03  0.12700000000E+01 0. -1.
          4   -1    0    0  501    0  0.00000000000E+00 -0.00000000000E+00 -0.11172000973E+02  0.11243954186E+02  0.12700000000E+01 0. -1.
         25    2    1    2    0    0  0.00000000000E+00  0.00000000000E+00  0.33728272230E+03  0.35970099182E+03  0.12500067500E+03 0.  0.
    9000005    1    3    3    0    0  0.49858143892E+02 -0.25919974010E+02  0.89960774447E+02  0.10607365603E+03  0.10000000000E+01 0.  0.
    9000005    1    3    3    0    0 -0.49858143892E+02  0.25919974010E+02  0.24732194786E+03  0.25362733578E+03  0.10000000000E+01 0.  0.
<mgrwt>
<rscale>  0 0.12500067E+03</rscale>
<asrwt>0</asrwt>
<pdfrwt beam="2">  1        4 0.17244823E-02 0.12500067E+03</pdfrwt>
<pdfrwt beam="1">  1       -4 0.53614132E-01 0.12500067E+03</pdfrwt>
<totfact> 0.68669323E+03</totfact>
</mgrwt>
</event>
<event>
 5    1  0.3486294E-002  0.1250002E+03  0.7818608E-02  0.1235069E+00
         -4   -1    0    0    0  501 -0.00000000000E+00  0.00000000000E+00  0.19921224446E+03  0.19921629261E+03  0.12700000000E+01 0.  1.
          4   -1    0    0  501    0  0.00000000000E+00 -0.00000000000E+00 -0.19583727190E+02  0.19624863583E+02  0.12700000000E+01 0.  1.
         25    2    1    2    0    0  0.00000000000E+00  0.00000000000E+00  0.17962851727E+03  0.21884115620E+03  0.12500018972E+03 0.  0.
    9000005    1    3    3    0    0  0.99626405986E+01 -0.13222866957E+02  0.19531153000E+03  0.19601452030E+03  0.10000000000E+01 0.  0.
    9000005    1    3    3    0    0 -0.99626405986E+01  0.13222866957E+02 -0.15683012726E+02  0.22826635898E+02  0.10000000000E+01 0.  0.
<mgrwt>
<rscale>  0 0.12500019E+03</rscale>
<asrwt>0</asrwt>
<pdfrwt beam="2">  1        4 0.30163569E-02 0.12500019E+03</pdfrwt>
<pdfrwt beam="1">  1       -4 0.30651513E-01 0.12500019E+03</pdfrwt>
<totfact> 0.87051685E+03</totfact>
</mgrwt>
</event>
<event>
 5    1  0.3486294E-002  0.1249986E+03  0.7818608E-02  0.1235071E+00
          4   -1    0    0  501    0  0.00000000000E+00  0.00000000000E+00  0.69678018839E+02  0.69689591829E+02  0.12700000000E+01 0. -1.
         -4   -1    0    0    0  501 -0.00000000000E+00 -0.00000000000E+00 -0.56036783354E+02  0.56051172946E+02  0.12700000000E+01 0. -1.
         25    2    1    2    0    0  0.00000000000E+00  0.00000000000E+00  0.13641235485E+02  0.12574076478E+03  0.12499862648E+03 0.  0.
    9000005    1    3    3    0    0  0.53116725611E+02  0.24622144016E+02 -0.15161529548E+02  0.60485605675E+02  0.10000000000E+01 0.  0.
    9000005    1    3    3    0    0 -0.53116725611E+02 -0.24622144016E+02  0.28802765034E+02  0.65255159100E+02  0.10000000000E+01 0.  0.
<mgrwt>
<rscale>  0 0.12499863E+03</rscale>
<asrwt>0</asrwt>
<pdfrwt beam="1">  1        4 0.10721692E-01 0.12499863E+03</pdfrwt>
<pdfrwt beam="2">  1       -4 0.86230407E-02 0.12499863E+03</pdfrwt>
<totfact> 0.10436971E+04</totfact>
</mgrwt>
</event>
<event>
 5    1  0.3486294E-002  0.1250007E+03  0.7818608E-02  0.1235068E+00
         -4   -1    0    0    0  501 -0.00000000000E+00  0.00000000000E+00  0.17739843020E+02  0.17785244738E+02  0.12700000000E+01 0. -1.
          4   -1    0    0  501    0  0.00000000000E+00 -0.00000000000E+00 -0.21987031034E+03  0.21987397815E+03  0.12700000000E+01 0. -1.
         25    2    1    2    0    0  0.00000000000E+00  0.00000000000E+00 -0.20213046732E+03  0.23765922289E+03  0.12500072162E+03 0.  0.
    9000005    1    3    3    0    0 -0.37008754066E+02 -0.43046160212E+02 -0.51388932390E+02  0.76579645851E+02  0.10000000000E+01 0.  0.
    9000005    1    3    3    0    0  0.37008754066E+02  0.43046160212E+02 -0.15074153493E+03  0.16107957704E+03  0.10000000000E+01 0.  0.
<mgrwt>
<rscale>  0 0.12500072E+03</rscale>
<asrwt>0</asrwt>
<pdfrwt beam="2">  1        4 0.33829974E-01 0.12500072E+03</pdfrwt>
<pdfrwt beam="1">  1       -4 0.27329814E-02 0.12500072E+03</pdfrwt>
<totfact> 0.84145871E+03</totfact>
</mgrwt>
</event>
<event>
 5    1  0.3486294E-002  0.1250088E+03  0.7818608E-02  0.1235056E+00
          4   -1    0    0  501    0  0.00000000000E+00  0.00000000000E+00  0.39359495031E+03  0.39359699924E+03  0.12700000000E+01 0.  1.
         -4   -1    0    0    0  501 -0.00000000000E+00 -0.00000000000E+00 -0.98832346761E+01  0.99644983648E+01  0.12700000000E+01 0.  1.
         25    2    1    2    0    0  0.00000000000E+00  0.00000000000E+00  0.38371171563E+03  0.40356149760E+03  0.12500880622E+03 0.  0.
    9000005    1    3    3    0    0 -0.52905081675E+02  0.28568183879E+02  0.24689863094E+03  0.25411615997E+03  0.10000000000E+01 0.  0.
    9000005    1    3    3    0    0  0.52905081675E+02 -0.28568183879E+02  0.13681308470E+03  0.14944533764E+03  0.10000000000E+01 0.  0.
<mgrwt>
<rscale>  0 0.12500881E+03</rscale>
<asrwt>0</asrwt>
<pdfrwt beam="1">  1        4 0.60559483E-01 0.12500881E+03</pdfrwt>
<pdfrwt beam="2">  1       -4 0.15269062E-02 0.12500881E+03</pdfrwt>
<totfact> 0.64195386E+03</totfact>
</mgrwt>
</event>
<event>
 5    1  0.3486294E-002  0.1249969E+03  0.7818608E-02  0.1235074E+00
         -4   -1    0    0    0  501 -0.00000000000E+00  0.00000000000E+00  0.57766502070E+02  0.57780460896E+02  0.12700000000E+01 0.  1.
          4   -1    0    0  501    0  0.00000000000E+00 -0.00000000000E+00 -0.67589922418E+02  0.67601852877E+02  0.12700000000E+01 0.  1.
         25    2    1    2    0    0  0.00000000000E+00  0.00000000000E+00 -0.98234203483E+01  0.12538231377E+03  0.12499690004E+03 0.  0.
    9000005    1    3    3    0    0 -0.15513403345E+01  0.35346392376E+02 -0.56580555307E+02  0.66739293896E+02  0.10000000000E+01 0.  0.
    9000005    1    3    3    0    0  0.15513403345E+01 -0.35346392376E+02  0.46757134959E+02  0.58643019878E+02  0.10000000000E+01 0.  0.
<mgrwt>
<rscale>  0 0.12499690E+03</rscale>
<asrwt>0</asrwt>
<pdfrwt beam="2">  1        4 0.10400441E-01 0.12499690E+03</pdfrwt>
<pdfrwt beam="1">  1       -4 0.88891456E-02 0.12499690E+03</pdfrwt>
<totfact> 0.10445289E+04</totfact>
</mgrwt>
</event>
<event>
 5    1  0.3486294E-002  0.1249964E+03  0.7818608E-02  0.1235075E+00
          4   -1    0    0  501    0  0.00000000000E+00  0.00000000000E+00  0.25093750404E+03  0.25094071777E+03  0.12700000000E+01 0.  1.
         -4   -1    0    0    0  501 -0.00000000000E+00 -0.00000000000E+00 -0.15536493606E+02  0.15588314007E+02  0.12700000000E+01 0.  1.
         25    2    1    2    0    0  0.00000000000E+00  0.00000000000E+00  0.23540101043E+03  0.26652903178E+03  0.12499635621E+03 0.  0.
    9000005    1    3    3    0    0  0.32329882141E+01 -0.32913169071E+02  0.23075823270E+03  0.23311819078E+03  0.10000000000E+01 0.  0.
    9000005    1    3    3    0    0 -0.32329882141E+01  0.32913169071E+02  0.46427777308E+01  0.33410840997E+02  0.10000000000E+01 0.  0.
<mgrwt>
<rscale>  0 0.12499636E+03</rscale>
<asrwt>0</asrwt>
<pdfrwt beam="1">  1        4 0.38610005E-01 0.12499636E+03</pdfrwt>
<pdfrwt beam="2">  1       -4 0.23944631E-02 0.12499636E+03</pdfrwt>
<totfact> 0.80004930E+03</totfact>
</mgrwt>
</event>
<event>
 5    1  0.3486294E-002  0.1250071E+03  0.7818608E-02  0.1235058E+00
         -4   -1    0    0    0  501 -0.00000000000E+00  0.00000000000E+00  0.51483387489E+03  0.51483544131E+03  0.12700000000E+01 0.  1.
          4   -1    0    0  501    0  0.00000000000E+00 -0.00000000000E+00 -0.75335338704E+01  0.76398319731E+01  0.12700000000E+01 0.  1.
         25    2    1    2    0    0  0.00000000000E+00  0.00000000000E+00  0.50730034102E+03  0.52247527329E+03  0.12500710059E+03 0.  0.
    9000005    1    3    3    0    0  0.39641985030E+02  0.39011784925E+02  0.13452982792E+03  0.14557706186E+03  0.10000000000E+01 0.  0.
    9000005    1    3    3    0    0 -0.39641985030E+02 -0.39011784925E+02  0.37277051310E+03  0.37689821142E+03  0.10000000000E+01 0.  0.
<mgrwt>
<rscale>  0 0.12500710E+03</rscale>
<asrwt>0</asrwt>
<pdfrwt beam="2">  1        4 0.11673025E-02 0.12500710E+03</pdfrwt>
<pdfrwt beam="1">  1       -4 0.79213507E-01 0.12500710E+03</pdfrwt>
<totfact> 0.54153327E+03</totfact>
</mgrwt>
</event>
<event>
 5    1  0.3486294E-002  0.1249994E+03  0.7818608E-02  0.1235070E+00
          4   -1    0    0  501    0  0.00000000000E+00  0.00000000000E+00  0.34554625427E+02  0.34577955961E+02  0.12700000000E+01 0.  1.
         -4   -1    0    0    0  501 -0.00000000000E+00 -0.00000000000E+00 -0.11297945166E+03  0.11298658946E+03  0.12700000000E+01 0.  1.
         25    2    1    2    0    0  0.00000000000E+00  0.00000000000E+00 -0.78424826235E+02  0.14756454542E+03  0.12499936678E+03 0.  0.
    9000005    1    3    3    0    0 -0.27488313067E+02 -0.54380120003E+02 -0.55587480079E+02  0.82484984987E+02  0.10000000000E+01 0.  0.
    9000005    1    3    3    0    0  0.27488313067E+02  0.54380120003E+02 -0.22837346156E+02  0.65079560434E+02  0.10000000000E+01 0.  0.
<mgrwt>
<rscale>  0 0.12499937E+03</rscale>
<asrwt>0</asrwt>
<pdfrwt beam="1">  1        4 0.53184400E-02 0.12499937E+03</pdfrwt>
<pdfrwt beam="2">  1       -4 0.17383798E-01 0.12499937E+03</pdfrwt>
<totfact> 0.99792826E+03</totfact>
</mgrwt>
</event>
<event>
 5    1  0.3486294E-002  0.1250003E+03  0.7818608E-02  0.1235069E+00
          4   -1    0    0  501    0  0.00000000000E+00  0.00000000000E+00  0.94983790283E+03  0.94983875187E+03  0.12700000000E+01 0.  1.
         -4   -1    0    0    0  501 -0.00000000000E+00 -0.00000000000E+00 -0.40136444383E+01  0.42097792908E+01  0.12700000000E+01 0.  1.
         25    2    1    2    0    0  0.00000000000E+00  0.00000000000E+00  0.94582425840E+03  0.95404853116E+03  0.12500028819E+03 0.  0.
    9000005    1    3    3    0    0 -0.10559504828E+02  0.59978479365E+02  0.57985983136E+03  0.58305003658E+03  0.10000000000E+01 0.  0.
    9000005    1    3    3    0    0  0.10559504828E+02 -0.59978479365E+02  0.36596442703E+03  0.37099849458E+03  0.10000000000E+01 0.  0.
<mgrwt>
<rscale>  0 0.12500029E+03</rscale>
<asrwt>0</asrwt>
<pdfrwt beam="1">  1        4 0.14614412E+00 0.12500029E+03</pdfrwt>
<pdfrwt beam="2">  1       -4 0.63263610E-03 0.12500029E+03</pdfrwt>
<totfact> 0.32172448E+03</totfact>
</mgrwt>
</event>
<event>
 5    1  0.3486294E-002  0.1250020E+03  0.7818608E-02  0.1235066E+00
          4   -1    0    0  501    0  0.00000000000E+00  0.00000000000E+00  0.21317378489E+03  0.21317756792E+03  0.12700000000E+01 0.  1.
         -4   -1    0    0    0  501 -0.00000000000E+00 -0.00000000000E+00 -0.18298872767E+02  0.18342890844E+02  0.12700000000E+01 0.  1.
         25    2    1    2    0    0  0.00000000000E+00  0.00000000000E+00  0.19487491212E+03  0.23152045876E+03  0.12500196579E+03 0.  0.
    9000005    1    3    3    0    0 -0.42538880335E+02  0.14227119824E+02  0.16845006082E+02  0.47924122408E+02  0.10000000000E+01 0.  0.
    9000005    1    3    3    0    0  0.42538880335E+02 -0.14227119824E+02  0.17802990604E+03  0.18359633636E+03  0.10000000000E+01 0.  0.
<mgrwt>
<rscale>  0 0.12500197E+03</rscale>
<asrwt>0</asrwt>
<pdfrwt beam="1">  1        4 0.32799645E-01 0.12500197E+03</pdfrwt>
<pdfrwt beam="2">  1       -4 0.28188881E-02 0.12500197E+03</pdfrwt>
<totfact> 0.85072942E+03</totfact>
</mgrwt>
</event>
<event>
 5    1  0.3486294E-002  0.1250076E+03  0.7818608E-02  0.1235057E+00
         -4   -1    0    0    0  501 -0.00000000000E+00  0.00000000000E+00  0.85232802385E+02  0.85242263592E+02  0.12700000000E+01 0. -1.
          4   -1    0    0  501    0  0.00000000000E+00 -0.00000000000E+00 -0.45815153128E+02  0.45832752003E+02  0.12700000000E+01 0. -1.
         25    2    1    2    0    0  0.00000000000E+00  0.00000000000E+00  0.39417649257E+02  0.13107501560E+03  0.12500763433E+03 0.  0.
    9000005    1    3    3    0    0 -0.56785397661E+02 -0.18572061569E+02  0.48242648198E+00  0.59755632318E+02  0.10000000000E+01 0.  0.
    9000005    1    3    3    0    0  0.56785397661E+02  0.18572061569E+02  0.38935222775E+02  0.71319383277E+02  0.10000000000E+01 0.  0.
<mgrwt>
<rscale>  0 0.12500763E+03</rscale>
<asrwt>0</asrwt>
<pdfrwt beam="2">  1        4 0.70505667E-02 0.12500763E+03</pdfrwt>
<pdfrwt beam="1">  1       -4 0.13114820E-01 0.12500763E+03</pdfrwt>
<totfact> 0.10319704E+04</totfact>
</mgrwt>
</event>
<event>
 5    1  0.3486294E-002  0.1249990E+03  0.7818608E-02  0.1235071E+00
          4   -1    0    0  501    0  0.00000000000E+00  0.00000000000E+00  0.18361814426E+04  0.18361818818E+04  0.12700000000E+01 0. -1.
         -4   -1    0    0    0  501 -0.00000000000E+00 -0.00000000000E+00 -0.19373217718E+01  0.23164877827E+01  0.12700000000E+01 0. -1.
         25    2    1    2    0    0  0.00000000000E+00  0.00000000000E+00  0.18342441209E+04  0.18384983696E+04  0.12499904065E+03 0.  0.
    9000005    1    3    3    0    0 -0.45052231971E+02  0.11128645690E+02  0.15326942013E+04  0.15333969040E+04  0.10000000000E+01 0.  0.
    9000005    1    3    3    0    0  0.45052231971E+02 -0.11128645690E+02  0.30154991954E+03  0.30510146564E+03  0.10000000000E+01 0.  0.
<mgrwt>
<rscale>  0 0.12499904E+03</rscale>
<asrwt>0</asrwt>
<pdfrwt beam="1">  1        4 0.28251927E+00 0.12499904E+03</pdfrwt>
<pdfrwt beam="2">  1       -4 0.32724919E-03 0.12499904E+03</pdfrwt>
<totfact> 0.12119849E+03</totfact>
</mgrwt>
</event>
<event>
 5    1  0.3486294E-002  0.1250023E+03  0.7818608E-02  0.1235066E+00
         -4   -1    0    0    0  501 -0.00000000000E+00  0.00000000000E+00  0.38792415387E+02  0.38813198677E+02  0.12700000000E+01 0. -1.
          4   -1    0    0  501    0  0.00000000000E+00 -0.00000000000E+00 -0.10064819284E+03  0.10065620509E+03  0.12700000000E+01 0. -1.
         25    2    1    2    0    0  0.00000000000E+00  0.00000000000E+00 -0.61855777457E+02  0.13946940376E+03  0.12500230951E+03 0.  0.
    9000005    1    3    3    0    0 -0.41401172587E+02 -0.38651625058E+02 -0.60392349369E+02  0.82802421906E+02  0.10000000000E+01 0.  0.
    9000005    1    3    3    0    0  0.41401172587E+02  0.38651625058E+02 -0.14634280887E+01  0.56666981859E+02  0.10000000000E+01 0.  0.
<mgrwt>
<rscale>  0 0.12500231E+03</rscale>
<asrwt>0</asrwt>
<pdfrwt beam="2">  1        4 0.15486552E-01 0.12500231E+03</pdfrwt>
<pdfrwt beam="1">  1       -4 0.59702790E-02 0.12500231E+03</pdfrwt>
<totfact> 0.10144067E+04</totfact>
</mgrwt>
</event>
<event>
 5    1  0.3486294E-002  0.1249997E+03  0.7818608E-02  0.1235070E+00
          4   -1    0    0  501    0  0.00000000000E+00  0.00000000000E+00  0.70461491583E+01  0.71596870016E+01  0.12700000000E+01 0.  1.
         -4   -1    0    0    0  501 -0.00000000000E+00 -0.00000000000E+00 -0.54983349124E+03  0.54983495796E+03  0.12700000000E+01 0.  1.
         25    2    1    2    0    0  0.00000000000E+00  0.00000000000E+00 -0.54278734209E+03  0.55699464496E+03  0.12499974314E+03 0.  0.
    9000005    1    3    3    0    0  0.37746255973E+02  0.49191863750E+02 -0.23670156297E+03  0.24469010853E+03  0.10000000000E+01 0.  0.
    9000005    1    3    3    0    0 -0.37746255973E+02 -0.49191863750E+02 -0.30608577912E+03  0.31230453643E+03  0.10000000000E+01 0.  0.
<mgrwt>
<rscale>  0 0.12499974E+03</rscale>
<asrwt>0</asrwt>
<pdfrwt beam="1">  1        4 0.10928699E-02 0.12499974E+03</pdfrwt>
<pdfrwt beam="2">  1       -4 0.84598581E-01 0.12499974E+03</pdfrwt>
<totfact> 0.51700157E+03</totfact>
</mgrwt>
</event>
<event>
 5    1  0.3486294E-002  0.1249997E+03  0.7818608E-02  0.1235070E+00
          4   -1    0    0  501    0  0.00000000000E+00  0.00000000000E+00  0.94757965088E+01  0.95605240168E+01  0.12700000000E+01 0.  1.
         -4   -1    0    0    0  501 -0.00000000000E+00 -0.00000000000E+00 -0.41031214992E+03  0.41031411537E+03  0.12700000000E+01 0.  1.
         25    2    1    2    0    0  0.00000000000E+00  0.00000000000E+00 -0.40083635341E+03  0.41987463939E+03  0.12499972234E+03 0.  0.
    9000005    1    3    3    0    0  0.58166144944E+01  0.46698597022E+02 -0.62304638039E+02  0.78086233673E+02  0.10000000000E+01 0.  0.
    9000005    1    3    3    0    0 -0.58166144944E+01 -0.46698597022E+02 -0.33853171537E+03  0.34178840572E+03  0.10000000000E+01 0.  0.
<mgrwt>
<rscale>  0 0.12499972E+03</rscale>
<asrwt>0</asrwt>
<pdfrwt beam="1">  1        4 0.14644839E-02 0.12499972E+03</pdfrwt>
<pdfrwt beam="2">  1       -4 0.63131601E-01 0.12499972E+03</pdfrwt>
<totfact> 0.62665031E+03</totfact>
</mgrwt>
</event>
<event>
 5    1  0.3486294E-002  0.1249994E+03  0.7818608E-02  0.1235070E+00
         -4   -1    0    0    0  501 -0.00000000000E+00  0.00000000000E+00  0.27767167005E+03  0.27767457436E+03  0.12700000000E+01 0.  1.
          4   -1    0    0  501    0  0.00000000000E+00 -0.00000000000E+00 -0.14036085288E+02  0.14093423651E+02  0.12700000000E+01 0.  1.
         25    2    1    2    0    0  0.00000000000E+00  0.00000000000E+00  0.26363558476E+03  0.29176799801E+03  0.12499937245E+03 0.  0.
    9000005    1    3    3    0    0 -0.49760927909E+01  0.45228446318E+02  0.23180134365E+03  0.23622708730E+03  0.10000000000E+01 0.  0.
    9000005    1    3    3    0    0  0.49760927909E+01 -0.45228446318E+02  0.31834241106E+02  0.55540910711E+02  0.10000000000E+01 0.  0.
<mgrwt>
<rscale>  0 0.12499937E+03</rscale>
<asrwt>0</asrwt>
<pdfrwt beam="2">  1        4 0.21640321E-02 0.12499937E+03</pdfrwt>
<pdfrwt beam="1">  1       -4 0.42723346E-01 0.12499937E+03</pdfrwt>
<totfact> 0.76644258E+03</totfact>
</mgrwt>
</event>
<event>
 5    1  0.3486294E-002  0.1249990E+03  0.7818608E-02  0.1235071E+00
          4   -1    0    0  501    0  0.00000000000E+00  0.00000000000E+00  0.25040643526E+03  0.25040965580E+03  0.12700000000E+01 0. -1.
         -4   -1    0    0    0  501 -0.00000000000E+00 -0.00000000000E+00 -0.15570218832E+02  0.15621927361E+02  0.12700000000E+01 0. -1.
         25    2    1    2    0    0  0.00000000000E+00  0.00000000000E+00  0.23483621643E+03  0.26603158316E+03  0.12499901877E+03 0.  0.
    9000005    1    3    3    0    0 -0.17463063135E+02 -0.57058783515E+02  0.15692175319E+03  0.16788716442E+03  0.10000000000E+01 0.  0.
    9000005    1    3    3    0    0  0.17463063135E+02  0.57058783515E+02  0.77914463233E+02  0.98144418747E+02  0.10000000000E+01 0.  0.
<mgrwt>
<rscale>  0 0.12499902E+03</rscale>
<asrwt>0</asrwt>
<pdfrwt beam="1">  1        4 0.38528292E-01 0.12499902E+03</pdfrwt>
<pdfrwt beam="2">  1       -4 0.23996436E-02 0.12499902E+03</pdfrwt>
<totfact> 0.80068742E+03</totfact>
</mgrwt>
</event>
<event>
 5    1  0.3486294E-002  0.1250023E+03  0.7818608E-02  0.1235066E+00
         -4   -1    0    0    0  501 -0.00000000000E+00  0.00000000000E+00  0.26866304907E+02  0.26896305311E+02  0.12700000000E+01 0. -1.
          4   -1    0    0  501    0  0.00000000000E+00 -0.00000000000E+00 -0.14528728156E+03  0.14529283218E+03  0.12700000000E+01 0. -1.
         25    2    1    2    0    0  0.00000000000E+00  0.00000000000E+00 -0.11842097665E+03  0.17218913749E+03  0.12500228541E+03 0.  0.
    9000005    1    3    3    0    0  0.16285433257E+02 -0.35875778384E+02  0.76098308226E+01  0.40139710216E+02  0.10000000000E+01 0.  0.
    9000005    1    3    3    0    0 -0.16285433257E+02  0.35875778384E+02 -0.12603080748E+03  0.13204942728E+03  0.10000000000E+01 0.  0.
<mgrwt>
<rscale>  0 0.12500229E+03</rscale>
<asrwt>0</asrwt>
<pdfrwt beam="2">  1        4 0.22354624E-01 0.12500229E+03</pdfrwt>
<pdfrwt beam="1">  1       -4 0.41360124E-02 0.12500229E+03</pdfrwt>
<totfact> 0.95037305E+03</totfact>
</mgrwt>
</event>
<event>
 5    1  0.3486294E-002  0.1249942E+03  0.7818608E-02  0.1235078E+00
          4   -1    0    0  501    0  0.00000000000E+00  0.00000000000E+00  0.53938134599E+02  0.53953083915E+02  0.12700000000E+01 0.  1.
         -4   -1    0    0    0  501 -0.00000000000E+00 -0.00000000000E+00 -0.72383650249E+02  0.72394790720E+02  0.12700000000E+01 0.  1.
         25    2    1    2    0    0  0.00000000000E+00  0.00000000000E+00 -0.18445515650E+02  0.12634787463E+03  0.12499419337E+03 0.  0.
    9000005    1    3    3    0    0 -0.61820667240E+02 -0.69006154078E+00 -0.18410529933E+02  0.64515259399E+02  0.10000000000E+01 0.  0.
    9000005    1    3    3    0    0  0.61820667240E+02  0.69006154078E+00 -0.34985716900E-01  0.61832615236E+02  0.10000000000E+01 0.  0.
<mgrwt>
<rscale>  0 0.12499419E+03</rscale>
<asrwt>0</asrwt>
<pdfrwt beam="1">  1        4 0.83001815E-02 0.12499419E+03</pdfrwt>
<pdfrwt beam="2">  1       -4 0.11137953E-01 0.12499419E+03</pdfrwt>
<totfact> 0.10424714E+04</totfact>
</mgrwt>
</event>
<event>
 5    1  0.3486294E-002  0.1250037E+03  0.7818608E-02  0.1235064E+00
         -4   -1    0    0    0  501 -0.00000000000E+00  0.00000000000E+00  0.15080322368E+03  0.15080857128E+03  0.12700000000E+01 0.  1.
          4   -1    0    0  501    0  0.00000000000E+00 -0.00000000000E+00 -0.25883110960E+02  0.25914249612E+02  0.12700000000E+01 0.  1.
         25    2    1    2    0    0  0.00000000000E+00  0.00000000000E+00  0.12492011272E+03  0.17672282089E+03  0.12500368340E+03 0.  0.
    9000005    1    3    3    0    0  0.38393503097E+01  0.53585051453E+02  0.17322475783E+02  0.56454995503E+02  0.10000000000E+01 0.  0.
    9000005    1    3    3    0    0 -0.38393503097E+01 -0.53585051453E+02  0.10759763694E+03  0.12026782539E+03  0.10000000000E+01 0.  0.
<mgrwt>
<rscale>  0 0.12500368E+03</rscale>
<asrwt>0</asrwt>
<pdfrwt beam="2">  1        4 0.39848237E-02 0.12500368E+03</pdfrwt>
<pdfrwt beam="1">  1       -4 0.23203303E-01 0.12500368E+03</pdfrwt>
<totfact> 0.94202471E+03</totfact>
</mgrwt>
</event>
<event>
 5    1  0.3486294E-002  0.1250000E+03  0.7818608E-02  0.1235069E+00
         -4   -1    0    0    0  501 -0.00000000000E+00  0.00000000000E+00  0.43106692253E+03  0.43106879334E+03  0.12700000000E+01 0. -1.
          4   -1    0    0  501    0  0.00000000000E+00 -0.00000000000E+00 -0.90154161131E+01  0.91044290152E+01  0.12700000000E+01 0. -1.
         25    2    1    2    0    0  0.00000000000E+00  0.00000000000E+00  0.42205150641E+03  0.44017322236E+03  0.12499996647E+03 0.  0.
    9000005    1    3    3    0    0 -0.73959103868E+01 -0.43378517761E+02  0.54775645483E+02  0.70269243853E+02  0.10000000000E+01 0.  0.
    9000005    1    3    3    0    0  0.73959103868E+01  0.43378517761E+02  0.36727586093E+03  0.36990397851E+03  0.10000000000E+01 0.  0.
<mgrwt>
<rscale>  0 0.12499997E+03</rscale>
<asrwt>0</asrwt>
<pdfrwt beam="2">  1        4 0.13939782E-02 0.12499997E+03</pdfrwt>
<pdfrwt beam="1">  1       -4 0.66324978E-01 0.12499997E+03</pdfrwt>
<totfact> 0.60824597E+03</totfact>
</mgrwt>
</event>
<event>
 5    1  0.3486294E-002  0.1249996E+03  0.7818608E-02  0.1235070E+00
         -4   -1    0    0    0  501 -0.00000000000E+00  0.00000000000E+00  0.35331120361E+02  0.35353938479E+02  0.12700000000E+01 0.  1.
          4   -1    0    0  501    0  0.00000000000E+00 -0.00000000000E+00 -0.11049833310E+03  0.11050563116E+03  0.12700000000E+01 0.  1.
         25    2    1    2    0    0  0.00000000000E+00  0.00000000000E+00 -0.75167212742E+02  0.14585956964E+03  0.12499961674E+03 0.  0.
    9000005    1    3    3    0    0 -0.44410215622E+02 -0.22149330183E+02 -0.81899955966E+02  0.95767754837E+02  0.10000000000E+01 0.  0.
    9000005    1    3    3    0    0  0.44410215622E+02  0.22149330183E+02  0.67327432238E+01  0.50091814805E+02  0.10000000000E+01 0.  0.
<mgrwt>
<rscale>  0 0.12499962E+03</rscale>
<asrwt>0</asrwt>
<pdfrwt beam="2">  1        4 0.17002060E-01 0.12499962E+03</pdfrwt>
<pdfrwt beam="1">  1       -4 0.54378737E-02 0.12499962E+03</pdfrwt>
<totfact> 0.10013640E+04</totfact>
</mgrwt>
</event>
<event>
 5    1  0.3486294E-002  0.1250004E+03  0.7818608E-02  0.1235069E+00
          4   -1    0    0  501    0  0.00000000000E+00  0.00000000000E+00  0.12717027490E+04  0.12717033831E+04  0.12700000000E+01 0.  1.
         -4   -1    0    0    0  501 -0.00000000000E+00 -0.00000000000E+00 -0.29397534286E+01  0.32023507336E+01  0.12700000000E+01 0.  1.
         25    2    1    2    0    0  0.00000000000E+00  0.00000000000E+00  0.12687629955E+04  0.12749057338E+04  0.12500036543E+03 0.  0.
    9000005    1    3    3    0    0 -0.47898014423E+02  0.25090223754E+02  0.31484578422E+03  0.31945673722E+03  0.10000000000E+01 0.  0.
    9000005    1    3    3    0    0  0.47898014423E+02 -0.25090223754E+02  0.95391721131E+03  0.95544899662E+03  0.10000000000E+01 0.  0.
<mgrwt>
<rscale>  0 0.12500037E+03</rscale>
<asrwt>0</asrwt>
<pdfrwt beam="1">  1        4 0.19566685E+00 0.12500037E+03</pdfrwt>
<pdfrwt beam="2">  1       -4 0.47251828E-03 0.12500037E+03</pdfrwt>
<totfact> 0.22828458E+03</totfact>
</mgrwt>
</event>
<event>
 5    1  0.3486294E-002  0.1249926E+03  0.7818608E-02  0.1235081E+00
          4   -1    0    0  501    0  0.00000000000E+00  0.00000000000E+00  0.25724397555E+02  0.25755728092E+02  0.12700000000E+01 0.  1.
         -4   -1    0    0    0  501 -0.00000000000E+00 -0.00000000000E+00 -0.15170563976E+03  0.15171095555E+03  0.12700000000E+01 0.  1.
         25    2    1    2    0    0  0.00000000000E+00  0.00000000000E+00 -0.12598124221E+03  0.17746668365E+03  0.12499260145E+03 0.  0.
    9000005    1    3    3    0    0  0.81728150753E+01  0.33689664539E+02  0.10826224944E+02  0.36331743002E+02  0.10000000000E+01 0.  0.
    9000005    1    3    3    0    0 -0.81728150753E+01 -0.33689664539E+02 -0.13680746715E+03  0.14113494065E+03  0.10000000000E+01 0.  0.
<mgrwt>
<rscale>  0 0.12499260E+03</rscale>
<asrwt>0</asrwt>
<pdfrwt beam="1">  1        4 0.39604186E-02 0.12499260E+03</pdfrwt>
<pdfrwt beam="2">  1       -4 0.23342148E-01 0.12499260E+03</pdfrwt>
<totfact> 0.94090618E+03</totfact>
</mgrwt>
</event>
<event>
 5    1  0.3486294E-002  0.1249996E+03  0.7818608E-02  0.1235070E+00
          4   -1    0    0  501    0  0.00000000000E+00  0.00000000000E+00  0.11144784810E+02  0.11216912608E+02  0.12700000000E+01 0.  1.
         -4   -1    0    0    0  501 -0.00000000000E+00 -0.00000000000E+00 -0.34929431731E+03  0.34929662610E+03  0.12700000000E+01 0.  1.
         25    2    1    2    0    0  0.00000000000E+00  0.00000000000E+00 -0.33814953250E+03  0.36051353870E+03  0.12499962105E+03 0.  0.
    9000005    1    3    3    0    0  0.39679570290E+02 -0.40655928365E+02 -0.24416454172E+03  0.25068844457E+03  0.10000000000E+01 0.  0.
    9000005    1    3    3    0    0 -0.39679570290E+02  0.40655928365E+02 -0.93984990779E+02  0.10982509413E+03  0.10000000000E+01 0.  0.
<mgrwt>
<rscale>  0 0.12499962E+03</rscale>
<asrwt>0</asrwt>
<pdfrwt beam="1">  1        4 0.17203084E-02 0.12499962E+03</pdfrwt>
<pdfrwt beam="2">  1       -4 0.53743305E-01 0.12499962E+03</pdfrwt>
<totfact> 0.68583795E+03</totfact>
</mgrwt>
</event>
<event>
 5    1  0.3486294E-002  0.1250018E+03  0.7818608E-02  0.1235066E+00
          4   -1    0    0  501    0  0.00000000000E+00  0.00000000000E+00  0.13175299159E+02  0.13236366870E+02  0.12700000000E+01 0. -1.
         -4   -1    0    0    0  501 -0.00000000000E+00 -0.00000000000E+00 -0.29574332753E+03  0.29574605437E+03  0.12700000000E+01 0. -1.
         25    2    1    2    0    0  0.00000000000E+00  0.00000000000E+00 -0.28256802837E+03  0.30898242124E+03  0.12500178391E+03 0.  0.
    9000005    1    3    3    0    0  0.41140437254E+01 -0.52754568138E+02 -0.59102212738E+02  0.79334994585E+02  0.10000000000E+01 0.  0.
    9000005    1    3    3    0    0 -0.41140437254E+01  0.52754568138E+02 -0.22346581563E+03  0.22964742666E+03  0.10000000000E+01 0.  0.
<mgrwt>
<rscale>  0 0.12500178E+03</rscale>
<asrwt>0</asrwt>
<pdfrwt beam="1">  1        4 0.20318766E-02 0.12500178E+03</pdfrwt>
<pdfrwt beam="2">  1       -4 0.45503876E-01 0.12500178E+03</pdfrwt>
<totfact> 0.74482794E+03</totfact>
</mgrwt>
</event>
<event>
 5    1  0.3486294E-002  0.1249986E+03  0.7818608E-02  0.1235072E+00
         -4   -1    0    0    0  501 -0.00000000000E+00  0.00000000000E+00  0.13469807419E+04  0.13469813406E+04  0.12700000000E+01 0. -1.
          4   -1    0    0  501    0  0.00000000000E+00 -0.00000000000E+00 -0.27602635809E+01  0.30384132431E+01  0.12700000000E+01 0. -1.
         25    2    1    2    0    0  0.00000000000E+00  0.00000000000E+00  0.13442204783E+04  0.13500197538E+04  0.12499856583E+03 0.  0.
    9000005    1    3    3    0    0  0.11667531881E+02 -0.27508336392E+02  0.79340968896E+02  0.84786963718E+02  0.10000000000E+01 0.  0.
    9000005    1    3    3    0    0 -0.11667531881E+02  0.27508336392E+02  0.12648795094E+04  0.12652327901E+04  0.10000000000E+01 0.  0.
<mgrwt>
<rscale>  0 0.12499857E+03</rscale>
<asrwt>0</asrwt>
<pdfrwt beam="2">  1        4 0.44609822E-03 0.12499857E+03</pdfrwt>
<pdfrwt beam="1">  1       -4 0.20724920E+00 0.12499857E+03</pdfrwt>
<totfact> 0.21078475E+03</totfact>
</mgrwt>
</event>
<event>
 5    1  0.3486294E-002  0.1249974E+03  0.7818608E-02  0.1235073E+00
          4   -1    0    0  501    0  0.00000000000E+00  0.00000000000E+00  0.63934827019E+02  0.63947439401E+02  0.12700000000E+01 0.  1.
         -4   -1    0    0    0  501 -0.00000000000E+00 -0.00000000000E+00 -0.61069623358E+02  0.61082827350E+02  0.12700000000E+01 0.  1.
         25    2    1    2    0    0  0.00000000000E+00  0.00000000000E+00  0.28652036616E+01  0.12503026675E+03  0.12499743282E+03 0.  0.
    9000005    1    3    3    0    0 -0.44240250532E+02 -0.20554163368E+02  0.40499437412E+02  0.63410392126E+02  0.10000000000E+01 0.  0.
    9000005    1    3    3    0    0  0.44240250532E+02  0.20554163368E+02 -0.37634233750E+02  0.61619874626E+02  0.10000000000E+01 0.  0.
<mgrwt>
<rscale>  0 0.12499743E+03</rscale>
<asrwt>0</asrwt>
<pdfrwt beam="1">  1        4 0.98381131E-02 0.12499743E+03</pdfrwt>
<pdfrwt beam="2">  1       -4 0.93973125E-02 0.12499743E+03</pdfrwt>
<totfact> 0.10452812E+04</totfact>
</mgrwt>
</event>
<event>
 5    1  0.3486294E-002  0.1250025E+03  0.7818608E-02  0.1235065E+00
         -4   -1    0    0    0  501 -0.00000000000E+00  0.00000000000E+00  0.19047391084E+02  0.19089683263E+02  0.12700000000E+01 0. -1.
          4   -1    0    0  501    0  0.00000000000E+00 -0.00000000000E+00 -0.20481705695E+03  0.20482099433E+03  0.12700000000E+01 0. -1.
         25    2    1    2    0    0  0.00000000000E+00  0.00000000000E+00 -0.18576966587E+03  0.22391067759E+03  0.12500249111E+03 0.  0.
    9000005    1    3    3    0    0  0.89082039415E+01  0.46193488955E+01 -0.20337330951E+03  0.20362317525E+03  0.10000000000E+01 0.  0.
    9000005    1    3    3    0    0 -0.89082039415E+01 -0.46193488955E+01  0.17603643639E+02  0.20287502337E+02  0.10000000000E+01 0.  0.
<mgrwt>
<rscale>  0 0.12500249E+03</rscale>
<asrwt>0</asrwt>
<pdfrwt beam="2">  1        4 0.31513871E-01 0.12500249E+03</pdfrwt>
<pdfrwt beam="1">  1       -4 0.29339241E-02 0.12500249E+03</pdfrwt>
<totfact> 0.86248497E+03</totfact>
</mgrwt>
</event>
<event>
 5    1  0.3486294E-002  0.1249883E+03  0.7818608E-02  0.1235088E+00
          4   -1    0    0  501    0  0.00000000000E+00  0.00000000000E+00  0.12821713403E+03  0.12822342360E+03  0.12700000000E+01 0.  1.
         -4   -1    0    0    0  501 -0.00000000000E+00 -0.00000000000E+00 -0.30439894427E+02  0.30466376101E+02  0.12700000000E+01 0.  1.
         25    2    1    2    0    0  0.00000000000E+00  0.00000000000E+00  0.97777239607E+02  0.15868979970E+03  0.12498825523E+03 0.  0.
    9000005    1    3    3    0    0 -0.45144871836E+02  0.39310953071E+02  0.71639786876E+02  0.93363105926E+02  0.10000000000E+01 0.  0.
    9000005    1    3    3    0    0  0.45144871836E+02 -0.39310953071E+02  0.26137452731E+02  0.65326693776E+02  0.10000000000E+01 0.  0.
<mgrwt>
<rscale>  0 0.12498826E+03</rscale>
<asrwt>0</asrwt>
<pdfrwt beam="1">  1        4 0.19728234E-01 0.12498826E+03</pdfrwt>
<pdfrwt beam="2">  1       -4 0.46855815E-02 0.12498826E+03</pdfrwt>
<totfact> 0.97621750E+03</totfact>
</mgrwt>
</event>
<event>
 5    1  0.3486294E-002  0.1250008E+03  0.7818608E-02  0.1235068E+00
         -4   -1    0    0    0  501 -0.00000000000E+00  0.00000000000E+00  0.24822208566E+03  0.24822533455E+03  0.12700000000E+01 0.  1.
          4   -1    0    0  501    0  0.00000000000E+00 -0.00000000000E+00 -0.15708144449E+02  0.15759400434E+02  0.12700000000E+01 0.  1.
         25    2    1    2    0    0  0.00000000000E+00  0.00000000000E+00  0.23251394121E+03  0.26398473498E+03  0.12500082977E+03 0.  0.
    9000005    1    3    3    0    0  0.83744034815E+01  0.59418353948E+02  0.79397205079E+02  0.99526818466E+02  0.10000000000E+01 0.  0.
    9000005    1    3    3    0    0 -0.83744034815E+01 -0.59418353948E+02  0.15311673613E+03  0.16445791651E+03  0.10000000000E+01 0.  0.
<mgrwt>
<rscale>  0 0.12500083E+03</rscale>
<asrwt>0</asrwt>
<pdfrwt beam="2">  1        4 0.24208305E-02 0.12500083E+03</pdfrwt>
<pdfrwt beam="1">  1       -4 0.38192203E-01 0.12500083E+03</pdfrwt>
<totfact> 0.80348609E+03</totfact>
</mgrwt>
</event>
<event>
 5    1  0.3486294E-002  0.1250004E+03  0.7818608E-02  0.1235069E+00
         -4   -1    0    0    0  501 -0.00000000000E+00  0.00000000000E+00  0.16231334868E+03  0.16231831708E+03  0.12700000000E+01 0. -1.
          4   -1    0    0  501    0  0.00000000000E+00 -0.00000000000E+00 -0.24044149028E+02  0.24077666051E+02  0.12700000000E+01 0. -1.
         25    2    1    2    0    0  0.00000000000E+00  0.00000000000E+00  0.13826919966E+03  0.18639598314E+03  0.12500036382E+03 0.  0.
    9000005    1    3    3    0    0 -0.46567771616E+02  0.20300607126E+02  0.12340559282E+03  0.13345640615E+03  0.10000000000E+01 0.  0.
    9000005    1    3    3    0    0  0.46567771616E+02 -0.20300607126E+02  0.14863606832E+02  0.52939576982E+02  0.10000000000E+01 0.  0.
<mgrwt>
<rscale>  0 0.12500036E+03</rscale>
<asrwt>0</asrwt>
<pdfrwt beam="2">  1        4 0.37020603E-02 0.12500036E+03</pdfrwt>
<pdfrwt beam="1">  1       -4 0.24974245E-01 0.12500036E+03</pdfrwt>
<totfact> 0.92477456E+03</totfact>
</mgrwt>
</event>
<event>
 5    1  0.3486294E-002  0.1250031E+03  0.7818608E-02  0.1235064E+00
          4   -1    0    0  501    0  0.00000000000E+00  0.00000000000E+00  0.59932804038E+01  0.61263618893E+01  0.12700000000E+01 0. -1.
         -4   -1    0    0    0  501 -0.00000000000E+00 -0.00000000000E+00 -0.64451323044E+03  0.64451448169E+03  0.12700000000E+01 0. -1.
         25    2    1    2    0    0  0.00000000000E+00  0.00000000000E+00 -0.63851995003E+03  0.65064084358E+03  0.12500312293E+03 0.  0.
    9000005    1    3    3    0    0 -0.45448372773E+02 -0.11405013205E+02 -0.10403375305E+03  0.11410368394E+03  0.10000000000E+01 0.  0.
    9000005    1    3    3    0    0  0.45448372773E+02  0.11405013205E+02 -0.53448619698E+03  0.53653715964E+03  0.10000000000E+01 0.  0.
<mgrwt>
<rscale>  0 0.12500312E+03</rscale>
<asrwt>0</asrwt>
<pdfrwt beam="1">  1        4 0.93237694E-03 0.12500312E+03</pdfrwt>
<pdfrwt beam="2">  1       -4 0.99166161E-01 0.12500312E+03</pdfrwt>
<totfact> 0.45816171E+03</totfact>
</mgrwt>
</event>
<event>
 5    1  0.3486294E-002  0.1250041E+03  0.7818608E-02  0.1235063E+00
          4   -1    0    0  501    0  0.00000000000E+00  0.00000000000E+00  0.17089778377E+02  0.17136902432E+02  0.12700000000E+01 0.  1.
         -4   -1    0    0    0  501 -0.00000000000E+00 -0.00000000000E+00 -0.22822358266E+03  0.22822711623E+03  0.12700000000E+01 0.  1.
         25    2    1    2    0    0  0.00000000000E+00  0.00000000000E+00 -0.21113380428E+03  0.24536401866E+03  0.12500407330E+03 0.  0.
    9000005    1    3    3    0    0 -0.28719917730E+02  0.54597054765E+02 -0.85954863826E+02  0.10580600493E+03  0.10000000000E+01 0.  0.
    9000005    1    3    3    0    0  0.28719917730E+02 -0.54597054765E+02 -0.12517894045E+03  0.13955801373E+03  0.10000000000E+01 0.  0.
<mgrwt>
<rscale>  0 0.12500407E+03</rscale>
<asrwt>0</asrwt>
<pdfrwt beam="1">  1        4 0.26330936E-02 0.12500407E+03</pdfrwt>
<pdfrwt beam="2">  1       -4 0.35115215E-01 0.12500407E+03</pdfrwt>
<totfact> 0.82997389E+03</totfact>
</mgrwt>
</event>
<event>
 5    1  0.3486294E-002  0.1250012E+03  0.7818608E-02  0.1235067E+00
          4   -1    0    0  501    0  0.00000000000E+00  0.00000000000E+00  0.25250234917E+03  0.25250554298E+03  0.12700000000E+01 0.  1.
         -4   -1    0    0    0  501 -0.00000000000E+00 -0.00000000000E+00 -0.15441095052E+02  0.15493234537E+02  0.12700000000E+01 0.  1.
         25    2    1    2    0    0  0.00000000000E+00  0.00000000000E+00  0.23706125412E+03  0.26799877752E+03  0.12500122618E+03 0.  0.
    9000005    1    3    3    0    0 -0.37448973602E+02 -0.44664713928E+02  0.16685154251E+03  0.17674218379E+03  0.10000000000E+01 0.  0.
    9000005    1    3    3    0    0  0.37448973602E+02  0.44664713928E+02  0.70209711608E+02  0.91256593725E+02  0.10000000000E+01 0.  0.
<mgrwt>
<rscale>  0 0.12500123E+03</rscale>
<asrwt>0</asrwt>
<pdfrwt beam="1">  1        4 0.38850773E-01 0.12500123E+03</pdfrwt>
<pdfrwt beam="2">  1       -4 0.23798094E-02 0.12500123E+03</pdfrwt>
<totfact> 0.79794308E+03</totfact>
</mgrwt>
</event>
<event>
 5    1  0.3486294E-002  0.1250030E+03  0.7818608E-02  0.1235065E+00
          4   -1    0    0  501    0  0.00000000000E+00  0.00000000000E+00  0.12428018195E+02  0.12492739341E+02  0.12700000000E+01 0. -1.
         -4   -1    0    0    0  501 -0.00000000000E+00 -0.00000000000E+00 -0.31344266655E+03  0.31344523942E+03  0.12700000000E+01 0. -1.
         25    2    1    2    0    0  0.00000000000E+00  0.00000000000E+00 -0.30101464835E+03  0.32593797876E+03  0.12500298986E+03 0.  0.
    9000005    1    3    3    0    0 -0.18986613415E+02 -0.56978189203E+02 -0.10546334202E+03  0.12136936205E+03  0.10000000000E+01 0.  0.
    9000005    1    3    3    0    0  0.18986613415E+02  0.56978189203E+02 -0.19555130633E+03  0.20456861671E+03  0.10000000000E+01 0.  0.
<mgrwt>
<rscale>  0 0.12500299E+03</rscale>
<asrwt>0</asrwt>
<pdfrwt beam="1">  1        4 0.19171795E-02 0.12500299E+03</pdfrwt>
<pdfrwt beam="2">  1       -4 0.48227119E-01 0.12500299E+03</pdfrwt>
<totfact> 0.72450606E+03</totfact>
</mgrwt>
</event>
<event>
 5    1  0.3486294E-002  0.1249979E+03  0.7818608E-02  0.1235073E+00
         -4   -1    0    0    0  501 -0.00000000000E+00  0.00000000000E+00  0.16058229007E+02  0.16108371079E+02  0.12700000000E+01 0.  1.
          4   -1    0    0  501    0  0.00000000000E+00 -0.00000000000E+00 -0.24281627282E+03  0.24281959403E+03  0.12700000000E+01 0.  1.
         25    2    1    2    0    0  0.00000000000E+00  0.00000000000E+00 -0.22675804381E+03  0.25892796511E+03  0.12499792271E+03 0.  0.
    9000005    1    3    3    0    0  0.55467909068E+02  0.28771909490E+02 -0.11176320667E+03  0.12804892064E+03  0.10000000000E+01 0.  0.
    9000005    1    3    3    0    0 -0.55467909068E+02 -0.28771909490E+02 -0.11499483714E+03  0.13087904447E+03  0.10000000000E+01 0.  0.
<mgrwt>
<rscale>  0 0.12499792E+03</rscale>
<asrwt>0</asrwt>
<pdfrwt beam="2">  1        4 0.37360460E-01 0.12499792E+03</pdfrwt>
<pdfrwt beam="1">  1       -4 0.24746095E-02 0.12499792E+03</pdfrwt>
<totfact> 0.81060491E+03</totfact>
</mgrwt>
</event>
<event>
 5    1  0.3486294E-002  0.1250003E+03  0.7818608E-02  0.1235069E+00
         -4   -1    0    0    0  501 -0.00000000000E+00  0.00000000000E+00  0.42043100177E+03  0.42043291991E+03  0.12700000000E+01 0. -1.
          4   -1    0    0  501    0  0.00000000000E+00 -0.00000000000E+00 -0.92457536043E+01  0.93325698343E+01  0.12700000000E+01 0. -1.
         25    2    1    2    0    0  0.00000000000E+00  0.00000000000E+00  0.41118524816E+03  0.42976548975E+03  0.12500027149E+03 0.  0.
    9000005    1    3    3    0    0  0.15540372421E+01 -0.55040637741E+02  0.30719929841E+03  0.31209661289E+03  0.10000000000E+01 0.  0.
    9000005    1    3    3    0    0 -0.15540372421E+01  0.55040637741E+02  0.10398594976E+03  0.11766887686E+03  0.10000000000E+01 0.  0.
<mgrwt>
<rscale>  0 0.12500027E+03</rscale>
<asrwt>0</asrwt>
<pdfrwt beam="2">  1        4 0.14292489E-02 0.12500027E+03</pdfrwt>
<pdfrwt beam="1">  1       -4 0.64688539E-01 0.12500027E+03</pdfrwt>
<totfact> 0.61756870E+03</totfact>
</mgrwt>
</event>
<event>
 5    1  0.3486294E-002  0.1250083E+03  0.7818608E-02  0.1235056E+00
          4   -1    0    0  501    0  0.00000000000E+00  0.00000000000E+00  0.36528250387E+02  0.36550321152E+02  0.12700000000E+01 0. -1.
         -4   -1    0    0    0  501 -0.00000000000E+00 -0.00000000000E+00 -0.10689390597E+03  0.10690145010E+03  0.12700000000E+01 0. -1.
         25    2    1    2    0    0  0.00000000000E+00  0.00000000000E+00 -0.70365655586E+02  0.14345177125E+03  0.12500834048E+03 0.  0.
    9000005    1    3    3    0    0 -0.60882478248E+02  0.12472524456E+02 -0.27611577347E+02  0.68012052075E+02  0.10000000000E+01 0.  0.
    9000005    1    3    3    0    0  0.60882478248E+02 -0.12472524456E+02 -0.42754078239E+02  0.75439719180E+02  0.10000000000E+01 0.  0.
<mgrwt>
<rscale>  0 0.12500834E+03</rscale>
<asrwt>0</asrwt>
<pdfrwt beam="1">  1        4 0.56220089E-02 0.12500834E+03</pdfrwt>
<pdfrwt beam="2">  1       -4 0.16447494E-01 0.12500834E+03</pdfrwt>
<totfact> 0.10060650E+04</totfact>
</mgrwt>
</event>
<event>
 5    1  0.3486294E-002  0.1249996E+03  0.7818608E-02  0.1235070E+00
         -4   -1    0    0    0  501 -0.00000000000E+00  0.00000000000E+00  0.17065399200E+02  0.17112590390E+02  0.12700000000E+01 0. -1.
          4   -1    0    0  501    0  0.00000000000E+00 -0.00000000000E+00 -0.22853244069E+03  0.22853596948E+03  0.12700000000E+01 0. -1.
         25    2    1    2    0    0  0.00000000000E+00  0.00000000000E+00 -0.21146704149E+03  0.24564855987E+03  0.12499962132E+03 0.  0.
    9000005    1    3    3    0    0  0.28648661133E+02 -0.43222444251E+02 -0.37196372153E+02  0.63823942005E+02  0.10000000000E+01 0.  0.
    9000005    1    3    3    0    0 -0.28648661133E+02  0.43222444251E+02 -0.17427066934E+03  0.18182461787E+03  0.10000000000E+01 0.  0.
<mgrwt>
<rscale>  0 0.12499962E+03</rscale>
<asrwt>0</asrwt>
<pdfrwt beam="2">  1        4 0.35162736E-01 0.12499962E+03</pdfrwt>
<pdfrwt beam="1">  1       -4 0.26293477E-02 0.12499962E+03</pdfrwt>
<totfact> 0.82963943E+03</totfact>
</mgrwt>
</event>
<event>
 5    1  0.3486294E-002  0.1249995E+03  0.7818608E-02  0.1235070E+00
         -4   -1    0    0    0  501 -0.00000000000E+00  0.00000000000E+00  0.23008161149E+03  0.23008511652E+03  0.12700000000E+01 0. -1.
          4   -1    0    0  501    0  0.00000000000E+00 -0.00000000000E+00 -0.16950153925E+02  0.16997665078E+02  0.12700000000E+01 0. -1.
         25    2    1    2    0    0  0.00000000000E+00  0.00000000000E+00  0.21313145756E+03  0.24708278160E+03  0.12499953104E+03 0.  0.
    9000005    1    3    3    0    0  0.14027450232E+02  0.59476903540E+02  0.80721252838E+02  0.10124817072E+03  0.10000000000E+01 0.  0.
    9000005    1    3    3    0    0 -0.14027450232E+02 -0.59476903540E+02  0.13241020472E+03  0.14583461088E+03  0.10000000000E+01 0.  0.
<mgrwt>
<rscale>  0 0.12499953E+03</rscale>
<asrwt>0</asrwt>
<pdfrwt beam="2">  1        4 0.26116406E-02 0.12499953E+03</pdfrwt>
<pdfrwt beam="1">  1       -4 0.35401091E-01 0.12499953E+03</pdfrwt>
<totfact> 0.82754560E+03</totfact>
</mgrwt>
</event>
<event>
 5    1  0.3486294E-002  0.1250001E+03  0.7818608E-02  0.1235069E+00
          4   -1    0    0  501    0  0.00000000000E+00  0.00000000000E+00  0.75861056267E+02  0.75871686142E+02  0.12700000000E+01 0.  1.
         -4   -1    0    0    0  501 -0.00000000000E+00 -0.00000000000E+00 -0.51470139606E+02  0.51485805530E+02  0.12700000000E+01 0.  1.
         25    2    1    2    0    0  0.00000000000E+00  0.00000000000E+00  0.24390916661E+02  0.12735749167E+03  0.12500005548E+03 0.  0.
    9000005    1    3    3    0    0  0.45647997844E+02 -0.39581776144E+01 -0.31101233845E+02  0.55386763977E+02  0.10000000000E+01 0.  0.
    9000005    1    3    3    0    0 -0.45647997844E+02  0.39581776144E+01  0.55492150506E+02  0.71970727695E+02  0.10000000000E+01 0.  0.
<mgrwt>
<rscale>  0 0.12500006E+03</rscale>
<asrwt>0</asrwt>
<pdfrwt beam="1">  1        4 0.11672954E-01 0.12500006E+03</pdfrwt>
<pdfrwt beam="2">  1       -4 0.79205058E-02 0.12500006E+03</pdfrwt>
<totfact> 0.10401375E+04</totfact>
</mgrwt>
</event>
<event>
 5    1  0.3486294E-002  0.1249994E+03  0.7818608E-02  0.1235070E+00
          4   -1    0    0  501    0  0.00000000000E+00  0.00000000000E+00  0.23023029070E+02  0.23058030435E+02  0.12700000000E+01 0.  1.
         -4   -1    0    0    0  501 -0.00000000000E+00 -0.00000000000E+00 -0.16949914117E+03  0.16950389895E+03  0.12700000000E+01 0.  1.
         25    2    1    2    0    0  0.00000000000E+00  0.00000000000E+00 -0.14647611210E+03  0.19256192938E+03  0.12499938092E+03 0.  0.
    9000005    1    3    3    0    0  0.24441860481E+02 -0.53309817302E+02 -0.39987799108E+02  0.70988486687E+02  0.10000000000E+01 0.  0.
    9000005    1    3    3    0    0 -0.24441860481E+02  0.53309817302E+02 -0.10648831300E+03  0.12157344270E+03  0.10000000000E+01 0.  0.
<mgrwt>
<rscale>  0 0.12499938E+03</rscale>
<asrwt>0</asrwt>
<pdfrwt beam="1">  1        4 0.35450630E-02 0.12499938E+03</pdfrwt>
<pdfrwt beam="2">  1       -4 0.26079849E-01 0.12499938E+03</pdfrwt>
<totfact> 0.91404716E+03</totfact>
</mgrwt>
</event>
<event>
 5    1  0.3486294E-002  0.1249750E+03  0.7818608E-02  0.1235108E+00
          4   -1    0    0  501    0  0.00000000000E+00  0.00000000000E+00  0.17421148112E+03  0.17421611021E+03  0.12700000000E+01 0.  1.
         -4   -1    0    0    0  501 -0.00000000000E+00 -0.00000000000E+00 -0.22390562371E+02  0.22426550856E+02  0.12700000000E+01 0.  1.
         25    2    1    2    0    0  0.00000000000E+00  0.00000000000E+00  0.15182091875E+03  0.19664266106E+03  0.12497497661E+03 0.  0.
    9000005    1    3    3    0    0  0.33681951641E+02  0.31410787201E+02  0.14234264743E+03  0.14961129869E+03  0.10000000000E+01 0.  0.
    9000005    1    3    3    0    0 -0.33681951641E+02 -0.31410787201E+02  0.94782713198E+01  0.47031362368E+02  0.10000000000E+01 0.  0.
<mgrwt>
<rscale>  0 0.12497498E+03</rscale>
<asrwt>0</asrwt>
<pdfrwt beam="1">  1        4 0.26804890E-01 0.12497498E+03</pdfrwt>
<pdfrwt beam="2">  1       -4 0.34478264E-02 0.12497498E+03</pdfrwt>
<totfact> 0.90755015E+03</totfact>
</mgrwt>
</event>
<event>
 5    1  0.3486294E-002  0.1250010E+03  0.7818608E-02  0.1235068E+00
          4   -1    0    0  501    0  0.00000000000E+00  0.00000000000E+00  0.81859177390E+02  0.81869028472E+02  0.12700000000E+01 0.  1.
         -4   -1    0    0    0  501 -0.00000000000E+00 -0.00000000000E+00 -0.47698751135E+02  0.47715655290E+02  0.12700000000E+01 0.  1.
         25    2    1    2    0    0  0.00000000000E+00  0.00000000000E+00  0.34160426256E+02  0.12958468376E+03  0.12500102217E+03 0.  0.
    9000005    1    3    3    0    0 -0.54164001186E+01  0.48505944860E+02 -0.23378439817E+02  0.54126846622E+02  0.10000000000E+01 0.  0.
    9000005    1    3    3    0    0  0.54164001186E+01 -0.48505944860E+02  0.57538866073E+02  0.75457837141E+02  0.10000000000E+01 0.  0.
<mgrwt>
<rscale>  0 0.12500102E+03</rscale>
<asrwt>0</asrwt>
<pdfrwt beam="1">  1        4 0.12595777E-01 0.12500102E+03</pdfrwt>
<pdfrwt beam="2">  1       -4 0.73403276E-02 0.12500102E+03</pdfrwt>
<totfact> 0.10353161E+04</totfact>
</mgrwt>
</event>
<event>
 5    1  0.3486294E-002  0.1250011E+03  0.7818608E-02  0.1235068E+00
          4   -1    0    0  501    0  0.00000000000E+00  0.00000000000E+00  0.60386701364E+02  0.60400054649E+02  0.12700000000E+01 0.  1.
         -4   -1    0    0    0  501 -0.00000000000E+00 -0.00000000000E+00 -0.64661651428E+02  0.64674122069E+02  0.12700000000E+01 0.  1.
         25    2    1    2    0    0  0.00000000000E+00  0.00000000000E+00 -0.42749500646E+01  0.12507417672E+03  0.12500109793E+03 0.  0.
    9000005    1    3    3    0    0 -0.42015129690E+02 -0.43134003735E+02  0.14590708581E+02  0.61965330451E+02  0.10000000000E+01 0.  0.
    9000005    1    3    3    0    0  0.42015129690E+02  0.43134003735E+02 -0.18865658646E+02  0.63108846267E+02  0.10000000000E+01 0.  0.
<mgrwt>
<rscale>  0 0.12500110E+03</rscale>
<asrwt>0</asrwt>
<pdfrwt beam="1">  1        4 0.92922482E-02 0.12500110E+03</pdfrwt>
<pdfrwt beam="2">  1       -4 0.99499329E-02 0.12500110E+03</pdfrwt>
<totfact> 0.10450992E+04</totfact>
</mgrwt>
</event>
<event>
 5    1  0.3486294E-002  0.1249970E+03  0.7818608E-02  0.1235074E+00
          4   -1    0    0  501    0  0.00000000000E+00  0.00000000000E+00  0.18136256391E+02  0.18180668192E+02  0.12700000000E+01 0. -1.
         -4   -1    0    0    0  501 -0.00000000000E+00 -0.00000000000E+00 -0.21506353438E+03  0.21506728417E+03  0.12700000000E+01 0. -1.
         25    2    1    2    0    0  0.00000000000E+00  0.00000000000E+00 -0.19692727799E+03  0.23324795236E+03  0.12499701782E+03 0.  0.
    9000005    1    3    3    0    0  0.37556153076E+01 -0.12580866941E+02 -0.21246987622E+03  0.21287750271E+03  0.10000000000E+01 0.  0.
    9000005    1    3    3    0    0 -0.37556153076E+01  0.12580866941E+02  0.15542598229E+02  0.20370449652E+02  0.10000000000E+01 0.  0.
<mgrwt>
<rscale>  0 0.12499702E+03</rscale>
<asrwt>0</asrwt>
<pdfrwt beam="1">  1        4 0.27938982E-02 0.12499702E+03</pdfrwt>
<pdfrwt beam="2">  1       -4 0.33090401E-01 0.12499702E+03</pdfrwt>
<totfact> 0.84818996E+03</totfact>
</mgrwt>
</event>
<event>
 5    1  0.3486294E-002  0.1250038E+03  0.7818608E-02  0.1235063E+00
         -4   -1    0    0    0  501 -0.00000000000E+00  0.00000000000E+00  0.34026271705E+03  0.34026508712E+03  0.12700000000E+01 0.  1.
          4   -1    0    0  501    0  0.00000000000E+00 -0.00000000000E+00 -0.11443251650E+02  0.11513509818E+02  0.12700000000E+01 0.  1.
         25    2    1    2    0    0  0.00000000000E+00  0.00000000000E+00  0.32881946540E+03  0.35177859694E+03  0.12500376170E+03 0.  0.
    9000005    1    3    3    0    0  0.32836062549E+02 -0.50291928435E+01  0.31337302365E+03  0.31513037260E+03  0.10000000000E+01 0.  0.
    9000005    1    3    3    0    0 -0.32836062549E+02  0.50291928435E+01  0.15446441748E+02  0.36648224336E+02  0.10000000000E+01 0.  0.
<mgrwt>
<rscale>  0 0.12500376E+03</rscale>
<asrwt>0</asrwt>
<pdfrwt beam="2">  1        4 0.17660870E-02 0.12500376E+03</pdfrwt>
<pdfrwt beam="1">  1       -4 0.52353697E-01 0.12500376E+03</pdfrwt>
<totfact> 0.69523541E+03</totfact>
</mgrwt>
</event>
<event>
 5    1  0.3486294E-002  0.1249990E+03  0.7818608E-02  0.1235071E+00
         -4   -1    0    0    0  501 -0.00000000000E+00  0.00000000000E+00  0.11663592336E+03  0.11664283741E+03  0.12700000000E+01 0.  1.
          4   -1    0    0  501    0  0.00000000000E+00 -0.00000000000E+00 -0.33470457352E+02  0.33494543068E+02  0.12700000000E+01 0.  1.
         25    2    1    2    0    0  0.00000000000E+00  0.00000000000E+00  0.83165466013E+02  0.15013738048E+03  0.12499895311E+03 0.  0.
    9000005    1    3    3    0    0 -0.59001142535E+02  0.19965006989E+02  0.47641878492E+02  0.78425027324E+02  0.10000000000E+01 0.  0.
    9000005    1    3    3    0    0  0.59001142535E+02 -0.19965006989E+02  0.35523587521E+02  0.71712353154E+02  0.10000000000E+01 0.  0.
<mgrwt>
<rscale>  0 0.12499895E+03</rscale>
<asrwt>0</asrwt>
<pdfrwt beam="2">  1        4 0.51516858E-02 0.12499895E+03</pdfrwt>
<pdfrwt beam="1">  1       -4 0.17946373E-01 0.12499895E+03</pdfrwt>
<totfact> 0.99278659E+03</totfact>
</mgrwt>
</event>
<event>
 5    1  0.3486294E-002  0.1250003E+03  0.7818608E-02  0.1235069E+00
          4   -1    0    0  501    0  0.00000000000E+00  0.00000000000E+00  0.47039453399E+03  0.47039624840E+03  0.12700000000E+01 0.  1.
         -4   -1    0    0    0  501 -0.00000000000E+00 -0.00000000000E+00 -0.82539455767E+01  0.83510788275E+01  0.12700000000E+01 0.  1.
         25    2    1    2    0    0  0.00000000000E+00  0.00000000000E+00  0.46214058841E+03  0.47874732723E+03  0.12500031947E+03 0.  0.
    9000005    1    3    3    0    0  0.29342210011E+02 -0.14058627634E+02  0.26725765747E+02  0.42117417467E+02  0.10000000000E+01 0.  0.
    9000005    1    3    3    0    0 -0.29342210011E+02  0.14058627634E+02  0.43541482267E+03  0.43662990976E+03  0.10000000000E+01 0.  0.
<mgrwt>
<rscale>  0 0.12500032E+03</rscale>
<asrwt>0</asrwt>
<pdfrwt beam="1">  1        4 0.72376001E-01 0.12500032E+03</pdfrwt>
<pdfrwt beam="2">  1       -4 0.12774413E-02 0.12500032E+03</pdfrwt>
<totfact> 0.57551449E+03</totfact>
</mgrwt>
</event>
<event>
 5    1  0.3486294E-002  0.1250007E+03  0.7818608E-02  0.1235068E+00
         -4   -1    0    0    0  501 -0.00000000000E+00  0.00000000000E+00  0.31630182413E+03  0.31630437374E+03  0.12700000000E+01 0. -1.
          4   -1    0    0  501    0  0.00000000000E+00 -0.00000000000E+00 -0.12314645820E+02  0.12379959679E+02  0.12700000000E+01 0. -1.
         25    2    1    2    0    0  0.00000000000E+00  0.00000000000E+00  0.30398717831E+03  0.32868433342E+03  0.12500074584E+03 0.  0.
    9000005    1    3    3    0    0 -0.59662705568E+01 -0.98445012715E+01 -0.95156931277E+01  0.14968600647E+02  0.10000000000E+01 0.  0.
    9000005    1    3    3    0    0  0.59662705568E+01  0.98445012715E+01  0.31350287144E+03  0.31371573278E+03  0.10000000000E+01 0.  0.
<mgrwt>
<rscale>  0 0.12500075E+03</rscale>
<asrwt>0</asrwt>
<pdfrwt beam="2">  1        4 0.18997812E-02 0.12500075E+03</pdfrwt>
<pdfrwt beam="1">  1       -4 0.48667039E-01 0.12500075E+03</pdfrwt>
<totfact> 0.72133813E+03</totfact>
</mgrwt>
</event>
<event>
 5    1  0.3486294E-002  0.1249994E+03  0.7818608E-02  0.1235070E+00
         -4   -1    0    0    0  501 -0.00000000000E+00  0.00000000000E+00  0.16189821671E+03  0.16190319785E+03  0.12700000000E+01 0.  1.
          4   -1    0    0  501    0  0.00000000000E+00 -0.00000000000E+00 -0.24105499827E+02  0.24138931665E+02  0.12700000000E+01 0.  1.
         25    2    1    2    0    0  0.00000000000E+00  0.00000000000E+00  0.13779271688E+03  0.18604212951E+03  0.12499936451E+03 0.  0.
    9000005    1    3    3    0    0 -0.14867162147E+00  0.60152524155E+02  0.43688263816E+02  0.74350606325E+02  0.10000000000E+01 0.  0.
    9000005    1    3    3    0    0  0.14867162147E+00 -0.60152524155E+02  0.94104453066E+02  0.11169152319E+03  0.10000000000E+01 0.  0.
<mgrwt>
<rscale>  0 0.12499936E+03</rscale>
<asrwt>0</asrwt>
<pdfrwt beam="2">  1        4 0.37114934E-02 0.12499936E+03</pdfrwt>
<pdfrwt beam="1">  1       -4 0.24910372E-01 0.12499936E+03</pdfrwt>
<totfact> 0.92541886E+03</totfact>
</mgrwt>
</event>
<event>
 5    1  0.3486294E-002  0.1250000E+03  0.7818608E-02  0.1235069E+00
         -4   -1    0    0    0  501 -0.00000000000E+00  0.00000000000E+00  0.31367740262E+01  0.33841175056E+01  0.12700000000E+01 0. -1.
          4   -1    0    0  501    0  0.00000000000E+00 -0.00000000000E+00 -0.11978243513E+04  0.11978250245E+04  0.12700000000E+01 0. -1.
         25    2    1    2    0    0  0.00000000000E+00  0.00000000000E+00 -0.11946875772E+04  0.12012091420E+04  0.12499998278E+03 0.  0.
    9000005    1    3    3    0    0  0.24895757926E+02  0.52010372133E+02 -0.36583810439E+03  0.37035576976E+03  0.10000000000E+01 0.  0.
    9000005    1    3    3    0    0 -0.24895757926E+02 -0.52010372133E+02 -0.82884947285E+03  0.83085337227E+03  0.10000000000E+01 0.  0.
<mgrwt>
<rscale>  0 0.12499998E+03</rscale>
<asrwt>0</asrwt>
<pdfrwt beam="2">  1        4 0.18429940E+00 0.12499998E+03</pdfrwt>
<pdfrwt beam="1">  1       -4 0.50165979E-03 0.12499998E+03</pdfrwt>
<totfact> 0.24681188E+03</totfact>
</mgrwt>
</event>
<event>
 5    1  0.3486294E-002  0.1250256E+03  0.7818608E-02  0.1235029E+00
         -4   -1    0    0    0  501 -0.00000000000E+00  0.00000000000E+00  0.71898855009E+02  0.71910070586E+02  0.12700000000E+01 0. -1.
          4   -1    0    0  501    0  0.00000000000E+00 -0.00000000000E+00 -0.54329197297E+02  0.54344039038E+02  0.12700000000E+01 0. -1.
         25    2    1    2    0    0  0.00000000000E+00  0.00000000000E+00  0.17569657712E+02  0.12625410962E+03  0.12502562667E+03 0.  0.
    9000005    1    3    3    0    0 -0.57657804762E+02 -0.10527838621E+02  0.30714424138E+02  0.66178800882E+02  0.10000000000E+01 0.  0.
    9000005    1    3    3    0    0  0.57657804762E+02  0.10527838621E+02 -0.13144766425E+02  0.60075308742E+02  0.10000000000E+01 0.  0.
<mgrwt>
<rscale>  0 0.12502563E+03</rscale>
<asrwt>0</asrwt>
<pdfrwt beam="2">  1        4 0.83603425E-02 0.12502563E+03</pdfrwt>
<pdfrwt beam="1">  1       -4 0.11063367E-01 0.12502563E+03</pdfrwt>
<totfact> 0.10419368E+04</totfact>
</mgrwt>
</event>
<event>
 4    1  0.3486294E-002  0.1248436E+03  0.7818608E-02  0.1235314E+00
         -4   -1    0    0    0  501 -0.00000000000E+00  0.00000000000E+00  0.20980902972E+03  0.20981287342E+03  0.12700000000E+01 0. -1.
          4   -1    0    0  501    0  0.00000000000E+00 -0.00000000000E+00 -0.18545832223E+02  0.18589265527E+02  0.12700000000E+01 0. -1.
    9000005    1    1    2    0    0 -0.34019083215E+01  0.61192750724E+02  0.11722875088E+03  0.13228645340E+03  0.10000000000E+01 0.  0.
    9000005    1    1    2    0    0  0.34019083215E+01 -0.61192750724E+02  0.74034446620E+02  0.96115685545E+02  0.10000000000E+01 0.  0.
<mgrwt>
<rscale>  0 0.12484361E+03</rscale>
<asrwt>0</asrwt>
<pdfrwt beam="2">  1        4 0.28568415E-02 0.12484361E+03</pdfrwt>
<pdfrwt beam="1">  1       -4 0.32281950E-01 0.12484361E+03</pdfrwt>
<totfact> 0.85854815E+03</totfact>
</mgrwt>
</event>
<event>
 5    1  0.3486294E-002  0.1249993E+03  0.7818608E-02  0.1235070E+00
          4   -1    0    0  501    0  0.00000000000E+00  0.00000000000E+00  0.11185354863E+03  0.11186075827E+03  0.12700000000E+01 0. -1.
         -4   -1    0    0    0  501 -0.00000000000E+00 -0.00000000000E+00 -0.34902633093E+02  0.34925731156E+02  0.12700000000E+01 0. -1.
         25    2    1    2    0    0  0.00000000000E+00  0.00000000000E+00  0.76950915535E+02  0.14678648943E+03  0.12499932030E+03 0.  0.
    9000005    1    3    3    0    0 -0.29043951799E+02 -0.27543021702E+01  0.10337145946E+03  0.10741413291E+03  0.10000000000E+01 0.  0.
    9000005    1    3    3    0    0  0.29043951799E+02  0.27543021702E+01 -0.26420543927E+02  0.39372356520E+02  0.10000000000E+01 0.  0.
<mgrwt>
<rscale>  0 0.12499932E+03</rscale>
<asrwt>0</asrwt>
<pdfrwt beam="1">  1        4 0.17210570E-01 0.12499932E+03</pdfrwt>
<pdfrwt beam="2">  1       -4 0.53719672E-02 0.12499932E+03</pdfrwt>
<totfact> 0.99949694E+03</totfact>
</mgrwt>
</event>
<event>
 5    1  0.3486294E-002  0.1249995E+03  0.7818608E-02  0.1235070E+00
         -4   -1    0    0    0  501 -0.00000000000E+00  0.00000000000E+00  0.75851800085E+02  0.75862431257E+02  0.12700000000E+01 0. -1.
          4   -1    0    0  501    0  0.00000000000E+00 -0.00000000000E+00 -0.51475987251E+02  0.51491651396E+02  0.12700000000E+01 0. -1.
         25    2    1    2    0    0  0.00000000000E+00  0.00000000000E+00  0.24375812834E+02  0.12735408265E+03  0.12499952847E+03 0.  0.
    9000005    1    3    3    0    0 -0.46174274363E+02  0.36805874094E+02  0.33030137698E+02  0.67666283902E+02  0.10000000000E+01 0.  0.
    9000005    1    3    3    0    0  0.46174274363E+02 -0.36805874094E+02 -0.86543248638E+01  0.59687798750E+02  0.10000000000E+01 0.  0.
<mgrwt>
<rscale>  0 0.12499953E+03</rscale>
<asrwt>0</asrwt>
<pdfrwt beam="2">  1        4 0.79214054E-02 0.12499953E+03</pdfrwt>
<pdfrwt beam="1">  1       -4 0.11671530E-01 0.12499953E+03</pdfrwt>
<totfact> 0.10401573E+04</totfact>
</mgrwt>
</event>
<event>
 5    1  0.3486294E-002  0.1250027E+03  0.7818608E-02  0.1235065E+00
         -4   -1    0    0    0  501 -0.00000000000E+00  0.00000000000E+00  0.85330510339E+01  0.86270423638E+01  0.12700000000E+01 0.  1.
          4   -1    0    0  501    0  0.00000000000E+00 -0.00000000000E+00 -0.45519587411E+03  0.45519764576E+03  0.12700000000E+01 0.  1.
         25    2    1    2    0    0  0.00000000000E+00  0.00000000000E+00 -0.44666282307E+03  0.46382468812E+03  0.12500265516E+03 0.  0.
    9000005    1    3    3    0    0  0.37782000878E+02 -0.49751534667E+02 -0.21721056598E+03  0.22601797443E+03  0.10000000000E+01 0.  0.
    9000005    1    3    3    0    0 -0.37782000878E+02  0.49751534667E+02 -0.22945225709E+03  0.23780671369E+03  0.10000000000E+01 0.  0.
<mgrwt>
<rscale>  0 0.12500266E+03</rscale>
<asrwt>0</asrwt>
<pdfrwt beam="2">  1        4 0.70037482E-01 0.12500266E+03</pdfrwt>
<pdfrwt beam="1">  1       -4 0.13201438E-02 0.12500266E+03</pdfrwt>
<totfact> 0.58781169E+03</totfact>
</mgrwt>
</event>
<event>
 5    1  0.3486294E-002  0.1250000E+03  0.7818608E-02  0.1235069E+00
          4   -1    0    0  501    0  0.00000000000E+00  0.00000000000E+00  0.40252665151E+02  0.40272694866E+02  0.12700000000E+01 0. -1.
         -4   -1    0    0    0  501 -0.00000000000E+00 -0.00000000000E+00 -0.96994974902E+02  0.97003288894E+02  0.12700000000E+01 0. -1.
         25    2    1    2    0    0  0.00000000000E+00  0.00000000000E+00 -0.56742309751E+02  0.13727598376E+03  0.12500002401E+03 0.  0.
    9000005    1    3    3    0    0  0.82747681489E+00  0.59670614517E+02 -0.80028946978E+01  0.60218878089E+02  0.10000000000E+01 0.  0.
    9000005    1    3    3    0    0 -0.82747681489E+00 -0.59670614517E+02 -0.48739415053E+02  0.77057105671E+02  0.10000000000E+01 0.  0.
<mgrwt>
<rscale>  0 0.12500002E+03</rscale>
<asrwt>0</asrwt>
<pdfrwt beam="1">  1        4 0.61948980E-02 0.12500002E+03</pdfrwt>
<pdfrwt beam="2">  1       -4 0.14924484E-01 0.12500002E+03</pdfrwt>
<totfact> 0.10190313E+04</totfact>
</mgrwt>
</event>
<event>
 5    1  0.3486294E-002  0.1250036E+03  0.7818608E-02  0.1235064E+00
         -4   -1    0    0    0  501 -0.00000000000E+00  0.00000000000E+00  0.85121529992E+02  0.85131003566E+02  0.12700000000E+01 0. -1.
          4   -1    0    0  501    0  0.00000000000E+00 -0.00000000000E+00 -0.45872120396E+02  0.45889697423E+02  0.12700000000E+01 0. -1.
         25    2    1    2    0    0  0.00000000000E+00  0.00000000000E+00  0.39249409596E+02  0.13102070099E+03  0.12500363168E+03 0.  0.
    9000005    1    3    3    0    0  0.47854721807E+02  0.37679961931E+02  0.34284479792E+02  0.69901927620E+02  0.10000000000E+01 0.  0.
    9000005    1    3    3    0    0 -0.47854721807E+02 -0.37679961931E+02  0.49649298040E+01  0.61118773370E+02  0.10000000000E+01 0.  0.
<mgrwt>
<rscale>  0 0.12500363E+03</rscale>
<asrwt>0</asrwt>
<pdfrwt beam="2">  1        4 0.70593301E-02 0.12500363E+03</pdfrwt>
<pdfrwt beam="1">  1       -4 0.13097701E-01 0.12500363E+03</pdfrwt>
<totfact> 0.10321800E+04</totfact>
</mgrwt>
</event>
<event>
 5    1  0.3486294E-002  0.1250011E+03  0.7818608E-02  0.1235067E+00
         -4   -1    0    0    0  501 -0.00000000000E+00  0.00000000000E+00  0.43265191876E+02  0.43283827558E+02  0.12700000000E+01 0.  1.
          4   -1    0    0  501    0  0.00000000000E+00 -0.00000000000E+00 -0.90245312534E+02  0.90254248290E+02  0.12700000000E+01 0.  1.
         25    2    1    2    0    0  0.00000000000E+00  0.00000000000E+00 -0.46980120659E+02  0.13353807585E+03  0.12500114385E+03 0.  0.
    9000005    1    3    3    0    0  0.31993268648E+02 -0.26570139629E+02  0.26340825833E+02  0.49238000206E+02  0.10000000000E+01 0.  0.
    9000005    1    3    3    0    0 -0.31993268648E+02  0.26570139629E+02 -0.73320946492E+02  0.84300075642E+02  0.10000000000E+01 0.  0.
<mgrwt>
<rscale>  0 0.12500114E+03</rscale>
<asrwt>0</asrwt>
<pdfrwt beam="2">  1        4 0.13886015E-01 0.12500114E+03</pdfrwt>
<pdfrwt beam="1">  1       -4 0.66583043E-02 0.12500114E+03</pdfrwt>
<totfact> 0.10268712E+04</totfact>
</mgrwt>
</event>
<event>
 5    1  0.3486294E-002  0.1250001E+03  0.7818608E-02  0.1235069E+00
         -4   -1    0    0    0  501 -0.00000000000E+00  0.00000000000E+00  0.16682034329E+03  0.16682517746E+03  0.12700000000E+01 0.  1.
          4   -1    0    0  501    0  0.00000000000E+00 -0.00000000000E+00 -0.23393566909E+02  0.23428014699E+02  0.12700000000E+01 0.  1.
         25    2    1    2    0    0  0.00000000000E+00  0.00000000000E+00  0.14342677638E+03  0.19025319216E+03  0.12500014778E+03 0.  0.
    9000005    1    3    3    0    0 -0.26162600048E+02 -0.84822184438E+01  0.15712088691E+03  0.15951301757E+03  0.10000000000E+01 0.  0.
    9000005    1    3    3    0    0  0.26162600048E+02  0.84822184438E+01 -0.13694110526E+02  0.30740174595E+02  0.10000000000E+01 0.  0.
<mgrwt>
<rscale>  0 0.12500015E+03</rscale>
<asrwt>0</asrwt>
<pdfrwt beam="2">  1        4 0.36020319E-02 0.12500015E+03</pdfrwt>
<pdfrwt beam="1">  1       -4 0.25667690E-01 0.12500015E+03</pdfrwt>
<totfact> 0.91802974E+03</totfact>
</mgrwt>
</event>
<event>
 5    1  0.3486294E-002  0.1249993E+03  0.7818608E-02  0.1235070E+00
         -4   -1    0    0    0  501 -0.00000000000E+00  0.00000000000E+00  0.55171135504E+03  0.55171281676E+03  0.12700000000E+01 0.  1.
          4   -1    0    0  501    0  0.00000000000E+00 -0.00000000000E+00 -0.70217297100E+01  0.71356561100E+01  0.12700000000E+01 0.  1.
         25    2    1    2    0    0  0.00000000000E+00  0.00000000000E+00  0.54468962533E+03  0.55884847287E+03  0.12499931076E+03 0.  0.
    9000005    1    3    3    0    0  0.58827762475E+02  0.98508025112E+01  0.18900726495E+03  0.19819810834E+03  0.10000000000E+01 0.  0.
    9000005    1    3    3    0    0 -0.58827762475E+02 -0.98508025112E+01  0.35568236038E+03  0.36065036453E+03  0.10000000000E+01 0.  0.
<mgrwt>
<rscale>  0 0.12499931E+03</rscale>
<asrwt>0</asrwt>
<pdfrwt beam="2">  1        4 0.10891421E-02 0.12499931E+03</pdfrwt>
<pdfrwt beam="1">  1       -4 0.84887550E-01 0.12499931E+03</pdfrwt>
<totfact> 0.51573478E+03</totfact>
</mgrwt>
</event>
<event>
 5    1  0.3486294E-002  0.1250042E+03  0.7818608E-02  0.1235063E+00
         -4   -1    0    0    0  501 -0.00000000000E+00  0.00000000000E+00  0.61755387511E+02  0.61768444910E+02  0.12700000000E+01 0.  1.
          4   -1    0    0  501    0  0.00000000000E+00 -0.00000000000E+00 -0.63231709509E+02  0.63244462109E+02  0.12700000000E+01 0.  1.
         25    2    1    2    0    0  0.00000000000E+00  0.00000000000E+00 -0.14763219980E+01  0.12501290702E+03  0.12500418951E+03 0.  0.
    9000005    1    3    3    0    0 -0.59304874468E+02 -0.19471843718E+02  0.23101682489E+01  0.62470454702E+02  0.10000000000E+01 0.  0.
    9000005    1    3    3    0    0  0.59304874468E+02  0.19471843718E+02 -0.37864902469E+01  0.62542452317E+02  0.10000000000E+01 0.  0.
<mgrwt>
<rscale>  0 0.12500419E+03</rscale>
<asrwt>0</asrwt>
<pdfrwt beam="2">  1        4 0.97299407E-02 0.12500419E+03</pdfrwt>
<pdfrwt beam="1">  1       -4 0.95028142E-02 0.12500419E+03</pdfrwt>
<totfact> 0.10451593E+04</totfact>
</mgrwt>
</event>
<event>
 5    1  0.3486294E-002  0.1249960E+03  0.7818608E-02  0.1235076E+00
          4   -1    0    0  501    0  0.00000000000E+00  0.00000000000E+00  0.48583337935E+02  0.48599934413E+02  0.12700000000E+01 0. -1.
         -4   -1    0    0    0  501 -0.00000000000E+00 -0.00000000000E+00 -0.80362598879E+02  0.80372633394E+02  0.12700000000E+01 0. -1.
         25    2    1    2    0    0  0.00000000000E+00  0.00000000000E+00 -0.31779260944E+02  0.12897256781E+03  0.12499600722E+03 0.  0.
    9000005    1    3    3    0    0  0.13129754601E+02  0.51094471099E+02 -0.50450993761E+02  0.73002316430E+02  0.10000000000E+01 0.  0.
    9000005    1    3    3    0    0 -0.13129754601E+02 -0.51094471099E+02  0.18671732817E+02  0.55970251376E+02  0.10000000000E+01 0.  0.
<mgrwt>
<rscale>  0 0.12499601E+03</rscale>
<asrwt>0</asrwt>
<pdfrwt beam="1">  1        4 0.74764083E-02 0.12499601E+03</pdfrwt>
<pdfrwt beam="2">  1       -4 0.12365525E-01 0.12499601E+03</pdfrwt>
<totfact> 0.10367471E+04</totfact>
</mgrwt>
</event>
<event>
 5    1  0.3486294E-002  0.1250029E+03  0.7818608E-02  0.1235065E+00
          4   -1    0    0  501    0  0.00000000000E+00  0.00000000000E+00  0.69858739320E+01  0.71003756657E+01  0.12700000000E+01 0.  1.
         -4   -1    0    0    0  501 -0.00000000000E+00 -0.00000000000E+00 -0.55452927406E+03  0.55453072835E+03  0.12700000000E+01 0.  1.
         25    2    1    2    0    0  0.00000000000E+00  0.00000000000E+00 -0.54754340013E+03  0.56163110402E+03  0.12500288788E+03 0.  0.
    9000005    1    3    3    0    0  0.33246206706E+02  0.51912831397E+02 -0.22769366913E+03  0.23589332183E+03  0.10000000000E+01 0.  0.
    9000005    1    3    3    0    0 -0.33246206706E+02 -0.51912831397E+02 -0.31984973100E+03  0.32573778218E+03  0.10000000000E+01 0.  0.
<mgrwt>
<rscale>  0 0.12500289E+03</rscale>
<asrwt>0</asrwt>
<pdfrwt beam="1">  1        4 0.10836700E-02 0.12500289E+03</pdfrwt>
<pdfrwt beam="2">  1       -4 0.85321081E-01 0.12500289E+03</pdfrwt>
<totfact> 0.51379492E+03</totfact>
</mgrwt>
</event>
<event>
 5    1  0.3486294E-002  0.1249979E+03  0.7818608E-02  0.1235073E+00
          4   -1    0    0  501    0  0.00000000000E+00  0.00000000000E+00  0.44843019276E+03  0.44843199114E+03  0.12700000000E+01 0.  1.
         -4   -1    0    0    0  501 -0.00000000000E+00 -0.00000000000E+00 -0.86625299467E+01  0.87551313569E+01  0.12700000000E+01 0.  1.
         25    2    1    2    0    0  0.00000000000E+00  0.00000000000E+00  0.43976766281E+03  0.45718712250E+03  0.12499787087E+03 0.  0.
    9000005    1    3    3    0    0  0.32779977200E+02  0.20951505908E+02  0.41013684488E+02  0.56538613534E+02  0.10000000000E+01 0.  0.
    9000005    1    3    3    0    0 -0.32779977200E+02 -0.20951505908E+02  0.39875397832E+03  0.40064850896E+03  0.10000000000E+01 0.  0.
<mgrwt>
<rscale>  0 0.12499787E+03</rscale>
<asrwt>0</asrwt>
<pdfrwt beam="1">  1        4 0.68996535E-01 0.12499787E+03</pdfrwt>
<pdfrwt beam="2">  1       -4 0.13399582E-02 0.12499787E+03</pdfrwt>
<totfact> 0.59348967E+03</totfact>
</mgrwt>
</event>
<event>
 5    1  0.3486294E-002  0.1249925E+03  0.7818608E-02  0.1235081E+00
         -4   -1    0    0    0  501 -0.00000000000E+00  0.00000000000E+00  0.99236815987E+02  0.99244942174E+02  0.12700000000E+01 0.  1.
          4   -1    0    0  501    0  0.00000000000E+00 -0.00000000000E+00 -0.39338195859E+02  0.39358690952E+02  0.12700000000E+01 0.  1.
         25    2    1    2    0    0  0.00000000000E+00  0.00000000000E+00  0.59898620128E+02  0.13860363313E+03  0.12499248946E+03 0.  0.
    9000005    1    3    3    0    0  0.40595907382E+02 -0.23592453039E+02  0.75672255269E+02  0.89061337033E+02  0.10000000000E+01 0.  0.
    9000005    1    3    3    0    0 -0.40595907382E+02  0.23592453039E+02 -0.15773635141E+02  0.49542296093E+02  0.10000000000E+01 0.  0.
<mgrwt>
<rscale>  0 0.12499249E+03</rscale>
<asrwt>0</asrwt>
<pdfrwt beam="2">  1        4 0.60542317E-02 0.12499249E+03</pdfrwt>
<pdfrwt beam="1">  1       -4 0.15269404E-01 0.12499249E+03</pdfrwt>
<totfact> 0.10164328E+04</totfact>
</mgrwt>
</event>
<event>
 5    1  0.3486294E-002  0.1250017E+03  0.7818608E-02  0.1235067E+00
          4   -1    0    0  501    0  0.00000000000E+00  0.00000000000E+00  0.75180150838E+03  0.75180258107E+03  0.12700000000E+01 0.  1.
         -4   -1    0    0    0  501 -0.00000000000E+00 -0.00000000000E+00 -0.51172998500E+01  0.52725380752E+01  0.12700000000E+01 0.  1.
         25    2    1    2    0    0  0.00000000000E+00  0.00000000000E+00  0.74668420853E+03  0.75707511915E+03  0.12500171503E+03 0.  0.
    9000005    1    3    3    0    0 -0.58175382092E+01 -0.61840735094E+02  0.41496801974E+03  0.41959215635E+03  0.10000000000E+01 0.  0.
    9000005    1    3    3    0    0  0.58175382092E+01  0.61840735094E+02  0.33171618880E+03  0.33748296279E+03  0.10000000000E+01 0.  0.
<mgrwt>
<rscale>  0 0.12500172E+03</rscale>
<asrwt>0</asrwt>
<pdfrwt beam="1">  1        4 0.11567373E+00 0.12500172E+03</pdfrwt>
<pdfrwt beam="2">  1       -4 0.79930127E-03 0.12500172E+03</pdfrwt>
<totfact> 0.40236510E+03</totfact>
</mgrwt>
</event>
<event>
 5    1  0.3486294E-002  0.1250000E+03  0.7818608E-02  0.1235069E+00
          4   -1    0    0  501    0  0.00000000000E+00  0.00000000000E+00  0.48449766664E+02  0.48466408881E+02  0.12700000000E+01 0.  1.
         -4   -1    0    0    0  501 -0.00000000000E+00 -0.00000000000E+00 -0.80589204928E+02  0.80599211231E+02  0.12700000000E+01 0.  1.
         25    2    1    2    0    0  0.00000000000E+00  0.00000000000E+00 -0.32139438264E+02  0.12906562011E+03  0.12499996321E+03 0.  0.
    9000005    1    3    3    0    0 -0.51695072067E+02  0.17972685914E+02 -0.47214518372E+02  0.72288371541E+02  0.10000000000E+01 0.  0.
    9000005    1    3    3    0    0  0.51695072067E+02 -0.17972685914E+02  0.15075080108E+02  0.56777248571E+02  0.10000000000E+01 0.  0.
<mgrwt>
<rscale>  0 0.12499996E+03</rscale>
<asrwt>0</asrwt>
<pdfrwt beam="1">  1        4 0.74558602E-02 0.12499996E+03</pdfrwt>
<pdfrwt beam="2">  1       -4 0.12400389E-01 0.12499996E+03</pdfrwt>
<totfact> 0.10364546E+04</totfact>
</mgrwt>
</event>
<event>
 5    1  0.3486294E-002  0.1249999E+03  0.7818608E-02  0.1235069E+00
         -4   -1    0    0    0  501 -0.00000000000E+00  0.00000000000E+00  0.34279848050E+01  0.36556777516E+01  0.12700000000E+01 0.  1.
          4   -1    0    0  501    0  0.00000000000E+00 -0.00000000000E+00 -0.11026608871E+04  0.11026616184E+04  0.12700000000E+01 0.  1.
         25    2    1    2    0    0  0.00000000000E+00  0.00000000000E+00 -0.10992329023E+04  0.11063172962E+04  0.12499994569E+03 0.  0.
    9000005    1    3    3    0    0  0.32570922966E+02  0.24692692384E+02 -0.96800026954E+03  0.96886331127E+03  0.10000000000E+01 0.  0.
    9000005    1    3    3    0    0 -0.32570922966E+02 -0.24692692384E+02 -0.13123263271E+03  0.13745398491E+03  0.10000000000E+01 0.  0.
<mgrwt>
<rscale>  0 0.12499995E+03</rscale>
<asrwt>0</asrwt>
<pdfrwt beam="2">  1        4 0.16965743E+00 0.12499995E+03</pdfrwt>
<pdfrwt beam="1">  1       -4 0.54495426E-03 0.12499995E+03</pdfrwt>
<totfact> 0.27299319E+03</totfact>
</mgrwt>
</event>
<event>
 5    1  0.3486294E-002  0.1249996E+03  0.7818608E-02  0.1235070E+00
          4   -1    0    0  501    0  0.00000000000E+00  0.00000000000E+00  0.36840837420E+02  0.36862721031E+02  0.12700000000E+01 0.  1.
         -4   -1    0    0    0  501 -0.00000000000E+00 -0.00000000000E+00 -0.10597263713E+03  0.10598024684E+03  0.12700000000E+01 0.  1.
         25    2    1    2    0    0  0.00000000000E+00  0.00000000000E+00 -0.69131799714E+02  0.14284296787E+03  0.12499963096E+03 0.  0.
    9000005    1    3    3    0    0 -0.31593154161E+02  0.47207684418E+02 -0.47988382755E+01  0.57015100691E+02  0.10000000000E+01 0.  0.
    9000005    1    3    3    0    0  0.31593154161E+02 -0.47207684418E+02 -0.64332961438E+02  0.85827867184E+02  0.10000000000E+01 0.  0.
<mgrwt>
<rscale>  0 0.12499963E+03</rscale>
<asrwt>0</asrwt>
<pdfrwt beam="1">  1        4 0.56700899E-02 0.12499963E+03</pdfrwt>
<pdfrwt beam="2">  1       -4 0.16305751E-01 0.12499963E+03</pdfrwt>
<totfact> 0.10075084E+04</totfact>
</mgrwt>
</event>
<event>
 5    1  0.3486294E-002  0.1249977E+03  0.7818608E-02  0.1235073E+00
         -4   -1    0    0    0  501 -0.00000000000E+00  0.00000000000E+00  0.17698226248E+03  0.17698681909E+03  0.12700000000E+01 0.  1.
          4   -1    0    0  501    0  0.00000000000E+00 -0.00000000000E+00 -0.22047477917E+02  0.22084025504E+02  0.12700000000E+01 0.  1.
         25    2    1    2    0    0  0.00000000000E+00  0.00000000000E+00  0.15493478456E+03  0.19907084460E+03  0.12499765478E+03 0.  0.
    9000005    1    3    3    0    0 -0.24912037576E+02 -0.12887330235E+02  0.16640233676E+03  0.16875257205E+03  0.10000000000E+01 0.  0.
    9000005    1    3    3    0    0  0.24912037576E+02  0.12887330235E+02 -0.11467552192E+02  0.30318272544E+02  0.10000000000E+01 0.  0.
<mgrwt>
<rscale>  0 0.12499765E+03</rscale>
<asrwt>0</asrwt>
<pdfrwt beam="2">  1        4 0.33950816E-02 0.12499765E+03</pdfrwt>
<pdfrwt beam="1">  1       -4 0.27231202E-01 0.12499765E+03</pdfrwt>
<totfact> 0.90297192E+03</totfact>
</mgrwt>
</event>
<event>
 5    1  0.3486294E-002  0.1249990E+03  0.7818608E-02  0.1235071E+00
          4   -1    0    0  501    0  0.00000000000E+00  0.00000000000E+00  0.31945374277E+03  0.31945626723E+03  0.12700000000E+01 0.  1.
         -4   -1    0    0    0  501 -0.00000000000E+00 -0.00000000000E+00 -0.12192146231E+02  0.12258112812E+02  0.12700000000E+01 0.  1.
         25    2    1    2    0    0  0.00000000000E+00  0.00000000000E+00  0.30726159654E+03  0.33171438004E+03  0.12499896486E+03 0.  0.
    9000005    1    3    3    0    0 -0.49541085777E+01 -0.46861464257E+01  0.31847640791E+03  0.31855097796E+03  0.10000000000E+01 0.  0.
    9000005    1    3    3    0    0  0.49541085777E+01  0.46861464257E+01 -0.11214811375E+02  0.13163402080E+02  0.10000000000E+01 0.  0.
<mgrwt>
<rscale>  0 0.12499896E+03</rscale>
<asrwt>0</asrwt>
<pdfrwt beam="1">  1        4 0.49151992E-01 0.12499896E+03</pdfrwt>
<pdfrwt beam="2">  1       -4 0.18809836E-02 0.12499896E+03</pdfrwt>
<totfact> 0.71785829E+03</totfact>
</mgrwt>
</event>
<event>
 5    1  0.3486294E-002  0.1249920E+03  0.7818608E-02  0.1235082E+00
          4   -1    0    0  501    0  0.00000000000E+00  0.00000000000E+00  0.18932046244E+01  0.22797201034E+01  0.12700000000E+01 0. -1.
         -4   -1    0    0    0  501 -0.00000000000E+00 -0.00000000000E+00 -0.18715602594E+04  0.18715606903E+04  0.12700000000E+01 0. -1.
         25    2    1    2    0    0  0.00000000000E+00  0.00000000000E+00 -0.18696670547E+04  0.18738404104E+04  0.12499195149E+03 0.  0.
    9000005    1    3    3    0    0 -0.53121303034E+02  0.17106645781E+02 -0.51339990422E+03  0.51642518511E+03  0.10000000000E+01 0.  0.
    9000005    1    3    3    0    0  0.53121303034E+02 -0.17106645781E+02 -0.13562671505E+04  0.13574152253E+04  0.10000000000E+01 0.  0.
<mgrwt>
<rscale>  0 0.12499195E+03</rscale>
<asrwt>0</asrwt>
<pdfrwt beam="1">  1        4 0.32102885E-03 0.12499195E+03</pdfrwt>
<pdfrwt beam="2">  1       -4 0.28796077E+00 0.12499195E+03</pdfrwt>
<totfact> 0.11601326E+03</totfact>
</mgrwt>
</event>
<event>
 5    1  0.3486294E-002  0.1250140E+03  0.7818608E-02  0.1235047E+00
         -4   -1    0    0    0  501 -0.00000000000E+00  0.00000000000E+00  0.51762804072E+03  0.51762959869E+03  0.12700000000E+01 0.  1.
          4   -1    0    0  501    0  0.00000000000E+00 -0.00000000000E+00 -0.74931311787E+01  0.75999943988E+01  0.12700000000E+01 0.  1.
         25    2    1    2    0    0  0.00000000000E+00  0.00000000000E+00  0.51013490954E+03  0.52522959309E+03  0.12501399731E+03 0.  0.
    9000005    1    3    3    0    0  0.30898683854E+02  0.22302253910E+02  0.46940500808E+02  0.60469246808E+02  0.10000000000E+01 0.  0.
    9000005    1    3    3    0    0 -0.30898683854E+02 -0.22302253910E+02  0.46319440873E+03  0.46476034628E+03  0.10000000000E+01 0.  0.
<mgrwt>
<rscale>  0 0.12501400E+03</rscale>
<asrwt>0</asrwt>
<pdfrwt beam="2">  1        4 0.11611292E-02 0.12501400E+03</pdfrwt>
<pdfrwt beam="1">  1       -4 0.79643441E-01 0.12501400E+03</pdfrwt>
<totfact> 0.53942052E+03</totfact>
</mgrwt>
</event>
<event>
 5    1  0.3486294E-002  0.1250011E+03  0.7818608E-02  0.1235068E+00
         -4   -1    0    0    0  501 -0.00000000000E+00  0.00000000000E+00  0.98644626433E+01  0.99458797117E+01  0.12700000000E+01 0.  1.
          4   -1    0    0  501    0  0.00000000000E+00 -0.00000000000E+00 -0.39428913865E+03  0.39429118397E+03  0.12700000000E+01 0.  1.
         25    2    1    2    0    0  0.00000000000E+00  0.00000000000E+00 -0.38442467600E+03  0.40423706368E+03  0.12500108852E+03 0.  0.
    9000005    1    3    3    0    0 -0.35532056485E+01 -0.29291766733E+02 -0.14065074150E+02  0.32702586741E+02  0.10000000000E+01 0.  0.
    9000005    1    3    3    0    0  0.35532056485E+01  0.29291766733E+02 -0.37035960186E+03  0.37153447694E+03  0.10000000000E+01 0.  0.
<mgrwt>
<rscale>  0 0.12500109E+03</rscale>
<asrwt>0</asrwt>
<pdfrwt beam="2">  1        4 0.60666276E-01 0.12500109E+03</pdfrwt>
<pdfrwt beam="1">  1       -4 0.15240301E-02 0.12500109E+03</pdfrwt>
<totfact> 0.64141238E+03</totfact>
</mgrwt>
</event>
<event>
 5    1  0.3486294E-002  0.1249992E+03  0.7818608E-02  0.1235071E+00
         -4   -1    0    0    0  501 -0.00000000000E+00  0.00000000000E+00  0.76604423792E+01  0.77650033771E+01  0.12700000000E+01 0. -1.
          4   -1    0    0  501    0  0.00000000000E+00 -0.00000000000E+00 -0.50635661008E+03  0.50635820273E+03  0.12700000000E+01 0. -1.
         25    2    1    2    0    0  0.00000000000E+00  0.00000000000E+00 -0.49869616770E+03  0.51412320610E+03  0.12499921351E+03 0.  0.
    9000005    1    3    3    0    0 -0.21144501047E+02 -0.58125406436E+02 -0.28603191505E+03  0.29264468084E+03  0.10000000000E+01 0.  0.
    9000005    1    3    3    0    0  0.21144501047E+02  0.58125406436E+02 -0.21266425265E+03  0.22147852526E+03  0.10000000000E+01 0.  0.
<mgrwt>
<rscale>  0 0.12499921E+03</rscale>
<asrwt>0</asrwt>
<pdfrwt beam="2">  1        4 0.77909157E-01 0.12499921E+03</pdfrwt>
<pdfrwt beam="1">  1       -4 0.11866957E-02 0.12499921E+03</pdfrwt>
<totfact> 0.54785950E+03</totfact>
</mgrwt>
</event>
<event>
 5    1  0.3486294E-002  0.1249927E+03  0.7818608E-02  0.1235081E+00
          4   -1    0    0  501    0  0.00000000000E+00  0.00000000000E+00  0.19185252190E+03  0.19185672534E+03  0.12700000000E+01 0. -1.
         -4   -1    0    0    0  501 -0.00000000000E+00 -0.00000000000E+00 -0.20334064933E+02  0.20373686380E+02  0.12700000000E+01 0. -1.
         25    2    1    2    0    0  0.00000000000E+00  0.00000000000E+00  0.17151845697E+03  0.21223041172E+03  0.12499266610E+03 0.  0.
    9000005    1    3    3    0    0 -0.21877592532E+02 -0.82287587462E+01  0.18415864793E+03  0.18563875978E+03  0.10000000000E+01 0.  0.
    9000005    1    3    3    0    0  0.21877592532E+02  0.82287587462E+01 -0.12640190962E+02  0.26591651943E+02  0.10000000000E+01 0.  0.
<mgrwt>
<rscale>  0 0.12499267E+03</rscale>
<asrwt>0</asrwt>
<pdfrwt beam="1">  1        4 0.29519145E-01 0.12499267E+03</pdfrwt>
<pdfrwt beam="2">  1       -4 0.31316887E-02 0.12499267E+03</pdfrwt>
<totfact> 0.88127360E+03</totfact>
</mgrwt>
</event>
<event>
 5    1  0.3486294E-002  0.1249981E+03  0.7818608E-02  0.1235072E+00
         -4   -1    0    0    0  501 -0.00000000000E+00  0.00000000000E+00  0.74989126823E+02  0.74999880277E+02  0.12700000000E+01 0. -1.
          4   -1    0    0  501    0  0.00000000000E+00 -0.00000000000E+00 -0.52067096983E+02  0.52082583348E+02  0.12700000000E+01 0. -1.
         25    2    1    2    0    0  0.00000000000E+00  0.00000000000E+00  0.22922029840E+02  0.12708246363E+03  0.12499813242E+03 0.  0.
    9000005    1    3    3    0    0 -0.44684273806E+02 -0.30038755611E+02  0.43709361177E+02  0.69357908120E+02  0.10000000000E+01 0.  0.
    9000005    1    3    3    0    0  0.44684273806E+02  0.30038755611E+02 -0.20787331337E+02  0.57724555506E+02  0.10000000000E+01 0.  0.
<mgrwt>
<rscale>  0 0.12499813E+03</rscale>
<asrwt>0</asrwt>
<pdfrwt beam="2">  1        4 0.80123411E-02 0.12499813E+03</pdfrwt>
<pdfrwt beam="1">  1       -4 0.11538807E-01 0.12499813E+03</pdfrwt>
<totfact> 0.10407793E+04</totfact>
</mgrwt>
</event>
<event>
 5    1  0.3486294E-002  0.1250022E+03  0.7818608E-02  0.1235066E+00
          4   -1    0    0  501    0  0.00000000000E+00  0.00000000000E+00  0.11804126951E+03  0.11804810124E+03  0.12700000000E+01 0.  1.
         -4   -1    0    0    0  501 -0.00000000000E+00 -0.00000000000E+00 -0.33073407753E+02  0.33097782409E+02  0.12700000000E+01 0.  1.
         25    2    1    2    0    0  0.00000000000E+00  0.00000000000E+00  0.84967861752E+02  0.15114588365E+03  0.12500216243E+03 0.  0.
    9000005    1    3    3    0    0 -0.45527693503E+02  0.85206697801E+01  0.93210637797E+02  0.10408936395E+03  0.10000000000E+01 0.  0.
    9000005    1    3    3    0    0  0.45527693503E+02 -0.85206697801E+01 -0.82427760449E+01  0.47056519698E+02  0.10000000000E+01 0.  0.
<mgrwt>
<rscale>  0 0.12500216E+03</rscale>
<asrwt>0</asrwt>
<pdfrwt beam="1">  1        4 0.18162596E-01 0.12500216E+03</pdfrwt>
<pdfrwt beam="2">  1       -4 0.50906171E-02 0.12500216E+03</pdfrwt>
<totfact> 0.99070951E+03</totfact>
</mgrwt>
</event>
<event>
 5    1  0.3486294E-002  0.1249990E+03  0.7818608E-02  0.1235071E+00
          4   -1    0    0  501    0  0.00000000000E+00  0.00000000000E+00  0.43595021228E+02  0.43613515977E+02  0.12700000000E+01 0.  1.
         -4   -1    0    0    0  501 -0.00000000000E+00 -0.00000000000E+00 -0.89559719154E+02  0.89568723307E+02  0.12700000000E+01 0.  1.
         25    2    1    2    0    0  0.00000000000E+00  0.00000000000E+00 -0.45964697926E+02  0.13318223928E+03  0.12499902162E+03 0.  0.
    9000005    1    3    3    0    0  0.29752010841E+02 -0.53788234904E+02 -0.34981622543E+02  0.70732384937E+02  0.10000000000E+01 0.  0.
    9000005    1    3    3    0    0 -0.29752010841E+02  0.53788234904E+02 -0.10983075384E+02  0.62449854347E+02  0.10000000000E+01 0.  0.
<mgrwt>
<rscale>  0 0.12499902E+03</rscale>
<asrwt>0</asrwt>
<pdfrwt beam="1">  1        4 0.67090417E-02 0.12499902E+03</pdfrwt>
<pdfrwt beam="2">  1       -4 0.13780534E-01 0.12499902E+03</pdfrwt>
<totfact> 0.10276755E+04</totfact>
</mgrwt>
</event>
<event>
 5    1  0.3486294E-002  0.1249979E+03  0.7818608E-02  0.1235073E+00
          4   -1    0    0  501    0  0.00000000000E+00  0.00000000000E+00  0.50500690479E+01  0.52073119158E+01  0.12700000000E+01 0.  1.
         -4   -1    0    0    0  501 -0.00000000000E+00 -0.00000000000E+00 -0.76146327465E+03  0.76146433372E+03  0.12700000000E+01 0.  1.
         25    2    1    2    0    0  0.00000000000E+00  0.00000000000E+00 -0.75641320560E+03  0.76667164564E+03  0.12499789848E+03 0.  0.
    9000005    1    3    3    0    0 -0.50995167557E+02  0.33377885284E+02 -0.46286819948E+03  0.46686460610E+03  0.10000000000E+01 0.  0.
    9000005    1    3    3    0    0  0.50995167557E+02 -0.33377885284E+02 -0.29354500612E+03  0.29980703954E+03  0.10000000000E+01 0.  0.
<mgrwt>
<rscale>  0 0.12499790E+03</rscale>
<asrwt>0</asrwt>
<pdfrwt beam="1">  1        4 0.78911138E-03 0.12499790E+03</pdfrwt>
<pdfrwt beam="2">  1       -4 0.11716028E+00 0.12499790E+03</pdfrwt>
<totfact> 0.39790996E+03</totfact>
</mgrwt>
</event>
<event>
 5    1  0.3486294E-002  0.1249982E+03  0.7818608E-02  0.1235072E+00
          4   -1    0    0  501    0  0.00000000000E+00  0.00000000000E+00  0.23392817945E+03  0.23393162685E+03  0.12700000000E+01 0.  1.
         -4   -1    0    0    0  501 -0.00000000000E+00 -0.00000000000E+00 -0.16670287306E+02  0.16718593806E+02  0.12700000000E+01 0.  1.
         25    2    1    2    0    0  0.00000000000E+00  0.00000000000E+00  0.21725789215E+03  0.25065022066E+03  0.12499816565E+03 0.  0.
    9000005    1    3    3    0    0 -0.31953352468E+02  0.53286029499E+02  0.12203818363E+03  0.13694793149E+03  0.10000000000E+01 0.  0.
    9000005    1    3    3    0    0  0.31953352468E+02 -0.53286029499E+02  0.95219708513E+02  0.11370228917E+03  0.10000000000E+01 0.  0.
<mgrwt>
<rscale>  0 0.12499817E+03</rscale>
<asrwt>0</asrwt>
<pdfrwt beam="1">  1        4 0.35992931E-01 0.12499817E+03</pdfrwt>
<pdfrwt beam="2">  1       -4 0.25686407E-02 0.12499817E+03</pdfrwt>
<totfact> 0.82239702E+03</totfact>
</mgrwt>
</event>
<event>
 5    1  0.3486294E-002  0.1250028E+03  0.7818608E-02  0.1235065E+00
          4   -1    0    0  501    0  0.00000000000E+00  0.00000000000E+00  0.15886293705E+04  0.15886298782E+04  0.12700000000E+01 0. -1.
         -4   -1    0    0    0  501 -0.00000000000E+00 -0.00000000000E+00 -0.22944681764E+01  0.26224957984E+01  0.12700000000E+01 0. -1.
         25    2    1    2    0    0  0.00000000000E+00  0.00000000000E+00  0.15863349024E+04  0.15912523740E+04  0.12500278089E+03 0.  0.
    9000005    1    3    3    0    0 -0.35838936435E+02  0.32462207371E+02  0.12971105904E+04  0.12980119830E+04  0.10000000000E+01 0.  0.
    9000005    1    3    3    0    0  0.35838936435E+02 -0.32462207371E+02  0.28922431196E+03  0.29324039098E+03  0.10000000000E+01 0.  0.
<mgrwt>
<rscale>  0 0.12500278E+03</rscale>
<asrwt>0</asrwt>
<pdfrwt beam="1">  1        4 0.24443039E+00 0.12500278E+03</pdfrwt>
<pdfrwt beam="2">  1       -4 0.37826612E-03 0.12500278E+03</pdfrwt>
<totfact> 0.16203620E+03</totfact>
</mgrwt>
</event>
<event>
 5    1  0.3486294E-002  0.1249923E+03  0.7818608E-02  0.1235081E+00
          4   -1    0    0  501    0  0.00000000000E+00  0.00000000000E+00  0.40092855279E+01  0.42056236689E+01  0.12700000000E+01 0.  1.
         -4   -1    0    0    0  501 -0.00000000000E+00 -0.00000000000E+00 -0.95070080197E+03  0.95070165024E+03  0.12700000000E+01 0.  1.
         25    2    1    2    0    0  0.00000000000E+00  0.00000000000E+00 -0.94669151644E+03  0.95490727391E+03  0.12499229760E+03 0.  0.
    9000005    1    3    3    0    0 -0.12281088805E+02 -0.54979164124E+02 -0.67993439547E+03  0.68226484284E+03  0.10000000000E+01 0.  0.
    9000005    1    3    3    0    0  0.12281088805E+02  0.54979164124E+02 -0.26675712098E+03  0.27264243107E+03  0.10000000000E+01 0.  0.
<mgrwt>
<rscale>  0 0.12499230E+03</rscale>
<asrwt>0</asrwt>
<pdfrwt beam="1">  1        4 0.63198210E-03 0.12499230E+03</pdfrwt>
<pdfrwt beam="2">  1       -4 0.14627665E+00 0.12499230E+03</pdfrwt>
<totfact> 0.32147821E+03</totfact>
</mgrwt>
</event>
<event>
 5    1  0.3486294E-002  0.1249992E+03  0.7818608E-02  0.1235070E+00
         -4   -1    0    0    0  501 -0.00000000000E+00  0.00000000000E+00  0.69948958796E+02  0.69960486967E+02  0.12700000000E+01 0.  1.
          4   -1    0    0  501    0  0.00000000000E+00 -0.00000000000E+00 -0.55820264109E+02  0.55834709502E+02  0.12700000000E+01 0.  1.
         25    2    1    2    0    0  0.00000000000E+00  0.00000000000E+00  0.14128694687E+02  0.12579519647E+03  0.12499924576E+03 0.  0.
    9000005    1    3    3    0    0 -0.43282015522E+02  0.29991000275E+02  0.40929925401E+02  0.66701212571E+02  0.10000000000E+01 0.  0.
    9000005    1    3    3    0    0  0.43282015522E+02 -0.29991000275E+02 -0.26801230714E+02  0.59093983898E+02  0.10000000000E+01 0.  0.
<mgrwt>
<rscale>  0 0.12499925E+03</rscale>
<asrwt>0</asrwt>
<pdfrwt beam="2">  1        4 0.85897309E-02 0.12499925E+03</pdfrwt>
<pdfrwt beam="1">  1       -4 0.10763376E-01 0.12499925E+03</pdfrwt>
<totfact> 0.10435628E+04</totfact>
</mgrwt>
</event>
<event>
 5    1  0.3486294E-002  0.1249967E+03  0.7818608E-02  0.1235074E+00
          4   -1    0    0  501    0  0.00000000000E+00  0.00000000000E+00  0.13670411743E+02  0.13729277374E+02  0.12700000000E+01 0. -1.
         -4   -1    0    0    0  501 -0.00000000000E+00 -0.00000000000E+00 -0.28505547637E+03  0.28505830545E+03  0.12700000000E+01 0. -1.
         25    2    1    2    0    0  0.00000000000E+00  0.00000000000E+00 -0.27138506462E+03  0.29878758282E+03  0.12499666535E+03 0.  0.
    9000005    1    3    3    0    0 -0.29818752401E+02  0.30162467194E+02 -0.25993055369E+02  0.49755113802E+02  0.10000000000E+01 0.  0.
    9000005    1    3    3    0    0  0.29818752401E+02 -0.30162467194E+02 -0.24539200925E+03  0.24903246902E+03  0.10000000000E+01 0.  0.
<mgrwt>
<rscale>  0 0.12499667E+03</rscale>
<asrwt>0</asrwt>
<pdfrwt beam="1">  1        4 0.21078862E-02 0.12499667E+03</pdfrwt>
<pdfrwt beam="2">  1       -4 0.43859430E-01 0.12499667E+03</pdfrwt>
<totfact> 0.75756784E+03</totfact>
</mgrwt>
</event>
<event>
 5    1  0.3486294E-002  0.1250022E+03  0.7818608E-02  0.1235066E+00
         -4   -1    0    0    0  501 -0.00000000000E+00  0.00000000000E+00  0.84823113459E+02  0.84832620358E+02  0.12700000000E+01 0.  1.
          4   -1    0    0  501    0  0.00000000000E+00 -0.00000000000E+00 -0.46032517776E+02  0.46050033581E+02  0.12700000000E+01 0.  1.
         25    2    1    2    0    0  0.00000000000E+00  0.00000000000E+00  0.38790595683E+02  0.13088265394E+03  0.12500223513E+03 0.  0.
    9000005    1    3    3    0    0 -0.17929174738E+02 -0.31268753632E+02  0.72847812023E+02  0.81283417601E+02  0.10000000000E+01 0.  0.
    9000005    1    3    3    0    0  0.17929174738E+02  0.31268753632E+02 -0.34057216340E+02  0.49599236338E+02  0.10000000000E+01 0.  0.
<mgrwt>
<rscale>  0 0.12500224E+03</rscale>
<asrwt>0</asrwt>
<pdfrwt beam="2">  1        4 0.70840045E-02 0.12500224E+03</pdfrwt>
<pdfrwt beam="1">  1       -4 0.13051788E-01 0.12500224E+03</pdfrwt>
<totfact> 0.10325085E+04</totfact>
</mgrwt>
</event>
<event>
 5    1  0.3486294E-002  0.1250030E+03  0.7818608E-02  0.1235065E+00
         -4   -1    0    0    0  501 -0.00000000000E+00  0.00000000000E+00  0.10291562137E+02  0.10369626378E+02  0.12700000000E+01 0. -1.
          4   -1    0    0  501    0  0.00000000000E+00 -0.00000000000E+00 -0.37806365457E+03  0.37806578767E+03  0.12700000000E+01 0. -1.
         25    2    1    2    0    0  0.00000000000E+00  0.00000000000E+00 -0.36777209243E+03  0.38843541405E+03  0.12500303562E+03 0.  0.
    9000005    1    3    3    0    0 -0.31866706676E+02 -0.39896336531E+02 -0.71922943249E+02  0.88210625372E+02  0.10000000000E+01 0.  0.
    9000005    1    3    3    0    0  0.31866706676E+02  0.39896336531E+02 -0.29584914918E+03  0.30022478868E+03  0.10000000000E+01 0.  0.
<mgrwt>
<rscale>  0 0.12500304E+03</rscale>
<asrwt>0</asrwt>
<pdfrwt beam="2">  1        4 0.58169798E-01 0.12500304E+03</pdfrwt>
<pdfrwt beam="1">  1       -4 0.15894866E-02 0.12500304E+03</pdfrwt>
<totfact> 0.65688905E+03</totfact>
</mgrwt>
</event>
<event>
 5    1  0.3486294E-002  0.1250185E+03  0.7818608E-02  0.1235040E+00
          4   -1    0    0  501    0  0.00000000000E+00  0.00000000000E+00  0.13287061540E+02  0.13347617929E+02  0.12700000000E+01 0. -1.
         -4   -1    0    0    0  501 -0.00000000000E+00 -0.00000000000E+00 -0.29334526282E+03  0.29334801196E+03  0.12700000000E+01 0. -1.
         25    2    1    2    0    0  0.00000000000E+00  0.00000000000E+00 -0.28005820128E+03  0.30669562988E+03  0.12501845179E+03 0.  0.
    9000005    1    3    3    0    0 -0.43783119502E+02 -0.48610548642E+00 -0.24944320100E+03  0.25325897492E+03  0.10000000000E+01 0.  0.
    9000005    1    3    3    0    0  0.43783119502E+02  0.48610548642E+00 -0.30615000279E+02  0.53436654966E+02  0.10000000000E+01 0.  0.
<mgrwt>
<rscale>  0 0.12501845E+03</rscale>
<asrwt>0</asrwt>
<pdfrwt beam="1">  1        4 0.20490332E-02 0.12501845E+03</pdfrwt>
<pdfrwt beam="2">  1       -4 0.45134905E-01 0.12501845E+03</pdfrwt>
<totfact> 0.74735952E+03</totfact>
</mgrwt>
</event>
<event>
 5    1  0.3486294E-002  0.1249991E+03  0.7818608E-02  0.1235071E+00
         -4   -1    0    0    0  501 -0.00000000000E+00  0.00000000000E+00  0.98933035364E+02  0.98941186502E+02  0.12700000000E+01 0. -1.
          4   -1    0    0  501    0  0.00000000000E+00 -0.00000000000E+00 -0.39463209306E+02  0.39483639507E+02  0.12700000000E+01 0. -1.
         25    2    1    2    0    0  0.00000000000E+00  0.00000000000E+00  0.59469826058E+02  0.13842482601E+03  0.12499908897E+03 0.  0.
    9000005    1    3    3    0    0  0.60514604180E+02 -0.10835568812E+02  0.17315842553E+02  0.63876954169E+02  0.10000000000E+01 0.  0.
    9000005    1    3    3    0    0 -0.60514604180E+02  0.10835568812E+02  0.42153983506E+02  0.74547871841E+02  0.10000000000E+01 0.  0.
<mgrwt>
<rscale>  0 0.12499909E+03</rscale>
<asrwt>0</asrwt>
<pdfrwt beam="2">  1        4 0.60734616E-02 0.12499909E+03</pdfrwt>
<pdfrwt beam="1">  1       -4 0.15222665E-01 0.12499909E+03</pdfrwt>
<totfact> 0.10166546E+04</totfact>
</mgrwt>
</event>
<event>
 5    1  0.3486294E-002  0.1250056E+03  0.7818608E-02  0.1235061E+00
          4   -1    0    0  501    0  0.00000000000E+00  0.00000000000E+00  0.16728984110E+03  0.16729466170E+03  0.12700000000E+01 0. -1.
         -4   -1    0    0    0  501 -0.00000000000E+00 -0.00000000000E+00 -0.23329839503E+02  0.23364381251E+02  0.12700000000E+01 0. -1.
         25    2    1    2    0    0  0.00000000000E+00  0.00000000000E+00  0.14396000159E+03  0.19065904295E+03  0.12500555428E+03 0.  0.
    9000005    1    3    3    0    0  0.51725656753E+02  0.34444758892E+02  0.61907624557E+02  0.87724221056E+02  0.10000000000E+01 0.  0.
    9000005    1    3    3    0    0 -0.51725656753E+02 -0.34444758892E+02  0.82052377036E+02  0.10293482190E+03  0.10000000000E+01 0.  0.
<mgrwt>
<rscale>  0 0.12500555E+03</rscale>
<asrwt>0</asrwt>
<pdfrwt beam="1">  1        4 0.25739927E-01 0.12500555E+03</pdfrwt>
<pdfrwt beam="2">  1       -4 0.35922339E-02 0.12500555E+03</pdfrwt>
<totfact> 0.91721358E+03</totfact>
</mgrwt>
</event>
<event>
 5    1  0.3486294E-002  0.1250301E+03  0.7818608E-02  0.1235022E+00
          4   -1    0    0  501    0  0.00000000000E+00  0.00000000000E+00  0.12963103650E+03  0.12963725747E+03  0.12700000000E+01 0.  1.
         -4   -1    0    0    0  501 -0.00000000000E+00 -0.00000000000E+00 -0.30127772326E+02  0.30154528107E+02  0.12700000000E+01 0.  1.
         25    2    1    2    0    0  0.00000000000E+00  0.00000000000E+00  0.99503264176E+02  0.15979178558E+03  0.12503005701E+03 0.  0.
    9000005    1    3    3    0    0 -0.11225392674E+01 -0.48542971740E+02 -0.55538952440E+00  0.48569421010E+02  0.10000000000E+01 0.  0.
    9000005    1    3    3    0    0  0.11225392674E+01  0.48542971740E+02  0.10005865370E+03  0.11122236457E+03  0.10000000000E+01 0.  0.
<mgrwt>
<rscale>  0 0.12503006E+03</rscale>
<asrwt>0</asrwt>
<pdfrwt beam="1">  1        4 0.19945773E-01 0.12503006E+03</pdfrwt>
<pdfrwt beam="2">  1       -4 0.46375786E-02 0.12503006E+03</pdfrwt>
<totfact> 0.97317178E+03</totfact>
</mgrwt>
</event>
<event>
 5    1  0.3486294E-002  0.1250022E+03  0.7818608E-02  0.1235066E+00
         -4   -1    0    0    0  501 -0.00000000000E+00  0.00000000000E+00  0.16585398746E+03  0.16585884980E+03  0.12700000000E+01 0. -1.
          4   -1    0    0  501    0  0.00000000000E+00 -0.00000000000E+00 -0.23530852804E+02  0.23565099908E+02  0.12700000000E+01 0. -1.
         25    2    1    2    0    0  0.00000000000E+00  0.00000000000E+00  0.14232313465E+03  0.18942394970E+03  0.12500223223E+03 0.  0.
    9000005    1    3    3    0    0 -0.73022678877E+01  0.10722932819E+02  0.16379838210E+03  0.16431437668E+03  0.10000000000E+01 0.  0.
    9000005    1    3    3    0    0  0.73022678877E+01 -0.10722932819E+02 -0.21475247447E+02  0.25109573024E+02  0.10000000000E+01 0.  0.
<mgrwt>
<rscale>  0 0.12500223E+03</rscale>
<asrwt>0</asrwt>
<pdfrwt beam="2">  1        4 0.36231396E-02 0.12500223E+03</pdfrwt>
<pdfrwt beam="1">  1       -4 0.25519007E-01 0.12500223E+03</pdfrwt>
<totfact> 0.91943044E+03</totfact>
</mgrwt>
</event>
<event>
 5    1  0.3486294E-002  0.1249908E+03  0.7818608E-02  0.1235084E+00
          4   -1    0    0  501    0  0.00000000000E+00  0.00000000000E+00  0.57111175203E+02  0.57125294162E+02  0.12700000000E+01 0.  1.
         -4   -1    0    0    0  501 -0.00000000000E+00 -0.00000000000E+00 -0.68358727664E+02  0.68370523969E+02  0.12700000000E+01 0.  1.
         25    2    1    2    0    0  0.00000000000E+00  0.00000000000E+00 -0.11247552461E+02  0.12549581813E+03  0.12499077139E+03 0.  0.
    9000005    1    3    3    0    0 -0.79725920516E+01 -0.60939709417E+02  0.57117862718E+01  0.61731960201E+02  0.10000000000E+01 0.  0.
    9000005    1    3    3    0    0  0.79725920516E+01  0.60939709417E+02 -0.16959338732E+02  0.63763857930E+02  0.10000000000E+01 0.  0.
<mgrwt>
<rscale>  0 0.12499077E+03</rscale>
<asrwt>0</asrwt>
<pdfrwt beam="1">  1        4 0.87883281E-02 0.12499077E+03</pdfrwt>
<pdfrwt beam="2">  1       -4 0.10518721E-01 0.12499077E+03</pdfrwt>
<totfact> 0.10444220E+04</totfact>
</mgrwt>
</event>
<event>
 5    1  0.3486294E-002  0.1249967E+03  0.7818608E-02  0.1235074E+00
          4   -1    0    0  501    0  0.00000000000E+00  0.00000000000E+00  0.91459425853E+01  0.92336972971E+01  0.12700000000E+01 0. -1.
         -4   -1    0    0    0  501 -0.00000000000E+00 -0.00000000000E+00 -0.42495164335E+03  0.42495354109E+03  0.12700000000E+01 0. -1.
         25    2    1    2    0    0  0.00000000000E+00  0.00000000000E+00 -0.41580570076E+03  0.43418723838E+03  0.12499670872E+03 0.  0.
    9000005    1    3    3    0    0  0.10944954656E+02  0.25461294171E+02 -0.40245408414E+03  0.40340842750E+03  0.10000000000E+01 0.  0.
    9000005    1    3    3    0    0 -0.10944954656E+02 -0.25461294171E+02 -0.13351616619E+02  0.30778810888E+02  0.10000000000E+01 0.  0.
<mgrwt>
<rscale>  0 0.12499671E+03</rscale>
<asrwt>0</asrwt>
<pdfrwt beam="1">  1        4 0.14139648E-02 0.12499671E+03</pdfrwt>
<pdfrwt beam="2">  1       -4 0.65384057E-01 0.12499671E+03</pdfrwt>
<totfact> 0.61362728E+03</totfact>
</mgrwt>
</event>
<event>
 5    1  0.3486294E-002  0.1250043E+03  0.7818608E-02  0.1235063E+00
          4   -1    0    0  501    0  0.00000000000E+00  0.00000000000E+00  0.50972846119E+03  0.50973004331E+03  0.12700000000E+01 0.  1.
         -4   -1    0    0    0  501 -0.00000000000E+00 -0.00000000000E+00 -0.76097023952E+01  0.77149511044E+01  0.12700000000E+01 0.  1.
         25    2    1    2    0    0  0.00000000000E+00  0.00000000000E+00  0.50211875880E+03  0.51744499441E+03  0.12500429715E+03 0.  0.
    9000005    1    3    3    0    0 -0.49648699571E+02  0.12056629415E+01  0.94030169197E+02  0.10634434499E+03  0.10000000000E+01 0.  0.
    9000005    1    3    3    0    0  0.49648699571E+02 -0.12056629415E+01  0.40808858960E+03  0.41110064942E+03  0.10000000000E+01 0.  0.
<mgrwt>
<rscale>  0 0.12500430E+03</rscale>
<asrwt>0</asrwt>
<pdfrwt beam="1">  1        4 0.78428019E-01 0.12500430E+03</pdfrwt>
<pdfrwt beam="2">  1       -4 0.11789406E-02 0.12500430E+03</pdfrwt>
<totfact> 0.54530637E+03</totfact>
</mgrwt>
</event>
<event>
 5    1  0.3486294E-002  0.1250011E+03  0.7818608E-02  0.1235068E+00
         -4   -1    0    0    0  501 -0.00000000000E+00  0.00000000000E+00  0.73056410967E+03  0.73056521354E+03  0.12700000000E+01 0.  1.
          4   -1    0    0  501    0  0.00000000000E+00 -0.00000000000E+00 -0.52704517271E+01  0.54213062455E+01  0.12700000000E+01 0.  1.
         25    2    1    2    0    0  0.00000000000E+00  0.00000000000E+00  0.72529365794E+03  0.73598651978E+03  0.12500106822E+03 0.  0.
    9000005    1    3    3    0    0  0.30124055842E+02  0.45412411508E+02  0.18255480074E+03  0.19051771868E+03  0.10000000000E+01 0.  0.
    9000005    1    3    3    0    0 -0.30124055842E+02 -0.45412411508E+02  0.54273885720E+03  0.54546880110E+03  0.10000000000E+01 0.  0.
<mgrwt>
<rscale>  0 0.12500107E+03</rscale>
<asrwt>0</asrwt>
<pdfrwt beam="2">  1        4 0.82252807E-03 0.12500107E+03</pdfrwt>
<pdfrwt beam="1">  1       -4 0.11240614E+00 0.12500107E+03</pdfrwt>
<totfact> 0.41252585E+03</totfact>
</mgrwt>
</event>
<event>
 5    1  0.3486294E-002  0.1249966E+03  0.7818608E-02  0.1235075E+00
          4   -1    0    0  501    0  0.00000000000E+00  0.00000000000E+00  0.14807982220E+02  0.14862342932E+02  0.12700000000E+01 0.  1.
         -4   -1    0    0    0  501 -0.00000000000E+00 -0.00000000000E+00 -0.26323987376E+03  0.26324293729E+03  0.12700000000E+01 0.  1.
         25    2    1    2    0    0  0.00000000000E+00  0.00000000000E+00 -0.24843189154E+03  0.27810528023E+03  0.12499656858E+03 0.  0.
    9000005    1    3    3    0    0 -0.19114509870E+02 -0.58116037767E+02 -0.95880318687E+02  0.11374037913E+03  0.10000000000E+01 0.  0.
    9000005    1    3    3    0    0  0.19114509870E+02  0.58116037767E+02 -0.15255157285E+03  0.16436490110E+03  0.10000000000E+01 0.  0.
<mgrwt>
<rscale>  0 0.12499657E+03</rscale>
<asrwt>0</asrwt>
<pdfrwt beam="1">  1        4 0.22825686E-02 0.12499657E+03</pdfrwt>
<pdfrwt beam="2">  1       -4 0.40502856E-01 0.12499657E+03</pdfrwt>
<totfact> 0.78435988E+03</totfact>
</mgrwt>
</event>
<event>
 5    1  0.3486294E-002  0.1250011E+03  0.7818608E-02  0.1235068E+00
          4   -1    0    0  501    0  0.00000000000E+00  0.00000000000E+00  0.51304788428E+03  0.51304945616E+03  0.12700000000E+01 0. -1.
         -4   -1    0    0    0  501 -0.00000000000E+00 -0.00000000000E+00 -0.75593910657E+01  0.76653306050E+01  0.12700000000E+01 0. -1.
         25    2    1    2    0    0  0.00000000000E+00  0.00000000000E+00  0.50548849322E+03  0.52071478677E+03  0.12500108952E+03 0.  0.
    9000005    1    3    3    0    0 -0.57590731473E+02 -0.85485874957E+01  0.15815965112E+03  0.16853855922E+03  0.10000000000E+01 0.  0.
    9000005    1    3    3    0    0  0.57590731473E+02  0.85485874957E+01  0.34732884210E+03  0.35217622755E+03  0.10000000000E+01 0.  0.
<mgrwt>
<rscale>  0 0.12500109E+03</rscale>
<asrwt>0</asrwt>
<pdfrwt beam="1">  1        4 0.78938738E-01 0.12500109E+03</pdfrwt>
<pdfrwt beam="2">  1       -4 0.11712530E-02 0.12500109E+03</pdfrwt>
<totfact> 0.54290914E+03</totfact>
</mgrwt>
</event>
<event>
 5    1  0.3486294E-002  0.1250004E+03  0.7818608E-02  0.1235069E+00
         -4   -1    0    0    0  501 -0.00000000000E+00  0.00000000000E+00  0.14424752863E+03  0.14425311925E+03  0.12700000000E+01 0.  1.
          4   -1    0    0  501    0  0.00000000000E+00 -0.00000000000E+00 -0.27059351807E+02  0.27089138418E+02  0.12700000000E+01 0.  1.
         25    2    1    2    0    0  0.00000000000E+00  0.00000000000E+00  0.11718817682E+03  0.17134225767E+03  0.12500040191E+03 0.  0.
    9000005    1    3    3    0    0  0.19611985454E+02 -0.53943788671E+02  0.92468486764E+02  0.10883925466E+03  0.10000000000E+01 0.  0.
    9000005    1    3    3    0    0 -0.19611985454E+02  0.53943788671E+02  0.24719690054E+02  0.62503003016E+02  0.10000000000E+01 0.  0.
<mgrwt>
<rscale>  0 0.12500040E+03</rscale>
<asrwt>0</asrwt>
<pdfrwt beam="2">  1        4 0.41656985E-02 0.12500040E+03</pdfrwt>
<pdfrwt beam="1">  1       -4 0.22194649E-01 0.12500040E+03</pdfrwt>
<totfact> 0.95198189E+03</totfact>
</mgrwt>
</event>
<event>
 5    1  0.3486294E-002  0.1249995E+03  0.7818608E-02  0.1235070E+00
         -4   -1    0    0    0  501 -0.00000000000E+00  0.00000000000E+00  0.12319967290E+02  0.12385253087E+02  0.12700000000E+01 0.  1.
          4   -1    0    0  501    0  0.00000000000E+00 -0.00000000000E+00 -0.31615983182E+03  0.31616238257E+03  0.12700000000E+01 0.  1.
         25    2    1    2    0    0  0.00000000000E+00  0.00000000000E+00 -0.30383986453E+03  0.32854763566E+03  0.12499954249E+03 0.  0.
    9000005    1    3    3    0    0 -0.45900902485E+02 -0.14095686388E+02 -0.25704373804E+03  0.26149199699E+03  0.10000000000E+01 0.  0.
    9000005    1    3    3    0    0  0.45900902485E+02  0.14095686388E+02 -0.46796126489E+02  0.67055638675E+02  0.10000000000E+01 0.  0.
<mgrwt>
<rscale>  0 0.12499954E+03</rscale>
<asrwt>0</asrwt>
<pdfrwt beam="2">  1        4 0.48645186E-01 0.12499954E+03</pdfrwt>
<pdfrwt beam="1">  1       -4 0.19005980E-02 0.12499954E+03</pdfrwt>
<totfact> 0.72151634E+03</totfact>
</mgrwt>
</event>
<event>
 5    1  0.3486294E-002  0.1250014E+03  0.7818608E-02  0.1235067E+00
         -4   -1    0    0    0  501 -0.00000000000E+00  0.00000000000E+00  0.24915436256E+02  0.24947782744E+02  0.12700000000E+01 0. -1.
          4   -1    0    0  501    0  0.00000000000E+00 -0.00000000000E+00 -0.15664710753E+03  0.15665225564E+03  0.12700000000E+01 0. -1.
         25    2    1    2    0    0  0.00000000000E+00  0.00000000000E+00 -0.13173167128E+03  0.18160003839E+03  0.12500136289E+03 0.  0.
    9000005    1    3    3    0    0  0.52241005870E+02 -0.32743848178E+02 -0.51046515897E+02  0.80050165978E+02  0.10000000000E+01 0.  0.
    9000005    1    3    3    0    0 -0.52241005870E+02  0.32743848178E+02 -0.80685155379E+02  0.10154987241E+03  0.10000000000E+01 0.  0.
<mgrwt>
<rscale>  0 0.12500136E+03</rscale>
<asrwt>0</asrwt>
<pdfrwt beam="2">  1        4 0.24102439E-01 0.12500136E+03</pdfrwt>
<pdfrwt beam="1">  1       -4 0.38360284E-02 0.12500136E+03</pdfrwt>
<totfact> 0.93326930E+03</totfact>
</mgrwt>
</event>
<event>
 5    1  0.3486294E-002  0.1250209E+03  0.7818608E-02  0.1235037E+00
          4   -1    0    0  501    0  0.00000000000E+00  0.00000000000E+00  0.27815784487E+02  0.27844761924E+02  0.12700000000E+01 0. -1.
         -4   -1    0    0    0  501 -0.00000000000E+00 -0.00000000000E+00 -0.14037485932E+03  0.14038060418E+03  0.12700000000E+01 0. -1.
         25    2    1    2    0    0  0.00000000000E+00  0.00000000000E+00 -0.11255907484E+03  0.16822536610E+03  0.12502091214E+03 0.  0.
    9000005    1    3    3    0    0 -0.12935226517E+02  0.51502801737E+02 -0.11922417282E+02  0.54433470454E+02  0.10000000000E+01 0.  0.
    9000005    1    3    3    0    0  0.12935226517E+02 -0.51502801737E+02 -0.10063665755E+03  0.11379189565E+03  0.10000000000E+01 0.  0.
<mgrwt>
<rscale>  0 0.12502091E+03</rscale>
<asrwt>0</asrwt>
<pdfrwt beam="1">  1        4 0.42820225E-02 0.12502091E+03</pdfrwt>
<pdfrwt beam="2">  1       -4 0.21598803E-01 0.12502091E+03</pdfrwt>
<totfact> 0.95735056E+03</totfact>
</mgrwt>
</event>
<event>
 5    1  0.3486294E-002  0.1249988E+03  0.7818608E-02  0.1235071E+00
         -4   -1    0    0    0  501 -0.00000000000E+00  0.00000000000E+00  0.25143997387E+02  0.25176050218E+02  0.12700000000E+01 0. -1.
          4   -1    0    0  501    0  0.00000000000E+00 -0.00000000000E+00 -0.15521848983E+03  0.15522368533E+03  0.12700000000E+01 0. -1.
         25    2    1    2    0    0  0.00000000000E+00  0.00000000000E+00 -0.13007449245E+03  0.18039973554E+03  0.12499876399E+03 0.  0.
    9000005    1    3    3    0    0 -0.53110509953E+02  0.32897177573E+02 -0.62885848150E+02  0.88648634830E+02  0.10000000000E+01 0.  0.
    9000005    1    3    3    0    0  0.53110509953E+02 -0.32897177573E+02 -0.67188644297E+02  0.91751100714E+02  0.10000000000E+01 0.  0.
<mgrwt>
<rscale>  0 0.12499876E+03</rscale>
<asrwt>0</asrwt>
<pdfrwt beam="2">  1        4 0.23882632E-01 0.12499876E+03</pdfrwt>
<pdfrwt beam="1">  1       -4 0.38711726E-02 0.12499876E+03</pdfrwt>
<totfact> 0.93547692E+03</totfact>
</mgrwt>
</event>
<event>
 5    1  0.3486294E-002  0.1250030E+03  0.7818608E-02  0.1235065E+00
         -4   -1    0    0    0  501 -0.00000000000E+00  0.00000000000E+00  0.35268899234E+02  0.35291757581E+02  0.12700000000E+01 0.  1.
          4   -1    0    0  501    0  0.00000000000E+00 -0.00000000000E+00 -0.11069914263E+03  0.11070642745E+03  0.12700000000E+01 0.  1.
         25    2    1    2    0    0  0.00000000000E+00  0.00000000000E+00 -0.75430243398E+02  0.14599818503E+03  0.12500299362E+03 0.  0.
    9000005    1    3    3    0    0 -0.49845608664E+02 -0.33604965372E+02 -0.57658101427E+02  0.83302671391E+02  0.10000000000E+01 0.  0.
    9000005    1    3    3    0    0  0.49845608664E+02  0.33604965372E+02 -0.17772141971E+02  0.62695513643E+02  0.10000000000E+01 0.  0.
<mgrwt>
<rscale>  0 0.12500299E+03</rscale>
<asrwt>0</asrwt>
<pdfrwt beam="2">  1        4 0.17032956E-01 0.12500299E+03</pdfrwt>
<pdfrwt beam="1">  1       -4 0.54283033E-02 0.12500299E+03</pdfrwt>
<totfact> 0.10010072E+04</totfact>
</mgrwt>
</event>
<event>
 5    1  0.3486294E-002  0.1250016E+03  0.7818608E-02  0.1235067E+00
          4   -1    0    0  501    0  0.00000000000E+00  0.00000000000E+00  0.33369560292E+02  0.33393718782E+02  0.12700000000E+01 0. -1.
         -4   -1    0    0    0  501 -0.00000000000E+00 -0.00000000000E+00 -0.11699331636E+03  0.11700020929E+03  0.12700000000E+01 0. -1.
         25    2    1    2    0    0  0.00000000000E+00  0.00000000000E+00 -0.83623756073E+02  0.15039392807E+03  0.12500160407E+03 0.  0.
    9000005    1    3    3    0    0  0.26155252801E+02 -0.55033455173E+02 -0.25115930102E+02  0.65913491655E+02  0.10000000000E+01 0.  0.
    9000005    1    3    3    0    0 -0.26155252801E+02  0.55033455173E+02 -0.58507825970E+02  0.84480436416E+02  0.10000000000E+01 0.  0.
<mgrwt>
<rscale>  0 0.12500160E+03</rscale>
<asrwt>0</asrwt>
<pdfrwt beam="1">  1        4 0.51361671E-02 0.12500160E+03</pdfrwt>
<pdfrwt beam="2">  1       -4 0.18001360E-01 0.12500160E+03</pdfrwt>
<totfact> 0.99221651E+03</totfact>
</mgrwt>
</event>
<event>
 5    1  0.3486294E-002  0.1250037E+03  0.7818608E-02  0.1235063E+00
         -4   -1    0    0    0  501 -0.00000000000E+00  0.00000000000E+00  0.19421367406E+03  0.19421782640E+03  0.12700000000E+01 0.  1.
          4   -1    0    0  501    0  0.00000000000E+00 -0.00000000000E+00 -0.20089931905E+02  0.20130033879E+02  0.12700000000E+01 0.  1.
         25    2    1    2    0    0  0.00000000000E+00  0.00000000000E+00  0.17412374216E+03  0.21434786028E+03  0.12500371044E+03 0.  0.
    9000005    1    3    3    0    0 -0.53520383824E+02 -0.96809685144E+01  0.13983911733E+03  0.15004709718E+03  0.10000000000E+01 0.  0.
    9000005    1    3    3    0    0  0.53520383824E+02  0.96809685144E+01  0.34284624824E+02  0.64300763101E+02  0.10000000000E+01 0.  0.
<mgrwt>
<rscale>  0 0.12500371E+03</rscale>
<asrwt>0</asrwt>
<pdfrwt beam="2">  1        4 0.30941628E-02 0.12500371E+03</pdfrwt>
<pdfrwt beam="1">  1       -4 0.29882432E-01 0.12500371E+03</pdfrwt>
<totfact> 0.87763425E+03</totfact>
</mgrwt>
</event>
<event>
 5    1  0.3486294E-002  0.1249899E+03  0.7818608E-02  0.1235085E+00
         -4   -1    0    0    0  501 -0.00000000000E+00  0.00000000000E+00  0.95783173191E+00  0.15907047578E+01  0.12700000000E+01 0. -1.
          4   -1    0    0  501    0  0.00000000000E+00 -0.00000000000E+00 -0.30643557311E+04  0.30643559943E+04  0.12700000000E+01 0. -1.
         25    2    1    2    0    0  0.00000000000E+00  0.00000000000E+00 -0.30633978994E+04  0.30659466990E+04  0.12498988533E+03 0.  0.
    9000005    1    3    3    0    0 -0.10835547120E+02  0.60745754566E+02 -0.12899090634E+04  0.12913844693E+04  0.10000000000E+01 0.  0.
    9000005    1    3    3    0    0  0.10835547120E+02 -0.60745754566E+02 -0.17734888360E+04  0.17745622297E+04  0.10000000000E+01 0.  0.
<mgrwt>
<rscale>  0 0.12498989E+03</rscale>
<asrwt>0</asrwt>
<pdfrwt beam="2">  1        4 0.47148215E+00 0.12498989E+03</pdfrwt>
<pdfrwt beam="1">  1       -4 0.19606397E-03 0.12498989E+03</pdfrwt>
<totfact> 0.15809080E+02</totfact>
</mgrwt>
</event>
<event>
 5    1  0.3486294E-002  0.1250046E+03  0.7818608E-02  0.1235062E+00
          4   -1    0    0  501    0  0.00000000000E+00  0.00000000000E+00  0.23541863015E+02  0.23576094126E+02  0.12700000000E+01 0.  1.
         -4   -1    0    0    0  501 -0.00000000000E+00 -0.00000000000E+00 -0.16578292937E+03  0.16578779379E+03  0.12700000000E+01 0.  1.
         25    2    1    2    0    0  0.00000000000E+00  0.00000000000E+00 -0.14224106636E+03  0.18936388792E+03  0.12500464427E+03 0.  0.
    9000005    1    3    3    0    0  0.16647599415E+02  0.56140882343E+02 -0.38049512951E+02  0.69840580412E+02  0.10000000000E+01 0.  0.
    9000005    1    3    3    0    0 -0.16647599415E+02 -0.56140882343E+02 -0.10419155341E+03  0.11952330751E+03  0.10000000000E+01 0.  0.
<mgrwt>
<rscale>  0 0.12500464E+03</rscale>
<asrwt>0</asrwt>
<pdfrwt beam="1">  1        4 0.36248325E-02 0.12500464E+03</pdfrwt>
<pdfrwt beam="2">  1       -4 0.25508073E-01 0.12500464E+03</pdfrwt>
<totfact> 0.91948548E+03</totfact>
</mgrwt>
</event>
<event>
 5    1  0.3486294E-002  0.1249853E+03  0.7818608E-02  0.1235092E+00
         -4   -1    0    0    0  501 -0.00000000000E+00  0.00000000000E+00  0.16494668305E+03  0.16495157214E+03  0.12700000000E+01 0. -1.
          4   -1    0    0  501    0  0.00000000000E+00 -0.00000000000E+00 -0.23654045002E+02  0.23688114002E+02  0.12700000000E+01 0. -1.
         25    2    1    2    0    0  0.00000000000E+00  0.00000000000E+00  0.14129263805E+03  0.18863968614E+03  0.12498528561E+03 0.  0.
    9000005    1    3    3    0    0 -0.80039769741E+00 -0.38743677489E+02 -0.33340462270E+01  0.38907956077E+02  0.10000000000E+01 0.  0.
    9000005    1    3    3    0    0  0.80039769741E+00  0.38743677489E+02  0.14462668428E+03  0.14973173006E+03  0.10000000000E+01 0.  0.
<mgrwt>
<rscale>  0 0.12498529E+03</rscale>
<asrwt>0</asrwt>
<pdfrwt beam="2">  1        4 0.36420807E-02 0.12498529E+03</pdfrwt>
<pdfrwt beam="1">  1       -4 0.25379409E-01 0.12498529E+03</pdfrwt>
<totfact> 0.92114906E+03</totfact>
</mgrwt>
</event>
<event>
 5    1  0.3486294E-002  0.1250011E+03  0.7818608E-02  0.1235068E+00
          4   -1    0    0  501    0  0.00000000000E+00  0.00000000000E+00  0.16074249089E+03  0.16074750784E+03  0.12700000000E+01 0.  1.
         -4   -1    0    0    0  501 -0.00000000000E+00 -0.00000000000E+00 -0.24279741235E+02  0.24312933481E+02  0.12700000000E+01 0.  1.
         25    2    1    2    0    0  0.00000000000E+00  0.00000000000E+00  0.13646274966E+03  0.18506044132E+03  0.12500113959E+03 0.  0.
    9000005    1    3    3    0    0 -0.45710809153E+02  0.23085938602E+02  0.15204860869E+02  0.53428704164E+02  0.10000000000E+01 0.  0.
    9000005    1    3    3    0    0  0.45710809153E+02 -0.23085938602E+02  0.12125788879E+03  0.13163173716E+03  0.10000000000E+01 0.  0.
<mgrwt>
<rscale>  0 0.12500114E+03</rscale>
<asrwt>0</asrwt>
<pdfrwt beam="1">  1        4 0.24732553E-01 0.12500114E+03</pdfrwt>
<pdfrwt beam="2">  1       -4 0.37382840E-02 0.12500114E+03</pdfrwt>
<totfact> 0.92711589E+03</totfact>
</mgrwt>
</event>
<event>
 5    1  0.3486294E-002  0.1250120E+03  0.7818608E-02  0.1235051E+00
         -4   -1    0    0    0  501 -0.00000000000E+00  0.00000000000E+00  0.89127255785E+02  0.89136303624E+02  0.12700000000E+01 0.  1.
          4   -1    0    0  501    0  0.00000000000E+00 -0.00000000000E+00 -0.43815705338E+02  0.43834106975E+02  0.12700000000E+01 0.  1.
         25    2    1    2    0    0  0.00000000000E+00  0.00000000000E+00  0.45311550447E+02  0.13297041060E+03  0.12501197339E+03 0.  0.
    9000005    1    3    3    0    0  0.22717163113E+02 -0.34831311476E+02  0.72281121123E+02  0.83395744675E+02  0.10000000000E+01 0.  0.
    9000005    1    3    3    0    0 -0.22717163113E+02  0.34831311476E+02 -0.26969570676E+02  0.49574665924E+02  0.10000000000E+01 0.  0.
<mgrwt>
<rscale>  0 0.12501197E+03</rscale>
<asrwt>0</asrwt>
<pdfrwt beam="2">  1        4 0.67429893E-02 0.12501197E+03</pdfrwt>
<pdfrwt beam="1">  1       -4 0.13713997E-01 0.12501197E+03</pdfrwt>
<totfact> 0.10278253E+04</totfact>
</mgrwt>
</event>
<event>
 5    1  0.3486294E-002  0.1250054E+03  0.7818608E-02  0.1235061E+00
          4   -1    0    0  501    0  0.00000000000E+00  0.00000000000E+00  0.13408669996E+03  0.13409271422E+03  0.12700000000E+01 0. -1.
         -4   -1    0    0    0  501 -0.00000000000E+00 -0.00000000000E+00 -0.29114283035E+02  0.29141969333E+02  0.12700000000E+01 0. -1.
         25    2    1    2    0    0  0.00000000000E+00  0.00000000000E+00  0.10497241693E+03  0.16323468355E+03  0.12500541428E+03 0.  0.
    9000005    1    3    3    0    0 -0.23186595058E+02 -0.41381192287E+02 -0.64589578391E+00  0.47449325041E+02  0.10000000000E+01 0.  0.
    9000005    1    3    3    0    0  0.23186595058E+02  0.41381192287E+02  0.10561831271E+03  0.11578535851E+03  0.10000000000E+01 0.  0.
<mgrwt>
<rscale>  0 0.12500541E+03</rscale>
<asrwt>0</asrwt>
<pdfrwt beam="1">  1        4 0.20631315E-01 0.12500541E+03</pdfrwt>
<pdfrwt beam="2">  1       -4 0.44817128E-02 0.12500541E+03</pdfrwt>
<totfact> 0.96710997E+03</totfact>
</mgrwt>
</event>
<event>
 5    1  0.3486294E-002  0.1250104E+03  0.7818608E-02  0.1235053E+00
          4   -1    0    0  501    0  0.00000000000E+00  0.00000000000E+00  0.14150305171E+03  0.14150875077E+03  0.12700000000E+01 0.  1.
         -4   -1    0    0    0  501 -0.00000000000E+00 -0.00000000000E+00 -0.27589131912E+02  0.27618347157E+02  0.12700000000E+01 0.  1.
         25    2    1    2    0    0  0.00000000000E+00  0.00000000000E+00  0.11391391980E+03  0.16912709793E+03  0.12501037608E+03 0.  0.
    9000005    1    3    3    0    0  0.11068483037E+02  0.99647687984E+01  0.13907381074E+03  0.13987255903E+03  0.10000000000E+01 0.  0.
    9000005    1    3    3    0    0 -0.11068483037E+02 -0.99647687984E+01 -0.25159890942E+02  0.29254538899E+02  0.10000000000E+01 0.  0.
<mgrwt>
<rscale>  0 0.12501038E+03</rscale>
<asrwt>0</asrwt>
<pdfrwt beam="1">  1        4 0.21772385E-01 0.12501038E+03</pdfrwt>
<pdfrwt beam="2">  1       -4 0.42471677E-02 0.12501038E+03</pdfrwt>
<totfact> 0.95589171E+03</totfact>
</mgrwt>
</event>
<event>
 5    1  0.3486294E-002  0.1250005E+03  0.7818608E-02  0.1235069E+00
          4   -1    0    0  501    0  0.00000000000E+00  0.00000000000E+00  0.37757209862E+03  0.37757423450E+03  0.12700000000E+01 0.  1.
         -4   -1    0    0    0  501 -0.00000000000E+00 -0.00000000000E+00 -0.10304635343E+02  0.10382601290E+02  0.12700000000E+01 0.  1.
         25    2    1    2    0    0  0.00000000000E+00  0.00000000000E+00  0.36726746328E+03  0.38795683579E+03  0.12500046741E+03 0.  0.
    9000005    1    3    3    0    0 -0.18728694811E+02  0.38359359775E+02  0.32528621606E+03  0.32807670879E+03  0.10000000000E+01 0.  0.
    9000005    1    3    3    0    0  0.18728694811E+02 -0.38359359775E+02  0.41981247223E+02  0.59880127004E+02  0.10000000000E+01 0.  0.
<mgrwt>
<rscale>  0 0.12500047E+03</rscale>
<asrwt>0</asrwt>
<pdfrwt beam="1">  1        4 0.58094187E-01 0.12500047E+03</pdfrwt>
<pdfrwt beam="2">  1       -4 0.15914899E-02 0.12500047E+03</pdfrwt>
<totfact> 0.65740505E+03</totfact>
</mgrwt>
</event>
<event>
 5    1  0.3486294E-002  0.1250016E+03  0.7818608E-02  0.1235067E+00
          4   -1    0    0  501    0  0.00000000000E+00  0.00000000000E+00  0.29350947766E+03  0.29351222526E+03  0.12700000000E+01 0.  1.
         -4   -1    0    0    0  501 -0.00000000000E+00 -0.00000000000E+00 -0.13275996662E+02  0.13336603292E+02  0.12700000000E+01 0.  1.
         25    2    1    2    0    0  0.00000000000E+00  0.00000000000E+00  0.28023348100E+03  0.30684882855E+03  0.12500159883E+03 0.  0.
    9000005    1    3    3    0    0  0.40680277624E+02  0.10239713033E+02  0.25382306453E+03  0.25726811851E+03  0.10000000000E+01 0.  0.
    9000005    1    3    3    0    0 -0.40680277624E+02 -0.10239713033E+02  0.26410416462E+02  0.49580710042E+02  0.10000000000E+01 0.  0.
<mgrwt>
<rscale>  0 0.12500160E+03</rscale>
<asrwt>0</asrwt>
<pdfrwt beam="1">  1        4 0.45160180E-01 0.12500160E+03</pdfrwt>
<pdfrwt beam="2">  1       -4 0.20473343E-02 0.12500160E+03</pdfrwt>
<totfact> 0.74745032E+03</totfact>
</mgrwt>
</event>
<event>
 5    1  0.3486294E-002  0.1249986E+03  0.7818608E-02  0.1235071E+00
         -4   -1    0    0    0  501 -0.00000000000E+00  0.00000000000E+00  0.88590162002E+01  0.89495847968E+01  0.12700000000E+01 0. -1.
          4   -1    0    0  501    0  0.00000000000E+00 -0.00000000000E+00 -0.43859106729E+03  0.43859290601E+03  0.12700000000E+01 0. -1.
         25    2    1    2    0    0  0.00000000000E+00  0.00000000000E+00 -0.42973205109E+03  0.44754249081E+03  0.12499858138E+03 0.  0.
    9000005    1    3    3    0    0 -0.26210695109E+02 -0.73151935201E+00 -0.41795995856E+03  0.41878283467E+03  0.10000000000E+01 0.  0.
    9000005    1    3    3    0    0  0.26210695109E+02  0.73151935201E+00 -0.11772092532E+02  0.28759656139E+02  0.10000000000E+01 0.  0.
<mgrwt>
<rscale>  0 0.12499858E+03</rscale>
<asrwt>0</asrwt>
<pdfrwt beam="2">  1        4 0.67482640E-01 0.12499858E+03</pdfrwt>
<pdfrwt beam="1">  1       -4 0.13700342E-02 0.12499858E+03</pdfrwt>
<totfact> 0.60179169E+03</totfact>
</mgrwt>
</event>
<event>
 5    1  0.3486294E-002  0.1249954E+03  0.7818608E-02  0.1235077E+00
          4   -1    0    0  501    0  0.00000000000E+00  0.00000000000E+00  0.11469037624E+03  0.11469740757E+03  0.12700000000E+01 0. -1.
         -4   -1    0    0    0  501 -0.00000000000E+00 -0.00000000000E+00 -0.34036647108E+02  0.34060332447E+02  0.12700000000E+01 0. -1.
         25    2    1    2    0    0  0.00000000000E+00  0.00000000000E+00  0.80653729136E+02  0.14875774002E+03  0.12499536468E+03 0.  0.
    9000005    1    3    3    0    0  0.50312602660E+02  0.31535477946E+02  0.63499300358E+02  0.86942541380E+02  0.10000000000E+01 0.  0.
    9000005    1    3    3    0    0 -0.50312602660E+02 -0.31535477946E+02  0.17154428778E+02  0.61815198636E+02  0.10000000000E+01 0.  0.
<mgrwt>
<rscale>  0 0.12499536E+03</rscale>
<asrwt>0</asrwt>
<pdfrwt beam="1">  1        4 0.17647036E-01 0.12499536E+03</pdfrwt>
<pdfrwt beam="2">  1       -4 0.52387701E-02 0.12499536E+03</pdfrwt>
<totfact> 0.99562290E+03</totfact>
</mgrwt>
</event>
<event>
 5    1  0.3486294E-002  0.1250006E+03  0.7818608E-02  0.1235068E+00
          4   -1    0    0  501    0  0.00000000000E+00  0.00000000000E+00  0.22658679371E+04  0.22658682930E+04  0.12700000000E+01 0. -1.
         -4   -1    0    0    0  501 -0.00000000000E+00 -0.00000000000E+00 -0.14896715283E+01  0.19575549194E+01  0.12700000000E+01 0. -1.
         25    2    1    2    0    0  0.00000000000E+00  0.00000000000E+00  0.22643782655E+04  0.22678258479E+04  0.12500058781E+03 0.  0.
    9000005    1    3    3    0    0  0.22262016164E+02  0.52877047997E+02  0.15816358826E+04  0.15826764182E+04  0.10000000000E+01 0.  0.
    9000005    1    3    3    0    0 -0.22262016164E+02 -0.52877047997E+02  0.68274238298E+03  0.68514942975E+03  0.10000000000E+01 0.  0.
<mgrwt>
<rscale>  0 0.12500059E+03</rscale>
<asrwt>0</asrwt>
<pdfrwt beam="1">  1        4 0.34862991E+00 0.12500059E+03</pdfrwt>
<pdfrwt beam="2">  1       -4 0.26519954E-03 0.12500059E+03</pdfrwt>
<totfact> 0.67579899E+02</totfact>
</mgrwt>
</event>
<event>
 5    1  0.3486294E-002  0.1249992E+03  0.7818608E-02  0.1235070E+00
          4   -1    0    0  501    0  0.00000000000E+00  0.00000000000E+00  0.80230442802E+02  0.80240493843E+02  0.12700000000E+01 0.  1.
         -4   -1    0    0    0  501 -0.00000000000E+00 -0.00000000000E+00 -0.48665901535E+02  0.48682469865E+02  0.12700000000E+01 0.  1.
         25    2    1    2    0    0  0.00000000000E+00  0.00000000000E+00  0.31564541267E+02  0.12892296371E+03  0.12499924122E+03 0.  0.
    9000005    1    3    3    0    0 -0.73198493977E+01  0.41090243462E+01 -0.48086825396E+02  0.48824246568E+02  0.10000000000E+01 0.  0.
    9000005    1    3    3    0    0  0.73198493977E+01 -0.41090243462E+01  0.79651366663E+02  0.80098717140E+02  0.10000000000E+01 0.  0.
<mgrwt>
<rscale>  0 0.12499924E+03</rscale>
<asrwt>0</asrwt>
<pdfrwt beam="1">  1        4 0.12345193E-01 0.12499924E+03</pdfrwt>
<pdfrwt beam="2">  1       -4 0.74891094E-02 0.12499924E+03</pdfrwt>
<totfact> 0.10367780E+04</totfact>
</mgrwt>
</event>
<event>
 5    1  0.3486294E-002  0.1250014E+03  0.7818608E-02  0.1235067E+00
         -4   -1    0    0    0  501 -0.00000000000E+00  0.00000000000E+00  0.11162063966E+03  0.11162786435E+03  0.12700000000E+01 0.  1.
          4   -1    0    0  501    0  0.00000000000E+00 -0.00000000000E+00 -0.34976676204E+02  0.34999725403E+02  0.12700000000E+01 0.  1.
         25    2    1    2    0    0  0.00000000000E+00  0.00000000000E+00  0.76643963459E+02  0.14662758975E+03  0.12500141176E+03 0.  0.
    9000005    1    3    3    0    0  0.56854814962E+02 -0.64123024390E+01  0.88388495777E+01  0.57902615389E+02  0.10000000000E+01 0.  0.
    9000005    1    3    3    0    0 -0.56854814962E+02  0.64123024390E+01  0.67805113882E+02  0.88724974362E+02  0.10000000000E+01 0.  0.
<mgrwt>
<rscale>  0 0.12500141E+03</rscale>
<asrwt>0</asrwt>
<pdfrwt beam="2">  1        4 0.53833559E-02 0.12500141E+03</pdfrwt>
<pdfrwt beam="1">  1       -4 0.17174735E-01 0.12500141E+03</pdfrwt>
<totfact> 0.99977059E+03</totfact>
</mgrwt>
</event>
<event>
 5    1  0.3486294E-002  0.1250010E+03  0.7818608E-02  0.1235068E+00
          4   -1    0    0  501    0  0.00000000000E+00  0.00000000000E+00  0.50088630031E+01  0.51673599240E+01  0.12700000000E+01 0.  1.
         -4   -1    0    0    0  501 -0.00000000000E+00 -0.00000000000E+00 -0.76757451310E+03  0.76757556374E+03  0.12700000000E+01 0.  1.
         25    2    1    2    0    0  0.00000000000E+00  0.00000000000E+00 -0.76256565009E+03  0.77274292367E+03  0.12500102150E+03 0.  0.
    9000005    1    3    3    0    0  0.20909555012E+02  0.23290059235E+02 -0.46907131528E+02  0.56399604061E+02  0.10000000000E+01 0.  0.
    9000005    1    3    3    0    0 -0.20909555012E+02 -0.23290059235E+02 -0.71565851857E+03  0.71634331961E+03  0.10000000000E+01 0.  0.
<mgrwt>
<rscale>  0 0.12500102E+03</rscale>
<asrwt>0</asrwt>
<pdfrwt beam="1">  1        4 0.78286781E-03 0.12500102E+03</pdfrwt>
<pdfrwt beam="2">  1       -4 0.11810057E+00 0.12500102E+03</pdfrwt>
<totfact> 0.39508369E+03</totfact>
</mgrwt>
</event>
<event>
 5    1  0.3486294E-002  0.1249942E+03  0.7818608E-02  0.1235078E+00
          4   -1    0    0  501    0  0.00000000000E+00  0.00000000000E+00  0.18128607767E+03  0.18129052610E+03  0.12700000000E+01 0.  1.
         -4   -1    0    0    0  501 -0.00000000000E+00 -0.00000000000E+00 -0.21522003397E+02  0.21559441788E+02  0.12700000000E+01 0.  1.
         25    2    1    2    0    0  0.00000000000E+00  0.00000000000E+00  0.15976407427E+03  0.20284996789E+03  0.12499420005E+03 0.  0.
    9000005    1    3    3    0    0  0.21737131848E+02  0.15448783271E+02 -0.11831507932E+02  0.29191649242E+02  0.10000000000E+01 0.  0.
    9000005    1    3    3    0    0 -0.21737131848E+02 -0.15448783271E+02  0.17159558220E+03  0.17365831865E+03  0.10000000000E+01 0.  0.
<mgrwt>
<rscale>  0 0.12499420E+03</rscale>
<asrwt>0</asrwt>
<pdfrwt beam="1">  1        4 0.27893389E-01 0.12499420E+03</pdfrwt>
<pdfrwt beam="2">  1       -4 0.33142994E-02 0.12499420E+03</pdfrwt>
<totfact> 0.89668685E+03</totfact>
</mgrwt>
</event>
<event>
 5    1  0.3486294E-002  0.1250012E+03  0.7818608E-02  0.1235067E+00
         -4   -1    0    0    0  501 -0.00000000000E+00  0.00000000000E+00  0.16693948602E+02  0.16742186832E+02  0.12700000000E+01 0. -1.
          4   -1    0    0  501    0  0.00000000000E+00 -0.00000000000E+00 -0.23360884136E+03  0.23361229347E+03  0.12700000000E+01 0. -1.
         25    2    1    2    0    0  0.00000000000E+00  0.00000000000E+00 -0.21691489275E+03  0.25035448030E+03  0.12500118043E+03 0.  0.
    9000005    1    3    3    0    0 -0.62606636808E+01 -0.19319540487E+02  0.99102748266E+01  0.22619772357E+02  0.10000000000E+01 0.  0.
    9000005    1    3    3    0    0  0.62606636808E+01  0.19319540487E+02 -0.22682516758E+03  0.22773470794E+03  0.10000000000E+01 0.  0.
<mgrwt>
<rscale>  0 0.12500118E+03</rscale>
<asrwt>0</asrwt>
<pdfrwt beam="2">  1        4 0.35943796E-01 0.12500118E+03</pdfrwt>
<pdfrwt beam="1">  1       -4 0.25722761E-02 0.12500118E+03</pdfrwt>
<totfact> 0.82276859E+03</totfact>
</mgrwt>
</event>
<event>
 5    1  0.3486294E-002  0.1250000E+03  0.7818608E-02  0.1235069E+00
          4   -1    0    0  501    0  0.00000000000E+00  0.00000000000E+00  0.75498215547E+01  0.76558935147E+01  0.12700000000E+01 0.  1.
         -4   -1    0    0    0  501 -0.00000000000E+00 -0.00000000000E+00 -0.51367994249E+03  0.51368151243E+03  0.12700000000E+01 0.  1.
         25    2    1    2    0    0  0.00000000000E+00  0.00000000000E+00 -0.50613012093E+03  0.52133740595E+03  0.12499996609E+03 0.  0.
    9000005    1    3    3    0    0  0.31445439887E+01  0.52281550116E+02 -0.11089376729E+03  0.12264451176E+03  0.10000000000E+01 0.  0.
    9000005    1    3    3    0    0 -0.31445439887E+01 -0.52281550116E+02 -0.39523635364E+03  0.39869289419E+03  0.10000000000E+01 0.  0.
<mgrwt>
<rscale>  0 0.12499997E+03</rscale>
<asrwt>0</asrwt>
<pdfrwt beam="1">  1        4 0.11697916E-02 0.12499997E+03</pdfrwt>
<pdfrwt beam="2">  1       -4 0.79035937E-01 0.12499997E+03</pdfrwt>
<totfact> 0.54246088E+03</totfact>
</mgrwt>
</event>
<event>
 5    1  0.3486294E-002  0.1249986E+03  0.7818608E-02  0.1235071E+00
          4   -1    0    0  501    0  0.00000000000E+00  0.00000000000E+00  0.49836115601E+03  0.49836277421E+03  0.12700000000E+01 0.  1.
         -4   -1    0    0    0  501 -0.00000000000E+00 -0.00000000000E+00 -0.77849347924E+01  0.78878456959E+01  0.12700000000E+01 0.  1.
         25    2    1    2    0    0  0.00000000000E+00  0.00000000000E+00  0.49057622122E+03  0.50625061991E+03  0.12499864532E+03 0.  0.
    9000005    1    3    3    0    0  0.49887763219E+02  0.50404286965E+01  0.94238635568E+02  0.10675258907E+03  0.10000000000E+01 0.  0.
    9000005    1    3    3    0    0 -0.49887763219E+02 -0.50404286965E+01  0.39633758565E+03  0.39949803084E+03  0.10000000000E+01 0.  0.
<mgrwt>
<rscale>  0 0.12499865E+03</rscale>
<asrwt>0</asrwt>
<pdfrwt beam="1">  1        4 0.76678979E-01 0.12499865E+03</pdfrwt>
<pdfrwt beam="2">  1       -4 0.12057231E-02 0.12499865E+03</pdfrwt>
<totfact> 0.55384288E+03</totfact>
</mgrwt>
</event>
<event>
 5    1  0.3486294E-002  0.1250011E+03  0.7818608E-02  0.1235068E+00
         -4   -1    0    0    0  501 -0.00000000000E+00  0.00000000000E+00  0.18495894672E+02  0.18539444968E+02  0.12700000000E+01 0.  1.
          4   -1    0    0  501    0  0.00000000000E+00 -0.00000000000E+00 -0.21090542731E+03  0.21090925102E+03  0.12700000000E+01 0.  1.
         25    2    1    2    0    0  0.00000000000E+00  0.00000000000E+00 -0.19240953264E+03  0.22944869599E+03  0.12500110337E+03 0.  0.
    9000005    1    3    3    0    0  0.53481217943E+02 -0.97524180456E+01 -0.15278000301E+03  0.16216682660E+03  0.10000000000E+01 0.  0.
    9000005    1    3    3    0    0 -0.53481217943E+02  0.97524180456E+01 -0.39629529629E+02  0.67281869393E+02  0.10000000000E+01 0.  0.
<mgrwt>
<rscale>  0 0.12500110E+03</rscale>
<asrwt>0</asrwt>
<pdfrwt beam="2">  1        4 0.32450631E-01 0.12500110E+03</pdfrwt>
<pdfrwt beam="1">  1       -4 0.28491666E-02 0.12500110E+03</pdfrwt>
<totfact> 0.85392220E+03</totfact>
</mgrwt>
</event>
<event>
 5    1  0.3486294E-002  0.1250002E+03  0.7818608E-02  0.1235069E+00
          4   -1    0    0  501    0  0.00000000000E+00  0.00000000000E+00  0.15744233425E+02  0.15795372301E+02  0.12700000000E+01 0.  1.
         -4   -1    0    0    0  501 -0.00000000000E+00 -0.00000000000E+00 -0.24765257604E+03  0.24765583239E+03  0.12700000000E+01 0.  1.
         25    2    1    2    0    0  0.00000000000E+00  0.00000000000E+00 -0.23190834261E+03  0.26345120469E+03  0.12500023152E+03 0.  0.
    9000005    1    3    3    0    0 -0.26123495113E+02  0.53611126424E+02 -0.76599206789E+02  0.97082585226E+02  0.10000000000E+01 0.  0.
    9000005    1    3    3    0    0  0.26123495113E+02 -0.53611126424E+02 -0.15530913582E+03  0.16636861947E+03  0.10000000000E+01 0.  0.
<mgrwt>
<rscale>  0 0.12500023E+03</rscale>
<asrwt>0</asrwt>
<pdfrwt beam="1">  1        4 0.24263742E-02 0.12500023E+03</pdfrwt>
<pdfrwt beam="2">  1       -4 0.38104578E-01 0.12500023E+03</pdfrwt>
<totfact> 0.80423747E+03</totfact>
</mgrwt>
</event>
<event>
 5    1  0.3486294E-002  0.1250054E+03  0.7818608E-02  0.1235061E+00
          4   -1    0    0  501    0  0.00000000000E+00  0.00000000000E+00  0.14754775560E+02  0.14809331579E+02  0.12700000000E+01 0. -1.
         -4   -1    0    0    0  501 -0.00000000000E+00 -0.00000000000E+00 -0.26422287306E+03  0.26422592520E+03  0.12700000000E+01 0. -1.
         25    2    1    2    0    0  0.00000000000E+00  0.00000000000E+00 -0.24946809750E+03  0.27903525678E+03  0.12500537131E+03 0.  0.
    9000005    1    3    3    0    0  0.51979620016E+02  0.22787591147E+02 -0.66336437069E+02  0.87307949754E+02  0.10000000000E+01 0.  0.
    9000005    1    3    3    0    0 -0.51979620016E+02 -0.22787591147E+02 -0.18313166043E+03  0.19172730702E+03  0.10000000000E+01 0.  0.
<mgrwt>
<rscale>  0 0.12500537E+03</rscale>
<asrwt>0</asrwt>
<pdfrwt beam="1">  1        4 0.22743971E-02 0.12500537E+03</pdfrwt>
<pdfrwt beam="2">  1       -4 0.40654101E-01 0.12500537E+03</pdfrwt>
<totfact> 0.78296850E+03</totfact>
</mgrwt>
</event>
<event>
 5    1  0.3486294E-002  0.1249978E+03  0.7818608E-02  0.1235073E+00
         -4   -1    0    0    0  501 -0.00000000000E+00  0.00000000000E+00  0.62173602559E+03  0.62173732268E+03  0.12700000000E+01 0.  1.
          4   -1    0    0  501    0  0.00000000000E+00 -0.00000000000E+00 -0.62170908145E+01  0.63454801391E+01  0.12700000000E+01 0.  1.
         25    2    1    2    0    0  0.00000000000E+00  0.00000000000E+00  0.61551893477E+03  0.62808280282E+03  0.12499779251E+03 0.  0.
    9000005    1    3    3    0    0  0.31075890550E+02 -0.25717304368E+02  0.54758391388E+03  0.54906851436E+03  0.10000000000E+01 0.  0.
    9000005    1    3    3    0    0 -0.31075890550E+02  0.25717304368E+02  0.67935020890E+02  0.79014288459E+02  0.10000000000E+01 0.  0.
<mgrwt>
<rscale>  0 0.12499779E+03</rscale>
<asrwt>0</asrwt>
<pdfrwt beam="2">  1        4 0.96645120E-03 0.12499779E+03</pdfrwt>
<pdfrwt beam="1">  1       -4 0.95661691E-01 0.12499779E+03</pdfrwt>
<totfact> 0.47143878E+03</totfact>
</mgrwt>
</event>
<event>
 5    1  0.3486294E-002  0.1249998E+03  0.7818608E-02  0.1235070E+00
          4   -1    0    0  501    0  0.00000000000E+00  0.00000000000E+00  0.10478914471E+03  0.10479684035E+03  0.12700000000E+01 0. -1.
         -4   -1    0    0    0  501 -0.00000000000E+00 -0.00000000000E+00 -0.37257228729E+02  0.37278867909E+02  0.12700000000E+01 0. -1.
         25    2    1    2    0    0  0.00000000000E+00  0.00000000000E+00  0.67531915977E+02  0.14207570826E+03  0.12499978881E+03 0.  0.
    9000005    1    3    3    0    0  0.20256726870E+02 -0.50348941486E+02  0.68980363294E+02  0.87776086792E+02  0.10000000000E+01 0.  0.
    9000005    1    3    3    0    0 -0.20256726870E+02  0.50348941486E+02 -0.14484473175E+01  0.54299621471E+02  0.10000000000E+01 0.  0.
<mgrwt>
<rscale>  0 0.12499979E+03</rscale>
<asrwt>0</asrwt>
<pdfrwt beam="1">  1        4 0.16123663E-01 0.12499979E+03</pdfrwt>
<pdfrwt beam="2">  1       -4 0.57341381E-02 0.12499979E+03</pdfrwt>
<totfact> 0.10090793E+04</totfact>
</mgrwt>
</event>
<event>
 5    1  0.3486294E-002  0.1249976E+03  0.7818608E-02  0.1235073E+00
          4   -1    0    0  501    0  0.00000000000E+00  0.00000000000E+00  0.38476820678E+02  0.38497774345E+02  0.12700000000E+01 0. -1.
         -4   -1    0    0    0  501 -0.00000000000E+00 -0.00000000000E+00 -0.10146577690E+03  0.10147372459E+03  0.12700000000E+01 0. -1.
         25    2    1    2    0    0  0.00000000000E+00  0.00000000000E+00 -0.62988956221E+02  0.13997149893E+03  0.12499764761E+03 0.  0.
    9000005    1    3    3    0    0 -0.41746871959E+02  0.14213925134E+02 -0.81073194231E+02  0.92296802810E+02  0.10000000000E+01 0.  0.
    9000005    1    3    3    0    0  0.41746871959E+02 -0.14213925134E+02  0.18084238010E+02  0.47674696124E+02  0.10000000000E+01 0.  0.
<mgrwt>
<rscale>  0 0.12499765E+03</rscale>
<asrwt>0</asrwt>
<pdfrwt beam="1">  1        4 0.59217341E-02 0.12499765E+03</pdfrwt>
<pdfrwt beam="2">  1       -4 0.15612343E-01 0.12499765E+03</pdfrwt>
<totfact> 0.10134714E+04</totfact>
</mgrwt>
</event>
<event>
 5    1  0.3486294E-002  0.1249986E+03  0.7818608E-02  0.1235071E+00
         -4   -1    0    0    0  501 -0.00000000000E+00  0.00000000000E+00  0.11471003162E+03  0.11471706174E+03  0.12700000000E+01 0.  1.
          4   -1    0    0  501    0  0.00000000000E+00 -0.00000000000E+00 -0.34032572343E+02  0.34056260516E+02  0.12700000000E+01 0.  1.
         25    2    1    2    0    0  0.00000000000E+00  0.00000000000E+00  0.80677459279E+02  0.14877332226E+03  0.12499859591E+03 0.  0.
    9000005    1    3    3    0    0  0.29689100435E+02  0.94297541894E+01  0.10481636915E+03  0.10935188243E+03  0.10000000000E+01 0.  0.
    9000005    1    3    3    0    0 -0.29689100435E+02 -0.94297541894E+01 -0.24138909869E+02  0.39421439832E+02  0.10000000000E+01 0.  0.
<mgrwt>
<rscale>  0 0.12499860E+03</rscale>
<asrwt>0</asrwt>
<pdfrwt beam="2">  1        4 0.52381433E-02 0.12499860E+03</pdfrwt>
<pdfrwt beam="1">  1       -4 0.17650060E-01 0.12499860E+03</pdfrwt>
<totfact> 0.99551928E+03</totfact>
</mgrwt>
</event>
<event>
 5    1  0.3486294E-002  0.1249980E+03  0.7818608E-02  0.1235072E+00
          4   -1    0    0  501    0  0.00000000000E+00  0.00000000000E+00  0.12491633086E+03  0.12492278661E+03  0.12700000000E+01 0. -1.
         -4   -1    0    0    0  501 -0.00000000000E+00 -0.00000000000E+00 -0.31249765318E+02  0.31275561264E+02  0.12700000000E+01 0. -1.
         25    2    1    2    0    0  0.00000000000E+00  0.00000000000E+00  0.93666565541E+02  0.15619834788E+03  0.12499799350E+03 0.  0.
    9000005    1    3    3    0    0  0.51600003763E+02  0.15641379122E+02  0.86308033897E+02  0.10177077107E+03  0.10000000000E+01 0.  0.
    9000005    1    3    3    0    0 -0.51600003763E+02 -0.15641379122E+02  0.73585316446E+01  0.54427576807E+02  0.10000000000E+01 0.  0.
<mgrwt>
<rscale>  0 0.12499799E+03</rscale>
<asrwt>0</asrwt>
<pdfrwt beam="1">  1        4 0.19220378E-01 0.12499799E+03</pdfrwt>
<pdfrwt beam="2">  1       -4 0.48101371E-02 0.12499799E+03</pdfrwt>
<totfact> 0.98085186E+03</totfact>
</mgrwt>
</event>
<event>
 5    1  0.3486294E-002  0.1249991E+03  0.7818608E-02  0.1235071E+00
          4   -1    0    0  501    0  0.00000000000E+00  0.00000000000E+00  0.35275995057E+02  0.35298848809E+02  0.12700000000E+01 0.  1.
         -4   -1    0    0    0  501 -0.00000000000E+00 -0.00000000000E+00 -0.11067001679E+03  0.11067730353E+03  0.12700000000E+01 0.  1.
         25    2    1    2    0    0  0.00000000000E+00  0.00000000000E+00 -0.75394021731E+02  0.14597615234E+03  0.12499911415E+03 0.  0.
    9000005    1    3    3    0    0  0.12252040001E+02 -0.59795166227E+02 -0.53348390318E+02  0.81071728351E+02  0.10000000000E+01 0.  0.
    9000005    1    3    3    0    0 -0.12252040001E+02  0.59795166227E+02 -0.22045631413E+02  0.64904423984E+02  0.10000000000E+01 0.  0.
<mgrwt>
<rscale>  0 0.12499911E+03</rscale>
<asrwt>0</asrwt>
<pdfrwt beam="1">  1        4 0.54293947E-02 0.12499911E+03</pdfrwt>
<pdfrwt beam="2">  1       -4 0.17028475E-01 0.12499911E+03</pdfrwt>
<totfact> 0.10011392E+04</totfact>
</mgrwt>
</event>
<event>
 5    1  0.3486294E-002  0.1250002E+03  0.7818608E-02  0.1235069E+00
         -4   -1    0    0    0  501 -0.00000000000E+00  0.00000000000E+00  0.29637062039E+03  0.29637334146E+03  0.12700000000E+01 0. -1.
          4   -1    0    0  501    0  0.00000000000E+00 -0.00000000000E+00 -0.13146947264E+02  0.13208146061E+02  0.12700000000E+01 0. -1.
         25    2    1    2    0    0  0.00000000000E+00  0.00000000000E+00  0.28322367312E+03  0.30958148752E+03  0.12500019360E+03 0.  0.
    9000005    1    3    3    0    0 -0.68087737885E+01  0.30485045901E+02  0.27566153527E+03  0.27742743097E+03  0.10000000000E+01 0.  0.
    9000005    1    3    3    0    0  0.68087737885E+01 -0.30485045901E+02  0.75621378514E+01  0.32154056556E+02  0.10000000000E+01 0.  0.
<mgrwt>
<rscale>  0 0.12500019E+03</rscale>
<asrwt>0</asrwt>
<pdfrwt beam="2">  1        4 0.20275242E-02 0.12500019E+03</pdfrwt>
<pdfrwt beam="1">  1       -4 0.45600397E-01 0.12500019E+03</pdfrwt>
<totfact> 0.74412139E+03</totfact>
</mgrwt>
</event>
<event>
 5    1  0.3486294E-002  0.1250072E+03  0.7818608E-02  0.1235058E+00
          4   -1    0    0  501    0  0.00000000000E+00  0.00000000000E+00  0.10541048712E+02  0.10617278745E+02  0.12700000000E+01 0.  1.
         -4   -1    0    0    0  501 -0.00000000000E+00 -0.00000000000E+00 -0.36920529547E+03  0.36920747975E+03  0.12700000000E+01 0.  1.
         25    2    1    2    0    0  0.00000000000E+00  0.00000000000E+00 -0.35866424676E+03  0.37982475850E+03  0.12500722084E+03 0.  0.
    9000005    1    3    3    0    0 -0.39801608541E+02 -0.42884500469E+02 -0.24607049836E+03  0.25293267599E+03  0.10000000000E+01 0.  0.
    9000005    1    3    3    0    0  0.39801608541E+02  0.42884500469E+02 -0.11259374840E+03  0.12689208251E+03  0.10000000000E+01 0.  0.
<mgrwt>
<rscale>  0 0.12500722E+03</rscale>
<asrwt>0</asrwt>
<pdfrwt beam="1">  1        4 0.16277320E-02 0.12500722E+03</pdfrwt>
<pdfrwt beam="2">  1       -4 0.56806837E-01 0.12500722E+03</pdfrwt>
<totfact> 0.66552841E+03</totfact>
</mgrwt>
</event>
<event>
 5    1  0.3486294E-002  0.1250064E+03  0.7818608E-02  0.1235059E+00
          4   -1    0    0  501    0  0.00000000000E+00  0.00000000000E+00  0.10001589324E+03  0.10002395613E+03  0.12700000000E+01 0. -1.
         -4   -1    0    0    0  501 -0.00000000000E+00 -0.00000000000E+00 -0.39040333938E+02  0.39060985318E+02  0.12700000000E+01 0. -1.
         25    2    1    2    0    0  0.00000000000E+00  0.00000000000E+00  0.60975559298E+02  0.13908494145E+03  0.12500640826E+03 0.  0.
    9000005    1    3    3    0    0  0.60208668033E+02 -0.12065901548E+02  0.17561191917E+02  0.63875387655E+02  0.10000000000E+01 0.  0.
    9000005    1    3    3    0    0 -0.60208668033E+02  0.12065901548E+02  0.43414367381E+02  0.75209553792E+02  0.10000000000E+01 0.  0.
<mgrwt>
<rscale>  0 0.12500641E+03</rscale>
<asrwt>0</asrwt>
<pdfrwt beam="1">  1        4 0.15389269E-01 0.12500641E+03</pdfrwt>
<pdfrwt beam="2">  1       -4 0.60084141E-02 0.12500641E+03</pdfrwt>
<totfact> 0.10151120E+04</totfact>
</mgrwt>
</event>
<event>
 5    1  0.3486294E-002  0.1249849E+03  0.7818608E-02  0.1235093E+00
         -4   -1    0    0    0  501 -0.00000000000E+00  0.00000000000E+00  0.11508986210E+03  0.11509686902E+03  0.12700000000E+01 0. -1.
          4   -1    0    0  501    0  0.00000000000E+00 -0.00000000000E+00 -0.33912733258E+02  0.33936505080E+02  0.12700000000E+01 0. -1.
         25    2    1    2    0    0  0.00000000000E+00  0.00000000000E+00  0.81177128844E+02  0.14903337410E+03  0.12498488048E+03 0.  0.
    9000005    1    3    3    0    0 -0.43272603880E+02 -0.41625364813E+02  0.19965853015E+02  0.63283682960E+02  0.10000000000E+01 0.  0.
    9000005    1    3    3    0    0  0.43272603880E+02  0.41625364813E+02  0.61211275829E+02  0.85749691142E+02  0.10000000000E+01 0.  0.
<mgrwt>
<rscale>  0 0.12498488E+03</rscale>
<asrwt>0</asrwt>
<pdfrwt beam="2">  1        4 0.52197113E-02 0.12498488E+03</pdfrwt>
<pdfrwt beam="1">  1       -4 0.17708500E-01 0.12498488E+03</pdfrwt>
<totfact> 0.99530597E+03</totfact>
</mgrwt>
</event>
<event>
 5    1  0.3486294E-002  0.1249952E+03  0.7818608E-02  0.1235077E+00
         -4   -1    0    0    0  501 -0.00000000000E+00  0.00000000000E+00  0.59929077384E+02  0.59942532613E+02  0.12700000000E+01 0.  1.
          4   -1    0    0  501    0  0.00000000000E+00 -0.00000000000E+00 -0.65149277067E+02  0.65161654386E+02  0.12700000000E+01 0.  1.
         25    2    1    2    0    0  0.00000000000E+00  0.00000000000E+00 -0.52201996831E+01  0.12510418700E+03  0.12499522839E+03 0.  0.
    9000005    1    3    3    0    0  0.53697010229E+02 -0.68691440811E+01  0.28632455138E+02  0.61248441084E+02  0.10000000000E+01 0.  0.
    9000005    1    3    3    0    0 -0.53697010229E+02  0.68691440811E+01 -0.33852654821E+02  0.63855745915E+02  0.10000000000E+01 0.  0.
<mgrwt>
<rscale>  0 0.12499523E+03</rscale>
<asrwt>0</asrwt>
<pdfrwt beam="2">  1        4 0.10024953E-01 0.12499523E+03</pdfrwt>
<pdfrwt beam="1">  1       -4 0.92218452E-02 0.12499523E+03</pdfrwt>
<totfact> 0.10451727E+04</totfact>
</mgrwt>
</event>
<event>
 5    1  0.3486294E-002  0.1249996E+03  0.7818608E-02  0.1235070E+00
          4   -1    0    0  501    0  0.00000000000E+00  0.00000000000E+00  0.20475268902E+04  0.20475272841E+04  0.12700000000E+01 0.  1.
         -4   -1    0    0    0  501 -0.00000000000E+00 -0.00000000000E+00 -0.16959806271E+01  0.21187850971E+01  0.12700000000E+01 0.  1.
         25    2    1    2    0    0  0.00000000000E+00  0.00000000000E+00  0.20458309096E+04  0.20496460692E+04  0.12499959308E+03 0.  0.
    9000005    1    3    3    0    0 -0.42877956470E+02  0.29243859663E+02  0.15936476321E+04  0.15944928654E+04  0.10000000000E+01 0.  0.
    9000005    1    3    3    0    0  0.42877956470E+02 -0.29243859663E+02  0.45218327748E+03  0.45515320378E+03  0.10000000000E+01 0.  0.
<mgrwt>
<rscale>  0 0.12499959E+03</rscale>
<asrwt>0</asrwt>
<pdfrwt beam="1">  1        4 0.31503655E+00 0.12499959E+03</pdfrwt>
<pdfrwt beam="2">  1       -4 0.29347394E-03 0.12499959E+03</pdfrwt>
<totfact> 0.92271670E+02</totfact>
</mgrwt>
</event>
<event>
 5    1  0.3486294E-002  0.1250007E+03  0.7818608E-02  0.1235068E+00
          4   -1    0    0  501    0  0.00000000000E+00  0.00000000000E+00  0.18610479726E+02  0.18653762506E+02  0.12700000000E+01 0. -1.
         -4   -1    0    0    0  501 -0.00000000000E+00 -0.00000000000E+00 -0.20960868197E+03  0.20961252934E+03  0.12700000000E+01 0. -1.
         25    2    1    2    0    0  0.00000000000E+00  0.00000000000E+00 -0.19099820225E+03  0.22826629185E+03  0.12500074693E+03 0.  0.
    9000005    1    3    3    0    0 -0.32800215137E+01  0.16299773593E+02 -0.20550450368E+03  0.20617842320E+03  0.10000000000E+01 0.  0.
    9000005    1    3    3    0    0  0.32800215137E+01 -0.16299773593E+02  0.14506301432E+02  0.22087868652E+02  0.10000000000E+01 0.  0.
<mgrwt>
<rscale>  0 0.12500075E+03</rscale>
<asrwt>0</asrwt>
<pdfrwt beam="1">  1        4 0.28667763E-02 0.12500075E+03</pdfrwt>
<pdfrwt beam="2">  1       -4 0.32251113E-01 0.12500075E+03</pdfrwt>
<totfact> 0.85575096E+03</totfact>
</mgrwt>
</event>
<event>
 5    1  0.3486294E-002  0.1249975E+03  0.7818608E-02  0.1235073E+00
         -4   -1    0    0    0  501 -0.00000000000E+00  0.00000000000E+00  0.14472757334E+02  0.14528372409E+02  0.12700000000E+01 0. -1.
          4   -1    0    0  501    0  0.00000000000E+00 -0.00000000000E+00 -0.26931800960E+03  0.26932100400E+03  0.12700000000E+01 0. -1.
         25    2    1    2    0    0  0.00000000000E+00  0.00000000000E+00 -0.25484525226E+03  0.28384937641E+03  0.12499746351E+03 0.  0.
    9000005    1    3    3    0    0 -0.38293109582E+02 -0.35667547472E+02 -0.20498291311E+03  0.21155975717E+03  0.10000000000E+01 0.  0.
    9000005    1    3    3    0    0  0.38293109582E+02  0.35667547472E+02 -0.49862339151E+02  0.72289619239E+02  0.10000000000E+01 0.  0.
<mgrwt>
<rscale>  0 0.12499746E+03</rscale>
<asrwt>0</asrwt>
<pdfrwt beam="2">  1        4 0.41438045E-01 0.12499746E+03</pdfrwt>
<pdfrwt beam="1">  1       -4 0.22310867E-02 0.12499746E+03</pdfrwt>
<totfact> 0.77674839E+03</totfact>
</mgrwt>
</event>
<event>
 5    1  0.3486294E-002  0.1250044E+03  0.7818608E-02  0.1235062E+00
          4   -1    0    0  501    0  0.00000000000E+00  0.00000000000E+00  0.45161405284E+02  0.45179258816E+02  0.12700000000E+01 0. -1.
         -4   -1    0    0    0  501 -0.00000000000E+00 -0.00000000000E+00 -0.86461730707E+02  0.86471057451E+02  0.12700000000E+01 0. -1.
         25    2    1    2    0    0  0.00000000000E+00  0.00000000000E+00 -0.41300325423E+02  0.13165031627E+03  0.12500435550E+03 0.  0.
    9000005    1    3    3    0    0  0.10875647794E+02 -0.53686278060E+02 -0.52333236078E+02  0.75764528411E+02  0.10000000000E+01 0.  0.
    9000005    1    3    3    0    0 -0.10875647794E+02  0.53686278060E+02  0.11032910655E+02  0.55885787857E+02  0.10000000000E+01 0.  0.
<mgrwt>
<rscale>  0 0.12500436E+03</rscale>
<asrwt>0</asrwt>
<pdfrwt beam="1">  1        4 0.69499993E-02 0.12500436E+03</pdfrwt>
<pdfrwt beam="2">  1       -4 0.13303895E-01 0.12500436E+03</pdfrwt>
<totfact> 0.10308155E+04</totfact>
</mgrwt>
</event>
<event>
 5    1  0.3486294E-002  0.1249997E+03  0.7818608E-02  0.1235070E+00
         -4   -1    0    0    0  501 -0.00000000000E+00  0.00000000000E+00  0.76303665769E+02  0.76314233992E+02  0.12700000000E+01 0. -1.
          4   -1    0    0  501    0  0.00000000000E+00 -0.00000000000E+00 -0.51171241260E+02  0.51186998663E+02  0.12700000000E+01 0. -1.
         25    2    1    2    0    0  0.00000000000E+00  0.00000000000E+00  0.25132424509E+02  0.12750123265E+03  0.12499970227E+03 0.  0.
    9000005    1    3    3    0    0 -0.41674283541E+02  0.18210234241E+02  0.56282668786E+02  0.72367792183E+02  0.10000000000E+01 0.  0.
    9000005    1    3    3    0    0  0.41674283541E+02 -0.18210234241E+02 -0.31150244277E+02  0.55133440472E+02  0.10000000000E+01 0.  0.
<mgrwt>
<rscale>  0 0.12499970E+03</rscale>
<asrwt>0</asrwt>
<pdfrwt beam="2">  1        4 0.78745237E-02 0.12499970E+03</pdfrwt>
<pdfrwt beam="1">  1       -4 0.11741051E-01 0.12499970E+03</pdfrwt>
<totfact> 0.10398344E+04</totfact>
</mgrwt>
</event>
<event>
 5    1  0.3486294E-002  0.1250241E+03  0.7818608E-02  0.1235032E+00
         -4   -1    0    0    0  501 -0.00000000000E+00  0.00000000000E+00  0.10809690936E+04  0.10809698397E+04  0.12700000000E+01 0. -1.
          4   -1    0    0  501    0  0.00000000000E+00 -0.00000000000E+00 -0.35027404152E+01  0.37258677400E+01  0.12700000000E+01 0. -1.
         25    2    1    2    0    0  0.00000000000E+00  0.00000000000E+00  0.10774663532E+04  0.10846957074E+04  0.12502413915E+03 0.  0.
    9000005    1    3    3    0    0 -0.22588638975E+02  0.16271218806E+02  0.10242544484E+04  0.10246331901E+04  0.10000000000E+01 0.  0.
    9000005    1    3    3    0    0  0.22588638975E+02 -0.16271218806E+02  0.53211904766E+02  0.60062517271E+02  0.10000000000E+01 0.  0.
<mgrwt>
<rscale>  0 0.12502414E+03</rscale>
<asrwt>0</asrwt>
<pdfrwt beam="2">  1        4 0.55610443E-03 0.12502414E+03</pdfrwt>
<pdfrwt beam="1">  1       -4 0.16632008E+00 0.12502414E+03</pdfrwt>
<totfact> 0.27920984E+03</totfact>
</mgrwt>
</event>
<event>
 5    1  0.3486294E-002  0.1250060E+03  0.7818608E-02  0.1235060E+00
          4   -1    0    0  501    0  0.00000000000E+00  0.00000000000E+00  0.31080321512E+03  0.31080580984E+03  0.12700000000E+01 0. -1.
         -4   -1    0    0    0  501 -0.00000000000E+00 -0.00000000000E+00 -0.12534710022E+02  0.12598883098E+02  0.12700000000E+01 0. -1.
         25    2    1    2    0    0  0.00000000000E+00  0.00000000000E+00  0.29826850510E+03  0.32340469293E+03  0.12500597697E+03 0.  0.
    9000005    1    3    3    0    0 -0.22491473575E+01  0.10110868602E+02 -0.10311217643E+02  0.14649557570E+02  0.10000000000E+01 0.  0.
    9000005    1    3    3    0    0  0.22491473575E+01 -0.10110868602E+02  0.30857972274E+03  0.30875513536E+03  0.10000000000E+01 0.  0.
<mgrwt>
<rscale>  0 0.12500598E+03</rscale>
<asrwt>0</asrwt>
<pdfrwt beam="1">  1        4 0.47821013E-01 0.12500598E+03</pdfrwt>
<pdfrwt beam="2">  1       -4 0.19335530E-02 0.12500598E+03</pdfrwt>
<totfact> 0.72743367E+03</totfact>
</mgrwt>
</event>
<event>
 5    1  0.3486294E-002  0.1249979E+03  0.7818608E-02  0.1235073E+00
          4   -1    0    0  501    0  0.00000000000E+00  0.00000000000E+00  0.89177698119E+02  0.89186740840E+02  0.12700000000E+01 0.  1.
         -4   -1    0    0    0  501 -0.00000000000E+00 -0.00000000000E+00 -0.43781044093E+02  0.43799460292E+02  0.12700000000E+01 0.  1.
         25    2    1    2    0    0  0.00000000000E+00  0.00000000000E+00  0.45396654025E+02  0.13298620113E+03  0.12499789396E+03 0.  0.
    9000005    1    3    3    0    0  0.48243284174E+02 -0.26122170392E+01  0.64865590831E+02  0.80887471339E+02  0.10000000000E+01 0.  0.
    9000005    1    3    3    0    0 -0.48243284174E+02  0.26122170392E+01 -0.19468936806E+02  0.52098729794E+02  0.10000000000E+01 0.  0.
<mgrwt>
<rscale>  0 0.12499789E+03</rscale>
<asrwt>0</asrwt>
<pdfrwt beam="1">  1        4 0.13721758E-01 0.12499789E+03</pdfrwt>
<pdfrwt beam="2">  1       -4 0.67376576E-02 0.12499789E+03</pdfrwt>
<totfact> 0.10281182E+04</totfact>
</mgrwt>
</event>
<event>
 5    1  0.3486294E-002  0.1250000E+03  0.7818608E-02  0.1235069E+00
         -4   -1    0    0    0  501 -0.00000000000E+00  0.00000000000E+00  0.25049862443E+02  0.25082035572E+02  0.12700000000E+01 0.  1.
          4   -1    0    0  501    0  0.00000000000E+00 -0.00000000000E+00 -0.15580408804E+03  0.15580926401E+03  0.12700000000E+01 0.  1.
         25    2    1    2    0    0  0.00000000000E+00  0.00000000000E+00 -0.13075422560E+03  0.18089129958E+03  0.12499997901E+03 0.  0.
    9000005    1    3    3    0    0  0.47312468268E+02  0.28009655491E+02 -0.10836050398E+03  0.12151546929E+03  0.10000000000E+01 0.  0.
    9000005    1    3    3    0    0 -0.47312468268E+02 -0.28009655491E+02 -0.22393721616E+02  0.59375830286E+02  0.10000000000E+01 0.  0.
<mgrwt>
<rscale>  0 0.12499998E+03</rscale>
<asrwt>0</asrwt>
<pdfrwt beam="2">  1        4 0.23972732E-01 0.12499998E+03</pdfrwt>
<pdfrwt beam="1">  1       -4 0.38566981E-02 0.12499998E+03</pdfrwt>
<totfact> 0.93456856E+03</totfact>
</mgrwt>
</event>
<event>
 5    1  0.3486294E-002  0.1250054E+03  0.7818608E-02  0.1235061E+00
         -4   -1    0    0    0  501 -0.00000000000E+00  0.00000000000E+00  0.25145343472E+04  0.25145346679E+04  0.12700000000E+01 0. -1.
          4   -1    0    0  501    0  0.00000000000E+00 -0.00000000000E+00 -0.12936859589E+01  0.18128770946E+01  0.12700000000E+01 0. -1.
         25    2    1    2    0    0  0.00000000000E+00  0.00000000000E+00  0.25132406612E+04  0.25163475450E+04  0.12500538373E+03 0.  0.
    9000005    1    3    3    0    0  0.31574291746E+02  0.35108233821E+02  0.20807337987E+04  0.20812697243E+04  0.10000000000E+01 0.  0.
    9000005    1    3    3    0    0 -0.31574291746E+02 -0.35108233821E+02  0.43250686246E+03  0.43507782069E+03  0.10000000000E+01 0.  0.
<mgrwt>
<rscale>  0 0.12500538E+03</rscale>
<asrwt>0</asrwt>
<pdfrwt beam="2">  1        4 0.23898986E-03 0.12500538E+03</pdfrwt>
<pdfrwt beam="1">  1       -4 0.38689333E+00 0.12500538E+03</pdfrwt>
<totfact> 0.45415388E+02</totfact>
</mgrwt>
</event>
<event>
 5    1  0.3486294E-002  0.1250009E+03  0.7818608E-02  0.1235068E+00
         -4   -1    0    0    0  501 -0.00000000000E+00  0.00000000000E+00  0.13697504010E+03  0.13698092754E+03  0.12700000000E+01 0. -1.
          4   -1    0    0  501    0  0.00000000000E+00 -0.00000000000E+00 -0.28497745141E+02  0.28526029834E+02  0.12700000000E+01 0. -1.
         25    2    1    2    0    0  0.00000000000E+00  0.00000000000E+00  0.10847729496E+03  0.16550695737E+03  0.12500091767E+03 0.  0.
    9000005    1    3    3    0    0 -0.47937226548E+02 -0.70943030527E+01  0.19933226529E+01  0.48510619045E+02  0.10000000000E+01 0.  0.
    9000005    1    3    3    0    0  0.47937226548E+02  0.70943030527E+01  0.10648397230E+03  0.11699633833E+03  0.10000000000E+01 0.  0.
<mgrwt>
<rscale>  0 0.12500092E+03</rscale>
<asrwt>0</asrwt>
<pdfrwt beam="2">  1        4 0.43868972E-02 0.12500092E+03</pdfrwt>
<pdfrwt beam="1">  1       -4 0.21075711E-01 0.12500092E+03</pdfrwt>
<totfact> 0.96289484E+03</totfact>
</mgrwt>
</event>
<event>
 5    1  0.3486294E-002  0.1249938E+03  0.7818608E-02  0.1235079E+00
         -4   -1    0    0    0  501 -0.00000000000E+00  0.00000000000E+00  0.63782587673E+02  0.63795230153E+02  0.12700000000E+01 0. -1.
          4   -1    0    0  501    0  0.00000000000E+00 -0.00000000000E+00 -0.61211846883E+02  0.61225020203E+02  0.12700000000E+01 0. -1.
         25    2    1    2    0    0  0.00000000000E+00  0.00000000000E+00  0.25707407894E+01  0.12502025036E+03  0.12499381701E+03 0.  0.
    9000005    1    3    3    0    0 -0.82020023377E-01 -0.56281528857E+02 -0.25872652537E+02  0.61951685748E+02  0.10000000000E+01 0.  0.
    9000005    1    3    3    0    0  0.82020023377E-01  0.56281528857E+02  0.28443393327E+02  0.63068564608E+02  0.10000000000E+01 0.  0.
<mgrwt>
<rscale>  0 0.12499382E+03</rscale>
<asrwt>0</asrwt>
<pdfrwt beam="2">  1        4 0.94191931E-02 0.12499382E+03</pdfrwt>
<pdfrwt beam="1">  1       -4 0.98146916E-02 0.12499382E+03</pdfrwt>
<totfact> 0.10453883E+04</totfact>
</mgrwt>
</event>
<event>
 4    1  0.3486294E-002  0.1250853E+03  0.7818608E-02  0.1234936E+00
          4   -1    0    0  501    0  0.00000000000E+00  0.00000000000E+00  0.16267992470E+02  0.16317489972E+02  0.12700000000E+01 0.  1.
         -4   -1    0    0    0  501 -0.00000000000E+00 -0.00000000000E+00 -0.24003006554E+03  0.24003342531E+03  0.12700000000E+01 0.  1.
    9000005    1    1    2    0    0  0.46308856989E+02  0.35689177200E+02 -0.66406590801E+02  0.88481991991E+02  0.10000000000E+01 0.  0.
    9000005    1    1    2    0    0 -0.46308856989E+02 -0.35689177200E+02 -0.15735548227E+03  0.16786892329E+03  0.10000000000E+01 0.  0.
<mgrwt>
<rscale>  0 0.12508528E+03</rscale>
<asrwt>0</asrwt>
<pdfrwt beam="1">  1        4 0.25068342E-02 0.12508528E+03</pdfrwt>
<pdfrwt beam="2">  1       -4 0.36931766E-01 0.12508528E+03</pdfrwt>
<totfact> 0.81266497E+03</totfact>
</mgrwt>
</event>
<event>
 5    1  0.3486294E-002  0.1250028E+03  0.7818608E-02  0.1235065E+00
         -4   -1    0    0    0  501 -0.00000000000E+00  0.00000000000E+00  0.95939748741E+03  0.95939832799E+03  0.12700000000E+01 0.  1.
          4   -1    0    0  501    0  0.00000000000E+00 -0.00000000000E+00 -0.39718568888E+01  0.41699576910E+01  0.12700000000E+01 0.  1.
         25    2    1    2    0    0  0.00000000000E+00  0.00000000000E+00  0.95542563052E+03  0.96356828568E+03  0.12500282282E+03 0.  0.
    9000005    1    3    3    0    0 -0.80078712371E+01  0.61641700176E+02  0.42799457597E+03  0.43248604863E+03  0.10000000000E+01 0.  0.
    9000005    1    3    3    0    0  0.80078712371E+01 -0.61641700176E+02  0.52743105455E+03  0.53108223705E+03  0.10000000000E+01 0.  0.
<mgrwt>
<rscale>  0 0.12500282E+03</rscale>
<asrwt>0</asrwt>
<pdfrwt beam="2">  1        4 0.62635799E-03 0.12500282E+03</pdfrwt>
<pdfrwt beam="1">  1       -4 0.14761494E+00 0.12500282E+03</pdfrwt>
<totfact> 0.31837121E+03</totfact>
</mgrwt>
</event>
<event>
 5    1  0.3486294E-002  0.1249999E+03  0.7818608E-02  0.1235069E+00
         -4   -1    0    0    0  501 -0.00000000000E+00  0.00000000000E+00  0.41062245419E+02  0.41081880420E+02  0.12700000000E+01 0.  1.
          4   -1    0    0  501    0  0.00000000000E+00 -0.00000000000E+00 -0.95083231159E+02  0.95091712297E+02  0.12700000000E+01 0.  1.
         25    2    1    2    0    0  0.00000000000E+00  0.00000000000E+00 -0.54020985739E+02  0.13617359272E+03  0.12499992181E+03 0.  0.
    9000005    1    3    3    0    0 -0.33314373877E+02 -0.41934560638E+02  0.80686962457E+01  0.54170644650E+02  0.10000000000E+01 0.  0.
    9000005    1    3    3    0    0  0.33314373877E+02  0.41934560638E+02 -0.62089681985E+02  0.82002948067E+02  0.10000000000E+01 0.  0.
<mgrwt>
<rscale>  0 0.12499992E+03</rscale>
<asrwt>0</asrwt>
<pdfrwt beam="2">  1        4 0.14630352E-01 0.12499992E+03</pdfrwt>
<pdfrwt beam="1">  1       -4 0.63194313E-02 0.12499992E+03</pdfrwt>
<totfact> 0.10213411E+04</totfact>
</mgrwt>
</event>
<event>
 5    1  0.3486294E-002  0.1249982E+03  0.7818608E-02  0.1235072E+00
         -4   -1    0    0    0  501 -0.00000000000E+00  0.00000000000E+00  0.43745264810E+02  0.43763696065E+02  0.12700000000E+01 0. -1.
          4   -1    0    0  501    0  0.00000000000E+00 -0.00000000000E+00 -0.89251101311E+02  0.89260136596E+02  0.12700000000E+01 0. -1.
         25    2    1    2    0    0  0.00000000000E+00  0.00000000000E+00 -0.45505836501E+02  0.13302383266E+03  0.12499823559E+03 0.  0.
    9000005    1    3    3    0    0 -0.17356934489E+02 -0.11825960217E+02  0.39881921508E+02  0.45085298858E+02  0.10000000000E+01 0.  0.
    9000005    1    3    3    0    0  0.17356934489E+02  0.11825960217E+02 -0.85387758009E+02  0.87938533804E+02  0.10000000000E+01 0.  0.
<mgrwt>
<rscale>  0 0.12499824E+03</rscale>
<asrwt>0</asrwt>
<pdfrwt beam="2">  1        4 0.13733051E-01 0.12499824E+03</pdfrwt>
<pdfrwt beam="1">  1       -4 0.67321535E-02 0.12499824E+03</pdfrwt>
<totfact> 0.10280303E+04</totfact>
</mgrwt>
</event>
<event>
 5    1  0.3486294E-002  0.1250036E+03  0.7818608E-02  0.1235064E+00
          4   -1    0    0  501    0  0.00000000000E+00  0.00000000000E+00  0.31929651962E+03  0.31929904532E+03  0.12700000000E+01 0. -1.
         -4   -1    0    0    0  501 -0.00000000000E+00 -0.00000000000E+00 -0.12199088776E+02  0.12265018018E+02  0.12700000000E+01 0. -1.
         25    2    1    2    0    0  0.00000000000E+00  0.00000000000E+00  0.30709743084E+03  0.33156406334E+03  0.12500358421E+03 0.  0.
    9000005    1    3    3    0    0  0.23981745310E+02 -0.39236974978E+01  0.83298490709E+00  0.24335434536E+02  0.10000000000E+01 0.  0.
    9000005    1    3    3    0    0 -0.23981745310E+02  0.39236974978E+01  0.30626444594E+03  0.30722862880E+03  0.10000000000E+01 0.  0.
<mgrwt>
<rscale>  0 0.12500358E+03</rscale>
<asrwt>0</asrwt>
<pdfrwt beam="1">  1        4 0.49127798E-01 0.12500358E+03</pdfrwt>
<pdfrwt beam="2">  1       -4 0.18820490E-02 0.12500358E+03</pdfrwt>
<totfact> 0.71795823E+03</totfact>
</mgrwt>
</event>
<event>
 5    1  0.3486294E-002  0.1250008E+03  0.7818608E-02  0.1235068E+00
          4   -1    0    0  501    0  0.00000000000E+00  0.00000000000E+00  0.44917409304E+02  0.44935359780E+02  0.12700000000E+01 0.  1.
         -4   -1    0    0    0  501 -0.00000000000E+00 -0.00000000000E+00 -0.86926247587E+02  0.86935524497E+02  0.12700000000E+01 0.  1.
         25    2    1    2    0    0  0.00000000000E+00  0.00000000000E+00 -0.42008838284E+02  0.13187088428E+03  0.12500075050E+03 0.  0.
    9000005    1    3    3    0    0  0.11262283268E+02 -0.16575756248E+02 -0.83449738357E+02  0.85828046415E+02  0.10000000000E+01 0.  0.
    9000005    1    3    3    0    0 -0.11262283268E+02  0.16575756248E+02  0.41440900073E+02  0.46042837863E+02  0.10000000000E+01 0.  0.
<mgrwt>
<rscale>  0 0.12500075E+03</rscale>
<asrwt>0</asrwt>
<pdfrwt beam="1">  1        4 0.69124651E-02 0.12500075E+03</pdfrwt>
<pdfrwt beam="2">  1       -4 0.13375363E-01 0.12500075E+03</pdfrwt>
<totfact> 0.10304281E+04</totfact>
</mgrwt>
</event>
<event>
 5    1  0.3486294E-002  0.1250003E+03  0.7818608E-02  0.1235069E+00
         -4   -1    0    0    0  501 -0.00000000000E+00  0.00000000000E+00  0.90853157992E+03  0.90853246756E+03  0.12700000000E+01 0.  1.
          4   -1    0    0  501    0  0.00000000000E+00 -0.00000000000E+00 -0.42048479832E+01  0.43924533648E+01  0.12700000000E+01 0.  1.
         25    2    1    2    0    0  0.00000000000E+00  0.00000000000E+00  0.90432673193E+03  0.91292492092E+03  0.12500029260E+03 0.  0.
    9000005    1    3    3    0    0  0.10000539936E+00 -0.19683357270E+02  0.18990673829E+02  0.27369513094E+02  0.10000000000E+01 0.  0.
    9000005    1    3    3    0    0 -0.10000539936E+00  0.19683357270E+02  0.88533605810E+03  0.88555540783E+03  0.10000000000E+01 0.  0.
<mgrwt>
<rscale>  0 0.12500029E+03</rscale>
<asrwt>0</asrwt>
<pdfrwt beam="2">  1        4 0.66139881E-03 0.12500029E+03</pdfrwt>
<pdfrwt beam="1">  1       -4 0.13978866E+00 0.12500029E+03</pdfrwt>
<totfact> 0.33669589E+03</totfact>
</mgrwt>
</event>
<event>
 5    1  0.3486294E-002  0.1250021E+03  0.7818608E-02  0.1235066E+00
          4   -1    0    0  501    0  0.00000000000E+00  0.00000000000E+00  0.20717782090E+03  0.20718171341E+03  0.12700000000E+01 0.  1.
         -4   -1    0    0    0  501 -0.00000000000E+00 -0.00000000000E+00 -0.18829741079E+02  0.18872521005E+02  0.12700000000E+01 0.  1.
         25    2    1    2    0    0  0.00000000000E+00  0.00000000000E+00  0.18834807982E+03  0.22605423441E+03  0.12500207089E+03 0.  0.
    9000005    1    3    3    0    0 -0.55796495427E+02  0.26202487691E+02  0.11275402990E+03  0.12850793953E+03  0.10000000000E+01 0.  0.
    9000005    1    3    3    0    0  0.55796495427E+02 -0.26202487691E+02  0.75594049920E+02  0.97546294889E+02  0.10000000000E+01 0.  0.
<mgrwt>
<rscale>  0 0.12500207E+03</rscale>
<asrwt>0</asrwt>
<pdfrwt beam="1">  1        4 0.31877101E-01 0.12500207E+03</pdfrwt>
<pdfrwt beam="2">  1       -4 0.29004735E-02 0.12500207E+03</pdfrwt>
<totfact> 0.85915207E+03</totfact>
</mgrwt>
</event>
<event>
 5    1  0.3486294E-002  0.1250131E+03  0.7818608E-02  0.1235049E+00
          4   -1    0    0  501    0  0.00000000000E+00  0.00000000000E+00  0.14305947767E+02  0.14362208797E+02  0.12700000000E+01 0.  1.
         -4   -1    0    0    0  501 -0.00000000000E+00 -0.00000000000E+00 -0.27251449882E+03  0.27251745810E+03  0.12700000000E+01 0.  1.
         25    2    1    2    0    0  0.00000000000E+00  0.00000000000E+00 -0.25820855106E+03  0.28687966690E+03  0.12501314907E+03 0.  0.
    9000005    1    3    3    0    0 -0.42357639419E+01 -0.57855404044E+02 -0.75734485710E+02  0.95403887756E+02  0.10000000000E+01 0.  0.
    9000005    1    3    3    0    0  0.42357639419E+01  0.57855404044E+02 -0.18247406535E+03  0.19147577914E+03  0.10000000000E+01 0.  0.
<mgrwt>
<rscale>  0 0.12501315E+03</rscale>
<asrwt>0</asrwt>
<pdfrwt beam="1">  1        4 0.22054706E-02 0.12501315E+03</pdfrwt>
<pdfrwt beam="2">  1       -4 0.41929859E-01 0.12501315E+03</pdfrwt>
<totfact> 0.77252096E+03</totfact>
</mgrwt>
</event>
<event>
 5    1  0.3486294E-002  0.1250013E+03  0.7818608E-02  0.1235067E+00
         -4   -1    0    0    0  501 -0.00000000000E+00  0.00000000000E+00  0.82607921815E+03  0.82608019438E+03  0.12700000000E+01 0.  1.
          4   -1    0    0  501    0  0.00000000000E+00 -0.00000000000E+00 -0.46424915531E+01  0.48130684413E+01  0.12700000000E+01 0.  1.
         25    2    1    2    0    0  0.00000000000E+00  0.00000000000E+00  0.82143672659E+03  0.83089326282E+03  0.12500127364E+03 0.  0.
    9000005    1    3    3    0    0 -0.41308841550E+02  0.34992405775E+02  0.61821378487E+03  0.62058051263E+03  0.10000000000E+01 0.  0.
    9000005    1    3    3    0    0  0.41308841550E+02 -0.34992405775E+02  0.20322294172E+03  0.21031275019E+03  0.10000000000E+01 0.  0.
<mgrwt>
<rscale>  0 0.12500127E+03</rscale>
<asrwt>0</asrwt>
<pdfrwt beam="2">  1        4 0.72742539E-03 0.12500127E+03</pdfrwt>
<pdfrwt beam="1">  1       -4 0.12710239E+00 0.12500127E+03</pdfrwt>
<totfact> 0.36921143E+03</totfact>
</mgrwt>
</event>
<event>
 5    1  0.3486294E-002  0.1249964E+03  0.7818608E-02  0.1235075E+00
         -4   -1    0    0    0  501 -0.00000000000E+00  0.00000000000E+00  0.67082672203E+02  0.67094692860E+02  0.12700000000E+01 0. -1.
          4   -1    0    0  501    0  0.00000000000E+00 -0.00000000000E+00 -0.58202833997E+02  0.58216688202E+02  0.12700000000E+01 0. -1.
         25    2    1    2    0    0  0.00000000000E+00  0.00000000000E+00  0.88798382066E+01  0.12531138106E+03  0.12499636274E+03 0.  0.
    9000005    1    3    3    0    0 -0.14222229406E+02  0.19928757241E+02  0.62079125819E+02  0.66740130633E+02  0.10000000000E+01 0.  0.
    9000005    1    3    3    0    0  0.14222229406E+02 -0.19928757241E+02 -0.53199287612E+02  0.58571250430E+02  0.10000000000E+01 0.  0.
<mgrwt>
<rscale>  0 0.12499636E+03</rscale>
<asrwt>0</asrwt>
<pdfrwt beam="2">  1        4 0.89562726E-02 0.12499636E+03</pdfrwt>
<pdfrwt beam="1">  1       -4 0.10322401E-01 0.12499636E+03</pdfrwt>
<totfact> 0.10446962E+04</totfact>
</mgrwt>
</event>
<event>
 5    1  0.3486294E-002  0.1249979E+03  0.7818608E-02  0.1235073E+00
         -4   -1    0    0    0  501 -0.00000000000E+00  0.00000000000E+00  0.14817311575E+03  0.14817855827E+03  0.12700000000E+01 0.  1.
          4   -1    0    0  501    0  0.00000000000E+00 -0.00000000000E+00 -0.26340630573E+02  0.26371229000E+02  0.12700000000E+01 0.  1.
         25    2    1    2    0    0  0.00000000000E+00  0.00000000000E+00  0.12183248518E+03  0.17454978727E+03  0.12499789515E+03 0.  0.
    9000005    1    3    3    0    0  0.90352401203E+01  0.46458089841E+02  0.11789861628E+03  0.12704752416E+03  0.10000000000E+01 0.  0.
    9000005    1    3    3    0    0 -0.90352401203E+01 -0.46458089841E+02  0.39338688986E+01  0.47502263106E+02  0.10000000000E+01 0.  0.
<mgrwt>
<rscale>  0 0.12499790E+03</rscale>
<asrwt>0</asrwt>
<pdfrwt beam="2">  1        4 0.40551771E-02 0.12499790E+03</pdfrwt>
<pdfrwt beam="1">  1       -4 0.22798636E-01 0.12499790E+03</pdfrwt>
<totfact> 0.94611828E+03</totfact>
</mgrwt>
</event>
<event>
 5    1  0.3486294E-002  0.1249974E+03  0.7818608E-02  0.1235073E+00
         -4   -1    0    0    0  501 -0.00000000000E+00  0.00000000000E+00  0.10528969844E+03  0.10529735751E+03  0.12700000000E+01 0.  1.
          4   -1    0    0  501    0  0.00000000000E+00 -0.00000000000E+00 -0.37078615593E+02  0.37100358951E+02  0.12700000000E+01 0.  1.
         25    2    1    2    0    0  0.00000000000E+00  0.00000000000E+00  0.68211082847E+02  0.14239771646E+03  0.12499743129E+03 0.  0.
    9000005    1    3    3    0    0 -0.68113147538E+01 -0.41018611041E+02  0.87248808012E+02  0.96655444543E+02  0.10000000000E+01 0.  0.
    9000005    1    3    3    0    0  0.68113147538E+01  0.41018611041E+02 -0.19037725165E+02  0.45742271914E+02  0.10000000000E+01 0.  0.
<mgrwt>
<rscale>  0 0.12499743E+03</rscale>
<asrwt>0</asrwt>
<pdfrwt beam="2">  1        4 0.57066642E-02 0.12499743E+03</pdfrwt>
<pdfrwt beam="1">  1       -4 0.16200677E-01 0.12499743E+03</pdfrwt>
<totfact> 0.10084715E+04</totfact>
</mgrwt>
</event>
<event>
 5    1  0.3486294E-002  0.1250078E+03  0.7818608E-02  0.1235057E+00
         -4   -1    0    0    0  501 -0.00000000000E+00  0.00000000000E+00  0.81776232573E+03  0.81776331190E+03  0.12700000000E+01 0.  1.
          4   -1    0    0  501    0  0.00000000000E+00 -0.00000000000E+00 -0.46919444855E+01  0.48607862589E+01  0.12700000000E+01 0.  1.
         25    2    1    2    0    0  0.00000000000E+00  0.00000000000E+00  0.81307038125E+03  0.82262409816E+03  0.12500784779E+03 0.  0.
    9000005    1    3    3    0    0  0.51711195593E+02  0.23572171699E+02  0.57763601590E+03  0.58042575915E+03  0.10000000000E+01 0.  0.
    9000005    1    3    3    0    0 -0.51711195593E+02 -0.23572171699E+02  0.23543436535E+03  0.24219833900E+03  0.10000000000E+01 0.  0.
<mgrwt>
<rscale>  0 0.12500785E+03</rscale>
<asrwt>0</asrwt>
<pdfrwt beam="2">  1        4 0.73490126E-03 0.12500785E+03</pdfrwt>
<pdfrwt beam="1">  1       -4 0.12582266E+00 0.12500785E+03</pdfrwt>
<totfact> 0.37268073E+03</totfact>
</mgrwt>
</event>
<event>
 5    1  0.3486294E-002  0.1249988E+03  0.7818608E-02  0.1235071E+00
         -4   -1    0    0    0  501 -0.00000000000E+00  0.00000000000E+00  0.39180356092E+03  0.39180561922E+03  0.12700000000E+01 0.  1.
          4   -1    0    0  501    0  0.00000000000E+00 -0.00000000000E+00 -0.99271965498E+01  0.10008103284E+02  0.12700000000E+01 0.  1.
         25    2    1    2    0    0  0.00000000000E+00  0.00000000000E+00  0.38187636437E+03  0.40181372250E+03  0.12499883969E+03 0.  0.
    9000005    1    3    3    0    0 -0.60064308831E+01  0.29091816513E+02  0.36767257885E+03  0.36887197812E+03  0.10000000000E+01 0.  0.
    9000005    1    3    3    0    0  0.60064308831E+01 -0.29091816513E+02  0.14203785519E+02  0.32941744384E+02  0.10000000000E+01 0.  0.
<mgrwt>
<rscale>  0 0.12499884E+03</rscale>
<asrwt>0</asrwt>
<pdfrwt beam="2">  1        4 0.15336427E-02 0.12499884E+03</pdfrwt>
<pdfrwt beam="1">  1       -4 0.60283860E-01 0.12499884E+03</pdfrwt>
<totfact> 0.64378413E+03</totfact>
</mgrwt>
</event>
<event>
 5    1  0.3486294E-002  0.1249996E+03  0.7818608E-02  0.1235070E+00
         -4   -1    0    0    0  501 -0.00000000000E+00  0.00000000000E+00  0.57289390357E+01  0.58680186158E+01  0.12700000000E+01 0. -1.
          4   -1    0    0  501    0  0.00000000000E+00 -0.00000000000E+00 -0.67352438805E+03  0.67352558541E+03  0.12700000000E+01 0. -1.
         25    2    1    2    0    0  0.00000000000E+00  0.00000000000E+00 -0.66779544901E+03  0.67939360402E+03  0.12499962985E+03 0.  0.
    9000005    1    3    3    0    0 -0.39477883746E+02 -0.35138535664E+02 -0.15265254587E+03  0.16154572032E+03  0.10000000000E+01 0.  0.
    9000005    1    3    3    0    0  0.39477883746E+02  0.35138535664E+02 -0.51514290315E+03  0.51784788370E+03  0.10000000000E+01 0.  0.
<mgrwt>
<rscale>  0 0.12499963E+03</rscale>
<asrwt>0</asrwt>
<pdfrwt beam="2">  1        4 0.10362987E+00 0.12499963E+03</pdfrwt>
<pdfrwt beam="1">  1       -4 0.89216630E-03 0.12499963E+03</pdfrwt>
<totfact> 0.44197413E+03</totfact>
</mgrwt>
</event>
<event>
 5    1  0.3486294E-002  0.1250075E+03  0.7818608E-02  0.1235058E+00
         -4   -1    0    0    0  501 -0.00000000000E+00  0.00000000000E+00  0.72919962493E+02  0.72931021040E+02  0.12700000000E+01 0.  1.
          4   -1    0    0  501    0  0.00000000000E+00 -0.00000000000E+00 -0.53552785873E+02  0.53567842730E+02  0.12700000000E+01 0.  1.
         25    2    1    2    0    0  0.00000000000E+00  0.00000000000E+00  0.19367176620E+02  0.12649886377E+03  0.12500749979E+03 0.  0.
    9000005    1    3    3    0    0 -0.39746143482E+02  0.17759988765E+02 -0.35690459289E+02  0.56302593253E+02  0.10000000000E+01 0.  0.
    9000005    1    3    3    0    0  0.39746143482E+02 -0.17759988765E+02  0.55057635909E+02  0.70196270517E+02  0.10000000000E+01 0.  0.
<mgrwt>
<rscale>  0 0.12500750E+03</rscale>
<asrwt>0</asrwt>
<pdfrwt beam="2">  1        4 0.82408991E-02 0.12500750E+03</pdfrwt>
<pdfrwt beam="1">  1       -4 0.11220465E-01 0.12500750E+03</pdfrwt>
<totfact> 0.10418289E+04</totfact>
</mgrwt>
</event>
<event>
 5    1  0.3486294E-002  0.1249991E+03  0.7818608E-02  0.1235071E+00
         -4   -1    0    0    0  501 -0.00000000000E+00  0.00000000000E+00  0.13751844215E+03  0.13752430633E+03  0.12700000000E+01 0.  1.
          4   -1    0    0  501    0  0.00000000000E+00 -0.00000000000E+00 -0.28384221373E+02  0.28412619080E+02  0.12700000000E+01 0.  1.
         25    2    1    2    0    0  0.00000000000E+00  0.00000000000E+00  0.10913422077E+03  0.16593692540E+03  0.12499914027E+03 0.  0.
    9000005    1    3    3    0    0 -0.78417844738E+01  0.61993509636E+02  0.53621458765E+02  0.82346521850E+02  0.10000000000E+01 0.  0.
    9000005    1    3    3    0    0  0.78417844738E+01 -0.61993509636E+02  0.55512762007E+02  0.83590403554E+02  0.10000000000E+01 0.  0.
<mgrwt>
<rscale>  0 0.12499914E+03</rscale>
<asrwt>0</asrwt>
<pdfrwt beam="2">  1        4 0.43694388E-02 0.12499914E+03</pdfrwt>
<pdfrwt beam="1">  1       -4 0.21159319E-01 0.12499914E+03</pdfrwt>
<totfact> 0.96212105E+03</totfact>
</mgrwt>
</event>
<event>
 5    1  0.3486294E-002  0.1250027E+03  0.7818608E-02  0.1235065E+00
          4   -1    0    0  501    0  0.00000000000E+00  0.00000000000E+00  0.18646839450E+02  0.18690038027E+02  0.12700000000E+01 0. -1.
         -4   -1    0    0    0  501 -0.00000000000E+00 -0.00000000000E+00 -0.20920756415E+03  0.20921141890E+03  0.12700000000E+01 0. -1.
         25    2    1    2    0    0  0.00000000000E+00  0.00000000000E+00 -0.19056072470E+03  0.22790145692E+03  0.12500273705E+03 0.  0.
    9000005    1    3    3    0    0  0.34283786205E+02 -0.38398112054E+02 -0.15988416558E+03  0.16796945975E+03  0.10000000000E+01 0.  0.
    9000005    1    3    3    0    0 -0.34283786205E+02  0.38398112054E+02 -0.30676559120E+02  0.59931997174E+02  0.10000000000E+01 0.  0.
<mgrwt>
<rscale>  0 0.12500274E+03</rscale>
<asrwt>0</asrwt>
<pdfrwt beam="1">  1        4 0.28723642E-02 0.12500274E+03</pdfrwt>
<pdfrwt beam="2">  1       -4 0.32189397E-01 0.12500274E+03</pdfrwt>
<totfact> 0.85627646E+03</totfact>
</mgrwt>
</event>
<event>
 5    1  0.3486294E-002  0.1249998E+03  0.7818608E-02  0.1235070E+00
          4   -1    0    0  501    0  0.00000000000E+00  0.00000000000E+00  0.28552264958E+02  0.28580495696E+02  0.12700000000E+01 0. -1.
         -4   -1    0    0    0  501 -0.00000000000E+00 -0.00000000000E+00 -0.13671119251E+03  0.13671709131E+03  0.12700000000E+01 0. -1.
         25    2    1    2    0    0  0.00000000000E+00  0.00000000000E+00 -0.10815892755E+03  0.16529758701E+03  0.12499975465E+03 0.  0.
    9000005    1    3    3    0    0 -0.39442470575E+02  0.37597084910E+02 -0.13622630343E+02  0.56176733051E+02  0.10000000000E+01 0.  0.
    9000005    1    3    3    0    0  0.39442470575E+02 -0.37597084910E+02 -0.94536297208E+02  0.10912085396E+03  0.10000000000E+01 0.  0.
<mgrwt>
<rscale>  0 0.12499975E+03</rscale>
<asrwt>0</asrwt>
<pdfrwt beam="1">  1        4 0.43952816E-02 0.12499975E+03</pdfrwt>
<pdfrwt beam="2">  1       -4 0.21035116E-01 0.12499975E+03</pdfrwt>
<totfact> 0.96331595E+03</totfact>
</mgrwt>
</event>
<event>
 5    1  0.3486294E-002  0.1249982E+03  0.7818608E-02  0.1235072E+00
         -4   -1    0    0    0  501 -0.00000000000E+00  0.00000000000E+00  0.24406814131E+02  0.24439833797E+02  0.12700000000E+01 0. -1.
          4   -1    0    0  501    0  0.00000000000E+00 -0.00000000000E+00 -0.15989907385E+03  0.15990411726E+03  0.12700000000E+01 0. -1.
         25    2    1    2    0    0  0.00000000000E+00  0.00000000000E+00 -0.13549225972E+03  0.18434395106E+03  0.12499815938E+03 0.  0.
    9000005    1    3    3    0    0  0.70372361231E+01  0.51643504744E+02 -0.16902569545E+02  0.54802108825E+02  0.10000000000E+01 0.  0.
    9000005    1    3    3    0    0 -0.70372361231E+01 -0.51643504744E+02 -0.11858969017E+03  0.12954184224E+03  0.10000000000E+01 0.  0.
<mgrwt>
<rscale>  0 0.12499816E+03</rscale>
<asrwt>0</asrwt>
<pdfrwt beam="2">  1        4 0.24602785E-01 0.12499816E+03</pdfrwt>
<pdfrwt beam="1">  1       -4 0.37578225E-02 0.12499816E+03</pdfrwt>
<totfact> 0.92844701E+03</totfact>
</mgrwt>
</event>
<event>
 5    1  0.3486294E-002  0.1250010E+03  0.7818608E-02  0.1235068E+00
          4   -1    0    0  501    0  0.00000000000E+00  0.00000000000E+00  0.30026489460E+03  0.30026758038E+03  0.12700000000E+01 0.  1.
         -4   -1    0    0    0  501 -0.00000000000E+00 -0.00000000000E+00 -0.12975810872E+02  0.13037812999E+02  0.12700000000E+01 0.  1.
         25    2    1    2    0    0  0.00000000000E+00  0.00000000000E+00  0.28728908373E+03  0.31330539338E+03  0.12500100757E+03 0.  0.
    9000005    1    3    3    0    0 -0.50055693714E+02  0.16594878032E+02  0.22768825284E+03  0.23371757087E+03  0.10000000000E+01 0.  0.
    9000005    1    3    3    0    0  0.50055693714E+02 -0.16594878032E+02  0.59600830883E+02  0.79587822511E+02  0.10000000000E+01 0.  0.
<mgrwt>
<rscale>  0 0.12500101E+03</rscale>
<asrwt>0</asrwt>
<pdfrwt beam="1">  1        4 0.46199575E-01 0.12500101E+03</pdfrwt>
<pdfrwt beam="2">  1       -4 0.20012546E-02 0.12500101E+03</pdfrwt>
<totfact> 0.73957845E+03</totfact>
</mgrwt>
</event>
<event>
 5    1  0.3486294E-002  0.1250003E+03  0.7818608E-02  0.1235069E+00
         -4   -1    0    0    0  501 -0.00000000000E+00  0.00000000000E+00  0.90520546767E+02  0.90529455356E+02  0.12700000000E+01 0. -1.
          4   -1    0    0  501    0  0.00000000000E+00 -0.00000000000E+00 -0.43133035228E+02  0.43151727984E+02  0.12700000000E+01 0. -1.
         25    2    1    2    0    0  0.00000000000E+00  0.00000000000E+00  0.47387511539E+02  0.13368118334E+03  0.12500033012E+03 0.  0.
    9000005    1    3    3    0    0 -0.51174457411E+02  0.12133459229E+02 -0.12402638289E+02  0.54045086370E+02  0.10000000000E+01 0.  0.
    9000005    1    3    3    0    0  0.51174457411E+02 -0.12133459229E+02  0.59790149828E+02  0.79636096970E+02  0.10000000000E+01 0.  0.
<mgrwt>
<rscale>  0 0.12500033E+03</rscale>
<asrwt>0</asrwt>
<pdfrwt beam="2">  1        4 0.66379748E-02 0.12500033E+03</pdfrwt>
<pdfrwt beam="1">  1       -4 0.13928361E-01 0.12500033E+03</pdfrwt>
<totfact> 0.10265867E+04</totfact>
</mgrwt>
</event>
<event>
 5    1  0.3486294E-002  0.1249949E+03  0.7818608E-02  0.1235077E+00
          4   -1    0    0  501    0  0.00000000000E+00  0.00000000000E+00  0.11494455949E+03  0.11495157527E+03  0.12700000000E+01 0. -1.
         -4   -1    0    0    0  501 -0.00000000000E+00 -0.00000000000E+00 -0.33961072550E+02  0.33984810559E+02  0.12700000000E+01 0. -1.
         25    2    1    2    0    0  0.00000000000E+00  0.00000000000E+00  0.80983486940E+02  0.14893638583E+03  0.12499488736E+03 0.  0.
    9000005    1    3    3    0    0 -0.37662365454E+02 -0.49804465634E+02  0.37575050187E+02  0.72882254118E+02  0.10000000000E+01 0.  0.
    9000005    1    3    3    0    0  0.37662365454E+02  0.49804465634E+02  0.43408436753E+02  0.76054131709E+02  0.10000000000E+01 0.  0.
<mgrwt>
<rscale>  0 0.12499489E+03</rscale>
<asrwt>0</asrwt>
<pdfrwt beam="1">  1        4 0.17686144E-01 0.12499489E+03</pdfrwt>
<pdfrwt beam="2">  1       -4 0.52271460E-02 0.12499489E+03</pdfrwt>
<totfact> 0.99527590E+03</totfact>
</mgrwt>
</event>
<event>
 5    1  0.3486294E-002  0.1249855E+03  0.7818608E-02  0.1235092E+00
          4   -1    0    0  501    0  0.00000000000E+00  0.00000000000E+00  0.68525424675E+01  0.69692351280E+01  0.12700000000E+01 0.  1.
         -4   -1    0    0    0  501 -0.00000000000E+00 -0.00000000000E+00 -0.56498288732E+03  0.56498431471E+03  0.12700000000E+01 0.  1.
         25    2    1    2    0    0  0.00000000000E+00  0.00000000000E+00 -0.55813034485E+03  0.57195354983E+03  0.12498552445E+03 0.  0.
    9000005    1    3    3    0    0  0.28485864649E+02  0.41919543297E+02 -0.44630812336E+03  0.44917773050E+03  0.10000000000E+01 0.  0.
    9000005    1    3    3    0    0 -0.28485864649E+02 -0.41919543297E+02 -0.11182222149E+03  0.12277581934E+03  0.10000000000E+01 0.  0.
<mgrwt>
<rscale>  0 0.12498552E+03</rscale>
<asrwt>0</asrwt>
<pdfrwt beam="1">  1        4 0.10633239E-02 0.12498552E+03</pdfrwt>
<pdfrwt beam="2">  1       -4 0.86929494E-01 0.12498552E+03</pdfrwt>
<totfact> 0.50703350E+03</totfact>
</mgrwt>
</event>
<event>
 5    1  0.3486294E-002  0.1250029E+03  0.7818608E-02  0.1235065E+00
          4   -1    0    0  501    0  0.00000000000E+00  0.00000000000E+00  0.15513493481E+02  0.15565390454E+02  0.12700000000E+01 0.  1.
         -4   -1    0    0    0  501 -0.00000000000E+00 -0.00000000000E+00 -0.25133462541E+03  0.25133783406E+03  0.12700000000E+01 0.  1.
         25    2    1    2    0    0  0.00000000000E+00  0.00000000000E+00 -0.23582113193E+03  0.26690322451E+03  0.12500289993E+03 0.  0.
    9000005    1    3    3    0    0  0.40384087468E+01 -0.43380057714E+02 -0.22248638369E+02  0.48929950560E+02  0.10000000000E+01 0.  0.
    9000005    1    3    3    0    0 -0.40384087468E+01  0.43380057714E+02 -0.21357249356E+03  0.21797327395E+03  0.10000000000E+01 0.  0.
<mgrwt>
<rscale>  0 0.12500290E+03</rscale>
<asrwt>0</asrwt>
<pdfrwt beam="1">  1        4 0.23909304E-02 0.12500290E+03</pdfrwt>
<pdfrwt beam="2">  1       -4 0.38671101E-01 0.12500290E+03</pdfrwt>
<totfact> 0.79941791E+03</totfact>
</mgrwt>
</event>
<event>
 4    1  0.3486294E-002  0.1249337E+03  0.7818608E-02  0.1235173E+00
          4   -1    0    0  501    0  0.00000000000E+00  0.00000000000E+00  0.20061270851E+01  0.23743306176E+01  0.12700000000E+01 0. -1.
         -4   -1    0    0    0  501 -0.00000000000E+00 -0.00000000000E+00 -0.17812305135E+04  0.17812309662E+04  0.12700000000E+01 0. -1.
    9000005    1    1    2    0    0  0.21663934786E+02 -0.25456072305E+01 -0.54069686849E+02  0.58312410537E+02  0.10000000000E+01 0.  0.
    9000005    1    1    2    0    0 -0.21663934786E+02  0.25456072305E+01 -0.17251546996E+04  0.17252928863E+04  0.10000000000E+01 0.  0.
<mgrwt>
<rscale>  0 0.12493373E+03</rscale>
<asrwt>0</asrwt>
<pdfrwt beam="1">  1        4 0.33699453E-03 0.12493373E+03</pdfrwt>
<pdfrwt beam="2">  1       -4 0.27406266E+00 0.12493373E+03</pdfrwt>
<totfact> 0.12976744E+03</totfact>
</mgrwt>
</event>
<event>
 5    1  0.3486294E-002  0.1249995E+03  0.7818608E-02  0.1235070E+00
         -4   -1    0    0    0  501 -0.00000000000E+00  0.00000000000E+00  0.35649364563E+02  0.35671979111E+02  0.12700000000E+01 0.  1.
          4   -1    0    0  501    0  0.00000000000E+00 -0.00000000000E+00 -0.10951225180E+03  0.10951961557E+03  0.12700000000E+01 0.  1.
         25    2    1    2    0    0  0.00000000000E+00  0.00000000000E+00 -0.73862887237E+02  0.14519159468E+03  0.12499949222E+03 0.  0.
    9000005    1    3    3    0    0  0.44471144883E+02 -0.43265156900E+02 -0.45597302163E+02  0.77004353730E+02  0.10000000000E+01 0.  0.
    9000005    1    3    3    0    0 -0.44471144883E+02  0.43265156900E+02 -0.28265585075E+02  0.68187240950E+02  0.10000000000E+01 0.  0.
<mgrwt>
<rscale>  0 0.12499949E+03</rscale>
<asrwt>0</asrwt>
<pdfrwt beam="2">  1        4 0.16850345E-01 0.12499949E+03</pdfrwt>
<pdfrwt beam="1">  1       -4 0.54868237E-02 0.12499949E+03</pdfrwt>
<totfact> 0.10027212E+04</totfact>
</mgrwt>
</event>
<event>
 5    1  0.3486294E-002  0.1250028E+03  0.7818608E-02  0.1235065E+00
         -4   -1    0    0    0  501 -0.00000000000E+00  0.00000000000E+00  0.21003293257E+02  0.21041654584E+02  0.12700000000E+01 0. -1.
          4   -1    0    0  501    0  0.00000000000E+00 -0.00000000000E+00 -0.18578077524E+03  0.18578511606E+03  0.12700000000E+01 0. -1.
         25    2    1    2    0    0  0.00000000000E+00  0.00000000000E+00 -0.16477748198E+03  0.20682677064E+03  0.12500277791E+03 0.  0.
    9000005    1    3    3    0    0 -0.10089261366E+02 -0.61572167926E+02 -0.76539262699E+02  0.98753145735E+02  0.10000000000E+01 0.  0.
    9000005    1    3    3    0    0  0.10089261366E+02  0.61572167926E+02 -0.88238219281E+02  0.10807362490E+03  0.10000000000E+01 0.  0.
<mgrwt>
<rscale>  0 0.12500278E+03</rscale>
<asrwt>0</asrwt>
<pdfrwt beam="2">  1        4 0.28584941E-01 0.12500278E+03</pdfrwt>
<pdfrwt beam="1">  1       -4 0.32345608E-02 0.12500278E+03</pdfrwt>
<totfact> 0.88991219E+03</totfact>
</mgrwt>
</event>
<event>
 5    1  0.3486294E-002  0.1250011E+03  0.7818608E-02  0.1235068E+00
          4   -1    0    0  501    0  0.00000000000E+00  0.00000000000E+00  0.27840115487E+03  0.27840405157E+03  0.12700000000E+01 0.  1.
         -4   -1    0    0    0  501 -0.00000000000E+00 -0.00000000000E+00 -0.13999543870E+02  0.14057031286E+02  0.12700000000E+01 0.  1.
         25    2    1    2    0    0  0.00000000000E+00  0.00000000000E+00  0.26440161100E+03  0.29246108286E+03  0.12500109235E+03 0.  0.
    9000005    1    3    3    0    0 -0.46668867290E+02 -0.35345695892E+02  0.18335436884E+03  0.19247629975E+03  0.10000000000E+01 0.  0.
    9000005    1    3    3    0    0  0.46668867290E+02  0.35345695892E+02  0.81047242158E+02  0.99984783110E+02  0.10000000000E+01 0.  0.
<mgrwt>
<rscale>  0 0.12500109E+03</rscale>
<asrwt>0</asrwt>
<pdfrwt beam="1">  1        4 0.42835589E-01 0.12500109E+03</pdfrwt>
<pdfrwt beam="2">  1       -4 0.21584210E-02 0.12500109E+03</pdfrwt>
<totfact> 0.76552487E+03</totfact>
</mgrwt>
</event>
<event>
 5    1  0.3486294E-002  0.1250011E+03  0.7818608E-02  0.1235068E+00
          4   -1    0    0  501    0  0.00000000000E+00  0.00000000000E+00  0.73139225113E+02  0.73150250513E+02  0.12700000000E+01 0.  1.
         -4   -1    0    0    0  501 -0.00000000000E+00 -0.00000000000E+00 -0.53386715919E+02  0.53401819600E+02  0.12700000000E+01 0.  1.
         25    2    1    2    0    0  0.00000000000E+00  0.00000000000E+00  0.19752509194E+02  0.12655207011E+03  0.12500105932E+03 0.  0.
    9000005    1    3    3    0    0 -0.45546877066E+02 -0.32743593063E+02 -0.18009205292E+02  0.58923614726E+02  0.10000000000E+01 0.  0.
    9000005    1    3    3    0    0  0.45546877066E+02  0.32743593063E+02  0.37761714486E+02  0.67628455387E+02  0.10000000000E+01 0.  0.
<mgrwt>
<rscale>  0 0.12500106E+03</rscale>
<asrwt>0</asrwt>
<pdfrwt beam="1">  1        4 0.11254198E-01 0.12500106E+03</pdfrwt>
<pdfrwt beam="2">  1       -4 0.82153509E-02 0.12500106E+03</pdfrwt>
<totfact> 0.10418644E+04</totfact>
</mgrwt>
</event>
<event>
 5    1  0.3486294E-002  0.1250016E+03  0.7818608E-02  0.1235067E+00
          4   -1    0    0  501    0  0.00000000000E+00  0.00000000000E+00  0.79193675175E+02  0.79203857783E+02  0.12700000000E+01 0.  1.
         -4   -1    0    0    0  501 -0.00000000000E+00 -0.00000000000E+00 -0.49305000499E+02  0.49321354140E+02  0.12700000000E+01 0.  1.
         25    2    1    2    0    0  0.00000000000E+00  0.00000000000E+00  0.29888674676E+02  0.12852521192E+03  0.12500158889E+03 0.  0.
    9000005    1    3    3    0    0  0.56870584888E+02  0.24458068194E+02  0.23722490204E+02  0.66303974743E+02  0.10000000000E+01 0.  0.
    9000005    1    3    3    0    0 -0.56870584888E+02 -0.24458068194E+02  0.61661844720E+01  0.62221237180E+02  0.10000000000E+01 0.  0.
<mgrwt>
<rscale>  0 0.12500159E+03</rscale>
<asrwt>0</asrwt>
<pdfrwt beam="1">  1        4 0.12185683E-01 0.12500159E+03</pdfrwt>
<pdfrwt beam="2">  1       -4 0.75874261E-02 0.12500159E+03</pdfrwt>
<totfact> 0.10375789E+04</totfact>
</mgrwt>
</event>
<event>
 4    1  0.3486294E-002  0.1248873E+03  0.7818608E-02  0.1235246E+00
          4   -1    0    0  501    0  0.00000000000E+00  0.00000000000E+00  0.13326990082E+03  0.13327595194E+03  0.12700000000E+01 0. -1.
         -4   -1    0    0    0  501 -0.00000000000E+00 -0.00000000000E+00 -0.29237489436E+02  0.29265059175E+02  0.12700000000E+01 0. -1.
    9000005    1    1    2    0    0 -0.56550559266E+02  0.92595052523E+01  0.19753003348E+02  0.60620832492E+02  0.10000000000E+01 0.  0.
    9000005    1    1    2    0    0  0.56550559266E+02 -0.92595052523E+01  0.84279408037E+02  0.10192017862E+03  0.10000000000E+01 0.  0.
<mgrwt>
<rscale>  0 0.12488730E+03</rscale>
<asrwt>0</asrwt>
<pdfrwt beam="1">  1        4 0.20505648E-01 0.12488730E+03</pdfrwt>
<pdfrwt beam="2">  1       -4 0.45006615E-02 0.12488730E+03</pdfrwt>
<totfact> 0.97100815E+03</totfact>
</mgrwt>
</event>
<event>
 5    1  0.3486294E-002  0.1249995E+03  0.7818608E-02  0.1235070E+00
         -4   -1    0    0    0  501 -0.00000000000E+00  0.00000000000E+00  0.44128111440E+03  0.44128294191E+03  0.12700000000E+01 0.  1.
          4   -1    0    0  501    0  0.00000000000E+00 -0.00000000000E+00 -0.88045837983E+01  0.88957065971E+01  0.12700000000E+01 0.  1.
         25    2    1    2    0    0  0.00000000000E+00  0.00000000000E+00  0.43247653060E+03  0.45017864851E+03  0.12499946422E+03 0.  0.
    9000005    1    3    3    0    0 -0.25760845758E+02  0.10198638236E+02  0.41797006421E+03  0.41888853884E+03  0.10000000000E+01 0.  0.
    9000005    1    3    3    0    0  0.25760845758E+02 -0.10198638236E+02  0.14506466387E+02  0.31290109669E+02  0.10000000000E+01 0.  0.
<mgrwt>
<rscale>  0 0.12499946E+03</rscale>
<asrwt>0</asrwt>
<pdfrwt beam="2">  1        4 0.13617012E-02 0.12499946E+03</pdfrwt>
<pdfrwt beam="1">  1       -4 0.67896559E-01 0.12499946E+03</pdfrwt>
<totfact> 0.59949023E+03</totfact>
</mgrwt>
</event>
<event>
 5    1  0.3486294E-002  0.1250004E+03  0.7818608E-02  0.1235069E+00
          4   -1    0    0  501    0  0.00000000000E+00  0.00000000000E+00  0.13499397326E+02  0.13559005426E+02  0.12700000000E+01 0. -1.
         -4   -1    0    0    0  501 -0.00000000000E+00 -0.00000000000E+00 -0.28866811476E+03  0.28867090844E+03  0.12700000000E+01 0. -1.
         25    2    1    2    0    0  0.00000000000E+00  0.00000000000E+00 -0.27516871743E+03  0.30222991386E+03  0.12500039112E+03 0.  0.
    9000005    1    3    3    0    0 -0.31828151572E+02  0.52387456034E+02 -0.16697843784E+03  0.17787713593E+03  0.10000000000E+01 0.  0.
    9000005    1    3    3    0    0  0.31828151572E+02 -0.52387456034E+02 -0.10819027959E+03  0.12435277793E+03  0.10000000000E+01 0.  0.
<mgrwt>
<rscale>  0 0.12500039E+03</rscale>
<asrwt>0</asrwt>
<pdfrwt beam="1">  1        4 0.20816307E-02 0.12500039E+03</pdfrwt>
<pdfrwt beam="2">  1       -4 0.44415275E-01 0.12500039E+03</pdfrwt>
<totfact> 0.75319319E+03</totfact>
</mgrwt>
</event>
<event>
 5    1  0.3486294E-002  0.1250337E+03  0.7818608E-02  0.1235017E+00
         -4   -1    0    0    0  501 -0.00000000000E+00  0.00000000000E+00  0.47404121892E+02  0.47421131074E+02  0.12700000000E+01 0.  1.
          4   -1    0    0  501    0  0.00000000000E+00 -0.00000000000E+00 -0.82410883383E+02  0.82420668524E+02  0.12700000000E+01 0.  1.
         25    2    1    2    0    0  0.00000000000E+00  0.00000000000E+00 -0.35006761491E+02  0.12984179960E+03  0.12503367376E+03 0.  0.
    9000005    1    3    3    0    0 -0.29926907983E+02 -0.49860901668E+02  0.63047758734E+01  0.58501961808E+02  0.10000000000E+01 0.  0.
    9000005    1    3    3    0    0  0.29926907983E+02  0.49860901668E+02 -0.41311537364E+02  0.71339837790E+02  0.10000000000E+01 0.  0.
<mgrwt>
<rscale>  0 0.12503367E+03</rscale>
<asrwt>0</asrwt>
<pdfrwt beam="2">  1        4 0.12680659E-01 0.12503367E+03</pdfrwt>
<pdfrwt beam="1">  1       -4 0.72950029E-02 0.12503367E+03</pdfrwt>
<totfact> 0.10340031E+04</totfact>
</mgrwt>
</event>
<event>
 5    1  0.3486294E-002  0.1249807E+03  0.7818608E-02  0.1235099E+00
         -4   -1    0    0    0  501 -0.00000000000E+00  0.00000000000E+00  0.64705095724E+03  0.64705220359E+03  0.12700000000E+01 0.  1.
          4   -1    0    0  501    0  0.00000000000E+00 -0.00000000000E+00 -0.59670592849E+01  0.61007127870E+01  0.12700000000E+01 0.  1.
         25    2    1    2    0    0  0.00000000000E+00  0.00000000000E+00  0.64108389796E+03  0.65315291638E+03  0.12498067030E+03 0.  0.
    9000005    1    3    3    0    0 -0.31213185353E+02  0.13254566916E+02  0.46282550695E+02  0.57384849767E+02  0.10000000000E+01 0.  0.
    9000005    1    3    3    0    0  0.31213185353E+02 -0.13254566916E+02  0.59480134727E+03  0.59576806661E+03  0.10000000000E+01 0.  0.
<mgrwt>
<rscale>  0 0.12498067E+03</rscale>
<asrwt>0</asrwt>
<pdfrwt beam="2">  1        4 0.92838657E-03 0.12498067E+03</pdfrwt>
<pdfrwt beam="1">  1       -4 0.99556620E-01 0.12498067E+03</pdfrwt>
<totfact> 0.45694748E+03</totfact>
</mgrwt>
</event>
<event>
 5    1  0.3486294E-002  0.1249933E+03  0.7818608E-02  0.1235080E+00
          4   -1    0    0  501    0  0.00000000000E+00  0.00000000000E+00  0.26033717590E+03  0.26034027360E+03  0.12700000000E+01 0. -1.
         -4   -1    0    0    0  501 -0.00000000000E+00 -0.00000000000E+00 -0.14972893611E+02  0.15026657748E+02  0.12700000000E+01 0. -1.
         25    2    1    2    0    0  0.00000000000E+00  0.00000000000E+00  0.24536428229E+03  0.27536693134E+03  0.12499326323E+03 0.  0.
    9000005    1    3    3    0    0 -0.62228524223E+02  0.66496112897E+00  0.11022025924E+03  0.12657937014E+03  0.10000000000E+01 0.  0.
    9000005    1    3    3    0    0  0.62228524223E+02 -0.66496112897E+00  0.13514402306E+03  0.14878756120E+03  0.10000000000E+01 0.  0.
<mgrwt>
<rscale>  0 0.12499326E+03</rscale>
<asrwt>0</asrwt>
<pdfrwt beam="1">  1        4 0.40056245E-01 0.12499326E+03</pdfrwt>
<pdfrwt beam="2">  1       -4 0.23078962E-02 0.12499326E+03</pdfrwt>
<totfact> 0.78808259E+03</totfact>
</mgrwt>
</event>
<event>
 5    1  0.3486294E-002  0.1250008E+03  0.7818608E-02  0.1235068E+00
         -4   -1    0    0    0  501 -0.00000000000E+00  0.00000000000E+00  0.30191506288E+02  0.30218205637E+02  0.12700000000E+01 0. -1.
          4   -1    0    0  501    0  0.00000000000E+00 -0.00000000000E+00 -0.12929700478E+03  0.12930324182E+03  0.12700000000E+01 0. -1.
         25    2    1    2    0    0  0.00000000000E+00  0.00000000000E+00 -0.99105498491E+02  0.15952144746E+03  0.12500076947E+03 0.  0.
    9000005    1    3    3    0    0 -0.46885182609E+02 -0.38011853136E+02 -0.70216230720E+02  0.92598274194E+02  0.10000000000E+01 0.  0.
    9000005    1    3    3    0    0  0.46885182609E+02  0.38011853136E+02 -0.28889267771E+02  0.66923173262E+02  0.10000000000E+01 0.  0.
<mgrwt>
<rscale>  0 0.12500077E+03</rscale>
<asrwt>0</asrwt>
<pdfrwt beam="2">  1        4 0.19894380E-01 0.12500077E+03</pdfrwt>
<pdfrwt beam="1">  1       -4 0.46473807E-02 0.12500077E+03</pdfrwt>
<totfact> 0.97433440E+03</totfact>
</mgrwt>
</event>
<event>
 5    1  0.3486294E-002  0.1249971E+03  0.7818608E-02  0.1235074E+00
         -4   -1    0    0    0  501 -0.00000000000E+00  0.00000000000E+00  0.17072430515E+02  0.17119602323E+02  0.12700000000E+01 0. -1.
          4   -1    0    0  501    0  0.00000000000E+00 -0.00000000000E+00 -0.22842945702E+03  0.22843298741E+03  0.12700000000E+01 0. -1.
         25    2    1    2    0    0  0.00000000000E+00  0.00000000000E+00 -0.21135702651E+03  0.24555258973E+03  0.12499712664E+03 0.  0.
    9000005    1    3    3    0    0 -0.14793847063E+02 -0.79111890851E+01 -0.22393259720E+03  0.22456235862E+03  0.10000000000E+01 0.  0.
    9000005    1    3    3    0    0  0.14793847063E+02  0.79111890851E+01  0.12575570689E+02  0.20990231105E+02  0.10000000000E+01 0.  0.
<mgrwt>
<rscale>  0 0.12499713E+03</rscale>
<asrwt>0</asrwt>
<pdfrwt beam="2">  1        4 0.35146891E-01 0.12499713E+03</pdfrwt>
<pdfrwt beam="1">  1       -4 0.26304281E-02 0.12499713E+03</pdfrwt>
<totfact> 0.82982610E+03</totfact>
</mgrwt>
</event>
<event>
 5    1  0.3486294E-002  0.1250000E+03  0.7818608E-02  0.1235069E+00
         -4   -1    0    0    0  501 -0.00000000000E+00  0.00000000000E+00  0.81894899595E+02  0.81904746381E+02  0.12700000000E+01 0.  1.
          4   -1    0    0  501    0  0.00000000000E+00 -0.00000000000E+00 -0.47677198108E+02  0.47694109903E+02  0.12700000000E+01 0.  1.
         25    2    1    2    0    0  0.00000000000E+00  0.00000000000E+00  0.34217701487E+02  0.12959885628E+03  0.12500004982E+03 0.  0.
    9000005    1    3    3    0    0  0.15459596207E+02 -0.42564228611E+02  0.61757583493E+02  0.76587935022E+02  0.10000000000E+01 0.  0.
    9000005    1    3    3    0    0 -0.15459596207E+02  0.42564228611E+02 -0.27539882006E+02  0.53010921262E+02  0.10000000000E+01 0.  0.
<mgrwt>
<rscale>  0 0.12500005E+03</rscale>
<asrwt>0</asrwt>
<pdfrwt beam="2">  1        4 0.73370121E-02 0.12500005E+03</pdfrwt>
<pdfrwt beam="1">  1       -4 0.12601273E-01 0.12500005E+03</pdfrwt>
<totfact> 0.10353085E+04</totfact>
</mgrwt>
</event>
<event>
 5    1  0.3486294E-002  0.1249969E+03  0.7818608E-02  0.1235074E+00
         -4   -1    0    0    0  501 -0.00000000000E+00  0.00000000000E+00  0.35859519863E+01  0.38042018411E+01  0.12700000000E+01 0. -1.
          4   -1    0    0  501    0  0.00000000000E+00 -0.00000000000E+00 -0.10568784057E+04  0.10568791688E+04  0.12700000000E+01 0. -1.
         25    2    1    2    0    0  0.00000000000E+00  0.00000000000E+00 -0.10532924537E+04  0.10606833706E+04  0.12499687834E+03 0.  0.
    9000005    1    3    3    0    0 -0.27646680158E+02 -0.11622484268E+02 -0.61430242343E+02  0.68367358722E+02  0.10000000000E+01 0.  0.
    9000005    1    3    3    0    0  0.27646680158E+02  0.11622484268E+02 -0.99186221138E+03  0.99231601188E+03  0.10000000000E+01 0.  0.
<mgrwt>
<rscale>  0 0.12499688E+03</rscale>
<asrwt>0</asrwt>
<pdfrwt beam="2">  1        4 0.16261328E+00 0.12499688E+03</pdfrwt>
<pdfrwt beam="1">  1       -4 0.56853291E-03 0.12499688E+03</pdfrwt>
<totfact> 0.28665523E+03</totfact>
</mgrwt>
</event>
<event>
 5    1  0.3486294E-002  0.1249987E+03  0.7818608E-02  0.1235071E+00
         -4   -1    0    0    0  501 -0.00000000000E+00  0.00000000000E+00  0.69349368595E+02  0.69360996421E+02  0.12700000000E+01 0. -1.
          4   -1    0    0  501    0  0.00000000000E+00 -0.00000000000E+00 -0.56302418378E+02  0.56316740098E+02  0.12700000000E+01 0. -1.
         25    2    1    2    0    0  0.00000000000E+00  0.00000000000E+00  0.13046950217E+02  0.12567773652E+03  0.12499868218E+03 0.  0.
    9000005    1    3    3    0    0  0.17101331553E+02  0.62913995515E+01 -0.53576922910E+02  0.56599681251E+02  0.10000000000E+01 0.  0.
    9000005    1    3    3    0    0 -0.17101331553E+02 -0.62913995515E+01  0.66623873126E+02  0.69078055268E+02  0.10000000000E+01 0.  0.
<mgrwt>
<rscale>  0 0.12499868E+03</rscale>
<asrwt>0</asrwt>
<pdfrwt beam="2">  1        4 0.86639066E-02 0.12499868E+03</pdfrwt>
<pdfrwt beam="1">  1       -4 0.10671130E-01 0.12499868E+03</pdfrwt>
<totfact> 0.10438345E+04</totfact>
</mgrwt>
</event>
<event>
 5    1  0.3486294E-002  0.1249999E+03  0.7818608E-02  0.1235069E+00
          4   -1    0    0  501    0  0.00000000000E+00  0.00000000000E+00  0.74449641757E+01  0.75525089591E+01  0.12700000000E+01 0. -1.
         -4   -1    0    0    0  501 -0.00000000000E+00 -0.00000000000E+00 -0.52081182861E+03  0.52081337705E+03  0.12700000000E+01 0. -1.
         25    2    1    2    0    0  0.00000000000E+00  0.00000000000E+00 -0.51336686443E+03  0.52836588601E+03  0.12499988802E+03 0.  0.
    9000005    1    3    3    0    0  0.30515504296E+02 -0.46149712798E+02 -0.13386573807E+03  0.14485174428E+03  0.10000000000E+01 0.  0.
    9000005    1    3    3    0    0 -0.30515504296E+02  0.46149712798E+02 -0.37950112636E+03  0.38351414173E+03  0.10000000000E+01 0.  0.
<mgrwt>
<rscale>  0 0.12499989E+03</rscale>
<asrwt>0</asrwt>
<pdfrwt beam="1">  1        4 0.11537713E-02 0.12499989E+03</pdfrwt>
<pdfrwt beam="2">  1       -4 0.80133260E-01 0.12499989E+03</pdfrwt>
<totfact> 0.53728931E+03</totfact>
</mgrwt>
</event>
<event>
 5    1  0.3486294E-002  0.1250023E+03  0.7818608E-02  0.1235066E+00
          4   -1    0    0  501    0  0.00000000000E+00  0.00000000000E+00  0.14328977858E+03  0.14329540658E+03  0.12700000000E+01 0.  1.
         -4   -1    0    0    0  501 -0.00000000000E+00 -0.00000000000E+00 -0.27241216634E+02  0.27270804604E+02  0.12700000000E+01 0.  1.
         25    2    1    2    0    0  0.00000000000E+00  0.00000000000E+00  0.11604856195E+03  0.17056621118E+03  0.12500225465E+03 0.  0.
    9000005    1    3    3    0    0 -0.11693969904E+02 -0.20889517113E+02  0.13679145269E+03  0.13887412425E+03  0.10000000000E+01 0.  0.
    9000005    1    3    3    0    0  0.11693969904E+02  0.20889517113E+02 -0.20742890746E+02  0.31692086927E+02  0.10000000000E+01 0.  0.
<mgrwt>
<rscale>  0 0.12500225E+03</rscale>
<asrwt>0</asrwt>
<pdfrwt beam="1">  1        4 0.22047290E-01 0.12500225E+03</pdfrwt>
<pdfrwt beam="2">  1       -4 0.41936653E-02 0.12500225E+03</pdfrwt>
<totfact> 0.95338383E+03</totfact>
</mgrwt>
</event>
<event>
 5    1  0.3486294E-002  0.1249999E+03  0.7818608E-02  0.1235069E+00
          4   -1    0    0  501    0  0.00000000000E+00  0.00000000000E+00  0.25545415462E+03  0.25545731153E+03  0.12700000000E+01 0.  1.
         -4   -1    0    0    0  501 -0.00000000000E+00 -0.00000000000E+00 -0.15261737172E+02  0.15314487308E+02  0.12700000000E+01 0.  1.
         25    2    1    2    0    0  0.00000000000E+00  0.00000000000E+00  0.24019241745E+03  0.27077179883E+03  0.12499987858E+03 0.  0.
    9000005    1    3    3    0    0  0.36792057900E+01 -0.21933531780E+02 -0.64097233405E+01  0.23166806532E+02  0.10000000000E+01 0.  0.
    9000005    1    3    3    0    0 -0.36792057900E+01  0.21933531780E+02  0.24660214079E+03  0.24760499230E+03  0.10000000000E+01 0.  0.
<mgrwt>
<rscale>  0 0.12499988E+03</rscale>
<asrwt>0</asrwt>
<pdfrwt beam="1">  1        4 0.39304935E-01 0.12499988E+03</pdfrwt>
<pdfrwt beam="2">  1       -4 0.23522604E-02 0.12499988E+03</pdfrwt>
<totfact> 0.79417978E+03</totfact>
</mgrwt>
</event>
<event>
 5    1  0.3486294E-002  0.1250049E+03  0.7818608E-02  0.1235062E+00
         -4   -1    0    0    0  501 -0.00000000000E+00  0.00000000000E+00  0.10411815974E+04  0.10411823720E+04  0.12700000000E+01 0. -1.
          4   -1    0    0  501    0  0.00000000000E+00 -0.00000000000E+00 -0.36437770102E+01  0.38587576887E+01  0.12700000000E+01 0. -1.
         25    2    1    2    0    0  0.00000000000E+00  0.00000000000E+00  0.10375378204E+04  0.10450411297E+04  0.12500493551E+03 0.  0.
    9000005    1    3    3    0    0 -0.34546583256E+02  0.19177141941E+02  0.11399218773E+03  0.12065010589E+03  0.10000000000E+01 0.  0.
    9000005    1    3    3    0    0  0.34546583256E+02 -0.19177141941E+02  0.92354563267E+03  0.92439102376E+03  0.10000000000E+01 0.  0.
<mgrwt>
<rscale>  0 0.12500494E+03</rscale>
<asrwt>0</asrwt>
<pdfrwt beam="2">  1        4 0.57717750E-03 0.12500494E+03</pdfrwt>
<pdfrwt beam="1">  1       -4 0.16019842E+00 0.12500494E+03</pdfrwt>
<totfact> 0.29146963E+03</totfact>
</mgrwt>
</event>
<event>
 5    1  0.3486294E-002  0.1249907E+03  0.7818608E-02  0.1235084E+00
         -4   -1    0    0    0  501 -0.00000000000E+00  0.00000000000E+00  0.24957616083E+03  0.24957939209E+03  0.12700000000E+01 0. -1.
          4   -1    0    0  501    0  0.00000000000E+00 -0.00000000000E+00 -0.15620094781E+02  0.15671638746E+02  0.12700000000E+01 0. -1.
         25    2    1    2    0    0  0.00000000000E+00  0.00000000000E+00  0.23395606605E+03  0.26525103084E+03  0.12499067372E+03 0.  0.
    9000005    1    3    3    0    0 -0.10563954705E+02  0.35092056396E+02  0.95700359756E+01  0.37889776322E+02  0.10000000000E+01 0.  0.
    9000005    1    3    3    0    0  0.10563954705E+02 -0.35092056396E+02  0.22438603008E+03  0.22736125452E+03  0.10000000000E+01 0.  0.
<mgrwt>
<rscale>  0 0.12499067E+03</rscale>
<asrwt>0</asrwt>
<pdfrwt beam="2">  1        4 0.24073053E-02 0.12499067E+03</pdfrwt>
<pdfrwt beam="1">  1       -4 0.38400541E-01 0.12499067E+03</pdfrwt>
<totfact> 0.80191398E+03</totfact>
</mgrwt>
</event>
<event>
 5    1  0.3486294E-002  0.1249931E+03  0.7818608E-02  0.1235080E+00
          4   -1    0    0  501    0  0.00000000000E+00  0.00000000000E+00  0.15050702420E+02  0.15104189595E+02  0.12700000000E+01 0.  1.
         -4   -1    0    0    0  501 -0.00000000000E+00 -0.00000000000E+00 -0.25899553672E+03  0.25899865046E+03  0.12700000000E+01 0.  1.
         25    2    1    2    0    0  0.00000000000E+00  0.00000000000E+00 -0.24394483430E+03  0.27410284005E+03  0.12499313879E+03 0.  0.
    9000005    1    3    3    0    0 -0.28354984031E+02  0.38594556346E+02 -0.33946133034E+02  0.58710176690E+02  0.10000000000E+01 0.  0.
    9000005    1    3    3    0    0  0.28354984031E+02 -0.38594556346E+02 -0.20999870126E+03  0.21539266336E+03  0.10000000000E+01 0.  0.
<mgrwt>
<rscale>  0 0.12499314E+03</rscale>
<asrwt>0</asrwt>
<pdfrwt beam="1">  1        4 0.23198468E-02 0.12499314E+03</pdfrwt>
<pdfrwt beam="2">  1       -4 0.39849818E-01 0.12499314E+03</pdfrwt>
<totfact> 0.78978631E+03</totfact>
</mgrwt>
</event>
<event>
 5    1  0.3486294E-002  0.1249943E+03  0.7818608E-02  0.1235078E+00
          4   -1    0    0  501    0  0.00000000000E+00  0.00000000000E+00  0.10348671080E+02  0.10426307742E+02  0.12700000000E+01 0.  1.
         -4   -1    0    0    0  501 -0.00000000000E+00 -0.00000000000E+00 -0.37594060027E+03  0.37594274541E+03  0.12700000000E+01 0.  1.
         25    2    1    2    0    0  0.00000000000E+00  0.00000000000E+00 -0.36559192919E+03  0.38636905316E+03  0.12499434607E+03 0.  0.
    9000005    1    3    3    0    0 -0.55065729226E+02 -0.76003820696E+01 -0.94556444717E+02  0.10969011615E+03  0.10000000000E+01 0.  0.
    9000005    1    3    3    0    0  0.55065729226E+02  0.76003820696E+01 -0.27103548447E+03  0.27667893701E+03  0.10000000000E+01 0.  0.
<mgrwt>
<rscale>  0 0.12499435E+03</rscale>
<asrwt>0</asrwt>
<pdfrwt beam="1">  1        4 0.15982406E-02 0.12499435E+03</pdfrwt>
<pdfrwt beam="2">  1       -4 0.57843142E-01 0.12499435E+03</pdfrwt>
<totfact> 0.65908703E+03</totfact>
</mgrwt>
</event>
<event>
 5    1  0.3486294E-002  0.1249985E+03  0.7818608E-02  0.1235072E+00
         -4   -1    0    0    0  501 -0.00000000000E+00  0.00000000000E+00  0.30967905219E+02  0.30993935756E+02  0.12700000000E+01 0. -1.
          4   -1    0    0  501    0  0.00000000000E+00 -0.00000000000E+00 -0.12605350643E+03  0.12605990395E+03  0.12700000000E+01 0. -1.
         25    2    1    2    0    0  0.00000000000E+00  0.00000000000E+00 -0.95085601214E+02  0.15705383971E+03  0.12499854803E+03 0.  0.
    9000005    1    3    3    0    0  0.21148993873E+02  0.12101715077E+02 -0.11984495459E+03  0.12230104084E+03  0.10000000000E+01 0.  0.
    9000005    1    3    3    0    0 -0.21148993873E+02 -0.12101715077E+02  0.24759353375E+02  0.34752798869E+02  0.10000000000E+01 0.  0.
<mgrwt>
<rscale>  0 0.12499855E+03</rscale>
<asrwt>0</asrwt>
<pdfrwt beam="2">  1        4 0.19395341E-01 0.12499855E+03</pdfrwt>
<pdfrwt beam="1">  1       -4 0.47667877E-02 0.12499855E+03</pdfrwt>
<totfact> 0.97917004E+03</totfact>
</mgrwt>
</event>
<event>
 5    1  0.3486294E-002  0.1250011E+03  0.7818608E-02  0.1235068E+00
          4   -1    0    0  501    0  0.00000000000E+00  0.00000000000E+00  0.74667601210E+02  0.74678400963E+02  0.12700000000E+01 0. -1.
         -4   -1    0    0    0  501 -0.00000000000E+00 -0.00000000000E+00 -0.52293794290E+02  0.52309213541E+02  0.12700000000E+01 0. -1.
         25    2    1    2    0    0  0.00000000000E+00  0.00000000000E+00  0.22373806920E+02  0.12698761450E+03  0.12500106800E+03 0.  0.
    9000005    1    3    3    0    0  0.38542445480E+02  0.48954395802E+02  0.62869972389E+01  0.62630498211E+02  0.10000000000E+01 0.  0.
    9000005    1    3    3    0    0 -0.38542445480E+02 -0.48954395802E+02  0.16086809681E+02  0.64357116293E+02  0.10000000000E+01 0.  0.
<mgrwt>
<rscale>  0 0.12500107E+03</rscale>
<asrwt>0</asrwt>
<pdfrwt beam="1">  1        4 0.11489340E-01 0.12500107E+03</pdfrwt>
<pdfrwt beam="2">  1       -4 0.80472160E-02 0.12500107E+03</pdfrwt>
<totfact> 0.10409164E+04</totfact>
</mgrwt>
</event>
<event>
 5    1  0.3486294E-002  0.1249992E+03  0.7818608E-02  0.1235071E+00
         -4   -1    0    0    0  501 -0.00000000000E+00  0.00000000000E+00  0.86540969118E+01  0.87467876022E+01  0.12700000000E+01 0. -1.
          4   -1    0    0  501    0  0.00000000000E+00 -0.00000000000E+00 -0.44887202497E+03  0.44887382158E+03  0.12700000000E+01 0. -1.
         25    2    1    2    0    0  0.00000000000E+00  0.00000000000E+00 -0.44021792806E+03  0.45762060918E+03  0.12499919106E+03 0.  0.
    9000005    1    3    3    0    0 -0.44765977593E+02  0.35839170413E+02 -0.31102838640E+03  0.31627218663E+03  0.10000000000E+01 0.  0.
    9000005    1    3    3    0    0  0.44765977593E+02 -0.35839170413E+02 -0.12918954165E+03  0.14134842255E+03  0.10000000000E+01 0.  0.
<mgrwt>
<rscale>  0 0.12499919E+03</rscale>
<asrwt>0</asrwt>
<pdfrwt beam="2">  1        4 0.69064485E-01 0.12499919E+03</pdfrwt>
<pdfrwt beam="1">  1       -4 0.13386681E-02 0.12499919E+03</pdfrwt>
<totfact> 0.59310325E+03</totfact>
</mgrwt>
</event>
<event>
 5    1  0.3486294E-002  0.1249984E+03  0.7818608E-02  0.1235072E+00
          4   -1    0    0  501    0  0.00000000000E+00  0.00000000000E+00  0.17719810109E+02  0.17765263023E+02  0.12700000000E+01 0. -1.
         -4   -1    0    0    0  501 -0.00000000000E+00 -0.00000000000E+00 -0.22011016776E+03  0.22011383157E+03  0.12700000000E+01 0. -1.
         25    2    1    2    0    0  0.00000000000E+00  0.00000000000E+00 -0.20239035765E+03  0.23787909460E+03  0.12499842710E+03 0.  0.
    9000005    1    3    3    0    0  0.88517817220E+01  0.54887389616E+02 -0.46893927094E+02  0.72739397693E+02  0.10000000000E+01 0.  0.
    9000005    1    3    3    0    0 -0.88517817220E+01 -0.54887389616E+02 -0.15549643056E+03  0.16513969691E+03  0.10000000000E+01 0.  0.
<mgrwt>
<rscale>  0 0.12499843E+03</rscale>
<asrwt>0</asrwt>
<pdfrwt beam="1">  1        4 0.27299030E-02 0.12499843E+03</pdfrwt>
<pdfrwt beam="2">  1       -4 0.33866879E-01 0.12499843E+03</pdfrwt>
<totfact> 0.84117207E+03</totfact>
</mgrwt>
</event>
<event>
 5    1  0.3486294E-002  0.1250014E+03  0.7818608E-02  0.1235067E+00
         -4   -1    0    0    0  501 -0.00000000000E+00  0.00000000000E+00  0.47398106112E+02  0.47415117452E+02  0.12700000000E+01 0. -1.
          4   -1    0    0  501    0  0.00000000000E+00 -0.00000000000E+00 -0.82378774389E+02  0.82388563343E+02  0.12700000000E+01 0. -1.
         25    2    1    2    0    0  0.00000000000E+00  0.00000000000E+00 -0.34980668277E+02  0.12980368079E+03  0.12500139357E+03 0.  0.
    9000005    1    3    3    0    0 -0.24397537581E+02  0.50877791209E+02  0.10403271235E+02  0.57384819689E+02  0.10000000000E+01 0.  0.
    9000005    1    3    3    0    0  0.24397537581E+02 -0.50877791209E+02 -0.45383939512E+02  0.72418861106E+02  0.10000000000E+01 0.  0.
<mgrwt>
<rscale>  0 0.12500139E+03</rscale>
<asrwt>0</asrwt>
<pdfrwt beam="2">  1        4 0.12675719E-01 0.12500139E+03</pdfrwt>
<pdfrwt beam="1">  1       -4 0.72940779E-02 0.12500139E+03</pdfrwt>
<totfact> 0.10348383E+04</totfact>
</mgrwt>
</event>
<event>
 5    1  0.3486294E-002  0.1249984E+03  0.7818608E-02  0.1235072E+00
         -4   -1    0    0    0  501 -0.00000000000E+00  0.00000000000E+00  0.58631409581E+01  0.59991100919E+01  0.12700000000E+01 0. -1.
          4   -1    0    0  501    0  0.00000000000E+00 -0.00000000000E+00 -0.65844861224E+03  0.65844983702E+03  0.12700000000E+01 0. -1.
         25    2    1    2    0    0  0.00000000000E+00  0.00000000000E+00 -0.65258547129E+03  0.66444894711E+03  0.12499842391E+03 0.  0.
    9000005    1    3    3    0    0 -0.46656268188E+02  0.10121037032E+02 -0.54063369178E+03  0.54273845583E+03  0.10000000000E+01 0.  0.
    9000005    1    3    3    0    0  0.46656268188E+02 -0.10121037032E+02 -0.11195177951E+03  0.12171049127E+03  0.10000000000E+01 0.  0.
<mgrwt>
<rscale>  0 0.12499842E+03</rscale>
<asrwt>0</asrwt>
<pdfrwt beam="2">  1        4 0.10131028E+00 0.12499842E+03</pdfrwt>
<pdfrwt beam="1">  1       -4 0.91257558E-03 0.12499842E+03</pdfrwt>
<totfact> 0.45032495E+03</totfact>
</mgrwt>
</event>
<event>
 5    1  0.3486294E-002  0.1249989E+03  0.7818608E-02  0.1235071E+00
         -4   -1    0    0    0  501 -0.00000000000E+00  0.00000000000E+00  0.47496840257E+02  0.47513816247E+02  0.12700000000E+01 0. -1.
          4   -1    0    0  501    0  0.00000000000E+00 -0.00000000000E+00 -0.82204273353E+02  0.82214083085E+02  0.12700000000E+01 0. -1.
         25    2    1    2    0    0  0.00000000000E+00  0.00000000000E+00 -0.34707433097E+02  0.12972789933E+03  0.12499888781E+03 0.  0.
    9000005    1    3    3    0    0  0.54716641991E+02 -0.22636067422E+02  0.33738011423E+01  0.59318504645E+02  0.10000000000E+01 0.  0.
    9000005    1    3    3    0    0 -0.54716641991E+02  0.22636067422E+02 -0.38081234239E+02  0.70409394688E+02  0.10000000000E+01 0.  0.
<mgrwt>
<rscale>  0 0.12499889E+03</rscale>
<asrwt>0</asrwt>
<pdfrwt beam="2">  1        4 0.12648872E-01 0.12499889E+03</pdfrwt>
<pdfrwt beam="1">  1       -4 0.73092667E-02 0.12499889E+03</pdfrwt>
<totfact> 0.10350592E+04</totfact>
</mgrwt>
</event>
<event>
 5    1  0.3486294E-002  0.1250042E+03  0.7818608E-02  0.1235063E+00
          4   -1    0    0  501    0  0.00000000000E+00  0.00000000000E+00  0.30969798413E+02  0.30995827360E+02  0.12700000000E+01 0. -1.
         -4   -1    0    0    0  501 -0.00000000000E+00 -0.00000000000E+00 -0.12605718554E+03  0.12606358287E+03  0.12700000000E+01 0. -1.
         25    2    1    2    0    0  0.00000000000E+00  0.00000000000E+00 -0.95087387126E+02  0.15705941023E+03  0.12500418854E+03 0.  0.
    9000005    1    3    3    0    0  0.61922303538E+01  0.61209610675E+02 -0.33748558895E+02  0.70177812613E+02  0.10000000000E+01 0.  0.
    9000005    1    3    3    0    0 -0.61922303538E+01 -0.61209610675E+02 -0.61338828231E+02  0.86881597617E+02  0.10000000000E+01 0.  0.
<mgrwt>
<rscale>  0 0.12500419E+03</rscale>
<asrwt>0</asrwt>
<pdfrwt beam="1">  1        4 0.47670788E-02 0.12500419E+03</pdfrwt>
<pdfrwt beam="2">  1       -4 0.19395907E-01 0.12500419E+03</pdfrwt>
<totfact> 0.97903501E+03</totfact>
</mgrwt>
</event>
<event>
 5    1  0.3486294E-002  0.1249968E+03  0.7818608E-02  0.1235074E+00
         -4   -1    0    0    0  501 -0.00000000000E+00  0.00000000000E+00  0.44449438494E+02  0.44467577879E+02  0.12700000000E+01 0. -1.
          4   -1    0    0  501    0  0.00000000000E+00 -0.00000000000E+00 -0.87835564756E+02  0.87844745637E+02  0.12700000000E+01 0. -1.
         25    2    1    2    0    0  0.00000000000E+00  0.00000000000E+00 -0.43386126262E+02  0.13231232352E+03  0.12499677997E+03 0.  0.
    9000005    1    3    3    0    0 -0.21422882993E+02 -0.43670795318E+02  0.19832603605E+02  0.52539608347E+02  0.10000000000E+01 0.  0.
    9000005    1    3    3    0    0  0.21422882993E+02  0.43670795318E+02 -0.63218729867E+02  0.79772715169E+02  0.10000000000E+01 0.  0.
<mgrwt>
<rscale>  0 0.12499678E+03</rscale>
<asrwt>0</asrwt>
<pdfrwt beam="2">  1        4 0.13515265E-01 0.12499678E+03</pdfrwt>
<pdfrwt beam="1">  1       -4 0.68404767E-02 0.12499678E+03</pdfrwt>
<totfact> 0.10295784E+04</totfact>
</mgrwt>
</event>
<event>
 5    1  0.3486294E-002  0.1249967E+03  0.7818608E-02  0.1235074E+00
         -4   -1    0    0    0  501 -0.00000000000E+00  0.00000000000E+00  0.95830926286E+01  0.96668797617E+01  0.12700000000E+01 0. -1.
          4   -1    0    0  501    0  0.00000000000E+00 -0.00000000000E+00 -0.40573878928E+03  0.40574077689E+03  0.12700000000E+01 0. -1.
         25    2    1    2    0    0  0.00000000000E+00  0.00000000000E+00 -0.39615569665E+03  0.41540765665E+03  0.12499674080E+03 0.  0.
    9000005    1    3    3    0    0  0.21309539857E+02  0.58743867229E+02 -0.19916938819E+03  0.20874478105E+03  0.10000000000E+01 0.  0.
    9000005    1    3    3    0    0 -0.21309539857E+02 -0.58743867229E+02 -0.19698630846E+03  0.20666287559E+03  0.10000000000E+01 0.  0.
<mgrwt>
<rscale>  0 0.12499674E+03</rscale>
<asrwt>0</asrwt>
<pdfrwt beam="2">  1        4 0.62427937E-01 0.12499674E+03</pdfrwt>
<pdfrwt beam="1">  1       -4 0.14809203E-02 0.12499674E+03</pdfrwt>
<totfact> 0.63085888E+03</totfact>
</mgrwt>
</event>
<event>
 5    1  0.3486294E-002  0.1249993E+03  0.7818608E-02  0.1235070E+00
         -4   -1    0    0    0  501 -0.00000000000E+00  0.00000000000E+00  0.95664843371E+01  0.96504156683E+01  0.12700000000E+01 0.  1.
          4   -1    0    0  501    0  0.00000000000E+00 -0.00000000000E+00 -0.40645378808E+03  0.40645577219E+03  0.12700000000E+01 0.  1.
         25    2    1    2    0    0  0.00000000000E+00  0.00000000000E+00 -0.39688730374E+03  0.41610618786E+03  0.12499931080E+03 0.  0.
    9000005    1    3    3    0    0 -0.64845048329E+01  0.94111325863E+01  0.60742712090E+01  0.12981332374E+02  0.10000000000E+01 0.  0.
    9000005    1    3    3    0    0  0.64845048329E+01 -0.94111325863E+01 -0.40296157495E+03  0.40312485548E+03  0.10000000000E+01 0.  0.
<mgrwt>
<rscale>  0 0.12499931E+03</rscale>
<asrwt>0</asrwt>
<pdfrwt beam="2">  1        4 0.62537948E-01 0.12499931E+03</pdfrwt>
<pdfrwt beam="1">  1       -4 0.14783760E-02 0.12499931E+03</pdfrwt>
<totfact> 0.63016860E+03</totfact>
</mgrwt>
</event>
<event>
 5    1  0.3486294E-002  0.1250008E+03  0.7818608E-02  0.1235068E+00
         -4   -1    0    0    0  501 -0.00000000000E+00  0.00000000000E+00  0.71586584398E+02  0.71597848890E+02  0.12700000000E+01 0.  1.
          4   -1    0    0  501    0  0.00000000000E+00 -0.00000000000E+00 -0.54544574935E+02  0.54559358087E+02  0.12700000000E+01 0.  1.
         25    2    1    2    0    0  0.00000000000E+00  0.00000000000E+00  0.17042009462E+02  0.12615720698E+03  0.12500084314E+03 0.  0.
    9000005    1    3    3    0    0 -0.35588955293E+02  0.37112975190E+02 -0.27323118934E+02  0.58236582099E+02  0.10000000000E+01 0.  0.
    9000005    1    3    3    0    0  0.35588955293E+02 -0.37112975190E+02  0.44365128397E+02  0.67920624879E+02  0.10000000000E+01 0.  0.
<mgrwt>
<rscale>  0 0.12500084E+03</rscale>
<asrwt>0</asrwt>
<pdfrwt beam="2">  1        4 0.83934768E-02 0.12500084E+03</pdfrwt>
<pdfrwt beam="1">  1       -4 0.11015324E-01 0.12500084E+03</pdfrwt>
<totfact> 0.10427316E+04</totfact>
</mgrwt>
</event>
<event>
 5    1  0.3486294E-002  0.1250041E+03  0.7818608E-02  0.1235063E+00
          4   -1    0    0  501    0  0.00000000000E+00  0.00000000000E+00  0.37865986667E+02  0.37887278159E+02  0.12700000000E+01 0. -1.
         -4   -1    0    0    0  501 -0.00000000000E+00 -0.00000000000E+00 -0.10311236845E+03  0.10312018923E+03  0.12700000000E+01 0. -1.
         25    2    1    2    0    0  0.00000000000E+00  0.00000000000E+00 -0.65246381782E+02  0.14100746739E+03  0.12500406203E+03 0.  0.
    9000005    1    3    3    0    0 -0.22333209896E+02  0.54711501053E+02 -0.96884184997E+01  0.59891452351E+02  0.10000000000E+01 0.  0.
    9000005    1    3    3    0    0  0.22333209896E+02 -0.54711501053E+02 -0.55557963282E+02  0.81116015039E+02  0.10000000000E+01 0.  0.
<mgrwt>
<rscale>  0 0.12500406E+03</rscale>
<asrwt>0</asrwt>
<pdfrwt beam="1">  1        4 0.58277759E-02 0.12500406E+03</pdfrwt>
<pdfrwt beam="2">  1       -4 0.15865681E-01 0.12500406E+03</pdfrwt>
<totfact> 0.10111823E+04</totfact>
</mgrwt>
</event>
<event>
 5    1  0.3486294E-002  0.1250011E+03  0.7818608E-02  0.1235067E+00
         -4   -1    0    0    0  501 -0.00000000000E+00  0.00000000000E+00  0.32303193918E+03  0.32303443567E+03  0.12700000000E+01 0.  1.
          4   -1    0    0  501    0  0.00000000000E+00 -0.00000000000E+00 -0.12056783260E+02  0.12123486403E+02  0.12700000000E+01 0.  1.
         25    2    1    2    0    0  0.00000000000E+00  0.00000000000E+00  0.31097515592E+03  0.33515792208E+03  0.12500114052E+03 0.  0.
    9000005    1    3    3    0    0 -0.12544594871E+02  0.43314580583E+02  0.39485595124E+02  0.59946909628E+02  0.10000000000E+01 0.  0.
    9000005    1    3    3    0    0  0.12544594871E+02 -0.43314580583E+02  0.27148956080E+03  0.27521101245E+03  0.10000000000E+01 0.  0.
<mgrwt>
<rscale>  0 0.12500114E+03</rscale>
<asrwt>0</asrwt>
<pdfrwt beam="2">  1        4 0.18602130E-02 0.12500114E+03</pdfrwt>
<pdfrwt beam="1">  1       -4 0.49702538E-01 0.12500114E+03</pdfrwt>
<totfact> 0.71387033E+03</totfact>
</mgrwt>
</event>
<event>
 5    1  0.3486294E-002  0.1249981E+03  0.7818608E-02  0.1235072E+00
          4   -1    0    0  501    0  0.00000000000E+00  0.00000000000E+00  0.14813693698E+02  0.14868033528E+02  0.12700000000E+01 0. -1.
         -4   -1    0    0    0  501 -0.00000000000E+00 -0.00000000000E+00 -0.26314509499E+03  0.26314815963E+03  0.12700000000E+01 0. -1.
         25    2    1    2    0    0  0.00000000000E+00  0.00000000000E+00 -0.24833140129E+03  0.27801619316E+03  0.12499807515E+03 0.  0.
    9000005    1    3    3    0    0 -0.48307291054E+02 -0.39158530034E+02 -0.13790247447E+03  0.15127814551E+03  0.10000000000E+01 0.  0.
    9000005    1    3    3    0    0  0.48307291054E+02  0.39158530034E+02 -0.11042892682E+03  0.12673804765E+03  0.10000000000E+01 0.  0.
<mgrwt>
<rscale>  0 0.12499808E+03</rscale>
<asrwt>0</asrwt>
<pdfrwt beam="1">  1        4 0.22834457E-02 0.12499808E+03</pdfrwt>
<pdfrwt beam="2">  1       -4 0.40488273E-01 0.12499808E+03</pdfrwt>
<totfact> 0.78445239E+03</totfact>
</mgrwt>
</event>
<event>
 5    1  0.3486294E-002  0.1249984E+03  0.7818608E-02  0.1235072E+00
         -4   -1    0    0    0  501 -0.00000000000E+00  0.00000000000E+00  0.24877935896E+03  0.24878260057E+03  0.12700000000E+01 0. -1.
          4   -1    0    0  501    0  0.00000000000E+00 -0.00000000000E+00 -0.15672237300E+02  0.15723610335E+02  0.12700000000E+01 0. -1.
         25    2    1    2    0    0  0.00000000000E+00  0.00000000000E+00  0.23310712166E+03  0.26450621090E+03  0.12499842174E+03 0.  0.
    9000005    1    3    3    0    0  0.47233512764E+02  0.91176465948E+01  0.20095862463E+03  0.20663858551E+03  0.10000000000E+01 0.  0.
    9000005    1    3    3    0    0 -0.47233512764E+02 -0.91176465948E+01  0.32148497032E+02  0.57867625396E+02  0.10000000000E+01 0.  0.
<mgrwt>
<rscale>  0 0.12499842E+03</rscale>
<asrwt>0</asrwt>
<pdfrwt beam="2">  1        4 0.24153146E-02 0.12499842E+03</pdfrwt>
<pdfrwt beam="1">  1       -4 0.38277948E-01 0.12499842E+03</pdfrwt>
<totfact> 0.80280627E+03</totfact>
</mgrwt>
</event>
<event>
 5    1  0.3486294E-002  0.1250038E+03  0.7818608E-02  0.1235063E+00
          4   -1    0    0  501    0  0.00000000000E+00  0.00000000000E+00  0.15049223975E+02  0.15102716386E+02  0.12700000000E+01 0.  1.
         -4   -1    0    0    0  501 -0.00000000000E+00 -0.00000000000E+00 -0.25906503458E+03  0.25906814749E+03  0.12700000000E+01 0.  1.
         25    2    1    2    0    0  0.00000000000E+00  0.00000000000E+00 -0.24401581061E+03  0.27417086387E+03  0.12500378703E+03 0.  0.
    9000005    1    3    3    0    0  0.14825819518E+02 -0.30033159904E+02 -0.62878457070E+01  0.34092999601E+02  0.10000000000E+01 0.  0.
    9000005    1    3    3    0    0 -0.14825819518E+02  0.30033159904E+02 -0.23772796490E+03  0.24007786427E+03  0.10000000000E+01 0.  0.
<mgrwt>
<rscale>  0 0.12500379E+03</rscale>
<asrwt>0</asrwt>
<pdfrwt beam="1">  1        4 0.23196197E-02 0.12500379E+03</pdfrwt>
<pdfrwt beam="2">  1       -4 0.39860510E-01 0.12500379E+03</pdfrwt>
<totfact> 0.78950762E+03</totfact>
</mgrwt>
</event>
<event>
 5    1  0.3486294E-002  0.1249984E+03  0.7818608E-02  0.1235072E+00
         -4   -1    0    0    0  501 -0.00000000000E+00  0.00000000000E+00  0.18653268861E+03  0.18653701194E+03  0.12700000000E+01 0. -1.
          4   -1    0    0  501    0  0.00000000000E+00 -0.00000000000E+00 -0.20917010779E+02  0.20955530056E+02  0.12700000000E+01 0. -1.
         25    2    1    2    0    0  0.00000000000E+00  0.00000000000E+00  0.16561567784E+03  0.20749254199E+03  0.12499840894E+03 0.  0.
    9000005    1    3    3    0    0 -0.12292700433E+02 -0.41415097481E+02  0.15776074741E+03  0.16357192365E+03  0.10000000000E+01 0.  0.
    9000005    1    3    3    0    0  0.12292700433E+02  0.41415097481E+02  0.78549304246E+01  0.43920618339E+02  0.10000000000E+01 0.  0.
<mgrwt>
<rscale>  0 0.12499841E+03</rscale>
<asrwt>0</asrwt>
<pdfrwt beam="2">  1        4 0.32212973E-02 0.12499841E+03</pdfrwt>
<pdfrwt beam="1">  1       -4 0.28700632E-01 0.12499841E+03</pdfrwt>
<totfact> 0.88890189E+03</totfact>
</mgrwt>
</event>
<event>
 5    1  0.3486294E-002  0.1250018E+03  0.7818608E-02  0.1235067E+00
          4   -1    0    0  501    0  0.00000000000E+00  0.00000000000E+00  0.24005000344E+03  0.24005336293E+03  0.12700000000E+01 0. -1.
         -4   -1    0    0    0  501 -0.00000000000E+00 -0.00000000000E+00 -0.16244852003E+02  0.16294419799E+02  0.12700000000E+01 0. -1.
         25    2    1    2    0    0  0.00000000000E+00  0.00000000000E+00  0.22380515144E+03  0.25634778272E+03  0.12500175958E+03 0.  0.
    9000005    1    3    3    0    0 -0.11801732215E+02  0.86904649085E+00  0.23774138683E+03  0.23803781871E+03  0.10000000000E+01 0.  0.
    9000005    1    3    3    0    0  0.11801732215E+02 -0.86904649085E+00 -0.13936235395E+02  0.18309964010E+02  0.10000000000E+01 0.  0.
<mgrwt>
<rscale>  0 0.12500176E+03</rscale>
<asrwt>0</asrwt>
<pdfrwt beam="1">  1        4 0.36934843E-01 0.12500176E+03</pdfrwt>
<pdfrwt beam="2">  1       -4 0.25032792E-02 0.12500176E+03</pdfrwt>
<totfact> 0.81418153E+03</totfact>
</mgrwt>
</event>
<event>
 5    1  0.3486294E-002  0.1249985E+03  0.7818608E-02  0.1235072E+00
         -4   -1    0    0    0  501 -0.00000000000E+00  0.00000000000E+00  0.11349876625E+03  0.11350587139E+03  0.12700000000E+01 0. -1.
          4   -1    0    0  501    0  0.00000000000E+00 -0.00000000000E+00 -0.34395926640E+02  0.34419364745E+02  0.12700000000E+01 0. -1.
         25    2    1    2    0    0  0.00000000000E+00  0.00000000000E+00  0.79102839613E+02  0.14792523614E+03  0.12499846500E+03 0.  0.
    9000005    1    3    3    0    0  0.31881580143E+02 -0.53401965422E+02  0.46744898040E+02  0.77809321782E+02  0.10000000000E+01 0.  0.
    9000005    1    3    3    0    0 -0.31881580143E+02  0.53401965422E+02  0.32357941573E+02  0.70115914358E+02  0.10000000000E+01 0.  0.
<mgrwt>
<rscale>  0 0.12499846E+03</rscale>
<asrwt>0</asrwt>
<pdfrwt beam="2">  1        4 0.52940305E-02 0.12499846E+03</pdfrwt>
<pdfrwt beam="1">  1       -4 0.17463698E-01 0.12499846E+03</pdfrwt>
<totfact> 0.99722335E+03</totfact>
</mgrwt>
</event>
<event>
 5    1  0.3486294E-002  0.1249990E+03  0.7818608E-02  0.1235071E+00
         -4   -1    0    0    0  501 -0.00000000000E+00  0.00000000000E+00  0.82879439415E+02  0.82889169243E+02  0.12700000000E+01 0. -1.
          4   -1    0    0  501    0  0.00000000000E+00 -0.00000000000E+00 -0.47109928383E+02  0.47127043746E+02  0.12700000000E+01 0. -1.
         25    2    1    2    0    0  0.00000000000E+00  0.00000000000E+00  0.35769511032E+02  0.13001621299E+03  0.12499903088E+03 0.  0.
    9000005    1    3    3    0    0 -0.16446037449E+02  0.22552237936E+02 -0.40271074865E+02  0.49008520223E+02  0.10000000000E+01 0.  0.
    9000005    1    3    3    0    0  0.16446037449E+02 -0.22552237936E+02  0.76040585897E+02  0.81007692766E+02  0.10000000000E+01 0.  0.
<mgrwt>
<rscale>  0 0.12499903E+03</rscale>
<asrwt>0</asrwt>
<pdfrwt beam="2">  1        4 0.72497464E-02 0.12499903E+03</pdfrwt>
<pdfrwt beam="1">  1       -4 0.12752748E-01 0.12499903E+03</pdfrwt>
<totfact> 0.10344387E+04</totfact>
</mgrwt>
</event>
<event>
 5    1  0.3486294E-002  0.1249984E+03  0.7818608E-02  0.1235072E+00
         -4   -1    0    0    0  501 -0.00000000000E+00  0.00000000000E+00  0.17435914812E+03  0.17436377328E+03  0.12700000000E+01 0.  1.
          4   -1    0    0  501    0  0.00000000000E+00 -0.00000000000E+00 -0.22379970030E+02  0.22415975520E+02  0.12700000000E+01 0.  1.
         25    2    1    2    0    0  0.00000000000E+00  0.00000000000E+00  0.15197917809E+03  0.19677974880E+03  0.12499839585E+03 0.  0.
    9000005    1    3    3    0    0 -0.58452991921E+02 -0.14632803507E+01  0.11070390223E+03  0.12520082836E+03  0.10000000000E+01 0.  0.
    9000005    1    3    3    0    0  0.58452991921E+02  0.14632803507E+01  0.41275275862E+02  0.71578920440E+02  0.10000000000E+01 0.  0.
<mgrwt>
<rscale>  0 0.12499840E+03</rscale>
<asrwt>0</asrwt>
<pdfrwt beam="2">  1        4 0.34461978E-02 0.12499840E+03</pdfrwt>
<pdfrwt beam="1">  1       -4 0.26827610E-01 0.12499840E+03</pdfrwt>
<totfact> 0.90684115E+03</totfact>
</mgrwt>
</event>
<event>
 5    1  0.3486294E-002  0.1249969E+03  0.7818608E-02  0.1235074E+00
          4   -1    0    0  501    0  0.00000000000E+00  0.00000000000E+00  0.36477583330E+02  0.36499684733E+02  0.12700000000E+01 0.  1.
         -4   -1    0    0    0  501 -0.00000000000E+00 -0.00000000000E+00 -0.10702274262E+03  0.10703027767E+03  0.12700000000E+01 0.  1.
         25    2    1    2    0    0  0.00000000000E+00  0.00000000000E+00 -0.70545159289E+02  0.14352996240E+03  0.12499692239E+03 0.  0.
    9000005    1    3    3    0    0  0.85685569405E+00 -0.57292276687E+02 -0.66367359892E+01  0.57690427579E+02  0.10000000000E+01 0.  0.
    9000005    1    3    3    0    0 -0.85685569405E+00  0.57292276687E+02 -0.63908423300E+02  0.85839534822E+02  0.10000000000E+01 0.  0.
<mgrwt>
<rscale>  0 0.12499692E+03</rscale>
<asrwt>0</asrwt>
<pdfrwt beam="1">  1        4 0.56142157E-02 0.12499692E+03</pdfrwt>
<pdfrwt beam="2">  1       -4 0.16467317E-01 0.12499692E+03</pdfrwt>
<totfact> 0.10061640E+04</totfact>
</mgrwt>
</event>
<event>
 5    1  0.3486294E-002  0.1250013E+03  0.7818608E-02  0.1235067E+00
          4   -1    0    0  501    0  0.00000000000E+00  0.00000000000E+00  0.25352257539E+03  0.25352575635E+03  0.12700000000E+01 0. -1.
         -4   -1    0    0    0  501 -0.00000000000E+00 -0.00000000000E+00 -0.15378766933E+02  0.15431117017E+02  0.12700000000E+01 0. -1.
         25    2    1    2    0    0  0.00000000000E+00  0.00000000000E+00  0.23814380846E+03  0.26895687337E+03  0.12500130489E+03 0.  0.
    9000005    1    3    3    0    0 -0.59294228532E+02  0.19732287676E+02  0.11820364138E+03  0.13370964643E+03  0.10000000000E+01 0.  0.
    9000005    1    3    3    0    0  0.59294228532E+02 -0.19732287676E+02  0.11994016708E+03  0.13524722694E+03  0.10000000000E+01 0.  0.
<mgrwt>
<rscale>  0 0.12500130E+03</rscale>
<asrwt>0</asrwt>
<pdfrwt beam="1">  1        4 0.39007742E-01 0.12500130E+03</pdfrwt>
<pdfrwt beam="2">  1       -4 0.23702360E-02 0.12500130E+03</pdfrwt>
<totfact> 0.79662983E+03</totfact>
</mgrwt>
</event>
<event>
 5    1  0.3486294E-002  0.1250022E+03  0.7818608E-02  0.1235066E+00
         -4   -1    0    0    0  501 -0.00000000000E+00  0.00000000000E+00  0.91103990813E+01  0.91984928885E+01  0.12700000000E+01 0. -1.
          4   -1    0    0  501    0  0.00000000000E+00 -0.00000000000E+00 -0.42663125727E+03  0.42663314754E+03  0.12700000000E+01 0. -1.
         25    2    1    2    0    0  0.00000000000E+00  0.00000000000E+00 -0.41752085819E+03  0.43583164043E+03  0.12500220708E+03 0.  0.
    9000005    1    3    3    0    0  0.29809797200E+02 -0.21001735306E+02 -0.38570936655E+03  0.38743052582E+03  0.10000000000E+01 0.  0.
    9000005    1    3    3    0    0 -0.29809797200E+02  0.21001735306E+02 -0.31811491644E+02  0.48401114611E+02  0.10000000000E+01 0.  0.
<mgrwt>
<rscale>  0 0.12500221E+03</rscale>
<asrwt>0</asrwt>
<pdfrwt beam="2">  1        4 0.65642484E-01 0.12500221E+03</pdfrwt>
<pdfrwt beam="1">  1       -4 0.14085220E-02 0.12500221E+03</pdfrwt>
<totfact> 0.61207952E+03</totfact>
</mgrwt>
</event>
<event>
 4    1  0.3486294E-002  0.1248851E+03  0.7818608E-02  0.1235249E+00
          4   -1    0    0  501    0  0.00000000000E+00  0.00000000000E+00  0.21775060155E+03  0.21775430506E+03  0.12700000000E+01 0.  1.
         -4   -1    0    0    0  501 -0.00000000000E+00 -0.00000000000E+00 -0.17879759363E+02  0.17924806690E+02  0.12700000000E+01 0.  1.
    9000005    1    1    2    0    0 -0.60652334954E+02  0.75386370337E+01  0.75876015233E+02  0.97435652979E+02  0.10000000000E+01 0.  0.
    9000005    1    1    2    0    0  0.60652334954E+02 -0.75386370337E+01  0.12399482695E+03  0.13824345878E+03  0.10000000000E+01 0.  0.
<mgrwt>
<rscale>  0 0.12488511E+03</rscale>
<asrwt>0</asrwt>
<pdfrwt beam="1">  1        4 0.33503846E-01 0.12488511E+03</pdfrwt>
<pdfrwt beam="2">  1       -4 0.27544820E-02 0.12488511E+03</pdfrwt>
<totfact> 0.84661855E+03</totfact>
</mgrwt>
</event>
<event>
 5    1  0.3486294E-002  0.1249975E+03  0.7818608E-02  0.1235073E+00
         -4   -1    0    0    0  501 -0.00000000000E+00  0.00000000000E+00  0.20337534360E+03  0.20337930889E+03  0.12700000000E+01 0.  1.
          4   -1    0    0  501    0  0.00000000000E+00 -0.00000000000E+00 -0.19181189971E+02  0.19223187787E+02  0.12700000000E+01 0.  1.
         25    2    1    2    0    0  0.00000000000E+00  0.00000000000E+00  0.18419415363E+03  0.22260249668E+03  0.12499754116E+03 0.  0.
    9000005    1    3    3    0    0 -0.35044885124E+02  0.44750098052E+02  0.13834383001E+03  0.14956848115E+03  0.10000000000E+01 0.  0.
    9000005    1    3    3    0    0  0.35044885124E+02 -0.44750098052E+02  0.45850323613E+02  0.73034015530E+02  0.10000000000E+01 0.  0.
<mgrwt>
<rscale>  0 0.12499754E+03</rscale>
<asrwt>0</asrwt>
<pdfrwt beam="2">  1        4 0.29544879E-02 0.12499754E+03</pdfrwt>
<pdfrwt beam="1">  1       -4 0.31292050E-01 0.12499754E+03</pdfrwt>
<totfact> 0.86462953E+03</totfact>
</mgrwt>
</event>
<event>
 5    1  0.3486294E-002  0.1250171E+03  0.7818608E-02  0.1235043E+00
         -4   -1    0    0    0  501 -0.00000000000E+00  0.00000000000E+00  0.38208152285E+01  0.40263543076E+01  0.12700000000E+01 0.  1.
          4   -1    0    0  501    0  0.00000000000E+00 -0.00000000000E+00 -0.99564859777E+03  0.99564940774E+03  0.12700000000E+01 0.  1.
         25    2    1    2    0    0  0.00000000000E+00  0.00000000000E+00 -0.99182778254E+03  0.99967576205E+03  0.12501711488E+03 0.  0.
    9000005    1    3    3    0    0 -0.47856034338E+02 -0.40148743243E+02 -0.47952994586E+03  0.48358255818E+03  0.10000000000E+01 0.  0.
    9000005    1    3    3    0    0  0.47856034338E+02  0.40148743243E+02 -0.51229783668E+03  0.51609320387E+03  0.10000000000E+01 0.  0.
<mgrwt>
<rscale>  0 0.12501711E+03</rscale>
<asrwt>0</asrwt>
<pdfrwt beam="2">  1        4 0.15319238E+00 0.12501711E+03</pdfrwt>
<pdfrwt beam="1">  1       -4 0.60369153E-03 0.12501711E+03</pdfrwt>
<totfact> 0.30603806E+03</totfact>
</mgrwt>
</event>
<event>
 5    1  0.3486294E-002  0.1249977E+03  0.7818608E-02  0.1235073E+00
          4   -1    0    0  501    0  0.00000000000E+00  0.00000000000E+00  0.55153627001E+02  0.55168246949E+02  0.12700000000E+01 0. -1.
         -4   -1    0    0    0  501 -0.00000000000E+00 -0.00000000000E+00 -0.70792619694E+02  0.70804010502E+02  0.12700000000E+01 0. -1.
         25    2    1    2    0    0  0.00000000000E+00  0.00000000000E+00 -0.15638992693E+02  0.12597225745E+03  0.12499772620E+03 0.  0.
    9000005    1    3    3    0    0 -0.42507637851E+02 -0.25512174189E+02 -0.46159991616E+02  0.67745960274E+02  0.10000000000E+01 0.  0.
    9000005    1    3    3    0    0  0.42507637851E+02  0.25512174189E+02  0.30520998923E+02  0.58226297176E+02  0.10000000000E+01 0.  0.
<mgrwt>
<rscale>  0 0.12499773E+03</rscale>
<asrwt>0</asrwt>
<pdfrwt beam="1">  1        4 0.84871742E-02 0.12499773E+03</pdfrwt>
<pdfrwt beam="2">  1       -4 0.10893173E-01 0.12499773E+03</pdfrwt>
<totfact> 0.10432100E+04</totfact>
</mgrwt>
</event>
<event>
 5    1  0.3486294E-002  0.1249983E+03  0.7818608E-02  0.1235072E+00
          4   -1    0    0  501    0  0.00000000000E+00  0.00000000000E+00  0.80650925874E+02  0.80660924519E+02  0.12700000000E+01 0.  1.
         -4   -1    0    0    0  501 -0.00000000000E+00 -0.00000000000E+00 -0.48411377141E+02  0.48428032551E+02  0.12700000000E+01 0.  1.
         25    2    1    2    0    0  0.00000000000E+00  0.00000000000E+00  0.32239548733E+02  0.12908895707E+03  0.12499828133E+03 0.  0.
    9000005    1    3    3    0    0  0.28248770891E+02  0.21420049528E+02 -0.37026299023E+02  0.51271418919E+02  0.10000000000E+01 0.  0.
    9000005    1    3    3    0    0 -0.28248770891E+02 -0.21420049528E+02  0.69265847755E+02  0.77817538151E+02  0.10000000000E+01 0.  0.
<mgrwt>
<rscale>  0 0.12499828E+03</rscale>
<asrwt>0</asrwt>
<pdfrwt beam="1">  1        4 0.12409885E-01 0.12499828E+03</pdfrwt>
<pdfrwt beam="2">  1       -4 0.74499546E-02 0.12499828E+03</pdfrwt>
<totfact> 0.10364438E+04</totfact>
</mgrwt>
</event>
<event>
 5    1  0.3486294E-002  0.1249788E+03  0.7818608E-02  0.1235102E+00
          4   -1    0    0  501    0  0.00000000000E+00  0.00000000000E+00  0.10186052395E+03  0.10186844084E+03  0.12700000000E+01 0. -1.
         -4   -1    0    0    0  501 -0.00000000000E+00 -0.00000000000E+00 -0.38316050461E+02  0.38337091999E+02  0.12700000000E+01 0. -1.
         25    2    1    2    0    0  0.00000000000E+00  0.00000000000E+00  0.63544473489E+02  0.14020553284E+03  0.12497876351E+03 0.  0.
    9000005    1    3    3    0    0  0.30752251095E+02 -0.22012222259E+02  0.87567975833E+02  0.95390718981E+02  0.10000000000E+01 0.  0.
    9000005    1    3    3    0    0 -0.30752251095E+02  0.22012222259E+02 -0.24023502345E+02  0.44814813858E+02  0.10000000000E+01 0.  0.
<mgrwt>
<rscale>  0 0.12497876E+03</rscale>
<asrwt>0</asrwt>
<pdfrwt beam="1">  1        4 0.15673077E-01 0.12497876E+03</pdfrwt>
<pdfrwt beam="2">  1       -4 0.58970046E-02 0.12497876E+03</pdfrwt>
<totfact> 0.10134176E+04</totfact>
</mgrwt>
</event>
<event>
 5    1  0.3486294E-002  0.1250008E+03  0.7818608E-02  0.1235068E+00
         -4   -1    0    0    0  501 -0.00000000000E+00  0.00000000000E+00  0.41712705326E+02  0.41732034286E+02  0.12700000000E+01 0.  1.
          4   -1    0    0  501    0  0.00000000000E+00 -0.00000000000E+00 -0.93602359812E+02  0.93610975117E+02  0.12700000000E+01 0.  1.
         25    2    1    2    0    0  0.00000000000E+00  0.00000000000E+00 -0.51889654486E+02  0.13534300940E+03  0.12500077580E+03 0.  0.
    9000005    1    3    3    0    0  0.43735149772E+02 -0.26639346057E+02  0.12835922966E+02  0.52803210152E+02  0.10000000000E+01 0.  0.
    9000005    1    3    3    0    0 -0.43735149772E+02  0.26639346057E+02 -0.64725577452E+02  0.82539799251E+02  0.10000000000E+01 0.  0.
<mgrwt>
<rscale>  0 0.12500078E+03</rscale>
<asrwt>0</asrwt>
<pdfrwt beam="2">  1        4 0.14402513E-01 0.12500078E+03</pdfrwt>
<pdfrwt beam="1">  1       -4 0.64194889E-02 0.12500078E+03</pdfrwt>
<totfact> 0.10230667E+04</totfact>
</mgrwt>
</event>
<event>
 5    1  0.3486294E-002  0.1250001E+03  0.7818608E-02  0.1235069E+00
         -4   -1    0    0    0  501 -0.00000000000E+00  0.00000000000E+00  0.18108073318E+02  0.18152554071E+02  0.12700000000E+01 0. -1.
          4   -1    0    0  501    0  0.00000000000E+00 -0.00000000000E+00 -0.21540802471E+03  0.21541176850E+03  0.12700000000E+01 0. -1.
         25    2    1    2    0    0  0.00000000000E+00  0.00000000000E+00 -0.19729995139E+03  0.23356432257E+03  0.12500008784E+03 0.  0.
    9000005    1    3    3    0    0  0.15333443476E+02  0.57898053679E+02 -0.13196805510E+03  0.14492710814E+03  0.10000000000E+01 0.  0.
    9000005    1    3    3    0    0 -0.15333443476E+02 -0.57898053679E+02 -0.65331896296E+02  0.88637214432E+02  0.10000000000E+01 0.  0.
<mgrwt>
<rscale>  0 0.12500009E+03</rscale>
<asrwt>0</asrwt>
<pdfrwt beam="2">  1        4 0.33143404E-01 0.12500009E+03</pdfrwt>
<pdfrwt beam="1">  1       -4 0.27895672E-02 0.12500009E+03</pdfrwt>
<totfact> 0.84765115E+03</totfact>
</mgrwt>
</event>
<event>
 5    1  0.3486294E-002  0.1249683E+03  0.7818608E-02  0.1235119E+00
          4   -1    0    0  501    0  0.00000000000E+00  0.00000000000E+00  0.36126675096E+03  0.36126898324E+03  0.12700000000E+01 0. -1.
         -4   -1    0    0    0  501 -0.00000000000E+00 -0.00000000000E+00 -0.10767573420E+02  0.10842210907E+02  0.12700000000E+01 0. -1.
         25    2    1    2    0    0  0.00000000000E+00  0.00000000000E+00  0.35049917754E+03  0.37211119414E+03  0.12496826538E+03 0.  0.
    9000005    1    3    3    0    0 -0.51862233557E+02  0.33202371035E+02  0.20664619224E+03  0.21562870282E+03  0.10000000000E+01 0.  0.
    9000005    1    3    3    0    0  0.51862233557E+02 -0.33202371035E+02  0.14385298530E+03  0.15648249133E+03  0.10000000000E+01 0.  0.
<mgrwt>
<rscale>  0 0.12496827E+03</rscale>
<asrwt>0</asrwt>
<pdfrwt beam="1">  1        4 0.55585414E-01 0.12496827E+03</pdfrwt>
<pdfrwt beam="2">  1       -4 0.16624628E-02 0.12496827E+03</pdfrwt>
<totfact> 0.67405916E+03</totfact>
</mgrwt>
</event>
<event>
 5    1  0.3486294E-002  0.1249987E+03  0.7818608E-02  0.1235071E+00
          4   -1    0    0  501    0  0.00000000000E+00  0.00000000000E+00  0.36715263636E+03  0.36715483285E+03  0.12700000000E+01 0. -1.
         -4   -1    0    0    0  501 -0.00000000000E+00 -0.00000000000E+00 -0.10598956793E+02  0.10674773304E+02  0.12700000000E+01 0. -1.
         25    2    1    2    0    0  0.00000000000E+00  0.00000000000E+00  0.35655367956E+03  0.37782960615E+03  0.12499873949E+03 0.  0.
    9000005    1    3    3    0    0 -0.36201893476E+02 -0.13872839050E+01  0.33218581175E+03  0.33415702173E+03  0.10000000000E+01 0.  0.
    9000005    1    3    3    0    0  0.36201893476E+02  0.13872839050E+01  0.24367867817E+02  0.43672584419E+02  0.10000000000E+01 0.  0.
<mgrwt>
<rscale>  0 0.12499874E+03</rscale>
<asrwt>0</asrwt>
<pdfrwt beam="1">  1        4 0.56491030E-01 0.12499874E+03</pdfrwt>
<pdfrwt beam="2">  1       -4 0.16366095E-02 0.12499874E+03</pdfrwt>
<totfact> 0.66769544E+03</totfact>
</mgrwt>
</event>
<event>
 5    1  0.3486294E-002  0.1250005E+03  0.7818608E-02  0.1235069E+00
          4   -1    0    0  501    0  0.00000000000E+00  0.00000000000E+00  0.24157920629E+02  0.24191280022E+02  0.12700000000E+01 0.  1.
         -4   -1    0    0    0  501 -0.00000000000E+00 -0.00000000000E+00 -0.16155022583E+03  0.16155521770E+03  0.12700000000E+01 0.  1.
         25    2    1    2    0    0  0.00000000000E+00  0.00000000000E+00 -0.13739230520E+03  0.18574649772E+03  0.12500046355E+03 0.  0.
    9000005    1    3    3    0    0 -0.40500532157E+02  0.45267204955E+02 -0.90528536276E+02  0.10902214834E+03  0.10000000000E+01 0.  0.
    9000005    1    3    3    0    0  0.40500532157E+02 -0.45267204955E+02 -0.46863768927E+02  0.76724349378E+02  0.10000000000E+01 0.  0.
<mgrwt>
<rscale>  0 0.12500046E+03</rscale>
<asrwt>0</asrwt>
<pdfrwt beam="1">  1        4 0.37195534E-02 0.12500046E+03</pdfrwt>
<pdfrwt beam="2">  1       -4 0.24856830E-01 0.12500046E+03</pdfrwt>
<totfact> 0.92591761E+03</totfact>
</mgrwt>
</event>
<event>
 5    1  0.3486294E-002  0.1250048E+03  0.7818608E-02  0.1235062E+00
         -4   -1    0    0    0  501 -0.00000000000E+00  0.00000000000E+00  0.43268405842E+02  0.43287040140E+02  0.12700000000E+01 0.  1.
          4   -1    0    0  501    0  0.00000000000E+00 -0.00000000000E+00 -0.90243841520E+02  0.90252777422E+02  0.12700000000E+01 0.  1.
         25    2    1    2    0    0  0.00000000000E+00  0.00000000000E+00 -0.46975435679E+02  0.13353981756E+03  0.12500476518E+03 0.  0.
    9000005    1    3    3    0    0 -0.18262314850E+02 -0.19003989316E+02  0.37045885011E+02  0.45475942539E+02  0.10000000000E+01 0.  0.
    9000005    1    3    3    0    0  0.18262314850E+02  0.19003989316E+02 -0.84021320689E+02  0.88063875023E+02  0.10000000000E+01 0.  0.
<mgrwt>
<rscale>  0 0.12500477E+03</rscale>
<asrwt>0</asrwt>
<pdfrwt beam="2">  1        4 0.13885789E-01 0.12500477E+03</pdfrwt>
<pdfrwt beam="1">  1       -4 0.66587986E-02 0.12500477E+03</pdfrwt>
<totfact> 0.10267837E+04</totfact>
</mgrwt>
</event>
<event>
 5    1  0.3486294E-002  0.1250007E+03  0.7818608E-02  0.1235068E+00
         -4   -1    0    0    0  501 -0.00000000000E+00  0.00000000000E+00  0.21183726434E+01  0.24698993211E+01  0.12700000000E+01 0.  1.
          4   -1    0    0  501    0  0.00000000000E+00 -0.00000000000E+00 -0.17023780584E+04  0.17023785321E+04  0.12700000000E+01 0.  1.
         25    2    1    2    0    0  0.00000000000E+00  0.00000000000E+00 -0.17002596857E+04  0.17048484314E+04  0.12500070070E+03 0.  0.
    9000005    1    3    3    0    0  0.47721443537E+02 -0.84674543537E+01 -0.13881696170E+04  0.13890158097E+04  0.10000000000E+01 0.  0.
    9000005    1    3    3    0    0 -0.47721443537E+02  0.84674543537E+01 -0.31209006872E+03  0.31583262173E+03  0.10000000000E+01 0.  0.
<mgrwt>
<rscale>  0 0.12500070E+03</rscale>
<asrwt>0</asrwt>
<pdfrwt beam="2">  1        4 0.26193038E+00 0.12500070E+03</pdfrwt>
<pdfrwt beam="1">  1       -4 0.35298180E-03 0.12500070E+03</pdfrwt>
<totfact> 0.14227075E+03</totfact>
</mgrwt>
</event>
<event>
 5    1  0.3486294E-002  0.1250028E+03  0.7818608E-02  0.1235065E+00
         -4   -1    0    0    0  501 -0.00000000000E+00  0.00000000000E+00  0.52713986048E+02  0.52729282425E+02  0.12700000000E+01 0.  1.
          4   -1    0    0  501    0  0.00000000000E+00 -0.00000000000E+00 -0.74074534195E+02  0.74085420402E+02  0.12700000000E+01 0.  1.
         25    2    1    2    0    0  0.00000000000E+00  0.00000000000E+00 -0.21360548147E+02  0.12681470283E+03  0.12500278331E+03 0.  0.
    9000005    1    3    3    0    0  0.18552934726E+02 -0.41028067952E+02 -0.54643275731E+02  0.70812437674E+02  0.10000000000E+01 0.  0.
    9000005    1    3    3    0    0 -0.18552934726E+02  0.41028067952E+02  0.33282727584E+02  0.56002265153E+02  0.10000000000E+01 0.  0.
<mgrwt>
<rscale>  0 0.12500278E+03</rscale>
<asrwt>0</asrwt>
<pdfrwt beam="2">  1        4 0.11398096E-01 0.12500278E+03</pdfrwt>
<pdfrwt beam="1">  1       -4 0.81118580E-02 0.12500278E+03</pdfrwt>
<totfact> 0.10412520E+04</totfact>
</mgrwt>
</event>
<event>
 5    1  0.3486294E-002  0.1249916E+03  0.7818608E-02  0.1235082E+00
         -4   -1    0    0    0  501 -0.00000000000E+00  0.00000000000E+00  0.87583509549E+02  0.87592716848E+02  0.12700000000E+01 0. -1.
          4   -1    0    0  501    0  0.00000000000E+00 -0.00000000000E+00 -0.44573703363E+02  0.44591792199E+02  0.12700000000E+01 0. -1.
         25    2    1    2    0    0  0.00000000000E+00  0.00000000000E+00  0.43009806185E+02  0.13218450905E+03  0.12499160373E+03 0.  0.
    9000005    1    3    3    0    0 -0.12130502105E+01 -0.16418989349E+02 -0.42243967706E+02  0.45349834725E+02  0.10000000000E+01 0.  0.
    9000005    1    3    3    0    0  0.12130502105E+01  0.16418989349E+02  0.85253773891E+02  0.86834674323E+02  0.10000000000E+01 0.  0.
<mgrwt>
<rscale>  0 0.12499160E+03</rscale>
<asrwt>0</asrwt>
<pdfrwt beam="2">  1        4 0.68595927E-02 0.12499160E+03</pdfrwt>
<pdfrwt beam="1">  1       -4 0.13476486E-01 0.12499160E+03</pdfrwt>
<totfact> 0.10299712E+04</totfact>
</mgrwt>
</event>
<event>
 5    1  0.3486294E-002  0.1250042E+03  0.7818608E-02  0.1235063E+00
          4   -1    0    0  501    0  0.00000000000E+00  0.00000000000E+00  0.29406799376E+02  0.29434210530E+02  0.12700000000E+01 0. -1.
         -4   -1    0    0    0  501 -0.00000000000E+00 -0.00000000000E+00 -0.13275155780E+03  0.13275763254E+03  0.12700000000E+01 0. -1.
         25    2    1    2    0    0  0.00000000000E+00  0.00000000000E+00 -0.10334475842E+03  0.16219184307E+03  0.12500421939E+03 0.  0.
    9000005    1    3    3    0    0 -0.77695474712E+01  0.10404577221E+02 -0.13098816768E+03  0.13163404258E+03  0.10000000000E+01 0.  0.
    9000005    1    3    3    0    0  0.77695474712E+01 -0.10404577221E+02  0.27643409259E+02  0.30557800485E+02  0.10000000000E+01 0.  0.
<mgrwt>
<rscale>  0 0.12500422E+03</rscale>
<asrwt>0</asrwt>
<pdfrwt beam="1">  1        4 0.45266989E-02 0.12500422E+03</pdfrwt>
<pdfrwt beam="2">  1       -4 0.20425892E-01 0.12500422E+03</pdfrwt>
<totfact> 0.96912683E+03</totfact>
</mgrwt>
</event>
<event>
 5    1  0.3486294E-002  0.1249984E+03  0.7818608E-02  0.1235072E+00
         -4   -1    0    0    0  501 -0.00000000000E+00  0.00000000000E+00  0.37139521654E+02  0.37161229375E+02  0.12700000000E+01 0.  1.
          4   -1    0    0  501    0  0.00000000000E+00 -0.00000000000E+00 -0.10511876073E+03  0.10512643225E+03  0.12700000000E+01 0.  1.
         25    2    1    2    0    0  0.00000000000E+00  0.00000000000E+00 -0.67979239080E+02  0.14228766163E+03  0.12499840681E+03 0.  0.
    9000005    1    3    3    0    0  0.57185318581E+02 -0.10724493864E+02 -0.59946589522E+02  0.83545011971E+02  0.10000000000E+01 0.  0.
    9000005    1    3    3    0    0 -0.57185318581E+02  0.10724493864E+02 -0.80326495580E+01  0.58742649657E+02  0.10000000000E+01 0.  0.
<mgrwt>
<rscale>  0 0.12499841E+03</rscale>
<asrwt>0</asrwt>
<pdfrwt beam="2">  1        4 0.16174377E-01 0.12499841E+03</pdfrwt>
<pdfrwt beam="1">  1       -4 0.57160325E-02 0.12499841E+03</pdfrwt>
<totfact> 0.10086753E+04</totfact>
</mgrwt>
</event>
<event>
 5    1  0.3486294E-002  0.1250000E+03  0.7818608E-02  0.1235069E+00
          4   -1    0    0  501    0  0.00000000000E+00  0.00000000000E+00  0.33697270401E+02  0.33721194114E+02  0.12700000000E+01 0.  1.
         -4   -1    0    0    0  501 -0.00000000000E+00 -0.00000000000E+00 -0.11585331432E+03  0.11586027507E+03  0.12700000000E+01 0.  1.
         25    2    1    2    0    0  0.00000000000E+00  0.00000000000E+00 -0.82156043923E+02  0.14958146919E+03  0.12500000148E+03 0.  0.
    9000005    1    3    3    0    0  0.25901418700E+01 -0.32513351768E+02 -0.10486554505E+03  0.10982535872E+03  0.10000000000E+01 0.  0.
    9000005    1    3    3    0    0 -0.25901418700E+01  0.32513351768E+02  0.22709501129E+02  0.39756110469E+02  0.10000000000E+01 0.  0.
<mgrwt>
<rscale>  0 0.12500000E+03</rscale>
<asrwt>0</asrwt>
<pdfrwt beam="1">  1        4 0.51865712E-02 0.12500000E+03</pdfrwt>
<pdfrwt beam="2">  1       -4 0.17825962E-01 0.12500000E+03</pdfrwt>
<totfact> 0.99387188E+03</totfact>
</mgrwt>
</event>
<event>
 5    1  0.3486294E-002  0.1250013E+03  0.7818608E-02  0.1235067E+00
         -4   -1    0    0    0  501 -0.00000000000E+00  0.00000000000E+00  0.59683836691E+02  0.59697347196E+02  0.12700000000E+01 0. -1.
          4   -1    0    0  501    0  0.00000000000E+00 -0.00000000000E+00 -0.65423356669E+02  0.65435682145E+02  0.12700000000E+01 0. -1.
         25    2    1    2    0    0  0.00000000000E+00  0.00000000000E+00 -0.57395199774E+01  0.12513302934E+03  0.12500133176E+03 0.  0.
    9000005    1    3    3    0    0  0.29766986406E+02 -0.54036315788E+02 -0.12847022020E+02  0.63024145202E+02  0.10000000000E+01 0.  0.
    9000005    1    3    3    0    0 -0.29766986406E+02  0.54036315788E+02  0.71075020430E+01  0.62108884139E+02  0.10000000000E+01 0.  0.
<mgrwt>
<rscale>  0 0.12500133E+03</rscale>
<asrwt>0</asrwt>
<pdfrwt beam="2">  1        4 0.10067119E-01 0.12500133E+03</pdfrwt>
<pdfrwt beam="1">  1       -4 0.91841161E-02 0.12500133E+03</pdfrwt>
<totfact> 0.10449659E+04</totfact>
</mgrwt>
</event>
<event>
 5    1  0.3486294E-002  0.1250012E+03  0.7818608E-02  0.1235067E+00
          4   -1    0    0  501    0  0.00000000000E+00  0.00000000000E+00  0.92774743313E+01  0.93639964741E+01  0.12700000000E+01 0. -1.
         -4   -1    0    0    0  501 -0.00000000000E+00 -0.00000000000E+00 -0.41901283729E+03  0.41901476193E+03  0.12700000000E+01 0. -1.
         25    2    1    2    0    0  0.00000000000E+00  0.00000000000E+00 -0.40973536296E+03  0.42837875840E+03  0.12500117196E+03 0.  0.
    9000005    1    3    3    0    0 -0.11934843058E+02  0.13727155568E+02 -0.40975653524E+03  0.41016130174E+03  0.10000000000E+01 0.  0.
    9000005    1    3    3    0    0  0.11934843058E+02 -0.13727155568E+02  0.21172279112E-01  0.18217456658E+02  0.10000000000E+01 0.  0.
<mgrwt>
<rscale>  0 0.12500117E+03</rscale>
<asrwt>0</asrwt>
<pdfrwt beam="1">  1        4 0.14341077E-02 0.12500117E+03</pdfrwt>
<pdfrwt beam="2">  1       -4 0.64470302E-01 0.12500117E+03</pdfrwt>
<totfact> 0.61881630E+03</totfact>
</mgrwt>
</event>
<event>
 5    1  0.3486294E-002  0.1249995E+03  0.7818608E-02  0.1235070E+00
          4   -1    0    0  501    0  0.00000000000E+00  0.00000000000E+00  0.59397779903E+01  0.60740318220E+01  0.12700000000E+01 0. -1.
         -4   -1    0    0    0  501 -0.00000000000E+00 -0.00000000000E+00 -0.65015318371E+03  0.65015442411E+03  0.12700000000E+01 0. -1.
         25    2    1    2    0    0  0.00000000000E+00  0.00000000000E+00 -0.64421340572E+03  0.65622845593E+03  0.12499949706E+03 0.  0.
    9000005    1    3    3    0    0  0.99948360990E+00  0.55260360729E+02 -0.47521088335E+03  0.47841518589E+03  0.10000000000E+01 0.  0.
    9000005    1    3    3    0    0 -0.99948360990E+00 -0.55260360729E+02 -0.16900252236E+03  0.17781327004E+03  0.10000000000E+01 0.  0.
<mgrwt>
<rscale>  0 0.12499950E+03</rscale>
<asrwt>0</asrwt>
<pdfrwt beam="1">  1        4 0.92423515E-03 0.12499950E+03</pdfrwt>
<pdfrwt beam="2">  1       -4 0.10003393E+00 0.12499950E+03</pdfrwt>
<totfact> 0.45500483E+03</totfact>
</mgrwt>
</event>
<event>
 5    1  0.3486294E-002  0.1249995E+03  0.7818608E-02  0.1235070E+00
          4   -1    0    0  501    0  0.00000000000E+00  0.00000000000E+00  0.12109974979E+03  0.12110640900E+03  0.12700000000E+01 0.  1.
         -4   -1    0    0    0  501 -0.00000000000E+00 -0.00000000000E+00 -0.32236181796E+02  0.32261189017E+02  0.12700000000E+01 0.  1.
         25    2    1    2    0    0  0.00000000000E+00  0.00000000000E+00  0.88863567996E+02  0.15336759801E+03  0.12499954561E+03 0.  0.
    9000005    1    3    3    0    0  0.19563650085E+02 -0.48713990826E+02  0.86029250331E+02  0.10078601698E+03  0.10000000000E+01 0.  0.
    9000005    1    3    3    0    0 -0.19563650085E+02  0.48713990826E+02  0.28343176655E+01  0.52581581029E+02  0.10000000000E+01 0.  0.
<mgrwt>
<rscale>  0 0.12499955E+03</rscale>
<asrwt>0</asrwt>
<pdfrwt beam="1">  1        4 0.18633167E-01 0.12499955E+03</pdfrwt>
<pdfrwt beam="2">  1       -4 0.49618484E-02 0.12499955E+03</pdfrwt>
<totfact> 0.98637612E+03</totfact>
</mgrwt>
</event>
<event>
 5    1  0.3486294E-002  0.1249999E+03  0.7818608E-02  0.1235069E+00
          4   -1    0    0  501    0  0.00000000000E+00  0.00000000000E+00  0.16283602722E+02  0.16333052917E+02  0.12700000000E+01 0.  1.
         -4   -1    0    0    0  501 -0.00000000000E+00 -0.00000000000E+00 -0.23947347635E+03  0.23947684392E+03  0.12700000000E+01 0.  1.
         25    2    1    2    0    0  0.00000000000E+00  0.00000000000E+00 -0.22318987363E+03  0.25580989684E+03  0.12499993452E+03 0.  0.
    9000005    1    3    3    0    0 -0.49641303162E+02  0.66542731127E+01 -0.35112749171E+02  0.61175513767E+02  0.10000000000E+01 0.  0.
    9000005    1    3    3    0    0  0.49641303162E+02 -0.66542731127E+01 -0.18807712446E+03  0.19463438307E+03  0.10000000000E+01 0.  0.
<mgrwt>
<rscale>  0 0.12499993E+03</rscale>
<asrwt>0</asrwt>
<pdfrwt beam="1">  1        4 0.25092327E-02 0.12499993E+03</pdfrwt>
<pdfrwt beam="2">  1       -4 0.36846134E-01 0.12499993E+03</pdfrwt>
<totfact> 0.81497822E+03</totfact>
</mgrwt>
</event>
<event>
 5    1  0.3486294E-002  0.1249846E+03  0.7818608E-02  0.1235093E+00
          4   -1    0    0  501    0  0.00000000000E+00  0.00000000000E+00  0.17101726324E+02  0.17148817547E+02  0.12700000000E+01 0. -1.
         -4   -1    0    0    0  501 -0.00000000000E+00 -0.00000000000E+00 -0.22799338938E+03  0.22799692652E+03  0.12700000000E+01 0. -1.
         25    2    1    2    0    0  0.00000000000E+00  0.00000000000E+00 -0.21089166306E+03  0.24514574407E+03  0.12498456819E+03 0.  0.
    9000005    1    3    3    0    0  0.18059138781E+02  0.40649777519E+02 -0.19372667733E+02  0.48526664432E+02  0.10000000000E+01 0.  0.
    9000005    1    3    3    0    0 -0.18059138781E+02 -0.40649777519E+02 -0.19151899533E+03  0.19661907964E+03  0.10000000000E+01 0.  0.
<mgrwt>
<rscale>  0 0.12498457E+03</rscale>
<asrwt>0</asrwt>
<pdfrwt beam="1">  1        4 0.26349295E-02 0.12498457E+03</pdfrwt>
<pdfrwt beam="2">  1       -4 0.35079798E-01 0.12498457E+03</pdfrwt>
<totfact> 0.83065483E+03</totfact>
</mgrwt>
</event>
<event>
 5    1  0.3486294E-002  0.1250050E+03  0.7818608E-02  0.1235062E+00
         -4   -1    0    0    0  501 -0.00000000000E+00  0.00000000000E+00  0.24404875788E+02  0.24437898073E+02  0.12700000000E+01 0. -1.
          4   -1    0    0  501    0  0.00000000000E+00 -0.00000000000E+00 -0.15992917257E+03  0.15993421504E+03  0.12700000000E+01 0. -1.
         25    2    1    2    0    0  0.00000000000E+00  0.00000000000E+00 -0.13552429679E+03  0.18437211311E+03  0.12500496420E+03 0.  0.
    9000005    1    3    3    0    0  0.49735396500E+02 -0.32795456518E+02 -0.39917477953E+02  0.71718593680E+02  0.10000000000E+01 0.  0.
    9000005    1    3    3    0    0 -0.49735396500E+02  0.32795456518E+02 -0.95606818832E+02  0.11265351943E+03  0.10000000000E+01 0.  0.
<mgrwt>
<rscale>  0 0.12500496E+03</rscale>
<asrwt>0</asrwt>
<pdfrwt beam="2">  1        4 0.24607415E-01 0.12500496E+03</pdfrwt>
<pdfrwt beam="1">  1       -4 0.37575244E-02 0.12500496E+03</pdfrwt>
<totfact> 0.92825548E+03</totfact>
</mgrwt>
</event>
<event>
 5    1  0.3486294E-002  0.1250015E+03  0.7818608E-02  0.1235067E+00
          4   -1    0    0  501    0  0.00000000000E+00  0.00000000000E+00  0.61558051359E+03  0.61558182366E+03  0.12700000000E+01 0. -1.
         -4   -1    0    0    0  501 -0.00000000000E+00 -0.00000000000E+00 -0.62809115911E+01  0.64080223482E+01  0.12700000000E+01 0. -1.
         25    2    1    2    0    0  0.00000000000E+00  0.00000000000E+00  0.60929960200E+03  0.62198984600E+03  0.12500145412E+03 0.  0.
    9000005    1    3    3    0    0 -0.21629100444E+02  0.57764590286E+01  0.59496710331E+03  0.59538898166E+03  0.10000000000E+01 0.  0.
    9000005    1    3    3    0    0  0.21629100444E+02 -0.57764590286E+01  0.14332498691E+02  0.26600864340E+02  0.10000000000E+01 0.  0.
<mgrwt>
<rscale>  0 0.12500145E+03</rscale>
<asrwt>0</asrwt>
<pdfrwt beam="1">  1        4 0.94714579E-01 0.12500145E+03</pdfrwt>
<pdfrwt beam="2">  1       -4 0.97617255E-03 0.12500145E+03</pdfrwt>
<totfact> 0.47506813E+03</totfact>
</mgrwt>
</event>
<event>
 5    1  0.3486294E-002  0.1250021E+03  0.7818608E-02  0.1235066E+00
         -4   -1    0    0    0  501 -0.00000000000E+00  0.00000000000E+00  0.37624709916E+02  0.37646137866E+02  0.12700000000E+01 0.  1.
          4   -1    0    0  501    0  0.00000000000E+00 -0.00000000000E+00 -0.10377004071E+03  0.10377781193E+03  0.12700000000E+01 0.  1.
         25    2    1    2    0    0  0.00000000000E+00  0.00000000000E+00 -0.66145330790E+02  0.14142394979E+03  0.12500211514E+03 0.  0.
    9000005    1    3    3    0    0  0.20997511349E+02  0.51558989970E+02 -0.65195620261E+02  0.85736187405E+02  0.10000000000E+01 0.  0.
    9000005    1    3    3    0    0 -0.20997511349E+02 -0.51558989970E+02 -0.94971052916E+00  0.55687762387E+02  0.10000000000E+01 0.  0.
<mgrwt>
<rscale>  0 0.12500212E+03</rscale>
<asrwt>0</asrwt>
<pdfrwt beam="2">  1        4 0.15966868E-01 0.12500212E+03</pdfrwt>
<pdfrwt beam="1">  1       -4 0.57906630E-02 0.12500212E+03</pdfrwt>
<totfact> 0.10103677E+04</totfact>
</mgrwt>
</event>
<event>
 5    1  0.3486294E-002  0.1249904E+03  0.7818608E-02  0.1235084E+00
         -4   -1    0    0    0  501 -0.00000000000E+00  0.00000000000E+00  0.25591878058E+02  0.25623370632E+02  0.12700000000E+01 0.  1.
          4   -1    0    0  501    0  0.00000000000E+00 -0.00000000000E+00 -0.15248480223E+03  0.15249009086E+03  0.12700000000E+01 0.  1.
         25    2    1    2    0    0  0.00000000000E+00  0.00000000000E+00 -0.12689292417E+03  0.17811346149E+03  0.12499036347E+03 0.  0.
    9000005    1    3    3    0    0 -0.38968342539E+02 -0.47214652182E+02 -0.81295774746E+02  0.10177307155E+03  0.10000000000E+01 0.  0.
    9000005    1    3    3    0    0  0.38968342539E+02  0.47214652182E+02 -0.45597149421E+02  0.76340389941E+02  0.10000000000E+01 0.  0.
<mgrwt>
<rscale>  0 0.12499036E+03</rscale>
<asrwt>0</asrwt>
<pdfrwt beam="2">  1        4 0.23462029E-01 0.12499036E+03</pdfrwt>
<pdfrwt beam="1">  1       -4 0.39400414E-02 0.12499036E+03</pdfrwt>
<totfact> 0.93978001E+03</totfact>
</mgrwt>
</event>
<event>
 5    1  0.3486294E-002  0.1250015E+03  0.7818608E-02  0.1235067E+00
         -4   -1    0    0    0  501 -0.00000000000E+00  0.00000000000E+00  0.14487760074E+03  0.14488316706E+03  0.12700000000E+01 0. -1.
          4   -1    0    0  501    0  0.00000000000E+00 -0.00000000000E+00 -0.26942002061E+02  0.26971918268E+02  0.12700000000E+01 0. -1.
         25    2    1    2    0    0  0.00000000000E+00  0.00000000000E+00  0.11793559868E+03  0.17185508532E+03  0.12500145965E+03 0.  0.
    9000005    1    3    3    0    0 -0.55781937510E+02 -0.71021738978E+01  0.21485838665E+02  0.60205537034E+02  0.10000000000E+01 0.  0.
    9000005    1    3    3    0    0  0.55781937510E+02  0.71021738978E+01  0.96449760015E+02  0.11164954829E+03  0.10000000000E+01 0.  0.
<mgrwt>
<rscale>  0 0.12500146E+03</rscale>
<asrwt>0</asrwt>
<pdfrwt beam="2">  1        4 0.41476529E-02 0.12500146E+03</pdfrwt>
<pdfrwt beam="1">  1       -4 0.22291591E-01 0.12500146E+03</pdfrwt>
<totfact> 0.95100885E+03</totfact>
</mgrwt>
</event>
<event>
 5    1  0.3486294E-002  0.1250004E+03  0.7818608E-02  0.1235069E+00
          4   -1    0    0  501    0  0.00000000000E+00  0.00000000000E+00  0.62727470487E+03  0.62727599051E+03  0.12700000000E+01 0. -1.
         -4   -1    0    0    0  501 -0.00000000000E+00 -0.00000000000E+00 -0.61613167913E+01  0.62908445064E+01  0.12700000000E+01 0. -1.
         25    2    1    2    0    0  0.00000000000E+00  0.00000000000E+00  0.62111338808E+03  0.63356683502E+03  0.12500037433E+03 0.  0.
    9000005    1    3    3    0    0  0.62194669640E+02  0.37320258568E+00  0.27974393730E+03  0.28657631910E+03  0.10000000000E+01 0.  0.
    9000005    1    3    3    0    0 -0.62194669640E+02 -0.37320258568E+00  0.34136945078E+03  0.34699051592E+03  0.10000000000E+01 0.  0.
<mgrwt>
<rscale>  0 0.12500037E+03</rscale>
<asrwt>0</asrwt>
<pdfrwt beam="1">  1        4 0.96513902E-01 0.12500037E+03</pdfrwt>
<pdfrwt beam="2">  1       -4 0.95795708E-03 0.12500037E+03</pdfrwt>
<totfact> 0.46814688E+03</totfact>
</mgrwt>
</event>
<event>
 5    1  0.3486294E-002  0.1249976E+03  0.7818608E-02  0.1235073E+00
         -4   -1    0    0    0  501 -0.00000000000E+00  0.00000000000E+00  0.32082446594E+02  0.32107573553E+02  0.12700000000E+01 0. -1.
          4   -1    0    0  501    0  0.00000000000E+00 -0.00000000000E+00 -0.12167574091E+03  0.12168236859E+03  0.12700000000E+01 0. -1.
         25    2    1    2    0    0  0.00000000000E+00  0.00000000000E+00 -0.89593294315E+02  0.15378994214E+03  0.12499755165E+03 0.  0.
    9000005    1    3    3    0    0  0.46738882769E+02  0.36753052452E+02 -0.21137329305E+02  0.63111779544E+02  0.10000000000E+01 0.  0.
    9000005    1    3    3    0    0 -0.46738882769E+02 -0.36753052452E+02 -0.68455965010E+02  0.90678162600E+02  0.10000000000E+01 0.  0.
<mgrwt>
<rscale>  0 0.12499755E+03</rscale>
<asrwt>0</asrwt>
<pdfrwt beam="2">  1        4 0.18721787E-01 0.12499755E+03</pdfrwt>
<pdfrwt beam="1">  1       -4 0.49382037E-02 0.12499755E+03</pdfrwt>
<totfact> 0.98558952E+03</totfact>
</mgrwt>
</event>
<event>
 5    1  0.3486294E-002  0.1250018E+03  0.7818608E-02  0.1235066E+00
          4   -1    0    0  501    0  0.00000000000E+00  0.00000000000E+00  0.83230593952E+02  0.83240282734E+02  0.12700000000E+01 0. -1.
         -4   -1    0    0    0  501 -0.00000000000E+00 -0.00000000000E+00 -0.46913222783E+02  0.46930409884E+02  0.12700000000E+01 0. -1.
         25    2    1    2    0    0  0.00000000000E+00  0.00000000000E+00  0.36317371170E+02  0.13017069262E+03  0.12500183106E+03 0.  0.
    9000005    1    3    3    0    0  0.10602591233E+02 -0.59602567986E+02  0.34307453172E+02  0.69590821194E+02  0.10000000000E+01 0.  0.
    9000005    1    3    3    0    0 -0.10602591233E+02  0.59602567986E+02  0.20099179974E+01  0.60579871423E+02  0.10000000000E+01 0.  0.
<mgrwt>
<rscale>  0 0.12500183E+03</rscale>
<asrwt>0</asrwt>
<pdfrwt beam="1">  1        4 0.12806774E-01 0.12500183E+03</pdfrwt>
<pdfrwt beam="2">  1       -4 0.72194863E-02 0.12500183E+03</pdfrwt>
<totfact> 0.10340430E+04</totfact>
</mgrwt>
</event>
<event>
 5    1  0.3486294E-002  0.1249996E+03  0.7818608E-02  0.1235070E+00
          4   -1    0    0  501    0  0.00000000000E+00  0.00000000000E+00  0.68728801773E+01  0.69892332864E+01  0.12700000000E+01 0. -1.
         -4   -1    0    0    0  501 -0.00000000000E+00 -0.00000000000E+00 -0.56346610619E+03  0.56346753741E+03  0.12700000000E+01 0. -1.
         25    2    1    2    0    0  0.00000000000E+00  0.00000000000E+00 -0.55659322601E+03  0.57045677070E+03  0.12499963200E+03 0.  0.
    9000005    1    3    3    0    0  0.26757342169E+02  0.40055189989E+01 -0.53537443179E+03  0.53605856188E+03  0.10000000000E+01 0.  0.
    9000005    1    3    3    0    0 -0.26757342169E+02 -0.40055189989E+01 -0.21218794214E+02  0.34398208824E+02  0.10000000000E+01 0.  0.
<mgrwt>
<rscale>  0 0.12499963E+03</rscale>
<asrwt>0</asrwt>
<pdfrwt beam="1">  1        4 0.10664270E-02 0.12499963E+03</pdfrwt>
<pdfrwt beam="2">  1       -4 0.86696117E-01 0.12499963E+03</pdfrwt>
<totfact> 0.50787619E+03</totfact>
</mgrwt>
</event>
<event>
 5    1  0.3486294E-002  0.1250007E+03  0.7818608E-02  0.1235068E+00
          4   -1    0    0  501    0  0.00000000000E+00  0.00000000000E+00  0.99518545763E+02  0.99526648948E+02  0.12700000000E+01 0.  1.
         -4   -1    0    0    0  501 -0.00000000000E+00 -0.00000000000E+00 -0.39231915338E+02  0.39252465924E+02  0.12700000000E+01 0.  1.
         25    2    1    2    0    0  0.00000000000E+00  0.00000000000E+00  0.60286630425E+02  0.13877911487E+03  0.12500065966E+03 0.  0.
    9000005    1    3    3    0    0 -0.35492429805E+01  0.15205798967E+02 -0.37036686391E+02  0.40206088927E+02  0.10000000000E+01 0.  0.
    9000005    1    3    3    0    0  0.35492429805E+01 -0.15205798967E+02  0.97323316816E+02  0.98573025945E+02  0.10000000000E+01 0.  0.
<mgrwt>
<rscale>  0 0.12500066E+03</rscale>
<asrwt>0</asrwt>
<pdfrwt beam="1">  1        4 0.15312750E-01 0.12500066E+03</pdfrwt>
<pdfrwt beam="2">  1       -4 0.60378835E-02 0.12500066E+03</pdfrwt>
<totfact> 0.10158801E+04</totfact>
</mgrwt>
</event>
<event>
 5    1  0.3486294E-002  0.1250022E+03  0.7818608E-02  0.1235066E+00
          4   -1    0    0  501    0  0.00000000000E+00  0.00000000000E+00  0.15449510869E+02  0.15501622047E+02  0.12700000000E+01 0. -1.
         -4   -1    0    0    0  501 -0.00000000000E+00 -0.00000000000E+00 -0.25236905177E+03  0.25237224726E+03  0.12700000000E+01 0. -1.
         25    2    1    2    0    0  0.00000000000E+00  0.00000000000E+00 -0.23691954090E+03  0.26787386931E+03  0.12500216398E+03 0.  0.
    9000005    1    3    3    0    0 -0.33593879658E+02  0.25261592290E+02 -0.19356820525E+02  0.46285886578E+02  0.10000000000E+01 0.  0.
    9000005    1    3    3    0    0  0.33593879658E+02 -0.25261592290E+02 -0.21756272037E+03  0.22158798273E+03  0.10000000000E+01 0.  0.
<mgrwt>
<rscale>  0 0.12500216E+03</rscale>
<asrwt>0</asrwt>
<pdfrwt beam="1">  1        4 0.23811024E-02 0.12500216E+03</pdfrwt>
<pdfrwt beam="2">  1       -4 0.38830259E-01 0.12500216E+03</pdfrwt>
<totfact> 0.79809777E+03</totfact>
</mgrwt>
</event>
<event>
 5    1  0.3486294E-002  0.1249959E+03  0.7818608E-02  0.1235076E+00
          4   -1    0    0  501    0  0.00000000000E+00  0.00000000000E+00  0.49741265221E+02  0.49757475477E+02  0.12700000000E+01 0.  1.
         -4   -1    0    0    0  501 -0.00000000000E+00 -0.00000000000E+00 -0.78492141147E+02  0.78502414752E+02  0.12700000000E+01 0.  1.
         25    2    1    2    0    0  0.00000000000E+00  0.00000000000E+00 -0.28750875926E+02  0.12825989023E+03  0.12499594623E+03 0.  0.
    9000005    1    3    3    0    0 -0.61609483838E+02  0.87075926662E+01 -0.20309701996E+02  0.65460176168E+02  0.10000000000E+01 0.  0.
    9000005    1    3    3    0    0  0.61609483838E+02 -0.87075926662E+01 -0.84411739299E+01  0.62799714061E+02  0.10000000000E+01 0.  0.
<mgrwt>
<rscale>  0 0.12499595E+03</rscale>
<asrwt>0</asrwt>
<pdfrwt beam="1">  1        4 0.76545396E-02 0.12499595E+03</pdfrwt>
<pdfrwt beam="2">  1       -4 0.12077751E-01 0.12499595E+03</pdfrwt>
<totfact> 0.10382829E+04</totfact>
</mgrwt>
</event>
<event>
 5    1  0.3486294E-002  0.1249997E+03  0.7818608E-02  0.1235070E+00
          4   -1    0    0  501    0  0.00000000000E+00  0.00000000000E+00  0.65928430275E+01  0.67140508775E+01  0.12700000000E+01 0.  1.
         -4   -1    0    0    0  501 -0.00000000000E+00 -0.00000000000E+00 -0.58697744617E+03  0.58697882007E+03  0.12700000000E+01 0.  1.
         25    2    1    2    0    0  0.00000000000E+00  0.00000000000E+00 -0.58038460315E+03  0.59369287095E+03  0.12499974980E+03 0.  0.
    9000005    1    3    3    0    0  0.52676168151E+00  0.65227040732E+01 -0.58536891450E+03  0.58540634538E+03  0.10000000000E+01 0.  0.
    9000005    1    3    3    0    0 -0.52676168151E+00 -0.65227040732E+01  0.49843113584E+01  0.82865255695E+01  0.10000000000E+01 0.  0.
<mgrwt>
<rscale>  0 0.12499975E+03</rscale>
<asrwt>0</asrwt>
<pdfrwt beam="1">  1        4 0.10237134E-02 0.12499975E+03</pdfrwt>
<pdfrwt beam="2">  1       -4 0.90313611E-01 0.12499975E+03</pdfrwt>
<totfact> 0.49268457E+03</totfact>
</mgrwt>
</event>
<event>
 5    1  0.3486294E-002  0.1250013E+03  0.7818608E-02  0.1235067E+00
          4   -1    0    0  501    0  0.00000000000E+00  0.00000000000E+00  0.10346409451E+02  0.10424062957E+02  0.12700000000E+01 0. -1.
         -4   -1    0    0    0  501 -0.00000000000E+00 -0.00000000000E+00 -0.37606407552E+03  0.37606621996E+03  0.12700000000E+01 0. -1.
         25    2    1    2    0    0  0.00000000000E+00  0.00000000000E+00 -0.36571766607E+03  0.38649028292E+03  0.12500131006E+03 0.  0.
    9000005    1    3    3    0    0  0.24404024305E+02  0.31847886770E+02 -0.33099513163E+03  0.33341958769E+03  0.10000000000E+01 0.  0.
    9000005    1    3    3    0    0 -0.24404024305E+02 -0.31847886770E+02 -0.34722534440E+02  0.53070695227E+02  0.10000000000E+01 0.  0.
<mgrwt>
<rscale>  0 0.12500131E+03</rscale>
<asrwt>0</asrwt>
<pdfrwt beam="1">  1        4 0.15978939E-02 0.12500131E+03</pdfrwt>
<pdfrwt beam="2">  1       -4 0.57862140E-01 0.12500131E+03</pdfrwt>
<totfact> 0.65886382E+03</totfact>
</mgrwt>
</event>
<event>
 5    1  0.3486294E-002  0.1249790E+03  0.7818608E-02  0.1235102E+00
         -4   -1    0    0    0  501 -0.00000000000E+00  0.00000000000E+00  0.96422570797E+01  0.97255345144E+01  0.12700000000E+01 0. -1.
          4   -1    0    0  501    0  0.00000000000E+00 -0.00000000000E+00 -0.40315585235E+03  0.40315785269E+03  0.12700000000E+01 0. -1.
         25    2    1    2    0    0  0.00000000000E+00  0.00000000000E+00 -0.39351359527E+03  0.41288338720E+03  0.12497896529E+03 0.  0.
    9000005    1    3    3    0    0  0.45608237773E+02  0.42009172578E+02 -0.22214391171E+03  0.23063781009E+03  0.10000000000E+01 0.  0.
    9000005    1    3    3    0    0 -0.45608237773E+02 -0.42009172578E+02 -0.17136968356E+03  0.18224557711E+03  0.10000000000E+01 0.  0.
<mgrwt>
<rscale>  0 0.12497897E+03</rscale>
<asrwt>0</asrwt>
<pdfrwt beam="2">  1        4 0.62030524E-01 0.12497897E+03</pdfrwt>
<pdfrwt beam="1">  1       -4 0.14899843E-02 0.12497897E+03</pdfrwt>
<totfact> 0.63348164E+03</totfact>
</mgrwt>
</event>
<event>
 5    1  0.3486294E-002  0.1249989E+03  0.7818608E-02  0.1235071E+00
         -4   -1    0    0    0  501 -0.00000000000E+00  0.00000000000E+00  0.49318036138E+03  0.49318199658E+03  0.12700000000E+01 0.  1.
          4   -1    0    0  501    0  0.00000000000E+00 -0.00000000000E+00 -0.78678206754E+01  0.79696613592E+01  0.12700000000E+01 0.  1.
         25    2    1    2    0    0  0.00000000000E+00  0.00000000000E+00  0.48531254070E+03  0.50115165794E+03  0.12499888836E+03 0.  0.
    9000005    1    3    3    0    0 -0.20835985713E+02 -0.54860829600E+02  0.15654309151E+03  0.16718429479E+03  0.10000000000E+01 0.  0.
    9000005    1    3    3    0    0  0.20835985713E+02  0.54860829600E+02  0.32876944919E+03  0.33396736315E+03  0.10000000000E+01 0.  0.
<mgrwt>
<rscale>  0 0.12499889E+03</rscale>
<asrwt>0</asrwt>
<pdfrwt beam="2">  1        4 0.12183933E-02 0.12499889E+03</pdfrwt>
<pdfrwt beam="1">  1       -4 0.75881881E-01 0.12499889E+03</pdfrwt>
<totfact> 0.55776475E+03</totfact>
</mgrwt>
</event>
<event>
 5    1  0.3486294E-002  0.1249642E+03  0.7818608E-02  0.1235125E+00
         -4   -1    0    0    0  501 -0.00000000000E+00  0.00000000000E+00  0.30958413517E+03  0.30958674010E+03  0.12700000000E+01 0.  1.
          4   -1    0    0  501    0  0.00000000000E+00 -0.00000000000E+00 -0.12575857744E+02  0.12639821914E+02  0.12700000000E+01 0.  1.
         25    2    1    2    0    0  0.00000000000E+00  0.00000000000E+00  0.29700827742E+03  0.32222656201E+03  0.12496415650E+03 0.  0.
    9000005    1    3    3    0    0  0.35219335158E+01  0.57735768321E+02  0.87637906435E+02  0.10501059758E+03  0.10000000000E+01 0.  0.
    9000005    1    3    3    0    0 -0.35219335158E+01 -0.57735768321E+02  0.20937037099E+03  0.21721596444E+03  0.10000000000E+01 0.  0.
<mgrwt>
<rscale>  0 0.12496416E+03</rscale>
<asrwt>0</asrwt>
<pdfrwt beam="2">  1        4 0.19398682E-02 0.12496416E+03</pdfrwt>
<pdfrwt beam="1">  1       -4 0.47633447E-01 0.12496416E+03</pdfrwt>
<totfact> 0.72950025E+03</totfact>
</mgrwt>
</event>
<event>
 5    1  0.3486294E-002  0.1249998E+03  0.7818608E-02  0.1235070E+00
         -4   -1    0    0    0  501 -0.00000000000E+00  0.00000000000E+00  0.20053458563E+03  0.20053860709E+03  0.12700000000E+01 0.  1.
          4   -1    0    0  501    0  0.00000000000E+00 -0.00000000000E+00 -0.19454210005E+02  0.19495619685E+02  0.12700000000E+01 0.  1.
         25    2    1    2    0    0  0.00000000000E+00  0.00000000000E+00  0.18108037563E+03  0.22003422678E+03  0.12499983407E+03 0.  0.
    9000005    1    3    3    0    0  0.61889299696E+02  0.76204006955E+01  0.83307250707E+02  0.10406466232E+03  0.10000000000E+01 0.  0.
    9000005    1    3    3    0    0 -0.61889299696E+02 -0.76204006955E+01  0.97773124922E+02  0.11596956446E+03  0.10000000000E+01 0.  0.
<mgrwt>
<rscale>  0 0.12499983E+03</rscale>
<asrwt>0</asrwt>
<pdfrwt beam="2">  1        4 0.29964503E-02 0.12499983E+03</pdfrwt>
<pdfrwt beam="1">  1       -4 0.30854968E-01 0.12499983E+03</pdfrwt>
<totfact> 0.86863257E+03</totfact>
</mgrwt>
</event>
<event>
 5    1  0.3486294E-002  0.1250016E+03  0.7818608E-02  0.1235067E+00
         -4   -1    0    0    0  501 -0.00000000000E+00  0.00000000000E+00  0.23511824771E+03  0.23512167766E+03  0.12700000000E+01 0. -1.
          4   -1    0    0  501    0  0.00000000000E+00 -0.00000000000E+00 -0.16586580588E+02  0.16635130165E+02  0.12700000000E+01 0. -1.
         25    2    1    2    0    0  0.00000000000E+00  0.00000000000E+00  0.21853166712E+03  0.25175680782E+03  0.12500160300E+03 0.  0.
    9000005    1    3    3    0    0  0.24185831789E+02 -0.29901088412E+02  0.20847224430E+03  0.21199223144E+03  0.10000000000E+01 0.  0.
    9000005    1    3    3    0    0 -0.24185831789E+02  0.29901088412E+02  0.10059422820E+02  0.39764576384E+02  0.10000000000E+01 0.  0.
<mgrwt>
<rscale>  0 0.12500160E+03</rscale>
<asrwt>0</asrwt>
<pdfrwt beam="2">  1        4 0.25557801E-02 0.12500160E+03</pdfrwt>
<pdfrwt beam="1">  1       -4 0.36176036E-01 0.12500160E+03</pdfrwt>
<totfact> 0.82074045E+03</totfact>
</mgrwt>
</event>
<event>
 5    1  0.3486294E-002  0.1249991E+03  0.7818608E-02  0.1235071E+00
         -4   -1    0    0    0  501 -0.00000000000E+00  0.00000000000E+00  0.81309532092E+02  0.81319449759E+02  0.12700000000E+01 0. -1.
          4   -1    0    0  501    0  0.00000000000E+00 -0.00000000000E+00 -0.48019768366E+02  0.48036559556E+02  0.12700000000E+01 0. -1.
         25    2    1    2    0    0  0.00000000000E+00  0.00000000000E+00  0.33289763726E+02  0.12935600931E+03  0.12499907510E+03 0.  0.
    9000005    1    3    3    0    0  0.18178869959E+02  0.59783633409E+02  0.15818254489E+02  0.64465272136E+02  0.10000000000E+01 0.  0.
    9000005    1    3    3    0    0 -0.18178869959E+02 -0.59783633409E+02  0.17471509236E+02  0.64890737178E+02  0.10000000000E+01 0.  0.
<mgrwt>
<rscale>  0 0.12499908E+03</rscale>
<asrwt>0</asrwt>
<pdfrwt beam="2">  1        4 0.73897112E-02 0.12499908E+03</pdfrwt>
<pdfrwt beam="1">  1       -4 0.12511213E-01 0.12499908E+03</pdfrwt>
<totfact> 0.10358519E+04</totfact>
</mgrwt>
</event>
<event>
 5    1  0.3486294E-002  0.1249999E+03  0.7818608E-02  0.1235069E+00
          4   -1    0    0  501    0  0.00000000000E+00  0.00000000000E+00  0.14573061393E+02  0.14628295128E+02  0.12700000000E+01 0. -1.
         -4   -1    0    0    0  501 -0.00000000000E+00 -0.00000000000E+00 -0.26748183403E+03  0.26748484899E+03  0.12700000000E+01 0. -1.
         25    2    1    2    0    0  0.00000000000E+00  0.00000000000E+00 -0.25290877264E+03  0.28211314412E+03  0.12499991522E+03 0.  0.
    9000005    1    3    3    0    0  0.38933628666E+02  0.40228319224E+02 -0.18912570595E+03  0.19724015250E+03  0.10000000000E+01 0.  0.
    9000005    1    3    3    0    0 -0.38933628666E+02 -0.40228319224E+02 -0.63783066690E+02  0.84872991612E+02  0.10000000000E+01 0.  0.
<mgrwt>
<rscale>  0 0.12499992E+03</rscale>
<asrwt>0</asrwt>
<pdfrwt beam="1">  1        4 0.22464903E-02 0.12499992E+03</pdfrwt>
<pdfrwt beam="2">  1       -4 0.41155529E-01 0.12499992E+03</pdfrwt>
<totfact> 0.77898898E+03</totfact>
</mgrwt>
</event>
<event>
 5    1  0.3486294E-002  0.1250017E+03  0.7818608E-02  0.1235067E+00
          4   -1    0    0  501    0  0.00000000000E+00  0.00000000000E+00  0.54092863217E+03  0.54093012303E+03  0.12700000000E+01 0. -1.
         -4   -1    0    0    0  501 -0.00000000000E+00 -0.00000000000E+00 -0.71642226241E+01  0.72759182106E+01  0.12700000000E+01 0. -1.
         25    2    1    2    0    0  0.00000000000E+00  0.00000000000E+00  0.53376440954E+03  0.54820604124E+03  0.12500167501E+03 0.  0.
    9000005    1    3    3    0    0 -0.32250129082E+02  0.10774817308E+02  0.49683047090E+03  0.49799365893E+03  0.10000000000E+01 0.  0.
    9000005    1    3    3    0    0  0.32250129082E+02 -0.10774817308E+02  0.36933938639E+02  0.50212382310E+02  0.10000000000E+01 0.  0.
<mgrwt>
<rscale>  0 0.12500168E+03</rscale>
<asrwt>0</asrwt>
<pdfrwt beam="1">  1        4 0.83228544E-01 0.12500168E+03</pdfrwt>
<pdfrwt beam="2">  1       -4 0.11108941E-02 0.12500168E+03</pdfrwt>
<totfact> 0.52307252E+03</totfact>
</mgrwt>
</event>
<event>
 5    1  0.3486294E-002  0.1249924E+03  0.7818608E-02  0.1235081E+00
         -4   -1    0    0    0  501 -0.00000000000E+00  0.00000000000E+00  0.15018969090E+02  0.15072568876E+02  0.12700000000E+01 0.  1.
          4   -1    0    0  501    0  0.00000000000E+00 -0.00000000000E+00 -0.25953765879E+03  0.25954076603E+03  0.12700000000E+01 0.  1.
         25    2    1    2    0    0  0.00000000000E+00  0.00000000000E+00 -0.24451868970E+03  0.27461333490E+03  0.12499237615E+03 0.  0.
    9000005    1    3    3    0    0 -0.28249720211E+02 -0.48564668108E+02 -0.62163159674E+02  0.83796372840E+02  0.10000000000E+01 0.  0.
    9000005    1    3    3    0    0  0.28249720211E+02  0.48564668108E+02 -0.18235553003E+03  0.19081696207E+03  0.10000000000E+01 0.  0.
<mgrwt>
<rscale>  0 0.12499238E+03</rscale>
<asrwt>0</asrwt>
<pdfrwt beam="2">  1        4 0.39933229E-01 0.12499238E+03</pdfrwt>
<pdfrwt beam="1">  1       -4 0.23149729E-02 0.12499238E+03</pdfrwt>
<totfact> 0.78911180E+03</totfact>
</mgrwt>
</event>
<event>
 5    1  0.3486294E-002  0.1249981E+03  0.7818608E-02  0.1235072E+00
          4   -1    0    0  501    0  0.00000000000E+00  0.00000000000E+00  0.20114401569E+03  0.20114802496E+03  0.12700000000E+01 0. -1.
         -4   -1    0    0    0  501 -0.00000000000E+00 -0.00000000000E+00 -0.19394592556E+02  0.19436129255E+02  0.12700000000E+01 0. -1.
         25    2    1    2    0    0  0.00000000000E+00  0.00000000000E+00  0.18174942313E+03  0.22058415422E+03  0.12499806512E+03 0.  0.
    9000005    1    3    3    0    0  0.39254647463E+02  0.72827254252E+01  0.60375033346E+01  0.40390801968E+02  0.10000000000E+01 0.  0.
    9000005    1    3    3    0    0 -0.39254647463E+02 -0.72827254252E+01  0.17571191980E+03  0.18019335225E+03  0.10000000000E+01 0.  0.
<mgrwt>
<rscale>  0 0.12499807E+03</rscale>
<asrwt>0</asrwt>
<pdfrwt beam="1">  1        4 0.30948736E-01 0.12499807E+03</pdfrwt>
<pdfrwt beam="2">  1       -4 0.29872871E-02 0.12499807E+03</pdfrwt>
<totfact> 0.86779750E+03</totfact>
</mgrwt>
</event>
<event>
 5    1  0.3486294E-002  0.1249980E+03  0.7818608E-02  0.1235072E+00
         -4   -1    0    0    0  501 -0.00000000000E+00  0.00000000000E+00  0.45154276040E+03  0.45154454639E+03  0.12700000000E+01 0. -1.
          4   -1    0    0  501    0  0.00000000000E+00 -0.00000000000E+00 -0.86021969095E+01  0.86954408554E+01  0.12700000000E+01 0. -1.
         25    2    1    2    0    0  0.00000000000E+00  0.00000000000E+00  0.44294056349E+03  0.46023998724E+03  0.12499801226E+03 0.  0.
    9000005    1    3    3    0    0 -0.52630556677E+02 -0.33214847280E+02  0.20066655239E+03  0.21009823137E+03  0.10000000000E+01 0.  0.
    9000005    1    3    3    0    0  0.52630556677E+02  0.33214847280E+02  0.24227401110E+03  0.25014175587E+03  0.10000000000E+01 0.  0.
<mgrwt>
<rscale>  0 0.12499801E+03</rscale>
<asrwt>0</asrwt>
<pdfrwt beam="2">  1        4 0.13307249E-02 0.12499801E+03</pdfrwt>
<pdfrwt beam="1">  1       -4 0.69475430E-01 0.12499801E+03</pdfrwt>
<totfact> 0.59089441E+03</totfact>
</mgrwt>
</event>
<event>
 5    1  0.3486294E-002  0.1249978E+03  0.7818608E-02  0.1235073E+00
          4   -1    0    0  501    0  0.00000000000E+00  0.00000000000E+00  0.13688092450E+04  0.13688098341E+04  0.12700000000E+01 0. -1.
         -4   -1    0    0    0  501 -0.00000000000E+00 -0.00000000000E+00 -0.27117350995E+01  0.29943959741E+01  0.12700000000E+01 0. -1.
         25    2    1    2    0    0  0.00000000000E+00  0.00000000000E+00  0.13660975099E+04  0.13718042301E+04  0.12499775703E+03 0.  0.
    9000005    1    3    3    0    0  0.12541357541E+02  0.18248269388E+02  0.41729716068E+02  0.47250970231E+02  0.10000000000E+01 0.  0.
    9000005    1    3    3    0    0 -0.12541357541E+02 -0.18248269388E+02  0.13243677938E+04  0.13245532599E+04  0.10000000000E+01 0.  0.
<mgrwt>
<rscale>  0 0.12499776E+03</rscale>
<asrwt>0</asrwt>
<pdfrwt beam="1">  1        4 0.21060830E+00 0.12499776E+03</pdfrwt>
<pdfrwt beam="2">  1       -4 0.43897749E-03 0.12499776E+03</pdfrwt>
<totfact> 0.20595111E+03</totfact>
</mgrwt>
</event>
<event>
 5    1  0.3486294E-002  0.1250008E+03  0.7818608E-02  0.1235068E+00
          4   -1    0    0  501    0  0.00000000000E+00  0.00000000000E+00  0.72282913729E+02  0.72294069724E+02  0.12700000000E+01 0.  1.
         -4   -1    0    0    0  501 -0.00000000000E+00 -0.00000000000E+00 -0.54019018395E+02  0.54033945334E+02  0.12700000000E+01 0.  1.
         25    2    1    2    0    0  0.00000000000E+00  0.00000000000E+00  0.18263895334E+02  0.12632801506E+03  0.12500079006E+03 0.  0.
    9000005    1    3    3    0    0  0.14169206145E+02  0.51315247472E+02 -0.23945963689E+02  0.58381762588E+02  0.10000000000E+01 0.  0.
    9000005    1    3    3    0    0 -0.14169206145E+02 -0.51315247472E+02  0.42209859023E+02  0.67946252469E+02  0.10000000000E+01 0.  0.
<mgrwt>
<rscale>  0 0.12500079E+03</rscale>
<asrwt>0</asrwt>
<pdfrwt beam="1">  1        4 0.11122455E-01 0.12500079E+03</pdfrwt>
<pdfrwt beam="2">  1       -4 0.83126246E-02 0.12500079E+03</pdfrwt>
<totfact> 0.10423595E+04</totfact>
</mgrwt>
</event>
<event>
 5    1  0.3486294E-002  0.1249972E+03  0.7818608E-02  0.1235074E+00
          4   -1    0    0  501    0  0.00000000000E+00  0.00000000000E+00  0.13226584825E+04  0.13226590923E+04  0.12700000000E+01 0. -1.
         -4   -1    0    0    0  501 -0.00000000000E+00 -0.00000000000E+00 -0.28160236660E+01  0.30891567276E+01  0.12700000000E+01 0. -1.
         25    2    1    2    0    0  0.00000000000E+00  0.00000000000E+00  0.13198424589E+04  0.13257482490E+04  0.12499721375E+03 0.  0.
    9000005    1    3    3    0    0  0.38331821229E+02 -0.49338180302E+02  0.64696900926E+03  0.64997960237E+03  0.10000000000E+01 0.  0.
    9000005    1    3    3    0    0 -0.38331821229E+02  0.49338180302E+02  0.67287344962E+03  0.67576864663E+03  0.10000000000E+01 0.  0.
<mgrwt>
<rscale>  0 0.12499721E+03</rscale>
<asrwt>0</asrwt>
<pdfrwt beam="1">  1        4 0.20350749E+00 0.12499721E+03</pdfrwt>
<pdfrwt beam="2">  1       -4 0.45429039E-03 0.12499721E+03</pdfrwt>
<totfact> 0.21630095E+03</totfact>
</mgrwt>
</event>
<event>
 5    1  0.3486294E-002  0.1249957E+03  0.7818608E-02  0.1235076E+00
         -4   -1    0    0    0  501 -0.00000000000E+00  0.00000000000E+00  0.10662535068E+03  0.10663291381E+03  0.12700000000E+01 0.  1.
          4   -1    0    0  501    0  0.00000000000E+00 -0.00000000000E+00 -0.36612864500E+02  0.36634884289E+02  0.12700000000E+01 0.  1.
         25    2    1    2    0    0  0.00000000000E+00  0.00000000000E+00  0.70012486184E+02  0.14326779810E+03  0.12499565493E+03 0.  0.
    9000005    1    3    3    0    0  0.57313621589E+02  0.65333505236E+01  0.62549041332E+02  0.85093586482E+02  0.10000000000E+01 0.  0.
    9000005    1    3    3    0    0 -0.57313621589E+02 -0.65333505236E+01  0.74634448512E+01  0.58174211621E+02  0.10000000000E+01 0.  0.
<mgrwt>
<rscale>  0 0.12499565E+03</rscale>
<asrwt>0</asrwt>
<pdfrwt beam="2">  1        4 0.56350240E-02 0.12499565E+03</pdfrwt>
<pdfrwt beam="1">  1       -4 0.16406176E-01 0.12499565E+03</pdfrwt>
<totfact> 0.10067287E+04</totfact>
</mgrwt>
</event>
<event>
 5    1  0.3486294E-002  0.1249888E+03  0.7818608E-02  0.1235087E+00
          4   -1    0    0  501    0  0.00000000000E+00  0.00000000000E+00  0.96756251168E+02  0.96764585671E+02  0.12700000000E+01 0.  1.
         -4   -1    0    0    0  501 -0.00000000000E+00 -0.00000000000E+00 -0.40344787649E+02  0.40364771651E+02  0.12700000000E+01 0.  1.
         25    2    1    2    0    0  0.00000000000E+00  0.00000000000E+00  0.56411463519E+02  0.13712935732E+03  0.12498882919E+03 0.  0.
    9000005    1    3    3    0    0  0.14995731291E+02  0.60208900425E+02  0.20101178354E+02  0.65230675442E+02  0.10000000000E+01 0.  0.
    9000005    1    3    3    0    0 -0.14995731291E+02 -0.60208900425E+02  0.36310285165E+02  0.71898681880E+02  0.10000000000E+01 0.  0.
<mgrwt>
<rscale>  0 0.12498883E+03</rscale>
<asrwt>0</asrwt>
<pdfrwt beam="1">  1        4 0.14887755E-01 0.12498883E+03</pdfrwt>
<pdfrwt beam="2">  1       -4 0.62090688E-02 0.12498883E+03</pdfrwt>
<totfact> 0.10195950E+04</totfact>
</mgrwt>
</event>
<event>
 5    1  0.3486294E-002  0.1249992E+03  0.7818608E-02  0.1235070E+00
          4   -1    0    0  501    0  0.00000000000E+00  0.00000000000E+00  0.42209807013E+03  0.42209998070E+03  0.12700000000E+01 0.  1.
         -4   -1    0    0    0  501 -0.00000000000E+00 -0.00000000000E+00 -0.92087412886E+01  0.92959031901E+01  0.12700000000E+01 0.  1.
         25    2    1    2    0    0  0.00000000000E+00  0.00000000000E+00  0.41288932884E+03  0.43139588389E+03  0.12499924306E+03 0.  0.
    9000005    1    3    3    0    0 -0.42321843832E+02 -0.47041130432E+01  0.48595326838E+02  0.64620220793E+02  0.10000000000E+01 0.  0.
    9000005    1    3    3    0    0  0.42321843832E+02  0.47041130432E+01  0.36429400200E+03  0.36677566309E+03  0.10000000000E+01 0.  0.
<mgrwt>
<rscale>  0 0.12499924E+03</rscale>
<asrwt>0</asrwt>
<pdfrwt beam="1">  1        4 0.64945028E-01 0.12499924E+03</pdfrwt>
<pdfrwt beam="2">  1       -4 0.14235809E-02 0.12499924E+03</pdfrwt>
<totfact> 0.61610686E+03</totfact>
</mgrwt>
</event>
<event>
 5    1  0.3486294E-002  0.1250008E+03  0.7818608E-02  0.1235068E+00
          4   -1    0    0  501    0  0.00000000000E+00  0.00000000000E+00  0.92685295916E+02  0.92693996456E+02  0.12700000000E+01 0. -1.
         -4   -1    0    0    0  501 -0.00000000000E+00 -0.00000000000E+00 -0.42125601663E+02  0.42144741255E+02  0.12700000000E+01 0. -1.
         25    2    1    2    0    0  0.00000000000E+00  0.00000000000E+00  0.50559694253E+02  0.13483873771E+03  0.12500081002E+03 0.  0.
    9000005    1    3    3    0    0  0.15886719295E+02 -0.30824701978E+02  0.81359437288E+02  0.88447205370E+02  0.10000000000E+01 0.  0.
    9000005    1    3    3    0    0 -0.15886719295E+02  0.30824701978E+02 -0.30799743035E+02  0.46391532341E+02  0.10000000000E+01 0.  0.
<mgrwt>
<rscale>  0 0.12500081E+03</rscale>
<asrwt>0</asrwt>
<pdfrwt beam="1">  1        4 0.14261418E-01 0.12500081E+03</pdfrwt>
<pdfrwt beam="2">  1       -4 0.64830034E-02 0.12500081E+03</pdfrwt>
<totfact> 0.10241284E+04</totfact>
</mgrwt>
</event>
<event>
 5    1  0.3486294E-002  0.1250008E+03  0.7818608E-02  0.1235068E+00
          4   -1    0    0  501    0  0.00000000000E+00  0.00000000000E+00  0.15627316615E+03  0.15627832658E+03  0.12700000000E+01 0.  1.
         -4   -1    0    0    0  501 -0.00000000000E+00 -0.00000000000E+00 -0.24974912814E+02  0.25007182370E+02  0.12700000000E+01 0.  1.
         25    2    1    2    0    0  0.00000000000E+00  0.00000000000E+00  0.13129825334E+03  0.18128550895E+03  0.12500081770E+03 0.  0.
    9000005    1    3    3    0    0 -0.42063533182E+02  0.42246051077E+02  0.38469284202E+02  0.70957420206E+02  0.10000000000E+01 0.  0.
    9000005    1    3    3    0    0  0.42063533182E+02 -0.42246051077E+02  0.92828969139E+02  0.11032808875E+03  0.10000000000E+01 0.  0.
<mgrwt>
<rscale>  0 0.12500082E+03</rscale>
<asrwt>0</asrwt>
<pdfrwt beam="1">  1        4 0.24044905E-01 0.12500082E+03</pdfrwt>
<pdfrwt beam="2">  1       -4 0.38451736E-02 0.12500082E+03</pdfrwt>
<totfact> 0.93384406E+03</totfact>
</mgrwt>
</event>
<event>
 5    1  0.3486294E-002  0.1250011E+03  0.7818608E-02  0.1235068E+00
         -4   -1    0    0    0  501 -0.00000000000E+00  0.00000000000E+00  0.17882014037E+02  0.17927055698E+02  0.12700000000E+01 0.  1.
          4   -1    0    0  501    0  0.00000000000E+00 -0.00000000000E+00 -0.21812790867E+03  0.21813160578E+03  0.12700000000E+01 0.  1.
         25    2    1    2    0    0  0.00000000000E+00  0.00000000000E+00 -0.20024589463E+03  0.23605866148E+03  0.12500109336E+03 0.  0.
    9000005    1    3    3    0    0  0.42635667138E+01 -0.24604166511E+02 -0.20830632857E+03  0.20980007039E+03  0.10000000000E+01 0.  0.
    9000005    1    3    3    0    0 -0.42635667138E+01  0.24604166511E+02  0.80604339403E+01  0.26258591092E+02  0.10000000000E+01 0.  0.
<mgrwt>
<rscale>  0 0.12500109E+03</rscale>
<asrwt>0</asrwt>
<pdfrwt beam="2">  1        4 0.33561887E-01 0.12500109E+03</pdfrwt>
<pdfrwt beam="1">  1       -4 0.27548284E-02 0.12500109E+03</pdfrwt>
<totfact> 0.84385827E+03</totfact>
</mgrwt>
</event>
<event>
 5    1  0.3486294E-002  0.1250041E+03  0.7818608E-02  0.1235063E+00
          4   -1    0    0  501    0  0.00000000000E+00  0.00000000000E+00  0.11400091676E+03  0.11400799061E+03  0.12700000000E+01 0.  1.
         -4   -1    0    0    0  501 -0.00000000000E+00 -0.00000000000E+00 -0.34247406618E+02  0.34270946296E+02  0.12700000000E+01 0.  1.
         25    2    1    2    0    0  0.00000000000E+00  0.00000000000E+00  0.79753510143E+02  0.14827893690E+03  0.12500408293E+03 0.  0.
    9000005    1    3    3    0    0  0.60816985953E+02 -0.25413819149E+01  0.56666339654E+02  0.83169937190E+02  0.10000000000E+01 0.  0.
    9000005    1    3    3    0    0 -0.60816985953E+02  0.25413819149E+01  0.23087170490E+02  0.65108999713E+02  0.10000000000E+01 0.  0.
<mgrwt>
<rscale>  0 0.12500408E+03</rscale>
<asrwt>0</asrwt>
<pdfrwt beam="1">  1        4 0.17540957E-01 0.12500408E+03</pdfrwt>
<pdfrwt beam="2">  1       -4 0.52711867E-02 0.12500408E+03</pdfrwt>
<totfact> 0.99638721E+03</totfact>
</mgrwt>
</event>
<event>
 5    1  0.3486294E-002  0.1250084E+03  0.7818608E-02  0.1235056E+00
          4   -1    0    0  501    0  0.00000000000E+00  0.00000000000E+00  0.44062502797E+03  0.44062685821E+03  0.12700000000E+01 0.  1.
         -4   -1    0    0    0  501 -0.00000000000E+00 -0.00000000000E+00 -0.88191042415E+01  0.89100785419E+01  0.12700000000E+01 0.  1.
         25    2    1    2    0    0  0.00000000000E+00  0.00000000000E+00  0.43180592373E+03  0.44953693675E+03  0.12500840666E+03 0.  0.
    9000005    1    3    3    0    0 -0.57039809668E+02 -0.11708623365E+02  0.29752178955E+03  0.30316801778E+03  0.10000000000E+01 0.  0.
    9000005    1    3    3    0    0  0.57039809668E+02  0.11708623365E+02  0.13428413419E+03  0.14636891898E+03  0.10000000000E+01 0.  0.
<mgrwt>
<rscale>  0 0.12500841E+03</rscale>
<asrwt>0</asrwt>
<pdfrwt beam="1">  1        4 0.67795596E-01 0.12500841E+03</pdfrwt>
<pdfrwt beam="2">  1       -4 0.13639243E-02 0.12500841E+03</pdfrwt>
<totfact> 0.59992824E+03</totfact>
</mgrwt>
</event>
<event>
 5    1  0.3486294E-002  0.1249931E+03  0.7818608E-02  0.1235080E+00
         -4   -1    0    0    0  501 -0.00000000000E+00  0.00000000000E+00  0.28846543153E+03  0.28846822717E+03  0.12700000000E+01 0. -1.
          4   -1    0    0  501    0  0.00000000000E+00 -0.00000000000E+00 -0.13507346869E+02  0.13566920043E+02  0.12700000000E+01 0. -1.
         25    2    1    2    0    0  0.00000000000E+00  0.00000000000E+00  0.27495808466E+03  0.30203514721E+03  0.12499312714E+03 0.  0.
    9000005    1    3    3    0    0 -0.23038682752E+02  0.19389429304E+02  0.51687426111E+01  0.30568722117E+02  0.10000000000E+01 0.  0.
    9000005    1    3    3    0    0  0.23038682752E+02 -0.19389429304E+02  0.26978934205E+03  0.27146642509E+03  0.10000000000E+01 0.  0.
<mgrwt>
<rscale>  0 0.12499313E+03</rscale>
<asrwt>0</asrwt>
<pdfrwt beam="2">  1        4 0.20828510E-02 0.12499313E+03</pdfrwt>
<pdfrwt beam="1">  1       -4 0.44384093E-01 0.12499313E+03</pdfrwt>
<totfact> 0.75355756E+03</totfact>
</mgrwt>
</event>
<event>
 5    1  0.3486294E-002  0.1250084E+03  0.7818608E-02  0.1235056E+00
          4   -1    0    0  501    0  0.00000000000E+00  0.00000000000E+00  0.60963368318E+01  0.62272162936E+01  0.12700000000E+01 0. -1.
         -4   -1    0    0    0  501 -0.00000000000E+00 -0.00000000000E+00 -0.63390235611E+03  0.63390362831E+03  0.12700000000E+01 0. -1.
         25    2    1    2    0    0  0.00000000000E+00  0.00000000000E+00 -0.62780601928E+03  0.64013084460E+03  0.12500840119E+03 0.  0.
    9000005    1    3    3    0    0 -0.19993452830E+02  0.58968429432E+02 -0.28644092162E+03  0.29313207843E+03  0.10000000000E+01 0.  0.
    9000005    1    3    3    0    0  0.19993452830E+02 -0.58968429432E+02 -0.34136509765E+03  0.34699876617E+03  0.10000000000E+01 0.  0.
<mgrwt>
<rscale>  0 0.12500840E+03</rscale>
<asrwt>0</asrwt>
<pdfrwt beam="1">  1        4 0.94806399E-03 0.12500840E+03</pdfrwt>
<pdfrwt beam="2">  1       -4 0.97533553E-01 0.12500840E+03</pdfrwt>
<totfact> 0.46420034E+03</totfact>
</mgrwt>
</event>
<event>
 5    1  0.3486294E-002  0.1250007E+03  0.7818608E-02  0.1235068E+00
          4   -1    0    0  501    0  0.00000000000E+00  0.00000000000E+00  0.23965045602E+02  0.23998673103E+02  0.12700000000E+01 0. -1.
         -4   -1    0    0    0  501 -0.00000000000E+00 -0.00000000000E+00 -0.16284930230E+03  0.16285425435E+03  0.12700000000E+01 0. -1.
         25    2    1    2    0    0  0.00000000000E+00  0.00000000000E+00 -0.13888425670E+03  0.18685292745E+03  0.12500071895E+03 0.  0.
    9000005    1    3    3    0    0  0.45972153724E+02 -0.81984397851E+01 -0.73642558695E+01  0.47285151977E+02  0.10000000000E+01 0.  0.
    9000005    1    3    3    0    0 -0.45972153724E+02  0.81984397851E+01 -0.13152000083E+03  0.13956777547E+03  0.10000000000E+01 0.  0.
<mgrwt>
<rscale>  0 0.12500072E+03</rscale>
<asrwt>0</asrwt>
<pdfrwt beam="1">  1        4 0.36898979E-02 0.12500072E+03</pdfrwt>
<pdfrwt beam="2">  1       -4 0.25056706E-01 0.12500072E+03</pdfrwt>
<totfact> 0.92396308E+03</totfact>
</mgrwt>
</event>
<event>
 5    1  0.3486294E-002  0.1250002E+03  0.7818608E-02  0.1235069E+00
          4   -1    0    0  501    0  0.00000000000E+00  0.00000000000E+00  0.53155706067E+02  0.53170875369E+02  0.12700000000E+01 0.  1.
         -4   -1    0    0    0  501 -0.00000000000E+00 -0.00000000000E+00 -0.73456003122E+02  0.73466980982E+02  0.12700000000E+01 0.  1.
         25    2    1    2    0    0  0.00000000000E+00  0.00000000000E+00 -0.20300297054E+02  0.12663785635E+03  0.12500017840E+03 0.  0.
    9000005    1    3    3    0    0 -0.16497984234E+02 -0.53141970369E+02 -0.38965870195E+02  0.67938144945E+02  0.10000000000E+01 0.  0.
    9000005    1    3    3    0    0  0.16497984234E+02  0.53141970369E+02  0.18665573141E+02  0.58699711406E+02  0.10000000000E+01 0.  0.
<mgrwt>
<rscale>  0 0.12500018E+03</rscale>
<asrwt>0</asrwt>
<pdfrwt beam="1">  1        4 0.81798122E-02 0.12500018E+03</pdfrwt>
<pdfrwt beam="2">  1       -4 0.11302935E-01 0.12500018E+03</pdfrwt>
<totfact> 0.10416982E+04</totfact>
</mgrwt>
</event>
<event>
 5    1  0.3486294E-002  0.1250016E+03  0.7818608E-02  0.1235067E+00
         -4   -1    0    0    0  501 -0.00000000000E+00  0.00000000000E+00  0.18059434929E+03  0.18059881477E+03  0.12700000000E+01 0.  1.
          4   -1    0    0  501    0  0.00000000000E+00 -0.00000000000E+00 -0.21607130916E+02  0.21644422063E+02  0.12700000000E+01 0.  1.
         25    2    1    2    0    0  0.00000000000E+00  0.00000000000E+00  0.15898721838E+03  0.20224323683E+03  0.12500156494E+03 0.  0.
    9000005    1    3    3    0    0  0.41545179291E+02  0.26619832057E+02  0.17445993690E+02  0.52344819007E+02  0.10000000000E+01 0.  0.
    9000005    1    3    3    0    0 -0.41545179291E+02 -0.26619832057E+02  0.14154122469E+03  0.14989841783E+03  0.10000000000E+01 0.  0.
<mgrwt>
<rscale>  0 0.12500156E+03</rscale>
<asrwt>0</asrwt>
<pdfrwt beam="2">  1        4 0.33273862E-02 0.12500156E+03</pdfrwt>
<pdfrwt beam="1">  1       -4 0.27786957E-01 0.12500156E+03</pdfrwt>
<totfact> 0.89755399E+03</totfact>
</mgrwt>
</event>
<event>
 5    1  0.3486294E-002  0.1249983E+03  0.7818608E-02  0.1235072E+00
          4   -1    0    0  501    0  0.00000000000E+00  0.00000000000E+00  0.38950856304E+02  0.38971555099E+02  0.12700000000E+01 0. -1.
         -4   -1    0    0    0  501 -0.00000000000E+00 -0.00000000000E+00 -0.10023261142E+03  0.10024065688E+03  0.12700000000E+01 0. -1.
         25    2    1    2    0    0  0.00000000000E+00  0.00000000000E+00 -0.61281755114E+02  0.13921221198E+03  0.12499834581E+03 0.  0.
    9000005    1    3    3    0    0 -0.26643592262E+02 -0.47308369838E+02  0.38155879847E+01  0.54438236351E+02  0.10000000000E+01 0.  0.
    9000005    1    3    3    0    0  0.26643592262E+02  0.47308369838E+02 -0.65097343098E+02  0.84773975628E+02  0.10000000000E+01 0.  0.
<mgrwt>
<rscale>  0 0.12499835E+03</rscale>
<asrwt>0</asrwt>
<pdfrwt beam="1">  1        4 0.59946506E-02 0.12499835E+03</pdfrwt>
<pdfrwt beam="2">  1       -4 0.15422613E-01 0.12499835E+03</pdfrwt>
<totfact> 0.10150317E+04</totfact>
</mgrwt>
</event>
<event>
 5    1  0.3486294E-002  0.1250055E+03  0.7818608E-02  0.1235061E+00
          4   -1    0    0  501    0  0.00000000000E+00  0.00000000000E+00  0.15529282198E+03  0.15529801499E+03  0.12700000000E+01 0.  1.
         -4   -1    0    0    0  501 -0.00000000000E+00 -0.00000000000E+00 -0.25134665967E+02  0.25166730683E+02  0.12700000000E+01 0.  1.
         25    2    1    2    0    0  0.00000000000E+00  0.00000000000E+00  0.13015815602E+03  0.18046474567E+03  0.12500551529E+03 0.  0.
    9000005    1    3    3    0    0  0.16447158685E+02  0.34235912822E+02 -0.65673170376E+01  0.38558221026E+02  0.10000000000E+01 0.  0.
    9000005    1    3    3    0    0 -0.16447158685E+02 -0.34235912822E+02  0.13672547305E+03  0.14190652465E+03  0.10000000000E+01 0.  0.
<mgrwt>
<rscale>  0 0.12500552E+03</rscale>
<asrwt>0</asrwt>
<pdfrwt beam="1">  1        4 0.23894070E-01 0.12500552E+03</pdfrwt>
<pdfrwt beam="2">  1       -4 0.38697376E-02 0.12500552E+03</pdfrwt>
<totfact> 0.93521849E+03</totfact>
</mgrwt>
</event>
<event>
 4    1  0.3486294E-002  0.1247962E+03  0.7818608E-02  0.1235388E+00
          4   -1    0    0  501    0  0.00000000000E+00  0.00000000000E+00  0.14106580400E+04  0.14106586117E+04  0.12700000000E+01 0. -1.
         -4   -1    0    0    0  501 -0.00000000000E+00 -0.00000000000E+00 -0.26133788237E+01  0.29056236639E+01  0.12700000000E+01 0. -1.
    9000005    1    1    2    0    0 -0.89691653916E+01  0.28570591422E+02  0.13239919660E+04  0.13243309446E+04  0.10000000000E+01 0.  0.
    9000005    1    1    2    0    0  0.89691653916E+01 -0.28570591422E+02  0.84052695110E+02  0.89233290745E+02  0.10000000000E+01 0.  0.
<mgrwt>
<rscale>  0 0.12479615E+03</rscale>
<asrwt>0</asrwt>
<pdfrwt beam="1">  1        4 0.21704655E+00 0.12479615E+03</pdfrwt>
<pdfrwt beam="2">  1       -4 0.42458320E-03 0.12479615E+03</pdfrwt>
<totfact> 0.19779674E+03</totfact>
</mgrwt>
</event>
<event>
 5    1  0.3486294E-002  0.1250010E+03  0.7818608E-02  0.1235068E+00
         -4   -1    0    0    0  501 -0.00000000000E+00  0.00000000000E+00  0.14815243979E+04  0.14815249423E+04  0.12700000000E+01 0. -1.
          4   -1    0    0  501    0  0.00000000000E+00 -0.00000000000E+00 -0.24831803484E+01  0.27891010456E+01  0.12700000000E+01 0. -1.
         25    2    1    2    0    0  0.00000000000E+00  0.00000000000E+00  0.14790412176E+04  0.14843140433E+04  0.12500102349E+03 0.  0.
    9000005    1    3    3    0    0 -0.79598523120E+00  0.25366161597E+02  0.61405393161E+02  0.66450719002E+02  0.10000000000E+01 0.  0.
    9000005    1    3    3    0    0  0.79598523120E+00 -0.25366161597E+02  0.14176358244E+04  0.14178633243E+04  0.10000000000E+01 0.  0.
<mgrwt>
<rscale>  0 0.12500102E+03</rscale>
<asrwt>0</asrwt>
<pdfrwt beam="2">  1        4 0.40560094E-03 0.12500102E+03</pdfrwt>
<pdfrwt beam="1">  1       -4 0.22795099E+00 0.12500102E+03</pdfrwt>
<totfact> 0.18240195E+03</totfact>
</mgrwt>
</event>
<event>
 5    1  0.3486294E-002  0.1249987E+03  0.7818608E-02  0.1235071E+00
         -4   -1    0    0    0  501 -0.00000000000E+00  0.00000000000E+00  0.11012699195E+02  0.11085686427E+02  0.12700000000E+01 0. -1.
          4   -1    0    0  501    0  0.00000000000E+00 -0.00000000000E+00 -0.35345138823E+03  0.35345366987E+03  0.12700000000E+01 0. -1.
         25    2    1    2    0    0  0.00000000000E+00  0.00000000000E+00 -0.34243868904E+03  0.36453935630E+03  0.12499874615E+03 0.  0.
    9000005    1    3    3    0    0 -0.31548333900E+02  0.36412568212E+02 -0.55150346248E+02  0.73237512157E+02  0.10000000000E+01 0.  0.
    9000005    1    3    3    0    0  0.31548333900E+02 -0.36412568212E+02 -0.28728834279E+03  0.29130184414E+03  0.10000000000E+01 0.  0.
<mgrwt>
<rscale>  0 0.12499875E+03</rscale>
<asrwt>0</asrwt>
<pdfrwt beam="2">  1        4 0.54382918E-01 0.12499875E+03</pdfrwt>
<pdfrwt beam="1">  1       -4 0.17000516E-02 0.12499875E+03</pdfrwt>
<totfact> 0.68156012E+03</totfact>
</mgrwt>
</event>
<event>
 5    1  0.3486294E-002  0.1250058E+03  0.7818608E-02  0.1235060E+00
          4   -1    0    0  501    0  0.00000000000E+00  0.00000000000E+00  0.48737692355E+02  0.48754236288E+02  0.12700000000E+01 0. -1.
         -4   -1    0    0    0  501 -0.00000000000E+00 -0.00000000000E+00 -0.80120697400E+02  0.80130762207E+02  0.12700000000E+01 0. -1.
         25    2    1    2    0    0  0.00000000000E+00  0.00000000000E+00 -0.31383005045E+02  0.12888499849E+03  0.12500579919E+03 0.  0.
    9000005    1    3    3    0    0 -0.25197345311E+02  0.56765882495E+02 -0.85229863572E+01  0.62696992931E+02  0.10000000000E+01 0.  0.
    9000005    1    3    3    0    0  0.25197345311E+02 -0.56765882495E+02 -0.22860018688E+02  0.66188005564E+02  0.10000000000E+01 0.  0.
<mgrwt>
<rscale>  0 0.12500580E+03</rscale>
<asrwt>0</asrwt>
<pdfrwt beam="1">  1        4 0.75001533E-02 0.12500580E+03</pdfrwt>
<pdfrwt beam="2">  1       -4 0.12328308E-01 0.12500580E+03</pdfrwt>
<totfact> 0.10367061E+04</totfact>
</mgrwt>
</event>
<event>
 5    1  0.3486294E-002  0.1250004E+03  0.7818608E-02  0.1235069E+00
          4   -1    0    0  501    0  0.00000000000E+00  0.00000000000E+00  0.71251901977E+02  0.71263219373E+02  0.12700000000E+01 0. -1.
         -4   -1    0    0    0  501 -0.00000000000E+00 -0.00000000000E+00 -0.54800416831E+02  0.54815130984E+02  0.12700000000E+01 0. -1.
         25    2    1    2    0    0  0.00000000000E+00  0.00000000000E+00  0.16451485147E+02  0.12607835036E+03  0.12500039626E+03 0.  0.
    9000005    1    3    3    0    0  0.90519851549E+01 -0.96507618225E+01  0.69827788484E+02  0.71077392211E+02  0.10000000000E+01 0.  0.
    9000005    1    3    3    0    0 -0.90519851549E+01  0.96507618225E+01 -0.53376303337E+02  0.55000958146E+02  0.10000000000E+01 0.  0.
<mgrwt>
<rscale>  0 0.12500040E+03</rscale>
<asrwt>0</asrwt>
<pdfrwt beam="1">  1        4 0.10963833E-01 0.12500040E+03</pdfrwt>
<pdfrwt beam="2">  1       -4 0.84328358E-02 0.12500040E+03</pdfrwt>
<totfact> 0.10429147E+04</totfact>
</mgrwt>
</event>
<event>
 5    1  0.3486294E-002  0.1250102E+03  0.7818608E-02  0.1235053E+00
         -4   -1    0    0    0  501 -0.00000000000E+00  0.00000000000E+00  0.22334390773E+01  0.25692703462E+01  0.12700000000E+01 0.  1.
          4   -1    0    0  501    0  0.00000000000E+00 -0.00000000000E+00 -0.16266141600E+04  0.16266146558E+04  0.12700000000E+01 0.  1.
         25    2    1    2    0    0  0.00000000000E+00  0.00000000000E+00 -0.16243807210E+04  0.16291839262E+04  0.12501015422E+03 0.  0.
    9000005    1    3    3    0    0 -0.60231158420E+02 -0.88181534334E+01 -0.62773112192E+03  0.63067655237E+03  0.10000000000E+01 0.  0.
    9000005    1    3    3    0    0  0.60231158420E+02  0.88181534334E+01 -0.99664959903E+03  0.99850737380E+03  0.10000000000E+01 0.  0.
<mgrwt>
<rscale>  0 0.12501015E+03</rscale>
<asrwt>0</asrwt>
<pdfrwt beam="2">  1        4 0.25027332E+00 0.12501015E+03</pdfrwt>
<pdfrwt beam="1">  1       -4 0.36947862E-03 0.12501015E+03</pdfrwt>
<totfact> 0.15520964E+03</totfact>
</mgrwt>
</event>
<event>
 5    1  0.3486294E-002  0.1249787E+03  0.7818608E-02  0.1235103E+00
          4   -1    0    0  501    0  0.00000000000E+00  0.00000000000E+00  0.27356245266E+02  0.27385708956E+02  0.12700000000E+01 0. -1.
         -4   -1    0    0    0  501 -0.00000000000E+00 -0.00000000000E+00 -0.14263401225E+03  0.14263966612E+03  0.12700000000E+01 0. -1.
         25    2    1    2    0    0  0.00000000000E+00  0.00000000000E+00 -0.11527776698E+03  0.17002537507E+03  0.12497865661E+03 0.  0.
    9000005    1    3    3    0    0 -0.11498955195E+02 -0.26936565927E+02 -0.13272347018E+03  0.13592028580E+03  0.10000000000E+01 0.  0.
    9000005    1    3    3    0    0  0.11498955195E+02  0.26936565927E+02  0.17445703198E+02  0.34105089277E+02  0.10000000000E+01 0.  0.
<mgrwt>
<rscale>  0 0.12497866E+03</rscale>
<asrwt>0</asrwt>
<pdfrwt beam="1">  1        4 0.42113545E-02 0.12497866E+03</pdfrwt>
<pdfrwt beam="2">  1       -4 0.21946395E-01 0.12497866E+03</pdfrwt>
<totfact> 0.95489644E+03</totfact>
</mgrwt>
</event>
<event>
 4    1  0.3486294E-002  0.1253550E+03  0.7818608E-02  0.1234516E+00
         -4   -1    0    0    0  501 -0.00000000000E+00  0.00000000000E+00  0.70490093666E+02  0.70501533353E+02  0.12700000000E+01 0. -1.
          4   -1    0    0  501    0  0.00000000000E+00 -0.00000000000E+00 -0.55707578318E+02  0.55722052923E+02  0.12700000000E+01 0. -1.
    9000005    1    1    2    0    0 -0.16382210964E+02  0.60446281869E+02  0.97176596565E+01  0.63384246758E+02  0.10000000000E+01 0.  0.
    9000005    1    1    2    0    0  0.16382210964E+02 -0.60446281869E+02  0.50648556924E+01  0.62839339518E+02  0.10000000000E+01 0.  0.
<mgrwt>
<rscale>  0 0.12535498E+03</rscale>
<asrwt>0</asrwt>
<pdfrwt beam="2">  1        4 0.85723901E-02 0.12535498E+03</pdfrwt>
<pdfrwt beam="1">  1       -4 0.10846623E-01 0.12535498E+03</pdfrwt>
<totfact> 0.10342981E+04</totfact>
</mgrwt>
</event>
<event>
 5    1  0.3486294E-002  0.1250078E+03  0.7818608E-02  0.1235057E+00
          4   -1    0    0  501    0  0.00000000000E+00  0.00000000000E+00  0.89398022731E+01  0.90295606030E+01  0.12700000000E+01 0.  1.
         -4   -1    0    0    0  501 -0.00000000000E+00 -0.00000000000E+00 -0.43473164440E+03  0.43473349945E+03  0.12700000000E+01 0.  1.
         25    2    1    2    0    0  0.00000000000E+00  0.00000000000E+00 -0.42579184213E+03  0.44376306005E+03  0.12500784233E+03 0.  0.
    9000005    1    3    3    0    0 -0.48122102407E+02 -0.39803137368E+02 -0.22138130933E+03  0.23002328274E+03  0.10000000000E+01 0.  0.
    9000005    1    3    3    0    0  0.48122102407E+02  0.39803137368E+02 -0.20441053280E+03  0.21373977731E+03  0.10000000000E+01 0.  0.
<mgrwt>
<rscale>  0 0.12500784E+03</rscale>
<asrwt>0</asrwt>
<pdfrwt beam="1">  1        4 0.13824017E-02 0.12500784E+03</pdfrwt>
<pdfrwt beam="2">  1       -4 0.66888822E-01 0.12500784E+03</pdfrwt>
<totfact> 0.60497488E+03</totfact>
</mgrwt>
</event>
<event>
 5    1  0.3486294E-002  0.1249944E+03  0.7818608E-02  0.1235078E+00
         -4   -1    0    0    0  501 -0.00000000000E+00  0.00000000000E+00  0.24143048403E+01  0.27279603849E+01  0.12700000000E+01 0. -1.
          4   -1    0    0  501    0  0.00000000000E+00 -0.00000000000E+00 -0.15188210643E+04  0.15188215953E+04  0.12700000000E+01 0. -1.
         25    2    1    2    0    0  0.00000000000E+00  0.00000000000E+00 -0.15164067595E+04  0.15215495557E+04  0.12499436060E+03 0.  0.
    9000005    1    3    3    0    0  0.40530783073E+02 -0.28113770764E+02 -0.12252019135E+04  0.12261948692E+04  0.10000000000E+01 0.  0.
    9000005    1    3    3    0    0 -0.40530783073E+02  0.28113770764E+02 -0.29120484598E+03  0.29535468645E+03  0.10000000000E+01 0.  0.
<mgrwt>
<rscale>  0 0.12499436E+03</rscale>
<asrwt>0</asrwt>
<pdfrwt beam="2">  1        4 0.23368823E+00 0.12499436E+03</pdfrwt>
<pdfrwt beam="1">  1       -4 0.39560092E-03 0.12499436E+03</pdfrwt>
<totfact> 0.17512907E+03</totfact>
</mgrwt>
</event>
<event>
 5    1  0.3486294E-002  0.1250084E+03  0.7818608E-02  0.1235056E+00
          4   -1    0    0  501    0  0.00000000000E+00  0.00000000000E+00  0.88173318116E+03  0.88173409578E+03  0.12700000000E+01 0.  1.
         -4   -1    0    0    0  501 -0.00000000000E+00 -0.00000000000E+00 -0.43388499645E+01  0.45208980319E+01  0.12700000000E+01 0.  1.
         25    2    1    2    0    0  0.00000000000E+00  0.00000000000E+00  0.87739433120E+03  0.88625499381E+03  0.12500840628E+03 0.  0.
    9000005    1    3    3    0    0 -0.30158385160E+02  0.54241564202E+02  0.49084278353E+03  0.49475176970E+03  0.10000000000E+01 0.  0.
    9000005    1    3    3    0    0  0.30158385160E+02 -0.54241564202E+02  0.38655154767E+03  0.39150322411E+03  0.10000000000E+01 0.  0.
<mgrwt>
<rscale>  0 0.12500841E+03</rscale>
<asrwt>0</asrwt>
<pdfrwt beam="1">  1        4 0.13566518E+00 0.12500841E+03</pdfrwt>
<pdfrwt beam="2">  1       -4 0.68159020E-03 0.12500841E+03</pdfrwt>
<totfact> 0.34681538E+03</totfact>
</mgrwt>
</event>
<event>
 5    1  0.3486294E-002  0.1250007E+03  0.7818608E-02  0.1235068E+00
          4   -1    0    0  501    0  0.00000000000E+00  0.00000000000E+00  0.14551192823E+02  0.14606509254E+02  0.12700000000E+01 0. -1.
         -4   -1    0    0    0  501 -0.00000000000E+00 -0.00000000000E+00 -0.26788548145E+03  0.26788849186E+03  0.12700000000E+01 0. -1.
         25    2    1    2    0    0  0.00000000000E+00  0.00000000000E+00 -0.25333428863E+03  0.28249500112E+03  0.12500065544E+03 0.  0.
    9000005    1    3    3    0    0  0.57682815063E+02  0.16392090317E+02 -0.16641160724E+03  0.17688931795E+03  0.10000000000E+01 0.  0.
    9000005    1    3    3    0    0 -0.57682815063E+02 -0.16392090317E+02 -0.86922681387E+02  0.10560568317E+03  0.10000000000E+01 0.  0.
<mgrwt>
<rscale>  0 0.12500066E+03</rscale>
<asrwt>0</asrwt>
<pdfrwt beam="1">  1        4 0.22431319E-02 0.12500066E+03</pdfrwt>
<pdfrwt beam="2">  1       -4 0.41217634E-01 0.12500066E+03</pdfrwt>
<totfact> 0.77847313E+03</totfact>
</mgrwt>
</event>
<event>
 5    1  0.3486294E-002  0.1249968E+03  0.7818608E-02  0.1235074E+00
         -4   -1    0    0    0  501 -0.00000000000E+00  0.00000000000E+00  0.73625907594E+03  0.73626017127E+03  0.12700000000E+01 0. -1.
          4   -1    0    0  501    0  0.00000000000E+00 -0.00000000000E+00 -0.52281457429E+01  0.53801866054E+01  0.12700000000E+01 0. -1.
         25    2    1    2    0    0  0.00000000000E+00  0.00000000000E+00  0.73103093020E+03  0.74164035788E+03  0.12499679808E+03 0.  0.
    9000005    1    3    3    0    0  0.33586060502E+01 -0.32964725411E+01  0.73523528483E+03  0.73525102586E+03  0.10000000000E+01 0.  0.
    9000005    1    3    3    0    0 -0.33586060502E+01  0.32964725411E+01 -0.42043546322E+01  0.63893320221E+01  0.10000000000E+01 0.  0.
<mgrwt>
<rscale>  0 0.12499680E+03</rscale>
<asrwt>0</asrwt>
<pdfrwt beam="2">  1        4 0.81610947E-03 0.12499680E+03</pdfrwt>
<pdfrwt beam="1">  1       -4 0.11328246E+00 0.12499680E+03</pdfrwt>
<totfact> 0.40980058E+03</totfact>
</mgrwt>
</event>
<event>
 5    1  0.3486294E-002  0.1250006E+03  0.7818608E-02  0.1235068E+00
          4   -1    0    0  501    0  0.00000000000E+00  0.00000000000E+00  0.40669205619E+02  0.40689030286E+02  0.12700000000E+01 0.  1.
         -4   -1    0    0    0  501 -0.00000000000E+00 -0.00000000000E+00 -0.96002892128E+02  0.96011292028E+02  0.12700000000E+01 0.  1.
         25    2    1    2    0    0  0.00000000000E+00  0.00000000000E+00 -0.55333686509E+02  0.13670032231E+03  0.12500064503E+03 0.  0.
    9000005    1    3    3    0    0 -0.60435323184E+02 -0.26951107109E+01 -0.44805234583E+02  0.75287455503E+02  0.10000000000E+01 0.  0.
    9000005    1    3    3    0    0  0.60435323184E+02  0.26951107109E+01 -0.10528451927E+02  0.61412866812E+02  0.10000000000E+01 0.  0.
<mgrwt>
<rscale>  0 0.12500065E+03</rscale>
<asrwt>0</asrwt>
<pdfrwt beam="1">  1        4 0.62589720E-02 0.12500065E+03</pdfrwt>
<pdfrwt beam="2">  1       -4 0.14771847E-01 0.12500065E+03</pdfrwt>
<totfact> 0.10202207E+04</totfact>
</mgrwt>
</event>
<event>
 5    1  0.3486294E-002  0.1250002E+03  0.7818608E-02  0.1235069E+00
          4   -1    0    0  501    0  0.00000000000E+00  0.00000000000E+00  0.99086058180E+02  0.99094196731E+02  0.12700000000E+01 0.  1.
         -4   -1    0    0    0  501 -0.00000000000E+00 -0.00000000000E+00 -0.39402915533E+02  0.39423376980E+02  0.12700000000E+01 0.  1.
         25    2    1    2    0    0  0.00000000000E+00  0.00000000000E+00  0.59683142647E+02  0.13851757371E+03  0.12500016284E+03 0.  0.
    9000005    1    3    3    0    0 -0.12959063757E+02  0.49932642259E+02 -0.92437716435E+01  0.52418063781E+02  0.10000000000E+01 0.  0.
    9000005    1    3    3    0    0  0.12959063757E+02 -0.49932642259E+02  0.68926914291E+02  0.86099509929E+02  0.10000000000E+01 0.  0.
<mgrwt>
<rscale>  0 0.12500016E+03</rscale>
<asrwt>0</asrwt>
<pdfrwt beam="1">  1        4 0.15246209E-01 0.12500016E+03</pdfrwt>
<pdfrwt beam="2">  1       -4 0.60641871E-02 0.12500016E+03</pdfrwt>
<totfact> 0.10164365E+04</totfact>
</mgrwt>
</event>
<event>
 5    1  0.3486294E-002  0.1249851E+03  0.7818608E-02  0.1235093E+00
          4   -1    0    0  501    0  0.00000000000E+00  0.00000000000E+00  0.23891061666E+02  0.23924793155E+02  0.12700000000E+01 0.  1.
         -4   -1    0    0    0  501 -0.00000000000E+00 -0.00000000000E+00 -0.16331199881E+03  0.16331693683E+03  0.12700000000E+01 0.  1.
         25    2    1    2    0    0  0.00000000000E+00  0.00000000000E+00 -0.13942093714E+03  0.18724172998E+03  0.12498507004E+03 0.  0.
    9000005    1    3    3    0    0 -0.19023730382E+02 -0.59489590037E+02 -0.66946747754E+02  0.91562987474E+02  0.10000000000E+01 0.  0.
    9000005    1    3    3    0    0  0.19023730382E+02  0.59489590037E+02 -0.72474189389E+02  0.95678742509E+02  0.10000000000E+01 0.  0.
<mgrwt>
<rscale>  0 0.12498507E+03</rscale>
<asrwt>0</asrwt>
<pdfrwt beam="1">  1        4 0.36785226E-02 0.12498507E+03</pdfrwt>
<pdfrwt beam="2">  1       -4 0.25127897E-01 0.12498507E+03</pdfrwt>
<totfact> 0.92360364E+03</totfact>
</mgrwt>
</event>
<event>
 5    1  0.3486294E-002  0.1250006E+03  0.7818608E-02  0.1235068E+00
          4   -1    0    0  501    0  0.00000000000E+00  0.00000000000E+00  0.11343968419E+03  0.11344679303E+03  0.12700000000E+01 0.  1.
         -4   -1    0    0    0  501 -0.00000000000E+00 -0.00000000000E+00 -0.34415047025E+02  0.34438472116E+02  0.12700000000E+01 0.  1.
         25    2    1    2    0    0  0.00000000000E+00  0.00000000000E+00  0.79024637166E+02  0.14788526515E+03  0.12500063347E+03 0.  0.
    9000005    1    3    3    0    0  0.46240319190E+02 -0.35065517877E+02  0.12083012321E+02  0.59285384789E+02  0.10000000000E+01 0.  0.
    9000005    1    3    3    0    0 -0.46240319190E+02  0.35065517877E+02  0.66941624844E+02  0.88599880359E+02  0.10000000000E+01 0.  0.
<mgrwt>
<rscale>  0 0.12500063E+03</rscale>
<asrwt>0</asrwt>
<pdfrwt beam="1">  1        4 0.17454608E-01 0.12500063E+03</pdfrwt>
<pdfrwt beam="2">  1       -4 0.52969714E-02 0.12500063E+03</pdfrwt>
<totfact> 0.99725499E+03</totfact>
</mgrwt>
</event>
<event>
 5    1  0.3486294E-002  0.1249921E+03  0.7818608E-02  0.1235082E+00
         -4   -1    0    0    0  501 -0.00000000000E+00  0.00000000000E+00  0.10410619029E+02  0.10487797126E+02  0.12700000000E+01 0. -1.
          4   -1    0    0  501    0  0.00000000000E+00 -0.00000000000E+00 -0.37370641253E+03  0.37370857051E+03  0.12700000000E+01 0. -1.
         25    2    1    2    0    0  0.00000000000E+00  0.00000000000E+00 -0.36329579351E+03  0.38419636763E+03  0.12499206104E+03 0.  0.
    9000005    1    3    3    0    0  0.57463306639E+02 -0.24190109802E+02 -0.19452870388E+03  0.20427826526E+03  0.10000000000E+01 0.  0.
    9000005    1    3    3    0    0 -0.57463306639E+02  0.24190109802E+02 -0.16876708962E+03  0.17991810237E+03  0.10000000000E+01 0.  0.
<mgrwt>
<rscale>  0 0.12499206E+03</rscale>
<asrwt>0</asrwt>
<pdfrwt beam="2">  1        4 0.57499387E-01 0.12499206E+03</pdfrwt>
<pdfrwt beam="1">  1       -4 0.16077368E-02 0.12499206E+03</pdfrwt>
<totfact> 0.66131015E+03</totfact>
</mgrwt>
</event>
<event>
 5    1  0.3486294E-002  0.1249995E+03  0.7818608E-02  0.1235070E+00
          4   -1    0    0  501    0  0.00000000000E+00  0.00000000000E+00  0.15648011792E+02  0.15699464100E+02  0.12700000000E+01 0. -1.
         -4   -1    0    0    0  501 -0.00000000000E+00 -0.00000000000E+00 -0.24916741442E+03  0.24917065097E+03  0.12700000000E+01 0. -1.
         25    2    1    2    0    0  0.00000000000E+00  0.00000000000E+00 -0.23351940262E+03  0.26487011508E+03  0.12499946583E+03 0.  0.
    9000005    1    3    3    0    0 -0.17503800451E+02 -0.38901881926E+02 -0.19992646586E+02  0.47121601895E+02  0.10000000000E+01 0.  0.
    9000005    1    3    3    0    0  0.17503800451E+02  0.38901881926E+02 -0.21352675604E+03  0.21774851318E+03  0.10000000000E+01 0.  0.
<mgrwt>
<rscale>  0 0.12499947E+03</rscale>
<asrwt>0</asrwt>
<pdfrwt beam="1">  1        4 0.24115934E-02 0.12499947E+03</pdfrwt>
<pdfrwt beam="2">  1       -4 0.38337652E-01 0.12499947E+03</pdfrwt>
<totfact> 0.80228385E+03</totfact>
</mgrwt>
</event>
<event>
 5    1  0.3486294E-002  0.1250263E+03  0.7818608E-02  0.1235028E+00
         -4   -1    0    0    0  501 -0.00000000000E+00  0.00000000000E+00  0.22428268734E+02  0.22464196812E+02  0.12700000000E+01 0.  1.
          4   -1    0    0  501    0  0.00000000000E+00 -0.00000000000E+00 -0.17406209287E+03  0.17406672593E+03  0.12700000000E+01 0.  1.
         25    2    1    2    0    0  0.00000000000E+00  0.00000000000E+00 -0.15163382414E+03  0.19653092274E+03  0.12502634510E+03 0.  0.
    9000005    1    3    3    0    0  0.21784433948E+02 -0.21747426799E+02  0.96956784026E+01  0.32288052194E+02  0.10000000000E+01 0.  0.
    9000005    1    3    3    0    0 -0.21784433948E+02  0.21747426799E+02 -0.16132950254E+03  0.16424287055E+03  0.10000000000E+01 0.  0.
<mgrwt>
<rscale>  0 0.12502635E+03</rscale>
<asrwt>0</asrwt>
<pdfrwt beam="2">  1        4 0.26781903E-01 0.12502635E+03</pdfrwt>
<pdfrwt beam="1">  1       -4 0.34536231E-02 0.12502635E+03</pdfrwt>
<totfact> 0.90669726E+03</totfact>
</mgrwt>
</event>
<event>
 5    1  0.3486294E-002  0.1249973E+03  0.7818608E-02  0.1235073E+00
          4   -1    0    0  501    0  0.00000000000E+00  0.00000000000E+00  0.29103156537E+03  0.29103433636E+03  0.12700000000E+01 0.  1.
         -4   -1    0    0    0  501 -0.00000000000E+00 -0.00000000000E+00 -0.13388619994E+02  0.13448719097E+02  0.12700000000E+01 0.  1.
         25    2    1    2    0    0  0.00000000000E+00  0.00000000000E+00  0.27764294537E+03  0.30448305546E+03  0.12499730375E+03 0.  0.
    9000005    1    3    3    0    0 -0.43369388116E+02 -0.41671299525E+02  0.18013741511E+03  0.18991547949E+03  0.10000000000E+01 0.  0.
    9000005    1    3    3    0    0  0.43369388116E+02  0.41671299525E+02  0.97505530266E+02  0.11456757596E+03  0.10000000000E+01 0.  0.
<mgrwt>
<rscale>  0 0.12499730E+03</rscale>
<asrwt>0</asrwt>
<pdfrwt beam="1">  1        4 0.44778919E-01 0.12499730E+03</pdfrwt>
<pdfrwt beam="2">  1       -4 0.20646241E-02 0.12499730E+03</pdfrwt>
<totfact> 0.75044404E+03</totfact>
</mgrwt>
</event>
<event>
 5    1  0.3486294E-002  0.1250020E+03  0.7818608E-02  0.1235066E+00
         -4   -1    0    0    0  501 -0.00000000000E+00  0.00000000000E+00  0.12960164997E+02  0.13022241617E+02  0.12700000000E+01 0.  1.
          4   -1    0    0  501    0  0.00000000000E+00 -0.00000000000E+00 -0.30063047983E+03  0.30063316235E+03  0.12700000000E+01 0.  1.
         25    2    1    2    0    0  0.00000000000E+00  0.00000000000E+00 -0.28767031483E+03  0.31365540396E+03  0.12500200958E+03 0.  0.
    9000005    1    3    3    0    0 -0.12914509701E+02 -0.29740163891E+02 -0.97837389466E+01  0.33881904563E+02  0.10000000000E+01 0.  0.
    9000005    1    3    3    0    0  0.12914509701E+02  0.29740163891E+02 -0.27788657589E+03  0.27977349940E+03  0.10000000000E+01 0.  0.
<mgrwt>
<rscale>  0 0.12500201E+03</rscale>
<asrwt>0</asrwt>
<pdfrwt beam="2">  1        4 0.46255819E-01 0.12500201E+03</pdfrwt>
<pdfrwt beam="1">  1       -4 0.19988532E-02 0.12500201E+03</pdfrwt>
<totfact> 0.73913848E+03</totfact>
</mgrwt>
</event>
<event>
 5    1  0.3486294E-002  0.1249943E+03  0.7818608E-02  0.1235078E+00
         -4   -1    0    0    0  501 -0.00000000000E+00  0.00000000000E+00  0.12425524923E+02  0.12490258989E+02  0.12700000000E+01 0.  1.
          4   -1    0    0  501    0  0.00000000000E+00 -0.00000000000E+00 -0.31346188741E+03  0.31346446012E+03  0.12700000000E+01 0.  1.
         25    2    1    2    0    0  0.00000000000E+00  0.00000000000E+00 -0.30103636249E+03  0.32595471911E+03  0.12499434935E+03 0.  0.
    9000005    1    3    3    0    0 -0.48620041968E+02  0.37107771400E+02 -0.11712244524E+03  0.13213463724E+03  0.10000000000E+01 0.  0.
    9000005    1    3    3    0    0  0.48620041968E+02 -0.37107771400E+02 -0.18391391725E+03  0.19382008187E+03  0.10000000000E+01 0.  0.
<mgrwt>
<rscale>  0 0.12499435E+03</rscale>
<asrwt>0</asrwt>
<pdfrwt beam="2">  1        4 0.48230077E-01 0.12499435E+03</pdfrwt>
<pdfrwt beam="1">  1       -4 0.19167969E-02 0.12499435E+03</pdfrwt>
<totfact> 0.72462519E+03</totfact>
</mgrwt>
</event>
<event>
 5    1  0.3486294E-002  0.1249968E+03  0.7818608E-02  0.1235074E+00
         -4   -1    0    0    0  501 -0.00000000000E+00  0.00000000000E+00  0.19516363946E+01  0.23284725931E+01  0.12700000000E+01 0. -1.
          4   -1    0    0  501    0  0.00000000000E+00 -0.00000000000E+00 -0.18248341763E+04  0.18248346183E+04  0.12700000000E+01 0. -1.
         25    2    1    2    0    0  0.00000000000E+00  0.00000000000E+00 -0.18228825400E+04  0.18271630909E+04  0.12499682467E+03 0.  0.
    9000005    1    3    3    0    0 -0.52918505902E+02 -0.12823136460E+02 -0.13596704313E+04  0.13607606265E+04  0.10000000000E+01 0.  0.
    9000005    1    3    3    0    0  0.52918505902E+02  0.12823136460E+02 -0.46321210869E+03  0.46640246433E+03  0.10000000000E+01 0.  0.
<mgrwt>
<rscale>  0 0.12499682E+03</rscale>
<asrwt>0</asrwt>
<pdfrwt beam="2">  1        4 0.28077150E+00 0.12499682E+03</pdfrwt>
<pdfrwt beam="1">  1       -4 0.32927461E-03 0.12499682E+03</pdfrwt>
<totfact> 0.12290620E+03</totfact>
</mgrwt>
</event>
<event>
 5    1  0.3486294E-002  0.1249990E+03  0.7818608E-02  0.1235071E+00
          4   -1    0    0  501    0  0.00000000000E+00  0.00000000000E+00  0.12756530126E+03  0.12757162296E+03  0.12700000000E+01 0. -1.
         -4   -1    0    0    0  501 -0.00000000000E+00 -0.00000000000E+00 -0.30600832290E+02  0.30627174810E+02  0.12700000000E+01 0. -1.
         25    2    1    2    0    0  0.00000000000E+00  0.00000000000E+00  0.96964468969E+02  0.15819879777E+03  0.12499900549E+03 0.  0.
    9000005    1    3    3    0    0  0.13238559495E+02 -0.18708562289E+02 -0.25096058569E+02  0.34001204627E+02  0.10000000000E+01 0.  0.
    9000005    1    3    3    0    0 -0.13238559495E+02  0.18708562289E+02  0.12206052754E+03  0.12419759315E+03  0.10000000000E+01 0.  0.
<mgrwt>
<rscale>  0 0.12499901E+03</rscale>
<asrwt>0</asrwt>
<pdfrwt beam="1">  1        4 0.19627943E-01 0.12499901E+03</pdfrwt>
<pdfrwt beam="2">  1       -4 0.47103330E-02 0.12499901E+03</pdfrwt>
<totfact> 0.97693355E+03</totfact>
</mgrwt>
</event>
<event>
 5    1  0.3486294E-002  0.1250001E+03  0.7818608E-02  0.1235069E+00
          4   -1    0    0  501    0  0.00000000000E+00  0.00000000000E+00  0.38084424502E+03  0.38084636255E+03  0.12700000000E+01 0. -1.
         -4   -1    0    0    0  501 -0.00000000000E+00 -0.00000000000E+00 -0.10215364012E+02  0.10294006115E+02  0.12700000000E+01 0. -1.
         25    2    1    2    0    0  0.00000000000E+00  0.00000000000E+00  0.37062888101E+03  0.39114036866E+03  0.12500008224E+03 0.  0.
    9000005    1    3    3    0    0 -0.34337376601E+01 -0.58494909949E+02  0.25328266994E+03  0.25997414475E+03  0.10000000000E+01 0.  0.
    9000005    1    3    3    0    0  0.34337376601E+01  0.58494909949E+02  0.11734621107E+03  0.13116622391E+03  0.10000000000E+01 0.  0.
<mgrwt>
<rscale>  0 0.12500008E+03</rscale>
<asrwt>0</asrwt>
<pdfrwt beam="1">  1        4 0.58597632E-01 0.12500008E+03</pdfrwt>
<pdfrwt beam="2">  1       -4 0.15778068E-02 0.12500008E+03</pdfrwt>
<totfact> 0.65423565E+03</totfact>
</mgrwt>
</event>
<event>
 5    1  0.3486294E-002  0.1250005E+03  0.7818608E-02  0.1235068E+00
          4   -1    0    0  501    0  0.00000000000E+00  0.00000000000E+00  0.74929257775E+01  0.75997918857E+01  0.12700000000E+01 0. -1.
         -4   -1    0    0    0  501 -0.00000000000E+00 -0.00000000000E+00 -0.51753040144E+03  0.51753195970E+03  0.12700000000E+01 0. -1.
         25    2    1    2    0    0  0.00000000000E+00  0.00000000000E+00 -0.51003747566E+03  0.52513175159E+03  0.12500051979E+03 0.  0.
    9000005    1    3    3    0    0 -0.52709824989E+02 -0.86166891150E+01 -0.39132340652E+03  0.39495263193E+03  0.10000000000E+01 0.  0.
    9000005    1    3    3    0    0  0.52709824989E+02  0.86166891150E+01 -0.11871406914E+03  0.13017911965E+03  0.10000000000E+01 0.  0.
<mgrwt>
<rscale>  0 0.12500052E+03</rscale>
<asrwt>0</asrwt>
<pdfrwt beam="1">  1        4 0.11610986E-02 0.12500052E+03</pdfrwt>
<pdfrwt beam="2">  1       -4 0.79628374E-01 0.12500052E+03</pdfrwt>
<totfact> 0.53965243E+03</totfact>
</mgrwt>
</event>
<event>
 5    1  0.3486294E-002  0.1250007E+03  0.7818608E-02  0.1235068E+00
          4   -1    0    0  501    0  0.00000000000E+00  0.00000000000E+00  0.59234215635E+02  0.59247828668E+02  0.12700000000E+01 0. -1.
         -4   -1    0    0    0  501 -0.00000000000E+00 -0.00000000000E+00 -0.65919244773E+02  0.65931477546E+02  0.12700000000E+01 0. -1.
         25    2    1    2    0    0  0.00000000000E+00  0.00000000000E+00 -0.66850291380E+01  0.12517930621E+03  0.12500067636E+03 0.  0.
    9000005    1    3    3    0    0  0.32376946670E+02 -0.45131403488E+02 -0.32022260421E+02  0.64121255594E+02  0.10000000000E+01 0.  0.
    9000005    1    3    3    0    0 -0.32376946670E+02  0.45131403488E+02  0.25337231283E+02  0.61058050620E+02  0.10000000000E+01 0.  0.
<mgrwt>
<rscale>  0 0.12500068E+03</rscale>
<asrwt>0</asrwt>
<pdfrwt beam="1">  1        4 0.91149444E-02 0.12500068E+03</pdfrwt>
<pdfrwt beam="2">  1       -4 0.10143410E-01 0.12500068E+03</pdfrwt>
<totfact> 0.10448810E+04</totfact>
</mgrwt>
</event>
<event>
 5    1  0.3486294E-002  0.1250003E+03  0.7818608E-02  0.1235069E+00
         -4   -1    0    0    0  501 -0.00000000000E+00  0.00000000000E+00  0.61695663810E+03  0.61695794524E+03  0.12700000000E+01 0.  1.
          4   -1    0    0  501    0  0.00000000000E+00 -0.00000000000E+00 -0.62665015195E+01  0.63938987554E+01  0.12700000000E+01 0.  1.
         25    2    1    2    0    0  0.00000000000E+00  0.00000000000E+00  0.61069013658E+03  0.62335184399E+03  0.12500031399E+03 0.  0.
    9000005    1    3    3    0    0  0.49358999912E+02 -0.38166013729E+02  0.28784562122E+03  0.29453192889E+03  0.10000000000E+01 0.  0.
    9000005    1    3    3    0    0 -0.49358999912E+02  0.38166013729E+02  0.32284451535E+03  0.32881991511E+03  0.10000000000E+01 0.  0.
<mgrwt>
<rscale>  0 0.12500031E+03</rscale>
<asrwt>0</asrwt>
<pdfrwt beam="2">  1        4 0.97397728E-03 0.12500031E+03</pdfrwt>
<pdfrwt beam="1">  1       -4 0.94926327E-01 0.12500031E+03</pdfrwt>
<totfact> 0.47425655E+03</totfact>
</mgrwt>
</event>
<event>
 5    1  0.3486294E-002  0.1249994E+03  0.7818608E-02  0.1235070E+00
         -4   -1    0    0    0  501 -0.00000000000E+00  0.00000000000E+00  0.37187259245E+02  0.37208939116E+02  0.12700000000E+01 0.  1.
          4   -1    0    0  501    0  0.00000000000E+00 -0.00000000000E+00 -0.10498549671E+03  0.10499317797E+03  0.12700000000E+01 0.  1.
         25    2    1    2    0    0  0.00000000000E+00  0.00000000000E+00 -0.67798237469E+02  0.14220211709E+03  0.12499936440E+03 0.  0.
    9000005    1    3    3    0    0  0.48207079399E+02 -0.33676534907E+02 -0.57955973413E+02  0.82570735505E+02  0.10000000000E+01 0.  0.
    9000005    1    3    3    0    0 -0.48207079399E+02  0.33676534907E+02 -0.98422640554E+01  0.59631381581E+02  0.10000000000E+01 0.  0.
<mgrwt>
<rscale>  0 0.12499936E+03</rscale>
<asrwt>0</asrwt>
<pdfrwt beam="2">  1        4 0.16153873E-01 0.12499936E+03</pdfrwt>
<pdfrwt beam="1">  1       -4 0.57233754E-02 0.12499936E+03</pdfrwt>
<totfact> 0.10088292E+04</totfact>
</mgrwt>
</event>
<event>
 5    1  0.3486294E-002  0.1249998E+03  0.7818608E-02  0.1235070E+00
         -4   -1    0    0    0  501 -0.00000000000E+00  0.00000000000E+00  0.56232686130E+02  0.56247025605E+02  0.12700000000E+01 0.  1.
          4   -1    0    0  501    0  0.00000000000E+00 -0.00000000000E+00 -0.69436559529E+02  0.69448172756E+02  0.12700000000E+01 0.  1.
         25    2    1    2    0    0  0.00000000000E+00  0.00000000000E+00 -0.13203873398E+02  0.12569519836E+03  0.12499976247E+03 0.  0.
    9000005    1    3    3    0    0 -0.63318753858E+01 -0.61476411184E+02 -0.15915939847E+02  0.63826005039E+02  0.10000000000E+01 0.  0.
    9000005    1    3    3    0    0  0.63318753858E+01  0.61476411184E+02  0.27120664489E+01  0.61869193323E+02  0.10000000000E+01 0.  0.
<mgrwt>
<rscale>  0 0.12499976E+03</rscale>
<asrwt>0</asrwt>
<pdfrwt beam="2">  1        4 0.10684544E-01 0.12499976E+03</pdfrwt>
<pdfrwt beam="1">  1       -4 0.86531789E-02 0.12499976E+03</pdfrwt>
<totfact> 0.10437706E+04</totfact>
</mgrwt>
</event>
<event>
 5    1  0.3486294E-002  0.1250009E+03  0.7818608E-02  0.1235068E+00
          4   -1    0    0  501    0  0.00000000000E+00  0.00000000000E+00  0.49273386101E+03  0.49273549769E+03  0.12700000000E+01 0. -1.
         -4   -1    0    0    0  501 -0.00000000000E+00 -0.00000000000E+00 -0.78752981190E+01  0.79770433409E+01  0.12700000000E+01 0. -1.
         25    2    1    2    0    0  0.00000000000E+00  0.00000000000E+00  0.48485856289E+03  0.50071254103E+03  0.12500089095E+03 0.  0.
    9000005    1    3    3    0    0 -0.14223099633E+02  0.41982008842E+02  0.41888446807E+03  0.42122438583E+03  0.10000000000E+01 0.  0.
    9000005    1    3    3    0    0  0.14223099633E+02 -0.41982008842E+02  0.65974094816E+02  0.79488155195E+02  0.10000000000E+01 0.  0.
<mgrwt>
<rscale>  0 0.12500089E+03</rscale>
<asrwt>0</asrwt>
<pdfrwt beam="1">  1        4 0.75813184E-01 0.12500089E+03</pdfrwt>
<pdfrwt beam="2">  1       -4 0.12195364E-02 0.12500089E+03</pdfrwt>
<totfact> 0.55808019E+03</totfact>
</mgrwt>
</event>
<event>
 5    1  0.3486294E-002  0.1249988E+03  0.7818608E-02  0.1235071E+00
         -4   -1    0    0    0  501 -0.00000000000E+00  0.00000000000E+00  0.16519555506E+02  0.16568301486E+02  0.12700000000E+01 0. -1.
          4   -1    0    0  501    0  0.00000000000E+00 -0.00000000000E+00 -0.23605866109E+03  0.23606207737E+03  0.12700000000E+01 0. -1.
         25    2    1    2    0    0  0.00000000000E+00  0.00000000000E+00 -0.21953910558E+03  0.25263037886E+03  0.12499875777E+03 0.  0.
    9000005    1    3    3    0    0  0.69610376104E+01  0.54393319998E+02 -0.49202264815E+02  0.73681423493E+02  0.10000000000E+01 0.  0.
    9000005    1    3    3    0    0 -0.69610376104E+01 -0.54393319998E+02 -0.17033684076E+03  0.17894895537E+03  0.10000000000E+01 0.  0.
<mgrwt>
<rscale>  0 0.12499876E+03</rscale>
<asrwt>0</asrwt>
<pdfrwt beam="2">  1        4 0.36320727E-01 0.12499876E+03</pdfrwt>
<pdfrwt beam="1">  1       -4 0.25454827E-02 0.12499876E+03</pdfrwt>
<totfact> 0.81953805E+03</totfact>
</mgrwt>
</event>
<event>
 5    1  0.3486294E-002  0.1250012E+03  0.7818608E-02  0.1235067E+00
         -4   -1    0    0    0  501 -0.00000000000E+00  0.00000000000E+00  0.21607079999E+03  0.21607453230E+03  0.12700000000E+01 0. -1.
          4   -1    0    0  501    0  0.00000000000E+00 -0.00000000000E+00 -0.18052723160E+02  0.18097339956E+02  0.12700000000E+01 0. -1.
         25    2    1    2    0    0  0.00000000000E+00  0.00000000000E+00  0.19801807683E+03  0.23417187225E+03  0.12500122801E+03 0.  0.
    9000005    1    3    3    0    0 -0.50921783118E+02  0.35492489367E+02  0.11259338668E+03  0.12857299686E+03  0.10000000000E+01 0.  0.
    9000005    1    3    3    0    0  0.50921783118E+02 -0.35492489367E+02  0.85424690146E+02  0.10559887539E+03  0.10000000000E+01 0.  0.
<mgrwt>
<rscale>  0 0.12500123E+03</rscale>
<asrwt>0</asrwt>
<pdfrwt beam="2">  1        4 0.27810613E-02 0.12500123E+03</pdfrwt>
<pdfrwt beam="1">  1       -4 0.33245379E-01 0.12500123E+03</pdfrwt>
<totfact> 0.84670774E+03</totfact>
</mgrwt>
</event>
<event>
 5    1  0.3486294E-002  0.1249993E+03  0.7818608E-02  0.1235070E+00
          4   -1    0    0  501    0  0.00000000000E+00  0.00000000000E+00  0.11362289489E+02  0.11433045195E+02  0.12700000000E+01 0.  1.
         -4   -1    0    0    0  501 -0.00000000000E+00 -0.00000000000E+00 -0.34264765050E+03  0.34265000408E+03  0.12700000000E+01 0.  1.
         25    2    1    2    0    0  0.00000000000E+00  0.00000000000E+00 -0.33128536101E+03  0.35408304927E+03  0.12499926144E+03 0.  0.
    9000005    1    3    3    0    0 -0.31437936510E+02  0.13298603802E+01 -0.31858363005E+03  0.32013534905E+03  0.10000000000E+01 0.  0.
    9000005    1    3    3    0    0  0.31437936510E+02 -0.13298603802E+01 -0.12701730967E+02  0.33947700219E+02  0.10000000000E+01 0.  0.
<mgrwt>
<rscale>  0 0.12499926E+03</rscale>
<asrwt>0</asrwt>
<pdfrwt beam="1">  1        4 0.17536686E-02 0.12499926E+03</pdfrwt>
<pdfrwt beam="2">  1       -4 0.52720639E-01 0.12499926E+03</pdfrwt>
<totfact> 0.69278830E+03</totfact>
</mgrwt>
</event>
<event>
 5    1  0.3486294E-002  0.1249991E+03  0.7818608E-02  0.1235071E+00
         -4   -1    0    0    0  501 -0.00000000000E+00  0.00000000000E+00  0.23539876554E+03  0.23540219140E+03  0.12700000000E+01 0. -1.
          4   -1    0    0  501    0  0.00000000000E+00 -0.00000000000E+00 -0.16566091651E+02  0.16614701099E+02  0.12700000000E+01 0. -1.
         25    2    1    2    0    0  0.00000000000E+00  0.00000000000E+00  0.21883267389E+03  0.25201689250E+03  0.12499909978E+03 0.  0.
    9000005    1    3    3    0    0  0.42806272665E+02  0.44632355189E+02  0.91296812047E+02  0.11027480220E+03  0.10000000000E+01 0.  0.
    9000005    1    3    3    0    0 -0.42806272665E+02 -0.44632355189E+02  0.12753586184E+03  0.14174209031E+03  0.10000000000E+01 0.  0.
<mgrwt>
<rscale>  0 0.12499910E+03</rscale>
<asrwt>0</asrwt>
<pdfrwt beam="2">  1        4 0.25526323E-02 0.12499910E+03</pdfrwt>
<pdfrwt beam="1">  1       -4 0.36219196E-01 0.12499910E+03</pdfrwt>
<totfact> 0.82041240E+03</totfact>
</mgrwt>
</event>
<event>
 5    1  0.3486294E-002  0.1250038E+03  0.7818608E-02  0.1235063E+00
         -4   -1    0    0    0  501 -0.00000000000E+00  0.00000000000E+00  0.68004248980E+03  0.68004367568E+03  0.12700000000E+01 0. -1.
          4   -1    0    0  501    0  0.00000000000E+00 -0.00000000000E+00 -0.56730752539E+01  0.58134914497E+01  0.12700000000E+01 0. -1.
         25    2    1    2    0    0  0.00000000000E+00  0.00000000000E+00  0.67436941455E+03  0.68585716713E+03  0.12500378566E+03 0.  0.
    9000005    1    3    3    0    0 -0.34877279464E+02  0.34379392846E+02  0.12418238612E+03  0.13349394106E+03  0.10000000000E+01 0.  0.
    9000005    1    3    3    0    0  0.34877279464E+02 -0.34379392846E+02  0.55018702842E+03  0.55236322607E+03  0.10000000000E+01 0.  0.
<mgrwt>
<rscale>  0 0.12500379E+03</rscale>
<asrwt>0</asrwt>
<pdfrwt beam="2">  1        4 0.88367409E-03 0.12500379E+03</pdfrwt>
<pdfrwt beam="1">  1       -4 0.10463272E+00 0.12500379E+03</pdfrwt>
<totfact> 0.43840265E+03</totfact>
</mgrwt>
</event>
<event>
 5    1  0.3486294E-002  0.1249909E+03  0.7818608E-02  0.1235084E+00
          4   -1    0    0  501    0  0.00000000000E+00  0.00000000000E+00  0.10464825681E+04  0.10464833387E+04  0.12700000000E+01 0. -1.
         -4   -1    0    0    0  501 -0.00000000000E+00 -0.00000000000E+00 -0.36233651050E+01  0.38394888572E+01  0.12700000000E+01 0. -1.
         25    2    1    2    0    0  0.00000000000E+00  0.00000000000E+00  0.10428592030E+04  0.10503228276E+04  0.12499089918E+03 0.  0.
    9000005    1    3    3    0    0  0.14889189828E+02  0.36588505478E+02  0.11456618179E+03  0.12118917739E+03  0.10000000000E+01 0.  0.
    9000005    1    3    3    0    0 -0.14889189828E+02 -0.36588505478E+02  0.92829302121E+03  0.92913365020E+03  0.10000000000E+01 0.  0.
<mgrwt>
<rscale>  0 0.12499090E+03</rscale>
<asrwt>0</asrwt>
<pdfrwt beam="1">  1        4 0.16101427E+00 0.12499090E+03</pdfrwt>
<pdfrwt beam="2">  1       -4 0.57412403E-03 0.12499090E+03</pdfrwt>
<totfact> 0.28990390E+03</totfact>
</mgrwt>
</event>
<event>
 5    1  0.3486294E-002  0.1249984E+03  0.7818608E-02  0.1235072E+00
         -4   -1    0    0    0  501 -0.00000000000E+00  0.00000000000E+00  0.37913085813E+02  0.37934350869E+02  0.12700000000E+01 0.  1.
          4   -1    0    0  501    0  0.00000000000E+00 -0.00000000000E+00 -0.10297504785E+03  0.10298287906E+03  0.12700000000E+01 0.  1.
         25    2    1    2    0    0  0.00000000000E+00  0.00000000000E+00 -0.65061962034E+02  0.14091722993E+03  0.12499842714E+03 0.  0.
    9000005    1    3    3    0    0  0.43941579137E+02 -0.51735812488E+01 -0.82281874975E+02  0.93428771100E+02  0.10000000000E+01 0.  0.
    9000005    1    3    3    0    0 -0.43941579137E+02  0.51735812488E+01  0.17219912941E+02  0.47488458826E+02  0.10000000000E+01 0.  0.
<mgrwt>
<rscale>  0 0.12499843E+03</rscale>
<asrwt>0</asrwt>
<pdfrwt beam="2">  1        4 0.15844553E-01 0.12499843E+03</pdfrwt>
<pdfrwt beam="1">  1       -4 0.58350206E-02 0.12499843E+03</pdfrwt>
<totfact> 0.10114969E+04</totfact>
</mgrwt>
</event>
<event>
 5    1  0.3486294E-002  0.1250003E+03  0.7818608E-02  0.1235069E+00
          4   -1    0    0  501    0  0.00000000000E+00  0.00000000000E+00  0.17505160899E+02  0.17551169707E+02  0.12700000000E+01 0. -1.
         -4   -1    0    0    0  501 -0.00000000000E+00 -0.00000000000E+00 -0.22280869782E+03  0.22281231726E+03  0.12700000000E+01 0. -1.
         25    2    1    2    0    0  0.00000000000E+00  0.00000000000E+00 -0.20530353692E+03  0.24036348697E+03  0.12500025438E+03 0.  0.
    9000005    1    3    3    0    0  0.14591525105E+02 -0.60595899212E+02 -0.93947511922E+02  0.11274710906E+03  0.10000000000E+01 0.  0.
    9000005    1    3    3    0    0 -0.14591525105E+02  0.60595899212E+02 -0.11135602500E+03  0.12761637791E+03  0.10000000000E+01 0.  0.
<mgrwt>
<rscale>  0 0.12500025E+03</rscale>
<asrwt>0</asrwt>
<pdfrwt beam="1">  1        4 0.26969194E-02 0.12500025E+03</pdfrwt>
<pdfrwt beam="2">  1       -4 0.34282077E-01 0.12500025E+03</pdfrwt>
<totfact> 0.83742788E+03</totfact>
</mgrwt>
</event>
<event>
 5    1  0.3486294E-002  0.1249994E+03  0.7818608E-02  0.1235070E+00
         -4   -1    0    0    0  501 -0.00000000000E+00  0.00000000000E+00  0.31985099729E+03  0.31985351861E+03  0.12700000000E+01 0. -1.
          4   -1    0    0  501    0  0.00000000000E+00 -0.00000000000E+00 -0.12177013330E+02  0.12243061449E+02  0.12700000000E+01 0. -1.
         25    2    1    2    0    0  0.00000000000E+00  0.00000000000E+00  0.30767398396E+03  0.33209658006E+03  0.12499943232E+03 0.  0.
    9000005    1    3    3    0    0 -0.13567081457E+02 -0.40064363668E+02  0.27604896096E+03  0.27927271220E+03  0.10000000000E+01 0.  0.
    9000005    1    3    3    0    0  0.13567081457E+02  0.40064363668E+02  0.31625023002E+02  0.52823867856E+02  0.10000000000E+01 0.  0.
<mgrwt>
<rscale>  0 0.12499943E+03</rscale>
<asrwt>0</asrwt>
<pdfrwt beam="2">  1        4 0.18786610E-02 0.12499943E+03</pdfrwt>
<pdfrwt beam="1">  1       -4 0.49213126E-01 0.12499943E+03</pdfrwt>
<totfact> 0.71741022E+03</totfact>
</mgrwt>
</event>
<event>
 5    1  0.3486294E-002  0.1249966E+03  0.7818608E-02  0.1235075E+00
          4   -1    0    0  501    0  0.00000000000E+00  0.00000000000E+00  0.29146138741E+03  0.29146415432E+03  0.12700000000E+01 0. -1.
         -4   -1    0    0    0  501 -0.00000000000E+00 -0.00000000000E+00 -0.13368625616E+02  0.13428814202E+02  0.12700000000E+01 0. -1.
         25    2    1    2    0    0  0.00000000000E+00  0.00000000000E+00  0.27809276180E+03  0.30489296852E+03  0.12499655231E+03 0.  0.
    9000005    1    3    3    0    0  0.14399060956E+02  0.44853601626E+02  0.23919837727E+03  0.24379508244E+03  0.10000000000E+01 0.  0.
    9000005    1    3    3    0    0 -0.14399060956E+02 -0.44853601626E+02  0.38894384526E+02  0.61097886075E+02  0.10000000000E+01 0.  0.
<mgrwt>
<rscale>  0 0.12499655E+03</rscale>
<asrwt>0</asrwt>
<pdfrwt beam="1">  1        4 0.44845049E-01 0.12499655E+03</pdfrwt>
<pdfrwt beam="2">  1       -4 0.20615547E-02 0.12499655E+03</pdfrwt>
<totfact> 0.74994886E+03</totfact>
</mgrwt>
</event>
<event>
 5    1  0.3486294E-002  0.1249981E+03  0.7818608E-02  0.1235072E+00
          4   -1    0    0  501    0  0.00000000000E+00  0.00000000000E+00  0.64897004813E+02  0.64909430237E+02  0.12700000000E+01 0. -1.
         -4   -1    0    0    0  501 -0.00000000000E+00 -0.00000000000E+00 -0.60164799995E+02  0.60178202520E+02  0.12700000000E+01 0. -1.
         25    2    1    2    0    0  0.00000000000E+00  0.00000000000E+00  0.47322048174E+01  0.12508763276E+03  0.12499808841E+03 0.  0.
    9000005    1    3    3    0    0  0.52961658448E+02 -0.26005213162E+02 -0.18238016925E+02  0.61764339538E+02  0.10000000000E+01 0.  0.
    9000005    1    3    3    0    0 -0.52961658448E+02  0.26005213162E+02  0.22970221743E+02  0.63323293219E+02  0.10000000000E+01 0.  0.
<mgrwt>
<rscale>  0 0.12499809E+03</rscale>
<asrwt>0</asrwt>
<pdfrwt beam="1">  1        4 0.99861414E-02 0.12499809E+03</pdfrwt>
<pdfrwt beam="2">  1       -4 0.92581098E-02 0.12499809E+03</pdfrwt>
<totfact> 0.10451411E+04</totfact>
</mgrwt>
</event>
<event>
 5    1  0.3486294E-002  0.1249659E+03  0.7818608E-02  0.1235123E+00
          4   -1    0    0  501    0  0.00000000000E+00  0.00000000000E+00  0.26426227470E+03  0.26426532639E+03  0.12700000000E+01 0.  1.
         -4   -1    0    0    0  501 -0.00000000000E+00 -0.00000000000E+00 -0.14743227011E+02  0.14797825607E+02  0.12700000000E+01 0.  1.
         25    2    1    2    0    0  0.00000000000E+00  0.00000000000E+00  0.24951904769E+03  0.27906315200E+03  0.12496594592E+03 0.  0.
    9000005    1    3    3    0    0 -0.13109993179E+02  0.60963640156E+02  0.11620213235E+03  0.13188014598E+03  0.10000000000E+01 0.  0.
    9000005    1    3    3    0    0  0.13109993179E+02 -0.60963640156E+02  0.13331691535E+03  0.14718300601E+03  0.10000000000E+01 0.  0.
<mgrwt>
<rscale>  0 0.12496595E+03</rscale>
<asrwt>0</asrwt>
<pdfrwt beam="1">  1        4 0.40660168E-01 0.12496595E+03</pdfrwt>
<pdfrwt beam="2">  1       -4 0.22726235E-02 0.12496595E+03</pdfrwt>
<totfact> 0.78361794E+03</totfact>
</mgrwt>
</event>
<event>
 5    1  0.3486294E-002  0.1249989E+03  0.7818608E-02  0.1235071E+00
         -4   -1    0    0    0  501 -0.00000000000E+00  0.00000000000E+00  0.62298728351E+02  0.62311671893E+02  0.12700000000E+01 0.  1.
          4   -1    0    0  501    0  0.00000000000E+00 -0.00000000000E+00 -0.62674926453E+02  0.62687792319E+02  0.12700000000E+01 0.  1.
         25    2    1    2    0    0  0.00000000000E+00  0.00000000000E+00 -0.37619810223E+00  0.12499946421E+03  0.12499889811E+03 0.  0.
    9000005    1    3    3    0    0  0.30207632128E+01 -0.37128772207E+02 -0.50363124702E+02  0.62650738749E+02  0.10000000000E+01 0.  0.
    9000005    1    3    3    0    0 -0.30207632128E+01  0.37128772207E+02  0.49986926600E+02  0.62348725463E+02  0.10000000000E+01 0.  0.
<mgrwt>
<rscale>  0 0.12499890E+03</rscale>
<asrwt>0</asrwt>
<pdfrwt beam="2">  1        4 0.96442817E-02 0.12499890E+03</pdfrwt>
<pdfrwt beam="1">  1       -4 0.95864051E-02 0.12499890E+03</pdfrwt>
<totfact> 0.10453134E+04</totfact>
</mgrwt>
</event>
<event>
 5    1  0.3486294E-002  0.1249993E+03  0.7818608E-02  0.1235070E+00
          4   -1    0    0  501    0  0.00000000000E+00  0.00000000000E+00  0.53686210100E+01  0.55167917804E+01  0.12700000000E+01 0.  1.
         -4   -1    0    0    0  501 -0.00000000000E+00 -0.00000000000E+00 -0.71754710637E+03  0.71754823027E+03  0.12700000000E+01 0.  1.
         25    2    1    2    0    0  0.00000000000E+00  0.00000000000E+00 -0.71217848536E+03  0.72306502205E+03  0.12499932440E+03 0.  0.
    9000005    1    3    3    0    0  0.16067692076E+02  0.19163118010E+02 -0.24810049521E+02  0.35241089338E+02  0.10000000000E+01 0.  0.
    9000005    1    3    3    0    0 -0.16067692076E+02 -0.19163118010E+02 -0.68736843584E+03  0.68782393271E+03  0.10000000000E+01 0.  0.
<mgrwt>
<rscale>  0 0.12499932E+03</rscale>
<asrwt>0</asrwt>
<pdfrwt beam="1">  1        4 0.83742647E-03 0.12499932E+03</pdfrwt>
<pdfrwt beam="2">  1       -4 0.11040327E+00 0.12499932E+03</pdfrwt>
<totfact> 0.41897369E+03</totfact>
</mgrwt>
</event>
<event>
 5    1  0.3486294E-002  0.1249963E+03  0.7818608E-02  0.1235075E+00
         -4   -1    0    0    0  501 -0.00000000000E+00  0.00000000000E+00  0.15747512505E+03  0.15748024609E+03  0.12700000000E+01 0. -1.
          4   -1    0    0  501    0  0.00000000000E+00 -0.00000000000E+00 -0.24782250921E+02  0.24814771018E+02  0.12700000000E+01 0. -1.
         25    2    1    2    0    0  0.00000000000E+00  0.00000000000E+00  0.13269287413E+03  0.18229501711E+03  0.12499629762E+03 0.  0.
    9000005    1    3    3    0    0  0.51070357486E+02 -0.10158204226E+02  0.11673312360E+03  0.12782406922E+03  0.10000000000E+01 0.  0.
    9000005    1    3    3    0    0 -0.51070357486E+02  0.10158204226E+02  0.15959750526E+02  0.54470947887E+02  0.10000000000E+01 0.  0.
<mgrwt>
<rscale>  0 0.12499630E+03</rscale>
<asrwt>0</asrwt>
<pdfrwt beam="2">  1        4 0.38155495E-02 0.12499630E+03</pdfrwt>
<pdfrwt beam="1">  1       -4 0.24229838E-01 0.12499630E+03</pdfrwt>
<totfact> 0.93213252E+03</totfact>
</mgrwt>
</event>
<event>
 5    1  0.3486294E-002  0.1249998E+03  0.7818608E-02  0.1235070E+00
          4   -1    0    0  501    0  0.00000000000E+00  0.00000000000E+00  0.18726655009E+02  0.18769669892E+02  0.12700000000E+01 0.  1.
         -4   -1    0    0    0  501 -0.00000000000E+00 -0.00000000000E+00 -0.20830829457E+03  0.20831216596E+03  0.12700000000E+01 0.  1.
         25    2    1    2    0    0  0.00000000000E+00  0.00000000000E+00 -0.18958163956E+03  0.22708183585E+03  0.12499984846E+03 0.  0.
    9000005    1    3    3    0    0 -0.48793660600E+02 -0.20876731192E+02 -0.15472897150E+03  0.16358090916E+03  0.10000000000E+01 0.  0.
    9000005    1    3    3    0    0  0.48793660600E+02  0.20876731192E+02 -0.34852668065E+02  0.63500926696E+02  0.10000000000E+01 0.  0.
<mgrwt>
<rscale>  0 0.12499985E+03</rscale>
<asrwt>0</asrwt>
<pdfrwt beam="1">  1        4 0.28846306E-02 0.12499985E+03</pdfrwt>
<pdfrwt beam="2">  1       -4 0.32051035E-01 0.12499985E+03</pdfrwt>
<totfact> 0.85759998E+03</totfact>
</mgrwt>
</event>
<event>
 5    1  0.3486294E-002  0.1250087E+03  0.7818608E-02  0.1235056E+00
         -4   -1    0    0    0  501 -0.00000000000E+00  0.00000000000E+00  0.53113258870E+02  0.53128440292E+02  0.12700000000E+01 0.  1.
          4   -1    0    0  501    0  0.00000000000E+00 -0.00000000000E+00 -0.73524680883E+02  0.73535648491E+02  0.12700000000E+01 0.  1.
         25    2    1    2    0    0  0.00000000000E+00  0.00000000000E+00 -0.20411422012E+02  0.12666408878E+03  0.12500866065E+03 0.  0.
    9000005    1    3    3    0    0  0.26086905306E+02 -0.32443332869E+01 -0.67655211809E+02  0.72589806529E+02  0.10000000000E+01 0.  0.
    9000005    1    3    3    0    0 -0.26086905306E+02  0.32443332869E+01  0.47243789797E+02  0.54074282254E+02  0.10000000000E+01 0.  0.
<mgrwt>
<rscale>  0 0.12500866E+03</rscale>
<asrwt>0</asrwt>
<pdfrwt beam="2">  1        4 0.11313501E-01 0.12500866E+03</pdfrwt>
<pdfrwt beam="1">  1       -4 0.81732820E-02 0.12500866E+03</pdfrwt>
<totfact> 0.10414416E+04</totfact>
</mgrwt>
</event>
<event>
 5    1  0.3486294E-002  0.1250047E+03  0.7818608E-02  0.1235062E+00
         -4   -1    0    0    0  501 -0.00000000000E+00  0.00000000000E+00  0.19907903774E+03  0.19908308861E+03  0.12700000000E+01 0. -1.
          4   -1    0    0  501    0  0.00000000000E+00 -0.00000000000E+00 -0.19598273877E+02  0.19639379801E+02  0.12700000000E+01 0. -1.
         25    2    1    2    0    0  0.00000000000E+00  0.00000000000E+00  0.17948076387E+03  0.21872246841E+03  0.12500469426E+03 0.  0.
    9000005    1    3    3    0    0 -0.15992276055E+02  0.21844789910E+02 -0.88136596750E+01  0.28489091535E+02  0.10000000000E+01 0.  0.
    9000005    1    3    3    0    0  0.15992276055E+02 -0.21844789910E+02  0.18829442354E+03  0.19023337687E+03  0.10000000000E+01 0.  0.
<mgrwt>
<rscale>  0 0.12500469E+03</rscale>
<asrwt>0</asrwt>
<pdfrwt beam="2">  1        4 0.30185926E-02 0.12500469E+03</pdfrwt>
<pdfrwt beam="1">  1       -4 0.30631018E-01 0.12500469E+03</pdfrwt>
<totfact> 0.87061775E+03</totfact>
</mgrwt>
</event>
<event>
 5    1  0.3486294E-002  0.1249687E+03  0.7818608E-02  0.1235118E+00
         -4   -1    0    0    0  501 -0.00000000000E+00  0.00000000000E+00  0.86759291801E+01  0.87683890845E+01  0.12700000000E+01 0. -1.
          4   -1    0    0  501    0  0.00000000000E+00 -0.00000000000E+00 -0.44753580456E+03  0.44753760653E+03  0.12700000000E+01 0. -1.
         25    2    1    2    0    0  0.00000000000E+00  0.00000000000E+00 -0.43885987538E+03  0.45630599562E+03  0.12496868176E+03 0.  0.
    9000005    1    3    3    0    0 -0.46935706397E+02 -0.28738366937E+01 -0.69231787693E+02  0.83697430663E+02  0.10000000000E+01 0.  0.
    9000005    1    3    3    0    0  0.46935706397E+02  0.28738366937E+01 -0.36962808768E+03  0.37260856495E+03  0.10000000000E+01 0.  0.
<mgrwt>
<rscale>  0 0.12496868E+03</rscale>
<asrwt>0</asrwt>
<pdfrwt beam="2">  1        4 0.68858895E-01 0.12496868E+03</pdfrwt>
<pdfrwt beam="1">  1       -4 0.13420096E-02 0.12496868E+03</pdfrwt>
<totfact> 0.59462382E+03</totfact>
</mgrwt>
</event>
<event>
 4    1  0.3486294E-002  0.1253682E+03  0.7818608E-02  0.1234495E+00
          4   -1    0    0  501    0  0.00000000000E+00  0.00000000000E+00  0.27085426294E+03  0.27085724035E+03  0.12700000000E+01 0.  1.
         -4   -1    0    0    0  501 -0.00000000000E+00 -0.00000000000E+00 -0.14476185952E+02  0.14531787905E+02  0.12700000000E+01 0.  1.
    9000005    1    1    2    0    0 -0.91477157259E+01 -0.10748469400E+02  0.26720065148E+03  0.26757503331E+03  0.10000000000E+01 0.  0.
    9000005    1    1    2    0    0  0.91477157259E+01  0.10748469400E+02 -0.10822574495E+02  0.17813994952E+02  0.10000000000E+01 0.  0.
<mgrwt>
<rscale>  0 0.12536817E+03</rscale>
<asrwt>0</asrwt>
<pdfrwt beam="1">  1        4 0.41674387E-01 0.12536817E+03</pdfrwt>
<pdfrwt beam="2">  1       -4 0.22316119E-02 0.12536817E+03</pdfrwt>
<totfact> 0.76838578E+03</totfact>
</mgrwt>
</event>
<event>
 5    1  0.3486294E-002  0.1249912E+03  0.7818608E-02  0.1235083E+00
         -4   -1    0    0    0  501 -0.00000000000E+00  0.00000000000E+00  0.13587429689E+04  0.13587435624E+04  0.12700000000E+01 0. -1.
          4   -1    0    0  501    0  0.00000000000E+00 -0.00000000000E+00 -0.27335932931E+01  0.30142050846E+01  0.12700000000E+01 0. -1.
         25    2    1    2    0    0  0.00000000000E+00  0.00000000000E+00  0.13560093756E+04  0.13617577675E+04  0.12499116226E+03 0.  0.
    9000005    1    3    3    0    0 -0.57331575780E+02 -0.20311324209E+02  0.83408554463E+03  0.83630087602E+03  0.10000000000E+01 0.  0.
    9000005    1    3    3    0    0  0.57331575780E+02  0.20311324209E+02  0.52192383093E+03  0.52545689145E+03  0.10000000000E+01 0.  0.
<mgrwt>
<rscale>  0 0.12499116E+03</rscale>
<asrwt>0</asrwt>
<pdfrwt beam="2">  1        4 0.44218361E-03 0.12499116E+03</pdfrwt>
<pdfrwt beam="1">  1       -4 0.20905919E+00 0.12499116E+03</pdfrwt>
<totfact> 0.20820049E+03</totfact>
</mgrwt>
</event>
<event>
 5    1  0.3486294E-002  0.1250000E+03  0.7818608E-02  0.1235069E+00
          4   -1    0    0  501    0  0.00000000000E+00  0.00000000000E+00  0.11605790384E+04  0.11605797333E+04  0.12700000000E+01 0. -1.
         -4   -1    0    0    0  501 -0.00000000000E+00 -0.00000000000E+00 -0.32452552075E+01  0.34849076547E+01  0.12700000000E+01 0. -1.
         25    2    1    2    0    0  0.00000000000E+00  0.00000000000E+00  0.11573337832E+04  0.11640646409E+04  0.12500001012E+03 0.  0.
    9000005    1    3    3    0    0 -0.84316130931E+01  0.20041227469E+01  0.23325630507E+01  0.90304738370E+01  0.10000000000E+01 0.  0.
    9000005    1    3    3    0    0  0.84316130931E+01 -0.20041227469E+01  0.11550012201E+04  0.11550341671E+04  0.10000000000E+01 0.  0.
<mgrwt>
<rscale>  0 0.12500001E+03</rscale>
<asrwt>0</asrwt>
<pdfrwt beam="1">  1        4 0.17856925E+00 0.12500001E+03</pdfrwt>
<pdfrwt beam="2">  1       -4 0.51775789E-03 0.12500001E+03</pdfrwt>
<totfact> 0.25673169E+03</totfact>
</mgrwt>
</event>
<event>
 5    1  0.3486294E-002  0.1250001E+03  0.7818608E-02  0.1235069E+00
          4   -1    0    0  501    0  0.00000000000E+00  0.00000000000E+00  0.32859813218E+02  0.32884346196E+02  0.12700000000E+01 0.  1.
         -4   -1    0    0    0  501 -0.00000000000E+00 -0.00000000000E+00 -0.11880416097E+03  0.11881094884E+03  0.12700000000E+01 0.  1.
         25    2    1    2    0    0  0.00000000000E+00  0.00000000000E+00 -0.85944347753E+02  0.15169529504E+03  0.12500012650E+03 0.  0.
    9000005    1    3    3    0    0 -0.94252469407E+01 -0.31333399590E+02  0.21639451662E+02  0.39241343988E+02  0.10000000000E+01 0.  0.
    9000005    1    3    3    0    0  0.94252469407E+01  0.31333399590E+02 -0.10758379941E+03  0.11245395105E+03  0.10000000000E+01 0.  0.
<mgrwt>
<rscale>  0 0.12500013E+03</rscale>
<asrwt>0</asrwt>
<pdfrwt beam="1">  1        4 0.50577653E-02 0.12500013E+03</pdfrwt>
<pdfrwt beam="2">  1       -4 0.18279972E-01 0.12500013E+03</pdfrwt>
<totfact> 0.98966553E+03</totfact>
</mgrwt>
</event>
<event>
 5    1  0.3486294E-002  0.1249959E+03  0.7818608E-02  0.1235076E+00
         -4   -1    0    0    0  501 -0.00000000000E+00  0.00000000000E+00  0.36287472892E+03  0.36287695130E+03  0.12700000000E+01 0.  1.
          4   -1    0    0  501    0  0.00000000000E+00 -0.00000000000E+00 -0.10724312545E+02  0.10799249027E+02  0.12700000000E+01 0.  1.
         25    2    1    2    0    0  0.00000000000E+00  0.00000000000E+00  0.35215041637E+03  0.37367620033E+03  0.12499594770E+03 0.  0.
    9000005    1    3    3    0    0  0.57446554399E+02  0.14530340142E+02  0.11675332383E+03  0.13093347938E+03  0.10000000000E+01 0.  0.
    9000005    1    3    3    0    0 -0.57446554399E+02 -0.14530340142E+02  0.23539709255E+03  0.24274272095E+03  0.10000000000E+01 0.  0.
<mgrwt>
<rscale>  0 0.12499595E+03</rscale>
<asrwt>0</asrwt>
<pdfrwt beam="2">  1        4 0.16558299E-02 0.12499595E+03</pdfrwt>
<pdfrwt beam="1">  1       -4 0.55832805E-01 0.12499595E+03</pdfrwt>
<totfact> 0.67202108E+03</totfact>
</mgrwt>
</event>
<event>
 5    1  0.3486294E-002  0.1249898E+03  0.7818608E-02  0.1235085E+00
          4   -1    0    0  501    0  0.00000000000E+00  0.00000000000E+00  0.50837249083E+03  0.50837407716E+03  0.12700000000E+01 0.  1.
         -4   -1    0    0    0  501 -0.00000000000E+00 -0.00000000000E+00 -0.76284803571E+01  0.77334735119E+01  0.12700000000E+01 0.  1.
         25    2    1    2    0    0  0.00000000000E+00  0.00000000000E+00  0.50074401047E+03  0.51610755067E+03  0.12498975894E+03 0.  0.
    9000005    1    3    3    0    0  0.16857933851E+01  0.61485267028E+02  0.29585508665E+03  0.30218291192E+03  0.10000000000E+01 0.  0.
    9000005    1    3    3    0    0 -0.16857933851E+01 -0.61485267028E+02  0.20488892382E+03  0.21392463875E+03  0.10000000000E+01 0.  0.
<mgrwt>
<rscale>  0 0.12498976E+03</rscale>
<asrwt>0</asrwt>
<pdfrwt beam="1">  1        4 0.78219381E-01 0.12498976E+03</pdfrwt>
<pdfrwt beam="2">  1       -4 0.11818103E-02 0.12498976E+03</pdfrwt>
<totfact> 0.54648207E+03</totfact>
</mgrwt>
</event>
<event>
 5    1  0.3486294E-002  0.1249980E+03  0.7818608E-02  0.1235072E+00
          4   -1    0    0  501    0  0.00000000000E+00  0.00000000000E+00  0.61877598435E+03  0.61877728765E+03  0.12700000000E+01 0.  1.
         -4   -1    0    0    0  501 -0.00000000000E+00 -0.00000000000E+00 -0.62474621243E+01  0.63752398382E+01  0.12700000000E+01 0.  1.
         25    2    1    2    0    0  0.00000000000E+00  0.00000000000E+00  0.61252852223E+03  0.62515252749E+03  0.12499796831E+03 0.  0.
    9000005    1    3    3    0    0  0.19151009310E+02  0.54642984380E+01  0.10024067940E+02  0.22318191080E+02  0.10000000000E+01 0.  0.
    9000005    1    3    3    0    0 -0.19151009310E+02 -0.54642984380E+01  0.60250445429E+03  0.60283433641E+03  0.10000000000E+01 0.  0.
<mgrwt>
<rscale>  0 0.12499797E+03</rscale>
<asrwt>0</asrwt>
<pdfrwt beam="1">  1        4 0.95206274E-01 0.12499797E+03</pdfrwt>
<pdfrwt beam="2">  1       -4 0.97107693E-03 0.12499797E+03</pdfrwt>
<totfact> 0.47319542E+03</totfact>
</mgrwt>
</event>
<event>
 5    1  0.3486294E-002  0.1249971E+03  0.7818608E-02  0.1235074E+00
         -4   -1    0    0    0  501 -0.00000000000E+00  0.00000000000E+00  0.52744001634E+02  0.52759289309E+02  0.12700000000E+01 0.  1.
          4   -1    0    0  501    0  0.00000000000E+00 -0.00000000000E+00 -0.74025625978E+02  0.74036519376E+02  0.12700000000E+01 0.  1.
         25    2    1    2    0    0  0.00000000000E+00  0.00000000000E+00 -0.21281624343E+02  0.12679580869E+03  0.12499707823E+03 0.  0.
    9000005    1    3    3    0    0 -0.61305306155E+02 -0.55221702930E+01  0.29544610405E+00  0.61562344140E+02  0.10000000000E+01 0.  0.
    9000005    1    3    3    0    0  0.61305306155E+02  0.55221702930E+01 -0.21577070448E+02  0.65233464546E+02  0.10000000000E+01 0.  0.
<mgrwt>
<rscale>  0 0.12499708E+03</rscale>
<asrwt>0</asrwt>
<pdfrwt beam="2">  1        4 0.11390572E-01 0.12499708E+03</pdfrwt>
<pdfrwt beam="1">  1       -4 0.81164757E-02 0.12499708E+03</pdfrwt>
<totfact> 0.10414272E+04</totfact>
</mgrwt>
</event>
<event>
 5    1  0.3486294E-002  0.1250001E+03  0.7818608E-02  0.1235069E+00
          4   -1    0    0  501    0  0.00000000000E+00  0.00000000000E+00  0.14679197500E+03  0.14679746872E+03  0.12700000000E+01 0. -1.
         -4   -1    0    0    0  501 -0.00000000000E+00 -0.00000000000E+00 -0.26589702178E+02  0.26620014311E+02  0.12700000000E+01 0. -1.
         25    2    1    2    0    0  0.00000000000E+00  0.00000000000E+00  0.12020227282E+03  0.17341748303E+03  0.12500014812E+03 0.  0.
    9000005    1    3    3    0    0  0.35205816239E+02  0.44818055648E+02  0.95665509031E+02  0.11135976485E+03  0.10000000000E+01 0.  0.
    9000005    1    3    3    0    0 -0.35205816239E+02 -0.44818055648E+02  0.24536763789E+02  0.62057718185E+02  0.10000000000E+01 0.  0.
<mgrwt>
<rscale>  0 0.12500015E+03</rscale>
<asrwt>0</asrwt>
<pdfrwt beam="1">  1        4 0.22586135E-01 0.12500015E+03</pdfrwt>
<pdfrwt beam="2">  1       -4 0.40934777E-02 0.12500015E+03</pdfrwt>
<totfact> 0.94815161E+03</totfact>
</mgrwt>
</event>
<event>
 5    1  0.3486294E-002  0.1250030E+03  0.7818608E-02  0.1235065E+00
          4   -1    0    0  501    0  0.00000000000E+00  0.00000000000E+00  0.45529064223E+03  0.45529241352E+03  0.12700000000E+01 0.  1.
         -4   -1    0    0    0  501 -0.00000000000E+00 -0.00000000000E+00 -0.85313057295E+01  0.86253160783E+01  0.12700000000E+01 0.  1.
         25    2    1    2    0    0  0.00000000000E+00  0.00000000000E+00  0.44675933650E+03  0.46391772959E+03  0.12500302028E+03 0.  0.
    9000005    1    3    3    0    0 -0.17519599061E+02  0.22677334374E+02  0.17271780941E+02  0.33474053571E+02  0.10000000000E+01 0.  0.
    9000005    1    3    3    0    0  0.17519599061E+02 -0.22677334374E+02  0.42948755556E+03  0.43044367602E+03  0.10000000000E+01 0.  0.
<mgrwt>
<rscale>  0 0.12500302E+03</rscale>
<asrwt>0</asrwt>
<pdfrwt beam="1">  1        4 0.70052079E-01 0.12500302E+03</pdfrwt>
<pdfrwt beam="2">  1       -4 0.13198764E-02 0.12500302E+03</pdfrwt>
<totfact> 0.58772875E+03</totfact>
</mgrwt>
</event>
<event>
 5    1  0.3486294E-002  0.1250005E+03  0.7818608E-02  0.1235068E+00
          4   -1    0    0  501    0  0.00000000000E+00  0.00000000000E+00  0.10026983088E+03  0.10027787335E+03  0.12700000000E+01 0. -1.
         -4   -1    0    0    0  501 -0.00000000000E+00 -0.00000000000E+00 -0.38937743041E+02  0.38958448803E+02  0.12700000000E+01 0. -1.
         25    2    1    2    0    0  0.00000000000E+00  0.00000000000E+00  0.61332087835E+02  0.13923632216E+03  0.12500051364E+03 0.  0.
    9000005    1    3    3    0    0 -0.55464102615E+02  0.91830246638E+01  0.61062837350E+02  0.83007618483E+02  0.10000000000E+01 0.  0.
    9000005    1    3    3    0    0  0.55464102615E+02 -0.91830246638E+01  0.26925048475E+00  0.56228703673E+02  0.10000000000E+01 0.  0.
<mgrwt>
<rscale>  0 0.12500051E+03</rscale>
<asrwt>0</asrwt>
<pdfrwt beam="1">  1        4 0.15428339E-01 0.12500051E+03</pdfrwt>
<pdfrwt beam="2">  1       -4 0.59926334E-02 0.12500051E+03</pdfrwt>
<totfact> 0.10149320E+04</totfact>
</mgrwt>
</event>
<event>
 5    1  0.3486294E-002  0.1250005E+03  0.7818608E-02  0.1235069E+00
         -4   -1    0    0    0  501 -0.00000000000E+00  0.00000000000E+00  0.44633568419E+02  0.44651633003E+02  0.12700000000E+01 0.  1.
          4   -1    0    0  501    0  0.00000000000E+00 -0.00000000000E+00 -0.87478477609E+02  0.87487695962E+02  0.12700000000E+01 0.  1.
         25    2    1    2    0    0  0.00000000000E+00  0.00000000000E+00 -0.42844909190E+02  0.13213932897E+03  0.12500046406E+03 0.  0.
    9000005    1    3    3    0    0 -0.38706075927E+02  0.45147158208E+02 -0.41724837374E+02  0.72652517244E+02  0.10000000000E+01 0.  0.
    9000005    1    3    3    0    0  0.38706075927E+02 -0.45147158208E+02 -0.11200718155E+01  0.59486811722E+02  0.10000000000E+01 0.  0.
<mgrwt>
<rscale>  0 0.12500046E+03</rscale>
<asrwt>0</asrwt>
<pdfrwt beam="2">  1        4 0.13460326E-01 0.12500046E+03</pdfrwt>
<pdfrwt beam="1">  1       -4 0.68688015E-02 0.12500046E+03</pdfrwt>
<totfact> 0.10298618E+04</totfact>
</mgrwt>
</event>
<event>
 4    1  0.3486294E-002  0.1249205E+03  0.7818608E-02  0.1235194E+00
          4   -1    0    0  501    0  0.00000000000E+00  0.00000000000E+00  0.22679547174E+02  0.22715077812E+02  0.12700000000E+01 0.  1.
         -4   -1    0    0    0  501 -0.00000000000E+00 -0.00000000000E+00 -0.17184515572E+03  0.17184984854E+03  0.12700000000E+01 0.  1.
    9000005    1    1    2    0    0  0.29571881315E+02  0.10850014265E+01  0.11074715176E+02  0.31612065874E+02  0.10000000000E+01 0.  0.
    9000005    1    1    2    0    0 -0.29571881315E+02 -0.10850014265E+01 -0.16024032372E+03  0.16295286048E+03  0.10000000000E+01 0.  0.
<mgrwt>
<rscale>  0 0.12492050E+03</rscale>
<asrwt>0</asrwt>
<pdfrwt beam="1">  1        4 0.34922553E-02 0.12492050E+03</pdfrwt>
<pdfrwt beam="2">  1       -4 0.26440810E-01 0.12492050E+03</pdfrwt>
<totfact> 0.91221315E+03</totfact>
</mgrwt>
</event>
<event>
 5    1  0.3486294E-002  0.1249955E+03  0.7818608E-02  0.1235076E+00
         -4   -1    0    0    0  501 -0.00000000000E+00  0.00000000000E+00  0.12474136177E+04  0.12474142642E+04  0.12700000000E+01 0.  1.
          4   -1    0    0  501    0  0.00000000000E+00 -0.00000000000E+00 -0.30018063281E+01  0.32594081106E+01  0.12700000000E+01 0.  1.
         25    2    1    2    0    0  0.00000000000E+00  0.00000000000E+00  0.12444118113E+04  0.12506736723E+04  0.12499551321E+03 0.  0.
    9000005    1    3    3    0    0  0.29817840340E+02 -0.51363353296E+02  0.81665544990E+03  0.81881281226E+03  0.10000000000E+01 0.  0.
    9000005    1    3    3    0    0 -0.29817840340E+02  0.51363353296E+02  0.42775636143E+03  0.43186086001E+03  0.10000000000E+01 0.  0.
<mgrwt>
<rscale>  0 0.12499551E+03</rscale>
<asrwt>0</asrwt>
<pdfrwt beam="2">  1        4 0.48168152E-03 0.12499551E+03</pdfrwt>
<pdfrwt beam="1">  1       -4 0.19192969E+00 0.12499551E+03</pdfrwt>
<totfact> 0.23425728E+03</totfact>
</mgrwt>
</event>
<event>
 5    1  0.3486294E-002  0.1250014E+03  0.7818608E-02  0.1235067E+00
          4   -1    0    0  501    0  0.00000000000E+00  0.00000000000E+00  0.40934342124E+02  0.40954038447E+02  0.12700000000E+01 0.  1.
         -4   -1    0    0    0  501 -0.00000000000E+00 -0.00000000000E+00 -0.95382399717E+02  0.95390854257E+02  0.12700000000E+01 0.  1.
         25    2    1    2    0    0  0.00000000000E+00  0.00000000000E+00 -0.54448057594E+02  0.13634489270E+03  0.12500135515E+03 0.  0.
    9000005    1    3    3    0    0 -0.57142510573E+02  0.11388203402E+02 -0.51865674176E+02  0.78012856947E+02  0.10000000000E+01 0.  0.
    9000005    1    3    3    0    0  0.57142510573E+02 -0.11388203402E+02 -0.25823834176E+01  0.58332035756E+02  0.10000000000E+01 0.  0.
<mgrwt>
<rscale>  0 0.12500136E+03</rscale>
<asrwt>0</asrwt>
<pdfrwt beam="1">  1        4 0.62997565E-02 0.12500136E+03</pdfrwt>
<pdfrwt beam="2">  1       -4 0.14676381E-01 0.12500136E+03</pdfrwt>
<totfact> 0.10209489E+04</totfact>
</mgrwt>
</event>
<event>
 5    1  0.3486294E-002  0.1250154E+03  0.7818608E-02  0.1235045E+00
         -4   -1    0    0    0  501 -0.00000000000E+00  0.00000000000E+00  0.15986995486E+03  0.15987499919E+03  0.12700000000E+01 0. -1.
          4   -1    0    0  501    0  0.00000000000E+00 -0.00000000000E+00 -0.24417994233E+02  0.24450998801E+02  0.12700000000E+01 0. -1.
         25    2    1    2    0    0  0.00000000000E+00  0.00000000000E+00  0.13545196062E+03  0.18432599799E+03  0.12501535865E+03 0.  0.
    9000005    1    3    3    0    0 -0.17494961074E+02  0.54657690794E+02  0.31230620785E+02  0.65344383849E+02  0.10000000000E+01 0.  0.
    9000005    1    3    3    0    0  0.17494961074E+02 -0.54657690794E+02  0.10422133984E+03  0.11898161414E+03  0.10000000000E+01 0.  0.
<mgrwt>
<rscale>  0 0.12501536E+03</rscale>
<asrwt>0</asrwt>
<pdfrwt beam="2">  1        4 0.37595415E-02 0.12501536E+03</pdfrwt>
<pdfrwt beam="1">  1       -4 0.24598304E-01 0.12501536E+03</pdfrwt>
<totfact> 0.92812103E+03</totfact>
</mgrwt>
</event>
<event>
 5    1  0.3486294E-002  0.1249966E+03  0.7818608E-02  0.1235075E+00
         -4   -1    0    0    0  501 -0.00000000000E+00  0.00000000000E+00  0.11976639473E+02  0.12043786492E+02  0.12700000000E+01 0. -1.
          4   -1    0    0  501    0  0.00000000000E+00 -0.00000000000E+00 -0.32515775848E+03  0.32516023866E+03  0.12700000000E+01 0. -1.
         25    2    1    2    0    0  0.00000000000E+00  0.00000000000E+00 -0.31318111901E+03  0.33720402515E+03  0.12499656503E+03 0.  0.
    9000005    1    3    3    0    0 -0.46586262454E+02 -0.30087636575E+02 -0.23428682459E+03  0.24076308251E+03  0.10000000000E+01 0.  0.
    9000005    1    3    3    0    0  0.46586262454E+02  0.30087636575E+02 -0.78894294423E+02  0.96440942637E+02  0.10000000000E+01 0.  0.
<mgrwt>
<rscale>  0 0.12499657E+03</rscale>
<asrwt>0</asrwt>
<pdfrwt beam="2">  1        4 0.50029620E-01 0.12499657E+03</pdfrwt>
<pdfrwt beam="1">  1       -4 0.18479161E-02 0.12499657E+03</pdfrwt>
<totfact> 0.71161012E+03</totfact>
</mgrwt>
</event>
<event>
 5    1  0.3486294E-002  0.1249982E+03  0.7818608E-02  0.1235072E+00
          4   -1    0    0  501    0  0.00000000000E+00  0.00000000000E+00  0.16289646614E+03  0.16290141676E+03  0.12700000000E+01 0. -1.
         -4   -1    0    0    0  501 -0.00000000000E+00 -0.00000000000E+00 -0.23957129897E+02  0.23990768493E+02  0.12700000000E+01 0. -1.
         25    2    1    2    0    0  0.00000000000E+00  0.00000000000E+00  0.13893933624E+03  0.18689218525E+03  0.12499819899E+03 0.  0.
    9000005    1    3    3    0    0  0.56071242199E+02  0.10987806415E+02  0.31632355253E+02  0.65317088042E+02  0.10000000000E+01 0.  0.
    9000005    1    3    3    0    0 -0.56071242199E+02 -0.10987806415E+02  0.10730698099E+03  0.12157509721E+03  0.10000000000E+01 0.  0.
<mgrwt>
<rscale>  0 0.12499820E+03</rscale>
<asrwt>0</asrwt>
<pdfrwt beam="1">  1        4 0.25063964E-01 0.12499820E+03</pdfrwt>
<pdfrwt beam="2">  1       -4 0.36886806E-02 0.12499820E+03</pdfrwt>
<totfact> 0.92394621E+03</totfact>
</mgrwt>
</event>
<event>
 5    1  0.3486294E-002  0.1250006E+03  0.7818608E-02  0.1235068E+00
          4   -1    0    0  501    0  0.00000000000E+00  0.00000000000E+00  0.61162346517E+03  0.61162478371E+03  0.12700000000E+01 0.  1.
         -4   -1    0    0    0  501 -0.00000000000E+00 -0.00000000000E+00 -0.63222748675E+01  0.64485703455E+01  0.12700000000E+01 0.  1.
         25    2    1    2    0    0  0.00000000000E+00  0.00000000000E+00  0.60530119030E+03  0.61807335405E+03  0.12500056004E+03 0.  0.
    9000005    1    3    3    0    0  0.83006069022E+01  0.45869434409E+01  0.60806882988E+03  0.60814360310E+03  0.10000000000E+01 0.  0.
    9000005    1    3    3    0    0 -0.83006069022E+01 -0.45869434409E+01 -0.27676395782E+01  0.99297509490E+01  0.10000000000E+01 0.  0.
<mgrwt>
<rscale>  0 0.12500056E+03</rscale>
<asrwt>0</asrwt>
<pdfrwt beam="1">  1        4 0.94105763E-01 0.12500056E+03</pdfrwt>
<pdfrwt beam="2">  1       -4 0.98247383E-03 0.12500056E+03</pdfrwt>
<totfact> 0.47745688E+03</totfact>
</mgrwt>
</event>
<event>
 5    1  0.3486294E-002  0.1250023E+03  0.7818608E-02  0.1235066E+00
          4   -1    0    0  501    0  0.00000000000E+00  0.00000000000E+00  0.15765562710E+03  0.15766074228E+03  0.12700000000E+01 0. -1.
         -4   -1    0    0    0  501 -0.00000000000E+00 -0.00000000000E+00 -0.24756234509E+02  0.24788788737E+02  0.12700000000E+01 0. -1.
         25    2    1    2    0    0  0.00000000000E+00  0.00000000000E+00  0.13289939259E+03  0.18244953102E+03  0.12500233125E+03 0.  0.
    9000005    1    3    3    0    0  0.48203408046E+02  0.34417426089E+02  0.37358177369E+02  0.70034000187E+02  0.10000000000E+01 0.  0.
    9000005    1    3    3    0    0 -0.48203408046E+02 -0.34417426089E+02  0.95541215223E+02  0.11241553083E+03  0.10000000000E+01 0.  0.
<mgrwt>
<rscale>  0 0.12500233E+03</rscale>
<asrwt>0</asrwt>
<pdfrwt beam="1">  1        4 0.24257609E-01 0.12500233E+03</pdfrwt>
<pdfrwt beam="2">  1       -4 0.38115492E-02 0.12500233E+03</pdfrwt>
<totfact> 0.93173060E+03</totfact>
</mgrwt>
</event>
<event>
 5    1  0.3486294E-002  0.1250032E+03  0.7818608E-02  0.1235064E+00
          4   -1    0    0  501    0  0.00000000000E+00  0.00000000000E+00  0.28550796394E+03  0.28551078854E+03  0.12700000000E+01 0.  1.
         -4   -1    0    0    0  501 -0.00000000000E+00 -0.00000000000E+00 -0.13650076996E+02  0.13709029944E+02  0.12700000000E+01 0.  1.
         25    2    1    2    0    0  0.00000000000E+00  0.00000000000E+00  0.27185788695E+03  0.29921981849E+03  0.12500315628E+03 0.  0.
    9000005    1    3    3    0    0  0.43918943964E+02 -0.21393283742E+02  0.22921873365E+03  0.23436888463E+03  0.10000000000E+01 0.  0.
    9000005    1    3    3    0    0 -0.43918943964E+02  0.21393283742E+02  0.42639153301E+02  0.64850933859E+02  0.10000000000E+01 0.  0.
<mgrwt>
<rscale>  0 0.12500316E+03</rscale>
<asrwt>0</asrwt>
<pdfrwt beam="1">  1        4 0.43929053E-01 0.12500316E+03</pdfrwt>
<pdfrwt beam="2">  1       -4 0.21047640E-02 0.12500316E+03</pdfrwt>
<totfact> 0.75691503E+03</totfact>
</mgrwt>
</event>
<event>
 5    1  0.3486294E-002  0.1250003E+03  0.7818608E-02  0.1235069E+00
          4   -1    0    0  501    0  0.00000000000E+00  0.00000000000E+00  0.32390674484E+02  0.32415562521E+02  0.12700000000E+01 0. -1.
         -4   -1    0    0    0  501 -0.00000000000E+00 -0.00000000000E+00 -0.12052407985E+03  0.12053077085E+03  0.12700000000E+01 0. -1.
         25    2    1    2    0    0  0.00000000000E+00  0.00000000000E+00 -0.88133405361E+02  0.15294633337E+03  0.12500033501E+03 0.  0.
    9000005    1    3    3    0    0 -0.46900462893E+01  0.38490375472E+02  0.15897654867E+02  0.41919458112E+02  0.10000000000E+01 0.  0.
    9000005    1    3    3    0    0  0.46900462893E+01 -0.38490375472E+02 -0.10403106023E+03  0.11102687526E+03  0.10000000000E+01 0.  0.
<mgrwt>
<rscale>  0 0.12500034E+03</rscale>
<asrwt>0</asrwt>
<pdfrwt beam="1">  1        4 0.49856099E-02 0.12500034E+03</pdfrwt>
<pdfrwt beam="2">  1       -4 0.18544595E-01 0.12500034E+03</pdfrwt>
<totfact> 0.98718856E+03</totfact>
</mgrwt>
</event>
<event>
 5    1  0.3486294E-002  0.1249966E+03  0.7818608E-02  0.1235075E+00
         -4   -1    0    0    0  501 -0.00000000000E+00  0.00000000000E+00  0.62682480354E+02  0.62695344670E+02  0.12700000000E+01 0.  1.
          4   -1    0    0  501    0  0.00000000000E+00 -0.00000000000E+00 -0.62288886834E+02  0.62301832421E+02  0.12700000000E+01 0.  1.
         25    2    1    2    0    0  0.00000000000E+00  0.00000000000E+00  0.39359351942E+00  0.12499717709E+03  0.12499655741E+03 0.  0.
    9000005    1    3    3    0    0 -0.52401201889E+02  0.55059297167E+01 -0.33401489094E+02  0.62392793616E+02  0.10000000000E+01 0.  0.
    9000005    1    3    3    0    0  0.52401201889E+02 -0.55059297167E+01  0.33795082613E+02  0.62604383475E+02  0.10000000000E+01 0.  0.
<mgrwt>
<rscale>  0 0.12499656E+03</rscale>
<asrwt>0</asrwt>
<pdfrwt beam="2">  1        4 0.95848910E-02 0.12499656E+03</pdfrwt>
<pdfrwt beam="1">  1       -4 0.96454439E-02 0.12499656E+03</pdfrwt>
<totfact> 0.10453737E+04</totfact>
</mgrwt>
</event>
<event>
 5    1  0.3486294E-002  0.1250002E+03  0.7818608E-02  0.1235069E+00
          4   -1    0    0  501    0  0.00000000000E+00  0.00000000000E+00  0.27557628386E+02  0.27586876994E+02  0.12700000000E+01 0.  1.
         -4   -1    0    0    0  501 -0.00000000000E+00 -0.00000000000E+00 -0.14164147552E+03  0.14164716900E+03  0.12700000000E+01 0.  1.
         25    2    1    2    0    0  0.00000000000E+00  0.00000000000E+00 -0.11408384713E+03  0.16923404600E+03  0.12500015259E+03 0.  0.
    9000005    1    3    3    0    0  0.32613369207E+02  0.32027049243E+02  0.65101455643E+00  0.45725130445E+02  0.10000000000E+01 0.  0.
    9000005    1    3    3    0    0 -0.32613369207E+02 -0.32027049243E+02 -0.11473486169E+03  0.12350891555E+03  0.10000000000E+01 0.  0.
<mgrwt>
<rscale>  0 0.12500015E+03</rscale>
<asrwt>0</asrwt>
<pdfrwt beam="1">  1        4 0.42423231E-02 0.12500015E+03</pdfrwt>
<pdfrwt beam="2">  1       -4 0.21793684E-01 0.12500015E+03</pdfrwt>
<totfact> 0.95591158E+03</totfact>
</mgrwt>
</event>
<event>
 5    1  0.3486294E-002  0.1250014E+03  0.7818608E-02  0.1235067E+00
         -4   -1    0    0    0  501 -0.00000000000E+00  0.00000000000E+00  0.32847358470E+01  0.35217026542E+01  0.12700000000E+01 0.  1.
          4   -1    0    0  501    0  0.00000000000E+00 -0.00000000000E+00 -0.11475989883E+04  0.11475996910E+04  0.12700000000E+01 0.  1.
         25    2    1    2    0    0  0.00000000000E+00  0.00000000000E+00 -0.11443142525E+04  0.11511213937E+04  0.12500141849E+03 0.  0.
    9000005    1    3    3    0    0  0.13820842066E+02  0.60639304426E+02 -0.62832195764E+03  0.63139339826E+03  0.10000000000E+01 0.  0.
    9000005    1    3    3    0    0 -0.13820842066E+02 -0.60639304426E+02 -0.51599229483E+03  0.51972799544E+03  0.10000000000E+01 0.  0.
<mgrwt>
<rscale>  0 0.12500142E+03</rscale>
<asrwt>0</asrwt>
<pdfrwt beam="2">  1        4 0.17657166E+00 0.12500142E+03</pdfrwt>
<pdfrwt beam="1">  1       -4 0.52362717E-03 0.12500142E+03</pdfrwt>
<totfact> 0.26028387E+03</totfact>
</mgrwt>
</event>
<event>
 5    1  0.3486294E-002  0.1250016E+03  0.7818608E-02  0.1235067E+00
         -4   -1    0    0    0  501 -0.00000000000E+00  0.00000000000E+00  0.77351541321E+02  0.77361966397E+02  0.12700000000E+01 0. -1.
          4   -1    0    0  501    0  0.00000000000E+00 -0.00000000000E+00 -0.50479403514E+02  0.50495376809E+02  0.12700000000E+01 0. -1.
         25    2    1    2    0    0  0.00000000000E+00  0.00000000000E+00  0.26872137808E+02  0.12785734321E+03  0.12500155368E+03 0.  0.
    9000005    1    3    3    0    0  0.35524569649E+02 -0.50703374161E+02  0.22146484544E+02  0.65759364182E+02  0.10000000000E+01 0.  0.
    9000005    1    3    3    0    0 -0.35524569649E+02  0.50703374161E+02  0.47256532638E+01  0.62097979023E+02  0.10000000000E+01 0.  0.
<mgrwt>
<rscale>  0 0.12500155E+03</rscale>
<asrwt>0</asrwt>
<pdfrwt beam="2">  1        4 0.77680927E-02 0.12500155E+03</pdfrwt>
<pdfrwt beam="1">  1       -4 0.11902268E-01 0.12500155E+03</pdfrwt>
<totfact> 0.10390205E+04</totfact>
</mgrwt>
</event>
<event>
 5    1  0.3486294E-002  0.1249998E+03  0.7818608E-02  0.1235070E+00
         -4   -1    0    0    0  501 -0.00000000000E+00  0.00000000000E+00  0.61306835776E+02  0.61319988689E+02  0.12700000000E+01 0.  1.
          4   -1    0    0  501    0  0.00000000000E+00 -0.00000000000E+00 -0.63689830933E+02  0.63702491821E+02  0.12700000000E+01 0.  1.
         25    2    1    2    0    0  0.00000000000E+00  0.00000000000E+00 -0.23829951568E+01  0.12502248051E+03  0.12499976787E+03 0.  0.
    9000005    1    3    3    0    0 -0.20705402329E+02 -0.10897331021E+02 -0.59148294567E+02  0.63615927716E+02  0.10000000000E+01 0.  0.
    9000005    1    3    3    0    0  0.20705402329E+02  0.10897331021E+02  0.56765299410E+02  0.61406552795E+02  0.10000000000E+01 0.  0.
<mgrwt>
<rscale>  0 0.12499977E+03</rscale>
<asrwt>0</asrwt>
<pdfrwt beam="2">  1        4 0.98004212E-02 0.12499977E+03</pdfrwt>
<pdfrwt beam="1">  1       -4 0.94338065E-02 0.12499977E+03</pdfrwt>
<totfact> 0.10452429E+04</totfact>
</mgrwt>
</event>
<event>
 5    1  0.3486294E-002  0.1249951E+03  0.7818608E-02  0.1235077E+00
          4   -1    0    0  501    0  0.00000000000E+00  0.00000000000E+00  0.30658218649E+02  0.30684511903E+02  0.12700000000E+01 0. -1.
         -4   -1    0    0    0  501 -0.00000000000E+00 -0.00000000000E+00 -0.12731874940E+03  0.12732508334E+03  0.12700000000E+01 0. -1.
         25    2    1    2    0    0  0.00000000000E+00  0.00000000000E+00 -0.96660530746E+02  0.15800959524E+03  0.12499509584E+03 0.  0.
    9000005    1    3    3    0    0  0.22746262070E+02  0.45149686207E+02 -0.18995238705E+01  0.50601331936E+02  0.10000000000E+01 0.  0.
    9000005    1    3    3    0    0 -0.22746262070E+02 -0.45149686207E+02 -0.94761006876E+02  0.10740826331E+03  0.10000000000E+01 0.  0.
<mgrwt>
<rscale>  0 0.12499510E+03</rscale>
<asrwt>0</asrwt>
<pdfrwt beam="1">  1        4 0.47191589E-02 0.12499510E+03</pdfrwt>
<pdfrwt beam="2">  1       -4 0.19590009E-01 0.12499510E+03</pdfrwt>
<totfact> 0.97738673E+03</totfact>
</mgrwt>
</event>
<event>
 5    1  0.3486294E-002  0.1249988E+03  0.7818608E-02  0.1235071E+00
          4   -1    0    0  501    0  0.00000000000E+00  0.00000000000E+00  0.40738432475E+03  0.40738630433E+03  0.12700000000E+01 0. -1.
         -4   -1    0    0    0  501 -0.00000000000E+00 -0.00000000000E+00 -0.95443550262E+01  0.96284792603E+01  0.12700000000E+01 0. -1.
         25    2    1    2    0    0  0.00000000000E+00  0.00000000000E+00  0.39783996973E+03  0.41701478359E+03  0.12499875287E+03 0.  0.
    9000005    1    3    3    0    0  0.29886375621E+02  0.32167241184E+02  0.50573917899E+02  0.66982445647E+02  0.10000000000E+01 0.  0.
    9000005    1    3    3    0    0 -0.29886375621E+02 -0.32167241184E+02  0.34726605183E+03  0.35003233794E+03  0.10000000000E+01 0.  0.
<mgrwt>
<rscale>  0 0.12499875E+03</rscale>
<asrwt>0</asrwt>
<pdfrwt beam="1">  1        4 0.62681133E-01 0.12499875E+03</pdfrwt>
<pdfrwt beam="2">  1       -4 0.14749857E-02 0.12499875E+03</pdfrwt>
<totfact> 0.62932653E+03</totfact>
</mgrwt>
</event>
<event>
 5    1  0.3486294E-002  0.1249995E+03  0.7818608E-02  0.1235070E+00
          4   -1    0    0  501    0  0.00000000000E+00  0.00000000000E+00  0.78271412472E+01  0.79295044047E+01  0.12700000000E+01 0. -1.
         -4   -1    0    0    0  501 -0.00000000000E+00 -0.00000000000E+00 -0.49571517942E+03  0.49571680626E+03  0.12700000000E+01 0. -1.
         25    2    1    2    0    0  0.00000000000E+00  0.00000000000E+00 -0.48788803817E+03  0.50364631066E+03  0.12499947381E+03 0.  0.
    9000005    1    3    3    0    0  0.26815374069E+02 -0.19430087848E+02 -0.30411357625E+02  0.44971582948E+02  0.10000000000E+01 0.  0.
    9000005    1    3    3    0    0 -0.26815374069E+02  0.19430087848E+02 -0.45747668055E+03  0.45867472771E+03  0.10000000000E+01 0.  0.
<mgrwt>
<rscale>  0 0.12499947E+03</rscale>
<asrwt>0</asrwt>
<pdfrwt beam="1">  1        4 0.12121752E-02 0.12499947E+03</pdfrwt>
<pdfrwt beam="2">  1       -4 0.76271848E-01 0.12499947E+03</pdfrwt>
<totfact> 0.55583217E+03</totfact>
</mgrwt>
</event>
<event>
 5    1  0.3486294E-002  0.1250106E+03  0.7818608E-02  0.1235053E+00
          4   -1    0    0  501    0  0.00000000000E+00  0.00000000000E+00  0.14822252690E+03  0.14822796760E+03  0.12700000000E+01 0.  1.
         -4   -1    0    0    0  501 -0.00000000000E+00 -0.00000000000E+00 -0.26337187080E+02  0.26367789504E+02  0.12700000000E+01 0.  1.
         25    2    1    2    0    0  0.00000000000E+00  0.00000000000E+00  0.12188533982E+03  0.17459575711E+03  0.12501056890E+03 0.  0.
    9000005    1    3    3    0    0  0.80316090780E+01  0.61503864490E+02  0.71641257057E+02  0.94766564802E+02  0.10000000000E+01 0.  0.
    9000005    1    3    3    0    0 -0.80316090780E+01 -0.61503864490E+02  0.50244082758E+02  0.79829192303E+02  0.10000000000E+01 0.  0.
<mgrwt>
<rscale>  0 0.12501057E+03</rscale>
<asrwt>0</asrwt>
<pdfrwt beam="1">  1        4 0.22806239E-01 0.12501057E+03</pdfrwt>
<pdfrwt beam="2">  1       -4 0.40546474E-02 0.12501057E+03</pdfrwt>
<totfact> 0.94576502E+03</totfact>
</mgrwt>
</event>
<event>
 5    1  0.3486294E-002  0.1249868E+03  0.7818608E-02  0.1235090E+00
         -4   -1    0    0    0  501 -0.00000000000E+00  0.00000000000E+00  0.40453471512E+02  0.40473401851E+02  0.12700000000E+01 0. -1.
          4   -1    0    0  501    0  0.00000000000E+00 -0.00000000000E+00 -0.96493294278E+02  0.96501651491E+02  0.12700000000E+01 0. -1.
         25    2    1    2    0    0  0.00000000000E+00  0.00000000000E+00 -0.56039822765E+02  0.13697505334E+03  0.12498681331E+03 0.  0.
    9000005    1    3    3    0    0  0.25929942457E+02 -0.56820788248E+02 -0.25980805732E+02  0.67653279000E+02  0.10000000000E+01 0.  0.
    9000005    1    3    3    0    0 -0.25929942457E+02  0.56820788248E+02 -0.30059017033E+02  0.69321774342E+02  0.10000000000E+01 0.  0.
<mgrwt>
<rscale>  0 0.12498681E+03</rscale>
<asrwt>0</asrwt>
<pdfrwt beam="2">  1        4 0.14847298E-01 0.12498681E+03</pdfrwt>
<pdfrwt beam="1">  1       -4 0.62257870E-02 0.12498681E+03</pdfrwt>
<totfact> 0.10199640E+04</totfact>
</mgrwt>
</event>
<event>
 5    1  0.3486294E-002  0.1249921E+03  0.7818608E-02  0.1235082E+00
         -4   -1    0    0    0  501 -0.00000000000E+00  0.00000000000E+00  0.33810879201E+02  0.33834722585E+02  0.12700000000E+01 0. -1.
          4   -1    0    0  501    0  0.00000000000E+00 -0.00000000000E+00 -0.11544966528E+03  0.11545665036E+03  0.12700000000E+01 0. -1.
         25    2    1    2    0    0  0.00000000000E+00  0.00000000000E+00 -0.81638786074E+02  0.14929137294E+03  0.12499209033E+03 0.  0.
    9000005    1    3    3    0    0  0.13720907806E+02  0.53363781821E+02 -0.56137831709E+01  0.55393781986E+02  0.10000000000E+01 0.  0.
    9000005    1    3    3    0    0 -0.13720907806E+02 -0.53363781821E+02 -0.76025002904E+02  0.93897590958E+02  0.10000000000E+01 0.  0.
<mgrwt>
<rscale>  0 0.12499209E+03</rscale>
<asrwt>0</asrwt>
<pdfrwt beam="2">  1        4 0.17763858E-01 0.12499209E+03</pdfrwt>
<pdfrwt beam="1">  1       -4 0.52040452E-02 0.12499209E+03</pdfrwt>
<totfact> 0.99462846E+03</totfact>
</mgrwt>
</event>
<event>
 5    1  0.3486294E-002  0.1250038E+03  0.7818608E-02  0.1235063E+00
          4   -1    0    0  501    0  0.00000000000E+00  0.00000000000E+00  0.29386035349E+03  0.29386309781E+03  0.12700000000E+01 0.  1.
         -4   -1    0    0    0  501 -0.00000000000E+00 -0.00000000000E+00 -0.13260547993E+02  0.13321224909E+02  0.12700000000E+01 0.  1.
         25    2    1    2    0    0  0.00000000000E+00  0.00000000000E+00  0.28059980549E+03  0.30718432271E+03  0.12500382905E+03 0.  0.
    9000005    1    3    3    0    0  0.93589752173E-01  0.25100057804E+02  0.28094104632E+03  0.28206186053E+03  0.10000000000E+01 0.  0.
    9000005    1    3    3    0    0 -0.93589752173E-01 -0.25100057804E+02 -0.34124082351E+00  0.25122462182E+02  0.10000000000E+01 0.  0.
<mgrwt>
<rscale>  0 0.12500383E+03</rscale>
<asrwt>0</asrwt>
<pdfrwt beam="1">  1        4 0.45214162E-01 0.12500383E+03</pdfrwt>
<pdfrwt beam="2">  1       -4 0.20449629E-02 0.12500383E+03</pdfrwt>
<totfact> 0.74700051E+03</totfact>
</mgrwt>
</event>
<event>
 5    1  0.3486294E-002  0.1250013E+03  0.7818608E-02  0.1235067E+00
         -4   -1    0    0    0  501 -0.00000000000E+00  0.00000000000E+00  0.42952618756E+03  0.42952806509E+03  0.12700000000E+01 0.  1.
          4   -1    0    0  501    0  0.00000000000E+00 -0.00000000000E+00 -0.90482738249E+01  0.91369666307E+01  0.12700000000E+01 0.  1.
         25    2    1    2    0    0  0.00000000000E+00  0.00000000000E+00  0.42047791374E+03  0.43866503172E+03  0.12500133645E+03 0.  0.
    9000005    1    3    3    0    0  0.16930357154E+02  0.40345407220E+02  0.36682316235E+03  0.36942471671E+03  0.10000000000E+01 0.  0.
    9000005    1    3    3    0    0 -0.16930357154E+02 -0.40345407220E+02  0.53654751387E+02  0.69240315016E+02  0.10000000000E+01 0.  0.
<mgrwt>
<rscale>  0 0.12500134E+03</rscale>
<asrwt>0</asrwt>
<pdfrwt beam="2">  1        4 0.13990090E-02 0.12500134E+03</pdfrwt>
<pdfrwt beam="1">  1       -4 0.66087922E-01 0.12500134E+03</pdfrwt>
<totfact> 0.60956537E+03</totfact>
</mgrwt>
</event>
<event>
 5    1  0.3486294E-002  0.1249984E+03  0.7818608E-02  0.1235072E+00
          4   -1    0    0  501    0  0.00000000000E+00  0.00000000000E+00  0.19263014168E+03  0.19263432815E+03  0.12700000000E+01 0. -1.
         -4   -1    0    0    0  501 -0.00000000000E+00 -0.00000000000E+00 -0.20253671752E+02  0.20293450161E+02  0.12700000000E+01 0. -1.
         25    2    1    2    0    0  0.00000000000E+00  0.00000000000E+00  0.17237646993E+03  0.21292777831E+03  0.12499836556E+03 0.  0.
    9000005    1    3    3    0    0  0.19894728211E+02 -0.53962396242E+02  0.44552781597E+02  0.72757753998E+02  0.10000000000E+01 0.  0.
    9000005    1    3    3    0    0 -0.19894728211E+02  0.53962396242E+02  0.12782368833E+03  0.14017002432E+03  0.10000000000E+01 0.  0.
<mgrwt>
<rscale>  0 0.12499837E+03</rscale>
<asrwt>0</asrwt>
<pdfrwt beam="1">  1        4 0.29638788E-01 0.12499837E+03</pdfrwt>
<pdfrwt beam="2">  1       -4 0.31193314E-02 0.12499837E+03</pdfrwt>
<totfact> 0.88003172E+03</totfact>
</mgrwt>
</event>
<event>
 5    1  0.3486294E-002  0.1249988E+03  0.7818608E-02  0.1235071E+00
         -4   -1    0    0    0  501 -0.00000000000E+00  0.00000000000E+00  0.51136131630E+03  0.51136289336E+03  0.12700000000E+01 0.  1.
          4   -1    0    0  501    0  0.00000000000E+00 -0.00000000000E+00 -0.75843860704E+01  0.76899812786E+01  0.12700000000E+01 0.  1.
         25    2    1    2    0    0  0.00000000000E+00  0.00000000000E+00  0.50377693023E+03  0.51905287464E+03  0.12499876496E+03 0.  0.
    9000005    1    3    3    0    0 -0.22293504622E+02  0.56721716411E+02  0.30924951399E+03  0.31519932640E+03  0.10000000000E+01 0.  0.
    9000005    1    3    3    0    0  0.22293504622E+02 -0.56721716411E+02  0.19452741624E+03  0.20385354824E+03  0.10000000000E+01 0.  0.
<mgrwt>
<rscale>  0 0.12499876E+03</rscale>
<asrwt>0</asrwt>
<pdfrwt beam="2">  1        4 0.11750728E-02 0.12499876E+03</pdfrwt>
<pdfrwt beam="1">  1       -4 0.78679205E-01 0.12499876E+03</pdfrwt>
<totfact> 0.54417299E+03</totfact>
</mgrwt>
</event>
<event>
 5    1  0.3486294E-002  0.1250016E+03  0.7818608E-02  0.1235067E+00
          4   -1    0    0  501    0  0.00000000000E+00  0.00000000000E+00  0.51875805224E+02  0.51891348678E+02  0.12700000000E+01 0. -1.
         -4   -1    0    0    0  501 -0.00000000000E+00 -0.00000000000E+00 -0.75269813133E+02  0.75280526494E+02  0.12700000000E+01 0. -1.
         25    2    1    2    0    0  0.00000000000E+00  0.00000000000E+00 -0.23394007910E+02  0.12717187517E+03  0.12500162490E+03 0.  0.
    9000005    1    3    3    0    0  0.32540075782E+02  0.43672396488E+02 -0.42875728499E+02  0.69321445752E+02  0.10000000000E+01 0.  0.
    9000005    1    3    3    0    0 -0.32540075782E+02 -0.43672396488E+02  0.19481720589E+02  0.57850429419E+02  0.10000000000E+01 0.  0.
<mgrwt>
<rscale>  0 0.12500162E+03</rscale>
<asrwt>0</asrwt>
<pdfrwt beam="1">  1        4 0.79829128E-02 0.12500162E+03</pdfrwt>
<pdfrwt beam="2">  1       -4 0.11581991E-01 0.12500162E+03</pdfrwt>
<totfact> 0.10405032E+04</totfact>
</mgrwt>
</event>
<event>
 5    1  0.3486294E-002  0.1250016E+03  0.7818608E-02  0.1235067E+00
         -4   -1    0    0    0  501 -0.00000000000E+00  0.00000000000E+00  0.20584144541E+01  0.24186711361E+01  0.12700000000E+01 0.  1.
          4   -1    0    0  501    0  0.00000000000E+00 -0.00000000000E+00 -0.17446807870E+04  0.17446812492E+04  0.12700000000E+01 0.  1.
         25    2    1    2    0    0  0.00000000000E+00  0.00000000000E+00 -0.17426223725E+04  0.17470999203E+04  0.12500159382E+03 0.  0.
    9000005    1    3    3    0    0 -0.51350026438E+02 -0.29356324176E+02 -0.58943678730E+03  0.59239796185E+03  0.10000000000E+01 0.  0.
    9000005    1    3    3    0    0  0.51350026438E+02  0.29356324176E+02 -0.11531855852E+04  0.11547019585E+04  0.10000000000E+01 0.  0.
<mgrwt>
<rscale>  0 0.12500159E+03</rscale>
<asrwt>0</asrwt>
<pdfrwt beam="2">  1        4 0.26843909E+00 0.12500159E+03</pdfrwt>
<pdfrwt beam="1">  1       -4 0.34442815E-03 0.12500159E+03</pdfrwt>
<totfact> 0.13536010E+03</totfact>
</mgrwt>
</event>
<event>
 5    1  0.3486294E-002  0.1250004E+03  0.7818608E-02  0.1235069E+00
         -4   -1    0    0    0  501 -0.00000000000E+00  0.00000000000E+00  0.11856751298E+02  0.11924573424E+02  0.12700000000E+01 0. -1.
          4   -1    0    0  501    0  0.00000000000E+00 -0.00000000000E+00 -0.32844719085E+03  0.32844964618E+03  0.12700000000E+01 0. -1.
         25    2    1    2    0    0  0.00000000000E+00  0.00000000000E+00 -0.31659043955E+03  0.34037421961E+03  0.12500041183E+03 0.  0.
    9000005    1    3    3    0    0 -0.45583773244E+02 -0.38754420701E+02 -0.10916890408E+03  0.12449351439E+03  0.10000000000E+01 0.  0.
    9000005    1    3    3    0    0  0.45583773244E+02  0.38754420701E+02 -0.20742153548E+03  0.21588070522E+03  0.10000000000E+01 0.  0.
<mgrwt>
<rscale>  0 0.12500041E+03</rscale>
<asrwt>0</asrwt>
<pdfrwt beam="2">  1        4 0.50535736E-01 0.12500041E+03</pdfrwt>
<pdfrwt beam="1">  1       -4 0.18295218E-02 0.12500041E+03</pdfrwt>
<totfact> 0.70796012E+03</totfact>
</mgrwt>
</event>
<event>
 5    1  0.3486294E-002  0.1250057E+03  0.7818608E-02  0.1235060E+00
          4   -1    0    0  501    0  0.00000000000E+00  0.00000000000E+00  0.78204055409E+02  0.78214366854E+02  0.12700000000E+01 0.  1.
         -4   -1    0    0    0  501 -0.00000000000E+00 -0.00000000000E+00 -0.49932365552E+02  0.49948513788E+02  0.12700000000E+01 0.  1.
         25    2    1    2    0    0  0.00000000000E+00  0.00000000000E+00  0.28271689857E+02  0.12816288064E+03  0.12500574198E+03 0.  0.
    9000005    1    3    3    0    0  0.18045718524E+02  0.57796097669E+02 -0.17331837300E+01  0.60580861571E+02  0.10000000000E+01 0.  0.
    9000005    1    3    3    0    0 -0.18045718524E+02 -0.57796097669E+02  0.30004873587E+02  0.67582019071E+02  0.10000000000E+01 0.  0.
<mgrwt>
<rscale>  0 0.12500574E+03</rscale>
<asrwt>0</asrwt>
<pdfrwt beam="1">  1        4 0.12033428E-01 0.12500574E+03</pdfrwt>
<pdfrwt beam="2">  1       -4 0.76839378E-02 0.12500574E+03</pdfrwt>
<totfact> 0.10382626E+04</totfact>
</mgrwt>
</event>
<event>
 5    1  0.3486294E-002  0.1249995E+03  0.7818608E-02  0.1235070E+00
         -4   -1    0    0    0  501 -0.00000000000E+00  0.00000000000E+00  0.74494675777E+01  0.75569482723E+01  0.12700000000E+01 0.  1.
          4   -1    0    0  501    0  0.00000000000E+00 -0.00000000000E+00 -0.52049781376E+03  0.52049936314E+03  0.12700000000E+01 0.  1.
         25    2    1    2    0    0  0.00000000000E+00  0.00000000000E+00 -0.51304834618E+03  0.52805631141E+03  0.12499945001E+03 0.  0.
    9000005    1    3    3    0    0 -0.63908266627E+00  0.16224914904E+02 -0.15971755753E+01  0.16346475464E+02  0.10000000000E+01 0.  0.
    9000005    1    3    3    0    0  0.63908266627E+00 -0.16224914904E+02 -0.51145117061E+03  0.51170983595E+03  0.10000000000E+01 0.  0.
<mgrwt>
<rscale>  0 0.12499945E+03</rscale>
<asrwt>0</asrwt>
<pdfrwt beam="2">  1        4 0.80084945E-01 0.12499945E+03</pdfrwt>
<pdfrwt beam="1">  1       -4 0.11544593E-02 0.12499945E+03</pdfrwt>
<totfact> 0.53752070E+03</totfact>
</mgrwt>
</event>
<event>
 5    1  0.3486294E-002  0.1249963E+03  0.7818608E-02  0.1235075E+00
         -4   -1    0    0    0  501 -0.00000000000E+00  0.00000000000E+00  0.11321631867E+03  0.11322344154E+03  0.12700000000E+01 0.  1.
          4   -1    0    0  501    0  0.00000000000E+00 -0.00000000000E+00 -0.34480575514E+02  0.34503956118E+02  0.12700000000E+01 0.  1.
         25    2    1    2    0    0  0.00000000000E+00  0.00000000000E+00  0.78735743159E+02  0.14772739766E+03  0.12499626701E+03 0.  0.
    9000005    1    3    3    0    0  0.54358030859E+02  0.17965986144E+02  0.97637848507E+01  0.58085313735E+02  0.10000000000E+01 0.  0.
    9000005    1    3    3    0    0 -0.54358030859E+02 -0.17965986144E+02  0.68971958308E+02  0.89642083922E+02  0.10000000000E+01 0.  0.
<mgrwt>
<rscale>  0 0.12499627E+03</rscale>
<asrwt>0</asrwt>
<pdfrwt beam="2">  1        4 0.53070503E-02 0.12499627E+03</pdfrwt>
<pdfrwt beam="1">  1       -4 0.17420242E-01 0.12499627E+03</pdfrwt>
<totfact> 0.99767034E+03</totfact>
</mgrwt>
</event>
<event>
 5    1  0.3486294E-002  0.1250011E+03  0.7818608E-02  0.1235068E+00
          4   -1    0    0  501    0  0.00000000000E+00  0.00000000000E+00  0.22821744993E+02  0.22857054590E+02  0.12700000000E+01 0. -1.
         -4   -1    0    0    0  501 -0.00000000000E+00 -0.00000000000E+00 -0.17099645650E+03  0.17100117261E+03  0.12700000000E+01 0. -1.
         25    2    1    2    0    0  0.00000000000E+00  0.00000000000E+00 -0.14817471151E+03  0.19385822720E+03  0.12500106849E+03 0.  0.
    9000005    1    3    3    0    0  0.32090059329E+02 -0.95441666592E+01  0.77479136304E+01  0.34378673485E+02  0.10000000000E+01 0.  0.
    9000005    1    3    3    0    0 -0.32090059329E+02  0.95441666592E+01 -0.15592262514E+03  0.15947955372E+03  0.10000000000E+01 0.  0.
<mgrwt>
<rscale>  0 0.12500107E+03</rscale>
<asrwt>0</asrwt>
<pdfrwt beam="1">  1        4 0.35141167E-02 0.12500107E+03</pdfrwt>
<pdfrwt beam="2">  1       -4 0.26310225E-01 0.12500107E+03</pdfrwt>
<totfact> 0.91178115E+03</totfact>
</mgrwt>
</event>
<event>
 5    1  0.3486294E-002  0.1249974E+03  0.7818608E-02  0.1235073E+00
          4   -1    0    0  501    0  0.00000000000E+00  0.00000000000E+00  0.43719772859E+02  0.43738214857E+02  0.12700000000E+01 0. -1.
         -4   -1    0    0    0  501 -0.00000000000E+00 -0.00000000000E+00 -0.89301976984E+02  0.89311007123E+02  0.12700000000E+01 0. -1.
         25    2    1    2    0    0  0.00000000000E+00  0.00000000000E+00 -0.45582204125E+02  0.13304922198E+03  0.12499743252E+03 0.  0.
    9000005    1    3    3    0    0  0.71677695171E+01 -0.52293819504E+02 -0.58398455078E+02  0.78723567206E+02  0.10000000000E+01 0.  0.
    9000005    1    3    3    0    0 -0.71677695171E+01  0.52293819504E+02  0.12816250952E+02  0.54325654774E+02  0.10000000000E+01 0.  0.
<mgrwt>
<rscale>  0 0.12499743E+03</rscale>
<asrwt>0</asrwt>
<pdfrwt beam="1">  1        4 0.67282322E-02 0.12499743E+03</pdfrwt>
<pdfrwt beam="2">  1       -4 0.13740879E-01 0.12499743E+03</pdfrwt>
<totfact> 0.10279949E+04</totfact>
</mgrwt>
</event>
<event>
 5    1  0.3486294E-002  0.1250023E+03  0.7818608E-02  0.1235066E+00
         -4   -1    0    0    0  501 -0.00000000000E+00  0.00000000000E+00  0.45211917517E+02  0.45229751111E+02  0.12700000000E+01 0.  1.
          4   -1    0    0  501    0  0.00000000000E+00 -0.00000000000E+00 -0.86362307364E+02  0.86371644845E+02  0.12700000000E+01 0.  1.
         25    2    1    2    0    0  0.00000000000E+00  0.00000000000E+00 -0.41150389847E+02  0.13160139596E+03  0.12500229131E+03 0.  0.
    9000005    1    3    3    0    0 -0.55068694778E+02 -0.74458862603E+01 -0.50674564948E+02  0.75212458405E+02  0.10000000000E+01 0.  0.
    9000005    1    3    3    0    0  0.55068694778E+02  0.74458862603E+01  0.95241751015E+01  0.56388937551E+02  0.10000000000E+01 0.  0.
<mgrwt>
<rscale>  0 0.12500229E+03</rscale>
<asrwt>0</asrwt>
<pdfrwt beam="2">  1        4 0.13288599E-01 0.12500229E+03</pdfrwt>
<pdfrwt beam="1">  1       -4 0.69577697E-02 0.12500229E+03</pdfrwt>
<totfact> 0.10309681E+04</totfact>
</mgrwt>
</event>
<event>
 5    1  0.3486294E-002  0.1249985E+03  0.7818608E-02  0.1235072E+00
          4   -1    0    0  501    0  0.00000000000E+00  0.00000000000E+00  0.55891828743E+02  0.55906255645E+02  0.12700000000E+01 0. -1.
         -4   -1    0    0    0  501 -0.00000000000E+00 -0.00000000000E+00 -0.69858527547E+02  0.69870070639E+02  0.12700000000E+01 0. -1.
         25    2    1    2    0    0  0.00000000000E+00  0.00000000000E+00 -0.13966698805E+02  0.12577632628E+03  0.12499846230E+03 0.  0.
    9000005    1    3    3    0    0 -0.57386441183E+02  0.19366010238E+01  0.17831828077E+02  0.60132588067E+02  0.10000000000E+01 0.  0.
    9000005    1    3    3    0    0  0.57386441183E+02 -0.19366010238E+01 -0.31798526882E+02  0.65643738216E+02  0.10000000000E+01 0.  0.
<mgrwt>
<rscale>  0 0.12499846E+03</rscale>
<asrwt>0</asrwt>
<pdfrwt beam="1">  1        4 0.86007406E-02 0.12499846E+03</pdfrwt>
<pdfrwt beam="2">  1       -4 0.10749463E-01 0.12499846E+03</pdfrwt>
<totfact> 0.10436228E+04</totfact>
</mgrwt>
</event>
<event>
 5    1  0.3486294E-002  0.1250008E+03  0.7818608E-02  0.1235068E+00
          4   -1    0    0  501    0  0.00000000000E+00  0.00000000000E+00  0.29029185982E+03  0.29029463788E+03  0.12700000000E+01 0. -1.
         -4   -1    0    0    0  501 -0.00000000000E+00 -0.00000000000E+00 -0.13423651022E+02  0.13483593985E+02  0.12700000000E+01 0. -1.
         25    2    1    2    0    0  0.00000000000E+00  0.00000000000E+00  0.27686820880E+03  0.30377823186E+03  0.12500083643E+03 0.  0.
    9000005    1    3    3    0    0  0.15767079022E+02  0.38924865142E+02  0.25089679929E+03  0.25438936653E+03  0.10000000000E+01 0.  0.
    9000005    1    3    3    0    0 -0.15767079022E+02 -0.38924865142E+02  0.25971409511E+02  0.49388865336E+02  0.10000000000E+01 0.  0.
<mgrwt>
<rscale>  0 0.12500084E+03</rscale>
<asrwt>0</asrwt>
<pdfrwt beam="1">  1        4 0.44665107E-01 0.12500084E+03</pdfrwt>
<pdfrwt beam="2">  1       -4 0.20700019E-02 0.12500084E+03</pdfrwt>
<totfact> 0.75125942E+03</totfact>
</mgrwt>
</event>
<event>
 5    1  0.3486294E-002  0.1250038E+03  0.7818608E-02  0.1235063E+00
          4   -1    0    0  501    0  0.00000000000E+00  0.00000000000E+00  0.11078031728E+03  0.11078759677E+03  0.12700000000E+01 0. -1.
         -4   -1    0    0    0  501 -0.00000000000E+00 -0.00000000000E+00 -0.35243493165E+02  0.35266367979E+02  0.12700000000E+01 0. -1.
         25    2    1    2    0    0  0.00000000000E+00  0.00000000000E+00  0.75536824120E+02  0.14605396475E+03  0.12500379522E+03 0.  0.
    9000005    1    3    3    0    0  0.34615373878E+02 -0.51109557750E+02  0.26375727667E+02  0.67134864356E+02  0.10000000000E+01 0.  0.
    9000005    1    3    3    0    0 -0.34615373878E+02  0.51109557750E+02  0.49161096453E+02  0.78919100391E+02  0.10000000000E+01 0.  0.
<mgrwt>
<rscale>  0 0.12500380E+03</rscale>
<asrwt>0</asrwt>
<pdfrwt beam="1">  1        4 0.17045445E-01 0.12500380E+03</pdfrwt>
<pdfrwt beam="2">  1       -4 0.54243955E-02 0.12500380E+03</pdfrwt>
<totfact> 0.10008763E+04</totfact>
</mgrwt>
</event>
<event>
 5    1  0.3486294E-002  0.1250031E+03  0.7818608E-02  0.1235064E+00
          4   -1    0    0  501    0  0.00000000000E+00  0.00000000000E+00  0.37468192569E+02  0.37489709980E+02  0.12700000000E+01 0.  1.
         -4   -1    0    0    0  501 -0.00000000000E+00 -0.00000000000E+00 -0.10420491694E+03  0.10421265573E+03  0.12700000000E+01 0.  1.
         25    2    1    2    0    0  0.00000000000E+00  0.00000000000E+00 -0.66736724375E+02  0.14170236571E+03  0.12500308024E+03 0.  0.
    9000005    1    3    3    0    0 -0.72942441064E+01  0.57293675380E+02 -0.60424671127E+02  0.83593732519E+02  0.10000000000E+01 0.  0.
    9000005    1    3    3    0    0  0.72942441064E+01 -0.57293675380E+02 -0.63120532475E+01  0.58108633195E+02  0.10000000000E+01 0.  0.
<mgrwt>
<rscale>  0 0.12500308E+03</rscale>
<asrwt>0</asrwt>
<pdfrwt beam="1">  1        4 0.57665878E-02 0.12500308E+03</pdfrwt>
<pdfrwt beam="2">  1       -4 0.16033776E-01 0.12500308E+03</pdfrwt>
<totfact> 0.10097724E+04</totfact>
</mgrwt>
</event>
<event>
 5    1  0.3486294E-002  0.1249989E+03  0.7818608E-02  0.1235071E+00
          4   -1    0    0  501    0  0.00000000000E+00  0.00000000000E+00  0.44995697403E+01  0.46753639267E+01  0.12700000000E+01 0. -1.
         -4   -1    0    0    0  501 -0.00000000000E+00 -0.00000000000E+00 -0.85131367857E+03  0.85131462587E+03  0.12700000000E+01 0. -1.
         25    2    1    2    0    0  0.00000000000E+00  0.00000000000E+00 -0.84681410883E+03  0.85598998980E+03  0.12499891087E+03 0.  0.
    9000005    1    3    3    0    0  0.25943208333E+01 -0.14061796998E+02 -0.83999376527E+03  0.84011605765E+03  0.10000000000E+01 0.  0.
    9000005    1    3    3    0    0 -0.25943208333E+01  0.14061796998E+02 -0.68203435596E+01  0.15873932143E+02  0.10000000000E+01 0.  0.
<mgrwt>
<rscale>  0 0.12499891E+03</rscale>
<asrwt>0</asrwt>
<pdfrwt beam="1">  1        4 0.70583768E-03 0.12499891E+03</pdfrwt>
<pdfrwt beam="2">  1       -4 0.13098480E+00 0.12499891E+03</pdfrwt>
<totfact> 0.35884338E+03</totfact>
</mgrwt>
</event>
<event>
 5    1  0.3486294E-002  0.1249902E+03  0.7818608E-02  0.1235085E+00
          4   -1    0    0  501    0  0.00000000000E+00  0.00000000000E+00  0.11502193063E+02  0.11572093383E+02  0.12700000000E+01 0. -1.
         -4   -1    0    0    0  501 -0.00000000000E+00 -0.00000000000E+00 -0.33845604488E+03  0.33845842760E+03  0.12700000000E+01 0. -1.
         25    2    1    2    0    0  0.00000000000E+00  0.00000000000E+00 -0.32695385181E+03  0.35003052098E+03  0.12499017723E+03 0.  0.
    9000005    1    3    3    0    0  0.61954161206E+02 -0.81087791787E+01 -0.16137059217E+03  0.17304779226E+03  0.10000000000E+01 0.  0.
    9000005    1    3    3    0    0 -0.61954161206E+02  0.81087791787E+01 -0.16558325965E+03  0.17698272872E+03  0.10000000000E+01 0.  0.
<mgrwt>
<rscale>  0 0.12499018E+03</rscale>
<asrwt>0</asrwt>
<pdfrwt beam="1">  1        4 0.17751287E-02 0.12499018E+03</pdfrwt>
<pdfrwt beam="2">  1       -4 0.52075713E-01 0.12499018E+03</pdfrwt>
<totfact> 0.69736360E+03</totfact>
</mgrwt>
</event>
<event>
 5    1  0.3486294E-002  0.1250141E+03  0.7818608E-02  0.1235047E+00
          4   -1    0    0  501    0  0.00000000000E+00  0.00000000000E+00  0.11063703819E+03  0.11064432710E+03  0.12700000000E+01 0. -1.
         -4   -1    0    0    0  501 -0.00000000000E+00 -0.00000000000E+00 -0.35294979157E+02  0.35317820624E+02  0.12700000000E+01 0. -1.
         25    2    1    2    0    0  0.00000000000E+00  0.00000000000E+00  0.75342059038E+02  0.14596214773E+03  0.12501409004E+03 0.  0.
    9000005    1    3    3    0    0 -0.25155115422E+02  0.33382157842E+02 -0.16579730944E+02  0.44978169952E+02  0.10000000000E+01 0.  0.
    9000005    1    3    3    0    0  0.25155115422E+02 -0.33382157842E+02  0.91921789982E+02  0.10098397778E+03  0.10000000000E+01 0.  0.
<mgrwt>
<rscale>  0 0.12501409E+03</rscale>
<asrwt>0</asrwt>
<pdfrwt beam="1">  1        4 0.17023400E-01 0.12501409E+03</pdfrwt>
<pdfrwt beam="2">  1       -4 0.54323146E-02 0.12501409E+03</pdfrwt>
<totfact> 0.10008301E+04</totfact>
</mgrwt>
</event>
<event>
 4    1  0.3486294E-002  0.1251632E+03  0.7818608E-02  0.1234814E+00
         -4   -1    0    0    0  501 -0.00000000000E+00  0.00000000000E+00  0.24519396416E+03  0.24519725316E+03  0.12700000000E+01 0.  1.
          4   -1    0    0  501    0  0.00000000000E+00 -0.00000000000E+00 -0.15944241044E+02  0.15994740463E+02  0.12700000000E+01 0.  1.
    9000005    1    1    2    0    0  0.52544770834E+01 -0.56928915790E+02  0.16770313457E+03  0.17718310396E+03  0.10000000000E+01 0.  0.
    9000005    1    1    2    0    0 -0.52544770834E+01  0.56928915790E+02  0.61546588539E+02  0.84008889668E+02  0.10000000000E+01 0.  0.
<mgrwt>
<rscale>  0 0.12516318E+03</rscale>
<asrwt>0</asrwt>
<pdfrwt beam="2">  1        4 0.24570978E-02 0.12516318E+03</pdfrwt>
<pdfrwt beam="1">  1       -4 0.37726285E-01 0.12516318E+03</pdfrwt>
<totfact> 0.80446521E+03</totfact>
</mgrwt>
</event>
<event>
 5    1  0.3486294E-002  0.1250010E+03  0.7818608E-02  0.1235068E+00
          4   -1    0    0  501    0  0.00000000000E+00  0.00000000000E+00  0.72395352044E+03  0.72395463440E+03  0.12700000000E+01 0.  1.
         -4   -1    0    0    0  501 -0.00000000000E+00 -0.00000000000E+00 -0.53199442333E+01  0.54694338506E+01  0.12700000000E+01 0.  1.
         25    2    1    2    0    0  0.00000000000E+00  0.00000000000E+00  0.71863357621E+03  0.72942406825E+03  0.12500101792E+03 0.  0.
    9000005    1    3    3    0    0 -0.39276375582E+02 -0.36198477406E+02  0.17001850352E+03  0.17821407066E+03  0.10000000000E+01 0.  0.
    9000005    1    3    3    0    0  0.39276375582E+02  0.36198477406E+02  0.54861507269E+03  0.55120999758E+03  0.10000000000E+01 0.  0.
<mgrwt>
<rscale>  0 0.12500102E+03</rscale>
<asrwt>0</asrwt>
<pdfrwt beam="1">  1        4 0.11138896E+00 0.12500102E+03</pdfrwt>
<pdfrwt beam="2">  1       -4 0.83003850E-03 0.12500102E+03</pdfrwt>
<totfact> 0.41577246E+03</totfact>
</mgrwt>
</event>
<event>
 5    1  0.3486294E-002  0.1249986E+03  0.7818608E-02  0.1235072E+00
          4   -1    0    0  501    0  0.00000000000E+00  0.00000000000E+00  0.30547104274E+01  0.33081952474E+01  0.12700000000E+01 0. -1.
         -4   -1    0    0    0  501 -0.00000000000E+00 -0.00000000000E+00 -0.12275375368E+04  0.12275381937E+04  0.12700000000E+01 0. -1.
         25    2    1    2    0    0  0.00000000000E+00  0.00000000000E+00 -0.12244828263E+04  0.12308463890E+04  0.12499856505E+03 0.  0.
    9000005    1    3    3    0    0  0.14236376993E+02 -0.57274524194E+02 -0.81454989912E+03  0.81668573130E+03  0.10000000000E+01 0.  0.
    9000005    1    3    3    0    0 -0.14236376993E+02  0.57274524194E+02 -0.40993292720E+03  0.41416065767E+03  0.10000000000E+01 0.  0.
<mgrwt>
<rscale>  0 0.12499857E+03</rscale>
<asrwt>0</asrwt>
<pdfrwt beam="1">  1        4 0.48950580E-03 0.12499857E+03</pdfrwt>
<pdfrwt beam="2">  1       -4 0.18887110E+00 0.12499857E+03</pdfrwt>
<totfact> 0.23920141E+03</totfact>
</mgrwt>
</event>
<event>
 5    1  0.3486294E-002  0.1250006E+03  0.7818608E-02  0.1235068E+00
         -4   -1    0    0    0  501 -0.00000000000E+00  0.00000000000E+00  0.16082954955E+02  0.16133020178E+02  0.12700000000E+01 0.  1.
          4   -1    0    0  501    0  0.00000000000E+00 -0.00000000000E+00 -0.24245454436E+03  0.24245787053E+03  0.12700000000E+01 0.  1.
         25    2    1    2    0    0  0.00000000000E+00  0.00000000000E+00 -0.22637158940E+03  0.25859089070E+03  0.12500060906E+03 0.  0.
    9000005    1    3    3    0    0 -0.44022787087E+02 -0.11382035522E+02 -0.24502436824E+02  0.51661648501E+02  0.10000000000E+01 0.  0.
    9000005    1    3    3    0    0  0.44022787087E+02  0.11382035522E+02 -0.20186915258E+03  0.20692924220E+03  0.10000000000E+01 0.  0.
<mgrwt>
<rscale>  0 0.12500061E+03</rscale>
<asrwt>0</asrwt>
<pdfrwt beam="2">  1        4 0.37304803E-01 0.12500061E+03</pdfrwt>
<pdfrwt beam="1">  1       -4 0.24784080E-02 0.12500061E+03</pdfrwt>
<totfact> 0.81103118E+03</totfact>
</mgrwt>
</event>
<event>
 5    1  0.3486294E-002  0.1249965E+03  0.7818608E-02  0.1235075E+00
         -4   -1    0    0    0  501 -0.00000000000E+00  0.00000000000E+00  0.51665895023E+02  0.51681501609E+02  0.12700000000E+01 0.  1.
          4   -1    0    0  501    0  0.00000000000E+00 -0.00000000000E+00 -0.75569425701E+02  0.75580096592E+02  0.12700000000E+01 0.  1.
         25    2    1    2    0    0  0.00000000000E+00  0.00000000000E+00 -0.23903530678E+02  0.12726159820E+03  0.12499654234E+03 0.  0.
    9000005    1    3    3    0    0 -0.45922122154E+02  0.37302034493E+02 -0.32434750074E+02  0.67478115659E+02  0.10000000000E+01 0.  0.
    9000005    1    3    3    0    0  0.45922122154E+02 -0.37302034493E+02  0.85312193961E+01  0.59783482542E+02  0.10000000000E+01 0.  0.
<mgrwt>
<rscale>  0 0.12499654E+03</rscale>
<asrwt>0</asrwt>
<pdfrwt beam="2">  1        4 0.11628087E-01 0.12499654E+03</pdfrwt>
<pdfrwt beam="1">  1       -4 0.79506206E-02 0.12499654E+03</pdfrwt>
<totfact> 0.10404279E+04</totfact>
</mgrwt>
</event>
<event>
 5    1  0.3486294E-002  0.1249994E+03  0.7818608E-02  0.1235070E+00
         -4   -1    0    0    0  501 -0.00000000000E+00  0.00000000000E+00  0.22498808444E+03  0.22499166882E+03  0.12700000000E+01 0.  1.
          4   -1    0    0  501    0  0.00000000000E+00 -0.00000000000E+00 -0.17334914712E+02  0.17381374171E+02  0.12700000000E+01 0.  1.
         25    2    1    2    0    0  0.00000000000E+00  0.00000000000E+00  0.20765316973E+03  0.24237304299E+03  0.12499941229E+03 0.  0.
    9000005    1    3    3    0    0 -0.29018095666E+02  0.54005724183E+02  0.12729923174E+03  0.14129671802E+03  0.10000000000E+01 0.  0.
    9000005    1    3    3    0    0  0.29018095666E+02 -0.54005724183E+02  0.80353937982E+02  0.10107632497E+03  0.10000000000E+01 0.  0.
<mgrwt>
<rscale>  0 0.12499941E+03</rscale>
<asrwt>0</asrwt>
<pdfrwt beam="2">  1        4 0.26707596E-02 0.12499941E+03</pdfrwt>
<pdfrwt beam="1">  1       -4 0.34617399E-01 0.12499941E+03</pdfrwt>
<totfact> 0.83446303E+03</totfact>
</mgrwt>
</event>
<event>
 5    1  0.3486294E-002  0.1250017E+03  0.7818608E-02  0.1235067E+00
          4   -1    0    0  501    0  0.00000000000E+00  0.00000000000E+00  0.91760738059E+02  0.91769526256E+02  0.12700000000E+01 0. -1.
         -4   -1    0    0    0  501 -0.00000000000E+00 -0.00000000000E+00 -0.42550780134E+02  0.42569728564E+02  0.12700000000E+01 0. -1.
         25    2    1    2    0    0  0.00000000000E+00  0.00000000000E+00  0.49209957925E+02  0.13433925482E+03  0.12500166169E+03 0.  0.
    9000005    1    3    3    0    0  0.48388561935E+02  0.35042282262E+02  0.49071841294E+01  0.59954106851E+02  0.10000000000E+01 0.  0.
    9000005    1    3    3    0    0 -0.48388561935E+02 -0.35042282262E+02  0.44302773796E+02  0.74385147968E+02  0.10000000000E+01 0.  0.
<mgrwt>
<rscale>  0 0.12500166E+03</rscale>
<asrwt>0</asrwt>
<pdfrwt beam="1">  1        4 0.14119170E-01 0.12500166E+03</pdfrwt>
<pdfrwt beam="2">  1       -4 0.65484075E-02 0.12500166E+03</pdfrwt>
<totfact> 0.10251632E+04</totfact>
</mgrwt>
</event>
<event>
 5    1  0.3486294E-002  0.1250015E+03  0.7818608E-02  0.1235067E+00
          4   -1    0    0  501    0  0.00000000000E+00  0.00000000000E+00  0.19405392574E+04  0.19405396730E+04  0.12700000000E+01 0. -1.
         -4   -1    0    0    0  501 -0.00000000000E+00 -0.00000000000E+00 -0.18122541270E+01  0.22129539130E+01  0.12700000000E+01 0. -1.
         25    2    1    2    0    0  0.00000000000E+00  0.00000000000E+00  0.19387270033E+04  0.19427526269E+04  0.12500150432E+03 0.  0.
    9000005    1    3    3    0    0 -0.14141162737E+02 -0.53690073211E+02  0.52356811390E+03  0.52650466887E+03  0.10000000000E+01 0.  0.
    9000005    1    3    3    0    0  0.14141162737E+02  0.53690073211E+02  0.14151588894E+04  0.14162479581E+04  0.10000000000E+01 0.  0.
<mgrwt>
<rscale>  0 0.12500150E+03</rscale>
<asrwt>0</asrwt>
<pdfrwt beam="1">  1        4 0.29857608E+00 0.12500150E+03</pdfrwt>
<pdfrwt beam="2">  1       -4 0.30966260E-03 0.12500150E+03</pdfrwt>
<totfact> 0.10626605E+03</totfact>
</mgrwt>
</event>
<event>
 5    1  0.3486294E-002  0.1250010E+03  0.7818608E-02  0.1235068E+00
          4   -1    0    0  501    0  0.00000000000E+00  0.00000000000E+00  0.86964282887E+02  0.86973555740E+02  0.12700000000E+01 0. -1.
         -4   -1    0    0    0  501 -0.00000000000E+00 -0.00000000000E+00 -0.44897935805E+02  0.44915894063E+02  0.12700000000E+01 0. -1.
         25    2    1    2    0    0  0.00000000000E+00  0.00000000000E+00  0.42066347082E+02  0.13188944980E+03  0.12500099765E+03 0.  0.
    9000005    1    3    3    0    0 -0.58616956673E+02  0.12545368403E+02  0.39669439209E+02  0.71888791095E+02  0.10000000000E+01 0.  0.
    9000005    1    3    3    0    0  0.58616956673E+02 -0.12545368403E+02  0.23969078734E+01  0.60000658708E+02  0.10000000000E+01 0.  0.
<mgrwt>
<rscale>  0 0.12500100E+03</rscale>
<asrwt>0</asrwt>
<pdfrwt beam="1">  1        4 0.13381215E-01 0.12500100E+03</pdfrwt>
<pdfrwt beam="2">  1       -4 0.69094695E-02 0.12500100E+03</pdfrwt>
<totfact> 0.10303827E+04</totfact>
</mgrwt>
</event>
<event>
 5    1  0.3486294E-002  0.1249986E+03  0.7818608E-02  0.1235071E+00
          4   -1    0    0  501    0  0.00000000000E+00  0.00000000000E+00  0.83399232168E+01  0.84360665752E+01  0.12700000000E+01 0. -1.
         -4   -1    0    0    0  501 -0.00000000000E+00 -0.00000000000E+00 -0.46558803230E+03  0.46558976441E+03  0.12700000000E+01 0. -1.
         25    2    1    2    0    0  0.00000000000E+00  0.00000000000E+00 -0.45724810908E+03  0.47402583098E+03  0.12499862071E+03 0.  0.
    9000005    1    3    3    0    0 -0.40630528447E+02  0.25734696202E+02 -0.77311469030E+02  0.91055904115E+02  0.10000000000E+01 0.  0.
    9000005    1    3    3    0    0  0.40630528447E+02 -0.25734696202E+02 -0.37993664005E+03  0.38296992687E+03  0.10000000000E+01 0.  0.
<mgrwt>
<rscale>  0 0.12499862E+03</rscale>
<asrwt>0</asrwt>
<pdfrwt beam="1">  1        4 0.12905944E-02 0.12499862E+03</pdfrwt>
<pdfrwt beam="2">  1       -4 0.71636436E-01 0.12499862E+03</pdfrwt>
<totfact> 0.57939275E+03</totfact>
</mgrwt>
</event>
<event>
 5    1  0.3486294E-002  0.1249997E+03  0.7818608E-02  0.1235070E+00
          4   -1    0    0  501    0  0.00000000000E+00  0.00000000000E+00  0.16539552352E+02  0.16588239569E+02  0.12700000000E+01 0.  1.
         -4   -1    0    0    0  501 -0.00000000000E+00 -0.00000000000E+00 -0.23577750044E+03  0.23578092080E+03  0.12700000000E+01 0.  1.
         25    2    1    2    0    0  0.00000000000E+00  0.00000000000E+00 -0.21923794809E+03  0.25236916037E+03  0.12499966090E+03 0.  0.
    9000005    1    3    3    0    0  0.56790468431E+02  0.21747902502E+02 -0.13867376447E+03  0.15142503598E+03  0.10000000000E+01 0.  0.
    9000005    1    3    3    0    0 -0.56790468431E+02 -0.21747902502E+02 -0.80564183623E+02  0.10094412440E+03  0.10000000000E+01 0.  0.
<mgrwt>
<rscale>  0 0.12499966E+03</rscale>
<asrwt>0</asrwt>
<pdfrwt beam="1">  1        4 0.25485550E-02 0.12499966E+03</pdfrwt>
<pdfrwt beam="2">  1       -4 0.36277467E-01 0.12499966E+03</pdfrwt>
<totfact> 0.81989632E+03</totfact>
</mgrwt>
</event>
<event>
 5    1  0.3486294E-002  0.1250021E+03  0.7818608E-02  0.1235066E+00
         -4   -1    0    0    0  501 -0.00000000000E+00  0.00000000000E+00  0.82049518345E+02  0.82059346577E+02  0.12700000000E+01 0. -1.
          4   -1    0    0  501    0  0.00000000000E+00 -0.00000000000E+00 -0.47588905291E+02  0.47605848451E+02  0.12700000000E+01 0. -1.
         25    2    1    2    0    0  0.00000000000E+00  0.00000000000E+00  0.34460613054E+02  0.12966519503E+03  0.12500211578E+03 0.  0.
    9000005    1    3    3    0    0 -0.61335088357E+02 -0.77889421336E+00  0.29625221179E+02  0.68126745628E+02  0.10000000000E+01 0.  0.
    9000005    1    3    3    0    0  0.61335088357E+02  0.77889421336E+00  0.48353918746E+01  0.61538449400E+02  0.10000000000E+01 0.  0.
<mgrwt>
<rscale>  0 0.12500212E+03</rscale>
<asrwt>0</asrwt>
<pdfrwt beam="2">  1        4 0.73234295E-02 0.12500212E+03</pdfrwt>
<pdfrwt beam="1">  1       -4 0.12625062E-01 0.12500212E+03</pdfrwt>
<totfact> 0.10351180E+04</totfact>
</mgrwt>
</event>
<event>
 5    1  0.3486294E-002  0.1249967E+03  0.7818608E-02  0.1235074E+00
         -4   -1    0    0    0  501 -0.00000000000E+00  0.00000000000E+00  0.89206385602E+02  0.89215425416E+02  0.12700000000E+01 0. -1.
          4   -1    0    0  501    0  0.00000000000E+00 -0.00000000000E+00 -0.43766156196E+02  0.43784578657E+02  0.12700000000E+01 0. -1.
         25    2    1    2    0    0  0.00000000000E+00  0.00000000000E+00  0.45440229406E+02  0.13300000407E+03  0.12499674650E+03 0.  0.
    9000005    1    3    3    0    0  0.42719710109E+02  0.48732418824E+01  0.70970276553E+02  0.82984952083E+02  0.10000000000E+01 0.  0.
    9000005    1    3    3    0    0 -0.42719710109E+02 -0.48732418824E+01 -0.25530047147E+02  0.50015051990E+02  0.10000000000E+01 0.  0.
<mgrwt>
<rscale>  0 0.12499675E+03</rscale>
<asrwt>0</asrwt>
<pdfrwt beam="2">  1        4 0.67353673E-02 0.12499675E+03</pdfrwt>
<pdfrwt beam="1">  1       -4 0.13726172E-01 0.12499675E+03</pdfrwt>
<totfact> 0.10281154E+04</totfact>
</mgrwt>
</event>
<event>
 5    1  0.3486294E-002  0.1250013E+03  0.7818608E-02  0.1235067E+00
         -4   -1    0    0    0  501 -0.00000000000E+00  0.00000000000E+00  0.15492877866E+03  0.15493398387E+03  0.12700000000E+01 0. -1.
          4   -1    0    0  501    0  0.00000000000E+00 -0.00000000000E+00 -0.25192078902E+02  0.25224070635E+02  0.12700000000E+01 0. -1.
         25    2    1    2    0    0  0.00000000000E+00  0.00000000000E+00  0.12973669976E+03  0.18015805450E+03  0.12500125335E+03 0.  0.
    9000005    1    3    3    0    0 -0.46305269545E+02 -0.24681877098E+02  0.15951652545E+02  0.54852787200E+02  0.10000000000E+01 0.  0.
    9000005    1    3    3    0    0  0.46305269545E+02  0.24681877098E+02  0.11378504721E+03  0.12530526730E+03  0.10000000000E+01 0.  0.
<mgrwt>
<rscale>  0 0.12500125E+03</rscale>
<asrwt>0</asrwt>
<pdfrwt beam="2">  1        4 0.38785658E-02 0.12500125E+03</pdfrwt>
<pdfrwt beam="1">  1       -4 0.23838058E-01 0.12500125E+03</pdfrwt>
<totfact> 0.93585930E+03</totfact>
</mgrwt>
</event>
<event>
 5    1  0.3486294E-002  0.1250019E+03  0.7818608E-02  0.1235066E+00
          4   -1    0    0  501    0  0.00000000000E+00  0.00000000000E+00  0.48860960046E+01  0.50484486890E+01  0.12700000000E+01 0. -1.
         -4   -1    0    0    0  501 -0.00000000000E+00 -0.00000000000E+00 -0.78625786117E+03  0.78625888685E+03  0.12700000000E+01 0. -1.
         25    2    1    2    0    0  0.00000000000E+00  0.00000000000E+00 -0.78137176516E+03  0.79130733553E+03  0.12500185551E+03 0.  0.
    9000005    1    3    3    0    0  0.61972502290E+02  0.58912597757E+01 -0.42539798505E+03  0.42992992879E+03  0.10000000000E+01 0.  0.
    9000005    1    3    3    0    0 -0.61972502290E+02 -0.58912597757E+01 -0.35597378011E+03  0.36137740675E+03  0.10000000000E+01 0.  0.
<mgrwt>
<rscale>  0 0.12500186E+03</rscale>
<asrwt>0</asrwt>
<pdfrwt beam="1">  1        4 0.76427527E-03 0.12500186E+03</pdfrwt>
<pdfrwt beam="2">  1       -4 0.12097522E+00 0.12500186E+03</pdfrwt>
<totfact> 0.38654210E+03</totfact>
</mgrwt>
</event>
<event>
 5    1  0.3486294E-002  0.1249991E+03  0.7818608E-02  0.1235071E+00
          4   -1    0    0  501    0  0.00000000000E+00  0.00000000000E+00  0.74754436688E+01  0.75825561683E+01  0.12700000000E+01 0. -1.
         -4   -1    0    0    0  501 -0.00000000000E+00 -0.00000000000E+00 -0.51871170712E+03  0.51871326184E+03  0.12700000000E+01 0. -1.
         25    2    1    2    0    0  0.00000000000E+00  0.00000000000E+00 -0.51123626345E+03  0.52629581801E+03  0.12499908392E+03 0.  0.
    9000005    1    3    3    0    0  0.19212318282E+02  0.58939776817E+02 -0.28881953272E+03  0.29539927716E+03  0.10000000000E+01 0.  0.
    9000005    1    3    3    0    0 -0.19212318282E+02 -0.58939776817E+02 -0.22241673073E+03  0.23089654084E+03  0.10000000000E+01 0.  0.
<mgrwt>
<rscale>  0 0.12499908E+03</rscale>
<asrwt>0</asrwt>
<pdfrwt beam="1">  1        4 0.11584277E-02 0.12499908E+03</pdfrwt>
<pdfrwt beam="2">  1       -4 0.79810132E-01 0.12499908E+03</pdfrwt>
<totfact> 0.53881433E+03</totfact>
</mgrwt>
</event>
<event>
 4    1  0.3486294E-002  0.1249052E+03  0.7818608E-02  0.1235218E+00
         -4   -1    0    0    0  501 -0.00000000000E+00  0.00000000000E+00  0.11979756860E+02  0.12046886504E+02  0.12700000000E+01 0. -1.
          4   -1    0    0  501    0  0.00000000000E+00 -0.00000000000E+00 -0.32459846501E+03  0.32460094945E+03  0.12700000000E+01 0. -1.
    9000005    1    1    2    0    0  0.37062580307E+01 -0.44436920200E+02 -0.27412964284E+03  0.27773447267E+03  0.10000000000E+01 0.  0.
    9000005    1    1    2    0    0 -0.37062580307E+01  0.44436920200E+02 -0.38489065306E+02  0.58913363285E+02  0.10000000000E+01 0.  0.
<mgrwt>
<rscale>  0 0.12490520E+03</rscale>
<asrwt>0</asrwt>
<pdfrwt beam="2">  1        4 0.49943574E-01 0.12490520E+03</pdfrwt>
<pdfrwt beam="1">  1       -4 0.18483947E-02 0.12490520E+03</pdfrwt>
<totfact> 0.71368607E+03</totfact>
</mgrwt>
</event>
<event>
 5    1  0.3486294E-002  0.1249988E+03  0.7818608E-02  0.1235071E+00
          4   -1    0    0  501    0  0.00000000000E+00  0.00000000000E+00  0.87565701303E+02  0.87574910475E+02  0.12700000000E+01 0.  1.
         -4   -1    0    0    0  501 -0.00000000000E+00 -0.00000000000E+00 -0.44587931953E+02  0.44606015019E+02  0.12700000000E+01 0.  1.
         25    2    1    2    0    0  0.00000000000E+00  0.00000000000E+00  0.42977769350E+02  0.13218092549E+03  0.12499883362E+03 0.  0.
    9000005    1    3    3    0    0 -0.40783814226E+02 -0.49259537255E+01  0.71285945204E+02  0.82281653524E+02  0.10000000000E+01 0.  0.
    9000005    1    3    3    0    0  0.40783814226E+02  0.49259537255E+01 -0.28308175855E+02  0.49899271970E+02  0.10000000000E+01 0.  0.
<mgrwt>
<rscale>  0 0.12499883E+03</rscale>
<asrwt>0</asrwt>
<pdfrwt beam="1">  1        4 0.13473746E-01 0.12499883E+03</pdfrwt>
<pdfrwt beam="2">  1       -4 0.68617813E-02 0.12499883E+03</pdfrwt>
<totfact> 0.10298109E+04</totfact>
</mgrwt>
</event>
<event>
 5    1  0.3486294E-002  0.1249972E+03  0.7818608E-02  0.1235074E+00
         -4   -1    0    0    0  501 -0.00000000000E+00  0.00000000000E+00  0.32994990014E+03  0.32995234429E+03  0.12700000000E+01 0. -1.
          4   -1    0    0  501    0  0.00000000000E+00 -0.00000000000E+00 -0.11801829047E+02  0.11869964990E+02  0.12700000000E+01 0. -1.
         25    2    1    2    0    0  0.00000000000E+00  0.00000000000E+00  0.31814807110E+03  0.34182230928E+03  0.12499718389E+03 0.  0.
    9000005    1    3    3    0    0  0.16490076296E+02  0.60117529904E+02  0.17100470871E+03  0.18201552247E+03  0.10000000000E+01 0.  0.
    9000005    1    3    3    0    0 -0.16490076296E+02 -0.60117529904E+02  0.14714336239E+03  0.15980678682E+03  0.10000000000E+01 0.  0.
<mgrwt>
<rscale>  0 0.12499718E+03</rscale>
<asrwt>0</asrwt>
<pdfrwt beam="2">  1        4 0.18210952E-02 0.12499718E+03</pdfrwt>
<pdfrwt beam="1">  1       -4 0.50766953E-01 0.12499718E+03</pdfrwt>
<totfact> 0.70638073E+03</totfact>
</mgrwt>
</event>
<event>
 5    1  0.3486294E-002  0.1250017E+03  0.7818608E-02  0.1235067E+00
          4   -1    0    0  501    0  0.00000000000E+00  0.00000000000E+00  0.14160225541E+03  0.14160795048E+03  0.12700000000E+01 0.  1.
         -4   -1    0    0    0  501 -0.00000000000E+00 -0.00000000000E+00 -0.27565934586E+02  0.27595174390E+02  0.12700000000E+01 0.  1.
         25    2    1    2    0    0  0.00000000000E+00  0.00000000000E+00  0.11403632083E+03  0.16920312487E+03  0.12500165998E+03 0.  0.
    9000005    1    3    3    0    0  0.41359413886E+02  0.35998329137E+02  0.97600936352E+02  0.11195277395E+03  0.10000000000E+01 0.  0.
    9000005    1    3    3    0    0 -0.41359413886E+02 -0.35998329137E+02  0.16435384476E+02  0.57250350920E+02  0.10000000000E+01 0.  0.
<mgrwt>
<rscale>  0 0.12500166E+03</rscale>
<asrwt>0</asrwt>
<pdfrwt beam="1">  1        4 0.21787650E-01 0.12500166E+03</pdfrwt>
<pdfrwt beam="2">  1       -4 0.42436003E-02 0.12500166E+03</pdfrwt>
<totfact> 0.95593692E+03</totfact>
</mgrwt>
</event>
<event>
 5    1  0.3486294E-002  0.1250043E+03  0.7818608E-02  0.1235063E+00
         -4   -1    0    0    0  501 -0.00000000000E+00  0.00000000000E+00  0.49664307534E+02  0.49680542900E+02  0.12700000000E+01 0.  1.
          4   -1    0    0  501    0  0.00000000000E+00 -0.00000000000E+00 -0.78624298856E+02  0.78634555194E+02  0.12700000000E+01 0.  1.
         25    2    1    2    0    0  0.00000000000E+00  0.00000000000E+00 -0.28959991322E+02  0.12831509809E+03  0.12500433313E+03 0.  0.
    9000005    1    3    3    0    0 -0.28128411407E+02  0.37984336268E+02 -0.56446842244E+02  0.73629228771E+02  0.10000000000E+01 0.  0.
    9000005    1    3    3    0    0  0.28128411407E+02 -0.37984336268E+02  0.27486850922E+02  0.54685869323E+02  0.10000000000E+01 0.  0.
<mgrwt>
<rscale>  0 0.12500433E+03</rscale>
<asrwt>0</asrwt>
<pdfrwt beam="2">  1        4 0.12098084E-01 0.12500433E+03</pdfrwt>
<pdfrwt beam="1">  1       -4 0.76427005E-02 0.12500433E+03</pdfrwt>
<totfact> 0.10379673E+04</totfact>
</mgrwt>
</event>
<event>
 5    1  0.3486294E-002  0.1249863E+03  0.7818608E-02  0.1235091E+00
          4   -1    0    0  501    0  0.00000000000E+00  0.00000000000E+00  0.92008192730E+03  0.92008280380E+03  0.12700000000E+01 0. -1.
         -4   -1    0    0    0  501 -0.00000000000E+00 -0.00000000000E+00 -0.41487231342E+01  0.43387560019E+01  0.12700000000E+01 0. -1.
         25    2    1    2    0    0  0.00000000000E+00  0.00000000000E+00  0.91593320417E+03  0.92442155980E+03  0.12498634217E+03 0.  0.
    9000005    1    3    3    0    0  0.37182246042E+02 -0.19611064444E+02  0.79989765195E+03  0.80100210166E+03  0.10000000000E+01 0.  0.
    9000005    1    3    3    0    0 -0.37182246042E+02  0.19611064444E+02  0.11603555222E+03  0.12341945814E+03  0.10000000000E+01 0.  0.
<mgrwt>
<rscale>  0 0.12498634E+03</rscale>
<asrwt>0</asrwt>
<pdfrwt beam="1">  1        4 0.14156588E+00 0.12498634E+03</pdfrwt>
<pdfrwt beam="2">  1       -4 0.65294984E-03 0.12498634E+03</pdfrwt>
<totfact> 0.33251734E+03</totfact>
</mgrwt>
</event>
<event>
 5    1  0.3486294E-002  0.1249968E+03  0.7818608E-02  0.1235074E+00
          4   -1    0    0  501    0  0.00000000000E+00  0.00000000000E+00  0.13640165418E+02  0.13699161019E+02  0.12700000000E+01 0.  1.
         -4   -1    0    0    0  501 -0.00000000000E+00 -0.00000000000E+00 -0.28568551820E+03  0.28568834104E+03  0.12700000000E+01 0.  1.
         25    2    1    2    0    0  0.00000000000E+00  0.00000000000E+00 -0.27204535278E+03  0.29938750206E+03  0.12499680965E+03 0.  0.
    9000005    1    3    3    0    0 -0.82531861550E+01 -0.49113010330E+02 -0.45612156357E+02  0.67540148600E+02  0.10000000000E+01 0.  0.
    9000005    1    3    3    0    0  0.82531861550E+01  0.49113010330E+02 -0.22643319642E+03  0.23184735346E+03  0.10000000000E+01 0.  0.
<mgrwt>
<rscale>  0 0.12499681E+03</rscale>
<asrwt>0</asrwt>
<pdfrwt beam="1">  1        4 0.21032425E-02 0.12499681E+03</pdfrwt>
<pdfrwt beam="2">  1       -4 0.43956369E-01 0.12499681E+03</pdfrwt>
<totfact> 0.75681096E+03</totfact>
</mgrwt>
</event>
<event>
 5    1  0.3486294E-002  0.1250031E+03  0.7818608E-02  0.1235064E+00
         -4   -1    0    0    0  501 -0.00000000000E+00  0.00000000000E+00  0.11504638273E+03  0.11505339230E+03  0.12700000000E+01 0.  1.
          4   -1    0    0  501    0  0.00000000000E+00 -0.00000000000E+00 -0.33935463645E+02  0.33959219555E+02  0.12700000000E+01 0.  1.
         25    2    1    2    0    0  0.00000000000E+00  0.00000000000E+00  0.81110919086E+02  0.14901261185E+03  0.12500310915E+03 0.  0.
    9000005    1    3    3    0    0  0.15857763481E+02  0.28540041716E+02  0.10407665873E+03  0.10908232459E+03  0.10000000000E+01 0.  0.
    9000005    1    3    3    0    0 -0.15857763481E+02 -0.28540041716E+02 -0.22965739648E+02  0.39930287268E+02  0.10000000000E+01 0.  0.
<mgrwt>
<rscale>  0 0.12500311E+03</rscale>
<asrwt>0</asrwt>
<pdfrwt beam="2">  1        4 0.52232071E-02 0.12500311E+03</pdfrwt>
<pdfrwt beam="1">  1       -4 0.17701810E-01 0.12500311E+03</pdfrwt>
<totfact> 0.99493921E+03</totfact>
</mgrwt>
</event>
<event>
 5    1  0.3486294E-002  0.1250008E+03  0.7818608E-02  0.1235068E+00
          4   -1    0    0  501    0  0.00000000000E+00  0.00000000000E+00  0.58367535760E+02  0.58381350881E+02  0.12700000000E+01 0. -1.
         -4   -1    0    0    0  501 -0.00000000000E+00 -0.00000000000E+00 -0.66898139887E+02  0.66910193696E+02  0.12700000000E+01 0. -1.
         25    2    1    2    0    0  0.00000000000E+00  0.00000000000E+00 -0.85306041276E+01  0.12529154458E+03  0.12500079974E+03 0.  0.
    9000005    1    3    3    0    0 -0.42846809749E+02  0.32592853837E+02  0.27544246592E+02  0.60479986337E+02  0.10000000000E+01 0.  0.
    9000005    1    3    3    0    0  0.42846809749E+02 -0.32592853837E+02 -0.36074850720E+02  0.64811558239E+02  0.10000000000E+01 0.  0.
<mgrwt>
<rscale>  0 0.12500080E+03</rscale>
<asrwt>0</asrwt>
<pdfrwt beam="1">  1        4 0.89816109E-02 0.12500080E+03</pdfrwt>
<pdfrwt beam="2">  1       -4 0.10294011E-01 0.12500080E+03</pdfrwt>
<totfact> 0.10446345E+04</totfact>
</mgrwt>
</event>
<event>
 5    1  0.3486294E-002  0.1249970E+03  0.7818608E-02  0.1235074E+00
          4   -1    0    0  501    0  0.00000000000E+00  0.00000000000E+00  0.88435474357E+02  0.88444592965E+02  0.12700000000E+01 0.  1.
         -4   -1    0    0    0  501 -0.00000000000E+00 -0.00000000000E+00 -0.44147992402E+02  0.44166255593E+02  0.12700000000E+01 0.  1.
         25    2    1    2    0    0  0.00000000000E+00  0.00000000000E+00  0.44287481955E+02  0.13261084856E+03  0.12499702435E+03 0.  0.
    9000005    1    3    3    0    0 -0.19657472851E+02  0.13981903228E+01  0.85057639687E+02  0.87316511864E+02  0.10000000000E+01 0.  0.
    9000005    1    3    3    0    0  0.19657472851E+02 -0.13981903228E+01 -0.40770157732E+02  0.45294336694E+02  0.10000000000E+01 0.  0.
<mgrwt>
<rscale>  0 0.12499702E+03</rscale>
<asrwt>0</asrwt>
<pdfrwt beam="1">  1        4 0.13607564E-01 0.12499702E+03</pdfrwt>
<pdfrwt beam="2">  1       -4 0.67941052E-02 0.12499702E+03</pdfrwt>
<totfact> 0.10289368E+04</totfact>
</mgrwt>
</event>
<event>
 5    1  0.3486294E-002  0.1249952E+03  0.7818608E-02  0.1235077E+00
          4   -1    0    0  501    0  0.00000000000E+00  0.00000000000E+00  0.20147937682E+03  0.20148337943E+03  0.12700000000E+01 0. -1.
         -4   -1    0    0    0  501 -0.00000000000E+00 -0.00000000000E+00 -0.19361343498E+02  0.19402951374E+02  0.12700000000E+01 0. -1.
         25    2    1    2    0    0  0.00000000000E+00  0.00000000000E+00  0.18211803333E+03  0.22088633080E+03  0.12499517220E+03 0.  0.
    9000005    1    3    3    0    0 -0.40214199122E+02 -0.32773231822E+02  0.15262318396E+03  0.16120205587E+03  0.10000000000E+01 0.  0.
    9000005    1    3    3    0    0  0.40214199122E+02  0.32773231822E+02  0.29494849372E+02  0.59684274935E+02  0.10000000000E+01 0.  0.
<mgrwt>
<rscale>  0 0.12499517E+03</rscale>
<asrwt>0</asrwt>
<pdfrwt beam="1">  1        4 0.31000337E-01 0.12499517E+03</pdfrwt>
<pdfrwt beam="2">  1       -4 0.29821766E-02 0.12499517E+03</pdfrwt>
<totfact> 0.86737644E+03</totfact>
</mgrwt>
</event>
<event>
 5    1  0.3486294E-002  0.1249968E+03  0.7818608E-02  0.1235074E+00
         -4   -1    0    0    0  501 -0.00000000000E+00  0.00000000000E+00  0.28543378670E+03  0.28543661203E+03  0.12700000000E+01 0. -1.
          4   -1    0    0  501    0  0.00000000000E+00 -0.00000000000E+00 -0.13652249912E+02  0.13711193517E+02  0.12700000000E+01 0. -1.
         25    2    1    2    0    0  0.00000000000E+00  0.00000000000E+00  0.27178153678E+03  0.29914780555E+03  0.12499682327E+03 0.  0.
    9000005    1    3    3    0    0  0.93927527699E+01  0.28748802229E+02  0.26676275550E+03  0.26847362096E+03  0.10000000000E+01 0.  0.
    9000005    1    3    3    0    0 -0.93927527699E+01 -0.28748802229E+02  0.50187812885E+01  0.30674184583E+02  0.10000000000E+01 0.  0.
<mgrwt>
<rscale>  0 0.12499682E+03</rscale>
<asrwt>0</asrwt>
<pdfrwt beam="2">  1        4 0.21050976E-02 0.12499682E+03</pdfrwt>
<pdfrwt beam="1">  1       -4 0.43917642E-01 0.12499682E+03</pdfrwt>
<totfact> 0.75711199E+03</totfact>
</mgrwt>
</event>
<event>
 5    1  0.3486294E-002  0.1249997E+03  0.7818608E-02  0.1235070E+00
         -4   -1    0    0    0  501 -0.00000000000E+00  0.00000000000E+00  0.13330856519E+02  0.13391214864E+02  0.12700000000E+01 0. -1.
          4   -1    0    0  501    0  0.00000000000E+00 -0.00000000000E+00 -0.29229808847E+03  0.29230084745E+03  0.12700000000E+01 0. -1.
         25    2    1    2    0    0  0.00000000000E+00  0.00000000000E+00 -0.27896723195E+03  0.30569206232E+03  0.12499968185E+03 0.  0.
    9000005    1    3    3    0    0  0.18439380431E+02 -0.59142534654E+02 -0.11940930594E+03  0.13452669810E+03  0.10000000000E+01 0.  0.
    9000005    1    3    3    0    0 -0.18439380431E+02  0.59142534654E+02 -0.15955792601E+03  0.17116536422E+03  0.10000000000E+01 0.  0.
<mgrwt>
<rscale>  0 0.12499968E+03</rscale>
<asrwt>0</asrwt>
<pdfrwt beam="2">  1        4 0.44973787E-01 0.12499968E+03</pdfrwt>
<pdfrwt beam="1">  1       -4 0.20557564E-02 0.12499968E+03</pdfrwt>
<totfact> 0.74890870E+03</totfact>
</mgrwt>
</event>
<event>
 5    1  0.3486294E-002  0.1249998E+03  0.7818608E-02  0.1235070E+00
         -4   -1    0    0    0  501 -0.00000000000E+00  0.00000000000E+00  0.38331962652E+01  0.40381052002E+01  0.12700000000E+01 0.  1.
          4   -1    0    0  501    0  0.00000000000E+00 -0.00000000000E+00 -0.99232096304E+03  0.99232177573E+03  0.12700000000E+01 0.  1.
         25    2    1    2    0    0  0.00000000000E+00  0.00000000000E+00 -0.98848776678E+03  0.99635988093E+03  0.12499978906E+03 0.  0.
    9000005    1    3    3    0    0 -0.40962122870E+02  0.43511143618E+02 -0.63994379383E+03  0.64272869423E+03  0.10000000000E+01 0.  0.
    9000005    1    3    3    0    0  0.40962122870E+02 -0.43511143618E+02 -0.34854397295E+03  0.35363118670E+03  0.10000000000E+01 0.  0.
<mgrwt>
<rscale>  0 0.12499979E+03</rscale>
<asrwt>0</asrwt>
<pdfrwt beam="2">  1        4 0.15268039E+00 0.12499979E+03</pdfrwt>
<pdfrwt beam="1">  1       -4 0.60554803E-03 0.12499979E+03</pdfrwt>
<totfact> 0.30725160E+03</totfact>
</mgrwt>
</event>
<event>
 5    1  0.3486294E-002  0.1249981E+03  0.7818608E-02  0.1235072E+00
         -4   -1    0    0    0  501 -0.00000000000E+00  0.00000000000E+00  0.90623733706E+01  0.91509295216E+01  0.12700000000E+01 0.  1.
          4   -1    0    0  501    0  0.00000000000E+00 -0.00000000000E+00 -0.42884187095E+03  0.42884375148E+03  0.12700000000E+01 0.  1.
         25    2    1    2    0    0  0.00000000000E+00  0.00000000000E+00 -0.41977949758E+03  0.43799468100E+03  0.12499805596E+03 0.  0.
    9000005    1    3    3    0    0 -0.40185970687E+02  0.23707382196E+02 -0.35555621975E+03  0.35860588062E+03  0.10000000000E+01 0.  0.
    9000005    1    3    3    0    0  0.40185970687E+02 -0.23707382196E+02 -0.64223277830E+02  0.79388800380E+02  0.10000000000E+01 0.  0.
<mgrwt>
<rscale>  0 0.12499806E+03</rscale>
<asrwt>0</asrwt>
<pdfrwt beam="2">  1        4 0.65982614E-01 0.12499806E+03</pdfrwt>
<pdfrwt beam="1">  1       -4 0.14011683E-02 0.12499806E+03</pdfrwt>
<totfact> 0.61020570E+03</totfact>
</mgrwt>
</event>
<event>
 5    1  0.3486294E-002  0.1250056E+03  0.7818608E-02  0.1235061E+00
         -4   -1    0    0    0  501 -0.00000000000E+00  0.00000000000E+00  0.17187273674E+02  0.17234131145E+02  0.12700000000E+01 0. -1.
          4   -1    0    0  501    0  0.00000000000E+00 -0.00000000000E+00 -0.22693796279E+03  0.22694151637E+03  0.12700000000E+01 0. -1.
         25    2    1    2    0    0  0.00000000000E+00  0.00000000000E+00 -0.20975068911E+03  0.24417564752E+03  0.12500558091E+03 0.  0.
    9000005    1    3    3    0    0  0.20010458650E+02 -0.59116648800E+02 -0.11117527007E+03  0.12749955802E+03  0.10000000000E+01 0.  0.
    9000005    1    3    3    0    0 -0.20010458650E+02  0.59116648800E+02 -0.98575419043E+02  0.11667608950E+03  0.10000000000E+01 0.  0.
<mgrwt>
<rscale>  0 0.12500558E+03</rscale>
<asrwt>0</asrwt>
<pdfrwt beam="2">  1        4 0.34917408E-01 0.12500558E+03</pdfrwt>
<pdfrwt beam="1">  1       -4 0.26480739E-02 0.12500558E+03</pdfrwt>
<totfact> 0.83169039E+03</totfact>
</mgrwt>
</event>
<event>
 5    1  0.3486294E-002  0.1249968E+03  0.7818608E-02  0.1235074E+00
          4   -1    0    0  501    0  0.00000000000E+00  0.00000000000E+00  0.24659623387E+02  0.24692304987E+02  0.12700000000E+01 0. -1.
         -4   -1    0    0    0  501 -0.00000000000E+00 -0.00000000000E+00 -0.15825841506E+03  0.15826351076E+03  0.12700000000E+01 0. -1.
         25    2    1    2    0    0  0.00000000000E+00  0.00000000000E+00 -0.13359879167E+03  0.18295581574E+03  0.12499677347E+03 0.  0.
    9000005    1    3    3    0    0  0.89744404081E+01 -0.33428101331E+02 -0.14295417164E+03  0.14708797955E+03  0.10000000000E+01 0.  0.
    9000005    1    3    3    0    0 -0.89744404081E+01  0.33428101331E+02  0.93553799632E+01  0.35867836197E+02  0.10000000000E+01 0.  0.
<mgrwt>
<rscale>  0 0.12499677E+03</rscale>
<asrwt>0</asrwt>
<pdfrwt beam="1">  1        4 0.37966943E-02 0.12499677E+03</pdfrwt>
<pdfrwt beam="2">  1       -4 0.24350354E-01 0.12499677E+03</pdfrwt>
<totfact> 0.93094369E+03</totfact>
</mgrwt>
</event>
<event>
 5    1  0.3486294E-002  0.1250004E+03  0.7818608E-02  0.1235069E+00
         -4   -1    0    0    0  501 -0.00000000000E+00  0.00000000000E+00  0.74255152771E+02  0.74266012503E+02  0.12700000000E+01 0.  1.
          4   -1    0    0  501    0  0.00000000000E+00 -0.00000000000E+00 -0.52583717701E+02  0.52599051961E+02  0.12700000000E+01 0.  1.
         25    2    1    2    0    0  0.00000000000E+00  0.00000000000E+00  0.21671435070E+02  0.12686506446E+03  0.12500037393E+03 0.  0.
    9000005    1    3    3    0    0  0.27300528356E+02  0.22677186812E+02  0.63039384214E+02  0.72350104439E+02  0.10000000000E+01 0.  0.
    9000005    1    3    3    0    0 -0.27300528356E+02 -0.22677186812E+02 -0.41367949143E+02  0.54514960025E+02  0.10000000000E+01 0.  0.
<mgrwt>
<rscale>  0 0.12500037E+03</rscale>
<asrwt>0</asrwt>
<pdfrwt beam="2">  1        4 0.80918177E-02 0.12500037E+03</pdfrwt>
<pdfrwt beam="1">  1       -4 0.11425885E-01 0.12500037E+03</pdfrwt>
<totfact> 0.10411991E+04</totfact>
</mgrwt>
</event>
<event>
 5    1  0.3486294E-002  0.1250010E+03  0.7818608E-02  0.1235068E+00
         -4   -1    0    0    0  501 -0.00000000000E+00  0.00000000000E+00  0.86568213612E+03  0.86568306770E+03  0.12700000000E+01 0.  1.
          4   -1    0    0  501    0  0.00000000000E+00 -0.00000000000E+00 -0.44220957531E+01  0.46008511006E+01  0.12700000000E+01 0.  1.
         25    2    1    2    0    0  0.00000000000E+00  0.00000000000E+00  0.86126004037E+03  0.87028391880E+03  0.12500096874E+03 0.  0.
    9000005    1    3    3    0    0 -0.54142117693E+02  0.59447087134E+01  0.21733125797E+03  0.22405486864E+03  0.10000000000E+01 0.  0.
    9000005    1    3    3    0    0  0.54142117693E+02 -0.59447087134E+01  0.64392878240E+03  0.64622905016E+03  0.10000000000E+01 0.  0.
<mgrwt>
<rscale>  0 0.12500097E+03</rscale>
<asrwt>0</asrwt>
<pdfrwt beam="2">  1        4 0.69414419E-03 0.12500097E+03</pdfrwt>
<pdfrwt beam="1">  1       -4 0.13319575E+00 0.12500097E+03</pdfrwt>
<totfact> 0.35310600E+03</totfact>
</mgrwt>
</event>
<event>
 5    1  0.3486294E-002  0.1250109E+03  0.7818608E-02  0.1235052E+00
         -4   -1    0    0    0  501 -0.00000000000E+00  0.00000000000E+00  0.34135260656E+02  0.34158877617E+02  0.12700000000E+01 0.  1.
          4   -1    0    0  501    0  0.00000000000E+00 -0.00000000000E+00 -0.11438763514E+03  0.11439468507E+03  0.12700000000E+01 0.  1.
         25    2    1    2    0    0  0.00000000000E+00  0.00000000000E+00 -0.80252374483E+02  0.14855356269E+03  0.12501086904E+03 0.  0.
    9000005    1    3    3    0    0 -0.28288235831E+01  0.23921979830E+02  0.28402847011E+02  0.37255671785E+02  0.10000000000E+01 0.  0.
    9000005    1    3    3    0    0  0.28288235831E+01 -0.23921979830E+02 -0.10865522149E+03  0.11129789090E+03  0.10000000000E+01 0.  0.
<mgrwt>
<rscale>  0 0.12501087E+03</rscale>
<asrwt>0</asrwt>
<pdfrwt beam="2">  1        4 0.17600457E-01 0.12501087E+03</pdfrwt>
<pdfrwt beam="1">  1       -4 0.52539376E-02 0.12501087E+03</pdfrwt>
<totfact> 0.99568446E+03</totfact>
</mgrwt>
</event>
<event>
 5    1  0.3486294E-002  0.1250058E+03  0.7818608E-02  0.1235060E+00
         -4   -1    0    0    0  501 -0.00000000000E+00  0.00000000000E+00  0.85529196386E+01  0.86466949955E+01  0.12700000000E+01 0.  1.
          4   -1    0    0  501    0  0.00000000000E+00 -0.00000000000E+00 -0.45417310829E+03  0.45417488393E+03  0.12700000000E+01 0.  1.
         25    2    1    2    0    0  0.00000000000E+00  0.00000000000E+00 -0.44562018865E+03  0.46282157893E+03  0.12500584541E+03 0.  0.
    9000005    1    3    3    0    0 -0.32411054689E+02  0.36076524535E+02 -0.36874397624E+03  0.37192084118E+03  0.10000000000E+01 0.  0.
    9000005    1    3    3    0    0  0.32411054689E+02 -0.36076524535E+02 -0.76876212407E+02  0.90900737746E+02  0.10000000000E+01 0.  0.
<mgrwt>
<rscale>  0 0.12500585E+03</rscale>
<asrwt>0</asrwt>
<pdfrwt beam="2">  1        4 0.69880117E-01 0.12500585E+03</pdfrwt>
<pdfrwt beam="1">  1       -4 0.13231842E-02 0.12500585E+03</pdfrwt>
<totfact> 0.58861368E+03</totfact>
</mgrwt>
</event>
<event>
 4    1  0.3486294E-002  0.1248038E+03  0.7818608E-02  0.1235376E+00
          4   -1    0    0  501    0  0.00000000000E+00  0.00000000000E+00  0.27776393670E+01  0.30542070089E+01  0.12700000000E+01 0. -1.
         -4   -1    0    0    0  501 -0.00000000000E+00 -0.00000000000E+00 -0.13351491154E+04  0.13351497194E+04  0.12700000000E+01 0. -1.
    9000005    1    1    2    0    0 -0.25323962716E+02  0.51098343335E+02 -0.93758380596E+03  0.93931716527E+03  0.10000000000E+01 0.  0.
    9000005    1    1    2    0    0  0.25323962716E+02 -0.51098343335E+02 -0.39478767010E+03  0.39888676118E+03  0.10000000000E+01 0.  0.
<mgrwt>
<rscale>  0 0.12480384E+03</rscale>
<asrwt>0</asrwt>
<pdfrwt beam="1">  1        4 0.44865110E-03 0.12480384E+03</pdfrwt>
<pdfrwt beam="2">  1       -4 0.20542839E+00 0.12480384E+03</pdfrwt>
<totfact> 0.21436113E+03</totfact>
</mgrwt>
</event>
<event>
 5    1  0.3486294E-002  0.1249994E+03  0.7818608E-02  0.1235070E+00
          4   -1    0    0  501    0  0.00000000000E+00  0.00000000000E+00  0.29395669911E+02  0.29423091434E+02  0.12700000000E+01 0. -1.
         -4   -1    0    0    0  501 -0.00000000000E+00 -0.00000000000E+00 -0.13279151061E+03  0.13279758353E+03  0.12700000000E+01 0. -1.
         25    2    1    2    0    0  0.00000000000E+00  0.00000000000E+00 -0.10339584070E+03  0.16222067496E+03  0.12499939004E+03 0.  0.
    9000005    1    3    3    0    0 -0.12350424801E+02  0.61258769534E+02 -0.51964011369E+02  0.81279937962E+02  0.10000000000E+01 0.  0.
    9000005    1    3    3    0    0  0.12350424801E+02 -0.61258769534E+02 -0.51431829333E+02  0.80940737000E+02  0.10000000000E+01 0.  0.
<mgrwt>
<rscale>  0 0.12499939E+03</rscale>
<asrwt>0</asrwt>
<pdfrwt beam="1">  1        4 0.45249873E-02 0.12499939E+03</pdfrwt>
<pdfrwt beam="2">  1       -4 0.20432039E-01 0.12499939E+03</pdfrwt>
<totfact> 0.96917685E+03</totfact>
</mgrwt>
</event>
<event>
 5    1  0.3486294E-002  0.1250179E+03  0.7818608E-02  0.1235041E+00
         -4   -1    0    0    0  501 -0.00000000000E+00  0.00000000000E+00  0.83062761896E+02  0.83072470252E+02  0.12700000000E+01 0. -1.
          4   -1    0    0  501    0  0.00000000000E+00 -0.00000000000E+00 -0.47020116233E+02  0.47037264276E+02  0.12700000000E+01 0. -1.
         25    2    1    2    0    0  0.00000000000E+00  0.00000000000E+00  0.36042645663E+02  0.13010973453E+03  0.12501788157E+03 0.  0.
    9000005    1    3    3    0    0 -0.32175674076E+01 -0.32144367701E+02 -0.37662585909E+02  0.49629461939E+02  0.10000000000E+01 0.  0.
    9000005    1    3    3    0    0  0.32175674076E+01  0.32144367701E+02  0.73705231572E+02  0.80480272590E+02  0.10000000000E+01 0.  0.
<mgrwt>
<rscale>  0 0.12501788E+03</rscale>
<asrwt>0</asrwt>
<pdfrwt beam="2">  1        4 0.72359299E-02 0.12501788E+03</pdfrwt>
<pdfrwt beam="1">  1       -4 0.12780952E-01 0.12501788E+03</pdfrwt>
<totfact> 0.10337987E+04</totfact>
</mgrwt>
</event>
<event>
 5    1  0.3486294E-002  0.1250048E+03  0.7818608E-02  0.1235062E+00
         -4   -1    0    0    0  501 -0.00000000000E+00  0.00000000000E+00  0.14705945767E+04  0.14705951251E+04  0.12700000000E+01 0. -1.
          4   -1    0    0  501    0  0.00000000000E+00 -0.00000000000E+00 -0.25040698486E+01  0.28077154070E+01  0.12700000000E+01 0. -1.
         25    2    1    2    0    0  0.00000000000E+00  0.00000000000E+00  0.14680905069E+04  0.14734028405E+04  0.12500477614E+03 0.  0.
    9000005    1    3    3    0    0 -0.61099882490E+02 -0.18541039624E+01  0.88723483399E+03  0.88933867789E+03  0.10000000000E+01 0.  0.
    9000005    1    3    3    0    0  0.61099882490E+02  0.18541039624E+01  0.58085567288E+03  0.58406416262E+03  0.10000000000E+01 0.  0.
<mgrwt>
<rscale>  0 0.12500478E+03</rscale>
<asrwt>0</asrwt>
<pdfrwt beam="2">  1        4 0.40864173E-03 0.12500478E+03</pdfrwt>
<pdfrwt beam="1">  1       -4 0.22626834E+00 0.12500478E+03</pdfrwt>
<totfact> 0.18456565E+03</totfact>
</mgrwt>
</event>
<event>
 5    1  0.3486294E-002  0.1249915E+03  0.7818608E-02  0.1235083E+00
          4   -1    0    0  501    0  0.00000000000E+00  0.00000000000E+00  0.36362933219E+01  0.38516917222E+01  0.12700000000E+01 0.  1.
         -4   -1    0    0    0  501 -0.00000000000E+00 -0.00000000000E+00 -0.10429802766E+04  0.10429810498E+04  0.12700000000E+01 0.  1.
         25    2    1    2    0    0  0.00000000000E+00  0.00000000000E+00 -0.10393439832E+04  0.10468327415E+04  0.12499149243E+03 0.  0.
    9000005    1    3    3    0    0  0.29292777507E+02  0.23260259552E+02 -0.10044065551E+03  0.10718410222E+03  0.10000000000E+01 0.  0.
    9000005    1    3    3    0    0 -0.29292777507E+02 -0.23260259552E+02 -0.93890332773E+03  0.93964863929E+03  0.10000000000E+01 0.  0.
<mgrwt>
<rscale>  0 0.12499149E+03</rscale>
<asrwt>0</asrwt>
<pdfrwt beam="1">  1        4 0.57605916E-03 0.12499149E+03</pdfrwt>
<pdfrwt beam="2">  1       -4 0.16047490E+00 0.12499149E+03</pdfrwt>
<totfact> 0.29099313E+03</totfact>
</mgrwt>
</event>
<event>
 5    1  0.3486294E-002  0.1250026E+03  0.7818608E-02  0.1235065E+00
         -4   -1    0    0    0  501 -0.00000000000E+00  0.00000000000E+00  0.20279002786E+03  0.20279400460E+03  0.12700000000E+01 0.  1.
          4   -1    0    0  501    0  0.00000000000E+00 -0.00000000000E+00 -0.19238229864E+02  0.19280103431E+02  0.12700000000E+01 0.  1.
         25    2    1    2    0    0  0.00000000000E+00  0.00000000000E+00  0.18355179800E+03  0.22207410803E+03  0.12500258761E+03 0.  0.
    9000005    1    3    3    0    0 -0.31064021337E+02  0.49239002854E+02  0.51421909305E+02  0.77683110006E+02  0.10000000000E+01 0.  0.
    9000005    1    3    3    0    0  0.31064021337E+02 -0.49239002854E+02  0.13212988869E+03  0.14439099802E+03  0.10000000000E+01 0.  0.
<mgrwt>
<rscale>  0 0.12500259E+03</rscale>
<asrwt>0</asrwt>
<pdfrwt beam="2">  1        4 0.29632546E-02 0.12500259E+03</pdfrwt>
<pdfrwt beam="1">  1       -4 0.31201993E-01 0.12500259E+03</pdfrwt>
<totfact> 0.86536208E+03</totfact>
</mgrwt>
</event>
<event>
 5    1  0.3486294E-002  0.1249972E+03  0.7818608E-02  0.1235074E+00
         -4   -1    0    0    0  501 -0.00000000000E+00  0.00000000000E+00  0.72930932347E+01  0.74028446513E+01  0.12700000000E+01 0.  1.
          4   -1    0    0  501    0  0.00000000000E+00 -0.00000000000E+00 -0.53147495088E+03  0.53147646826E+03  0.12700000000E+01 0.  1.
         25    2    1    2    0    0  0.00000000000E+00  0.00000000000E+00 -0.52418185764E+03  0.53887931291E+03  0.12499717596E+03 0.  0.
    9000005    1    3    3    0    0 -0.20159675342E+02 -0.55172482303E+02 -0.17016589082E+03  0.18002179233E+03  0.10000000000E+01 0.  0.
    9000005    1    3    3    0    0  0.20159675342E+02  0.55172482303E+02 -0.35401596682E+03  0.35885752058E+03  0.10000000000E+01 0.  0.
<mgrwt>
<rscale>  0 0.12499718E+03</rscale>
<asrwt>0</asrwt>
<pdfrwt beam="2">  1        4 0.81773906E-01 0.12499718E+03</pdfrwt>
<pdfrwt beam="1">  1       -4 0.11305739E-02 0.12499718E+03</pdfrwt>
<totfact> 0.52972445E+03</totfact>
</mgrwt>
</event>
<event>
 5    1  0.3486294E-002  0.1250065E+03  0.7818608E-02  0.1235059E+00
         -4   -1    0    0    0  501 -0.00000000000E+00  0.00000000000E+00  0.50828905017E+02  0.50844768514E+02  0.12700000000E+01 0. -1.
          4   -1    0    0  501    0  0.00000000000E+00 -0.00000000000E+00 -0.76825860245E+02  0.76836356645E+02  0.12700000000E+01 0. -1.
         25    2    1    2    0    0  0.00000000000E+00  0.00000000000E+00 -0.25996955228E+02  0.12768112516E+03  0.12500651199E+03 0.  0.
    9000005    1    3    3    0    0 -0.41101281059E+02 -0.40708521166E+02  0.11153980579E+02  0.58922918147E+02  0.10000000000E+01 0.  0.
    9000005    1    3    3    0    0  0.41101281059E+02  0.40708521166E+02 -0.37150935807E+02  0.68758207012E+02  0.10000000000E+01 0.  0.
<mgrwt>
<rscale>  0 0.12500651E+03</rscale>
<asrwt>0</asrwt>
<pdfrwt beam="2">  1        4 0.11821391E-01 0.12500651E+03</pdfrwt>
<pdfrwt beam="1">  1       -4 0.78218592E-02 0.12500651E+03</pdfrwt>
<totfact> 0.10392852E+04</totfact>
</mgrwt>
</event>
<event>
 5    1  0.3486294E-002  0.1250014E+03  0.7818608E-02  0.1235067E+00
          4   -1    0    0  501    0  0.00000000000E+00  0.00000000000E+00  0.13511389473E+03  0.13511986327E+03  0.12700000000E+01 0. -1.
         -4   -1    0    0    0  501 -0.00000000000E+00 -0.00000000000E+00 -0.28890900986E+02  0.28918801147E+02  0.12700000000E+01 0. -1.
         25    2    1    2    0    0  0.00000000000E+00  0.00000000000E+00  0.10622299375E+03  0.16403866442E+03  0.12500143608E+03 0.  0.
    9000005    1    3    3    0    0  0.55971532682E+02 -0.10628612514E+02  0.86813703561E+02  0.10384314614E+03  0.10000000000E+01 0.  0.
    9000005    1    3    3    0    0 -0.55971532682E+02  0.10628612514E+02  0.19409290186E+02  0.60195518274E+02  0.10000000000E+01 0.  0.
<mgrwt>
<rscale>  0 0.12500144E+03</rscale>
<asrwt>0</asrwt>
<pdfrwt beam="1">  1        4 0.20789359E-01 0.12500144E+03</pdfrwt>
<pdfrwt beam="2">  1       -4 0.44473592E-02 0.12500144E+03</pdfrwt>
<totfact> 0.96566648E+03</totfact>
</mgrwt>
</event>
<event>
 5    1  0.3486294E-002  0.1249986E+03  0.7818608E-02  0.1235071E+00
          4   -1    0    0  501    0  0.00000000000E+00  0.00000000000E+00  0.17552945182E+01  0.21665546025E+01  0.12700000000E+01 0.  1.
         -4   -1    0    0    0  501 -0.00000000000E+00 -0.00000000000E+00 -0.19915900241E+04  0.19915904290E+04  0.12700000000E+01 0.  1.
         25    2    1    2    0    0  0.00000000000E+00  0.00000000000E+00 -0.19898347296E+04  0.19937569837E+04  0.12499863489E+03 0.  0.
    9000005    1    3    3    0    0  0.29135318797E+02  0.73758208156E+01 -0.18688233443E+04  0.18690652641E+04  0.10000000000E+01 0.  0.
    9000005    1    3    3    0    0 -0.29135318797E+02 -0.73758208156E+01 -0.12101138535E+03  0.12469171953E+03  0.10000000000E+01 0.  0.
<mgrwt>
<rscale>  0 0.12499863E+03</rscale>
<asrwt>0</asrwt>
<pdfrwt beam="1">  1        4 0.30171344E-03 0.12499863E+03</pdfrwt>
<pdfrwt beam="2">  1       -4 0.30642851E+00 0.12499863E+03</pdfrwt>
<totfact> 0.99433611E+02</totfact>
</mgrwt>
</event>
<event>
 5    1  0.3486294E-002  0.1250006E+03  0.7818608E-02  0.1235068E+00
          4   -1    0    0  501    0  0.00000000000E+00  0.00000000000E+00  0.45572071484E+03  0.45572248445E+03  0.12700000000E+01 0.  1.
         -4   -1    0    0    0  501 -0.00000000000E+00 -0.00000000000E+00 -0.85228363648E+01  0.86169391144E+01  0.12700000000E+01 0.  1.
         25    2    1    2    0    0  0.00000000000E+00  0.00000000000E+00  0.44719787848E+03  0.46433942357E+03  0.12500063106E+03 0.  0.
    9000005    1    3    3    0    0  0.39770765005E+02 -0.36728557696E+02  0.10763203934E+03  0.12048384370E+03  0.10000000000E+01 0.  0.
    9000005    1    3    3    0    0 -0.39770765005E+02  0.36728557696E+02  0.33956583913E+03  0.34385557987E+03  0.10000000000E+01 0.  0.
<mgrwt>
<rscale>  0 0.12500063E+03</rscale>
<asrwt>0</asrwt>
<pdfrwt beam="1">  1        4 0.70118247E-01 0.12500063E+03</pdfrwt>
<pdfrwt beam="2">  1       -4 0.13185805E-02 0.12500063E+03</pdfrwt>
<totfact> 0.58740579E+03</totfact>
</mgrwt>
</event>
<event>
 5    1  0.3486294E-002  0.1249999E+03  0.7818608E-02  0.1235069E+00
         -4   -1    0    0    0  501 -0.00000000000E+00  0.00000000000E+00  0.95355521633E+01  0.96197533783E+01  0.12700000000E+01 0.  1.
          4   -1    0    0  501    0  0.00000000000E+00 -0.00000000000E+00 -0.40776445486E+03  0.40776643259E+03  0.12700000000E+01 0.  1.
         25    2    1    2    0    0  0.00000000000E+00  0.00000000000E+00 -0.39822890270E+03  0.41738618597E+03  0.12499987718E+03 0.  0.
    9000005    1    3    3    0    0  0.83307552973E+01 -0.75792386189E+01  0.61351018561E+01  0.12864129067E+02  0.10000000000E+01 0.  0.
    9000005    1    3    3    0    0 -0.83307552973E+01  0.75792386189E+01 -0.40436400456E+03  0.40452205690E+03  0.10000000000E+01 0.  0.
<mgrwt>
<rscale>  0 0.12499988E+03</rscale>
<asrwt>0</asrwt>
<pdfrwt beam="2">  1        4 0.62739609E-01 0.12499988E+03</pdfrwt>
<pdfrwt beam="1">  1       -4 0.14736375E-02 0.12499988E+03</pdfrwt>
<totfact> 0.62896417E+03</totfact>
</mgrwt>
</event>
<event>
 5    1  0.3486294E-002  0.1250051E+03  0.7818608E-02  0.1235061E+00
          4   -1    0    0  501    0  0.00000000000E+00  0.00000000000E+00  0.32189583775E+02  0.32214627168E+02  0.12700000000E+01 0.  1.
         -4   -1    0    0    0  501 -0.00000000000E+00 -0.00000000000E+00 -0.12128579167E+03  0.12129244066E+03  0.12700000000E+01 0.  1.
         25    2    1    2    0    0  0.00000000000E+00  0.00000000000E+00 -0.89096207895E+02  0.15350706783E+03  0.12500514234E+03 0.  0.
    9000005    1    3    3    0    0  0.39998369412E+02 -0.30041758599E+02  0.14520672176E+01  0.50054823090E+02  0.10000000000E+01 0.  0.
    9000005    1    3    3    0    0 -0.39998369412E+02  0.30041758599E+02 -0.90548275113E+02  0.10345224474E+03  0.10000000000E+01 0.  0.
<mgrwt>
<rscale>  0 0.12500514E+03</rscale>
<asrwt>0</asrwt>
<pdfrwt beam="1">  1        4 0.49546816E-02 0.12500514E+03</pdfrwt>
<pdfrwt beam="2">  1       -4 0.18661790E-01 0.12500514E+03</pdfrwt>
<totfact> 0.98597748E+03</totfact>
</mgrwt>
</event>
<event>
 5    1  0.3486294E-002  0.1250019E+03  0.7818608E-02  0.1235066E+00
          4   -1    0    0  501    0  0.00000000000E+00  0.00000000000E+00  0.69472825881E+02  0.69484433047E+02  0.12700000000E+01 0.  1.
         -4   -1    0    0    0  501 -0.00000000000E+00 -0.00000000000E+00 -0.56205221014E+02  0.56219567494E+02  0.12700000000E+01 0.  1.
         25    2    1    2    0    0  0.00000000000E+00  0.00000000000E+00  0.13267604867E+02  0.12570400054E+03  0.12500186564E+03 0.  0.
    9000005    1    3    3    0    0 -0.56648113153E+02 -0.17541765905E+02  0.26458600471E+02  0.64944436357E+02  0.10000000000E+01 0.  0.
    9000005    1    3    3    0    0  0.56648113153E+02  0.17541765905E+02 -0.13190995604E+02  0.60759564185E+02  0.10000000000E+01 0.  0.
<mgrwt>
<rscale>  0 0.12500187E+03</rscale>
<asrwt>0</asrwt>
<pdfrwt beam="1">  1        4 0.10690123E-01 0.12500187E+03</pdfrwt>
<pdfrwt beam="2">  1       -4 0.86489535E-02 0.12500187E+03</pdfrwt>
<totfact> 0.10437017E+04</totfact>
</mgrwt>
</event>
<event>
 5    1  0.3486294E-002  0.1250536E+03  0.7818608E-02  0.1234985E+00
          4   -1    0    0  501    0  0.00000000000E+00  0.00000000000E+00  0.20739159199E+01  0.24318773084E+01  0.12700000000E+01 0.  1.
         -4   -1    0    0    0  501 -0.00000000000E+00 -0.00000000000E+00 -0.17350087467E+04  0.17350092115E+04  0.12700000000E+01 0.  1.
         25    2    1    2    0    0  0.00000000000E+00  0.00000000000E+00 -0.17329348307E+04  0.17374410888E+04  0.12505362603E+03 0.  0.
    9000005    1    3    3    0    0  0.29809978912E+02  0.49777278234E+02 -0.11899788091E+04  0.11913928732E+04  0.10000000000E+01 0.  0.
    9000005    1    3    3    0    0 -0.29809978912E+02 -0.49777278234E+02 -0.54295602168E+03  0.54604821559E+03  0.10000000000E+01 0.  0.
<mgrwt>
<rscale>  0 0.12505363E+03</rscale>
<asrwt>0</asrwt>
<pdfrwt beam="1">  1        4 0.34663662E-03 0.12505363E+03</pdfrwt>
<pdfrwt beam="2">  1       -4 0.26695093E+00 0.12505363E+03</pdfrwt>
<totfact> 0.13676382E+03</totfact>
</mgrwt>
</event>
<event>
 5    1  0.3486294E-002  0.1249670E+03  0.7818608E-02  0.1235121E+00
          4   -1    0    0  501    0  0.00000000000E+00  0.00000000000E+00  0.70908450023E+02  0.70919822227E+02  0.12700000000E+01 0.  1.
         -4   -1    0    0    0  501 -0.00000000000E+00 -0.00000000000E+00 -0.55036482216E+02  0.55051133274E+02  0.12700000000E+01 0.  1.
         25    2    1    2    0    0  0.00000000000E+00  0.00000000000E+00  0.15871967807E+02  0.12597095550E+03  0.12496704473E+03 0.  0.
    9000005    1    3    3    0    0  0.53652274731E+02 -0.30813574451E+02  0.16674395929E+02  0.64086491820E+02  0.10000000000E+01 0.  0.
    9000005    1    3    3    0    0 -0.53652274731E+02  0.30813574451E+02 -0.80242812153E+00  0.61884463681E+02  0.10000000000E+01 0.  0.
<mgrwt>
<rscale>  0 0.12496704E+03</rscale>
<asrwt>0</asrwt>
<pdfrwt beam="1">  1        4 0.10910994E-01 0.12496704E+03</pdfrwt>
<pdfrwt beam="2">  1       -4 0.84691529E-02 0.12496704E+03</pdfrwt>
<totfact> 0.10439355E+04</totfact>
</mgrwt>
</event>
<event>
 5    1  0.3486294E-002  0.1250004E+03  0.7818608E-02  0.1235069E+00
          4   -1    0    0  501    0  0.00000000000E+00  0.00000000000E+00  0.92565435880E+01  0.93432595595E+01  0.12700000000E+01 0. -1.
         -4   -1    0    0    0  501 -0.00000000000E+00 -0.00000000000E+00 -0.41994621485E+03  0.41994813521E+03  0.12700000000E+01 0. -1.
         25    2    1    2    0    0  0.00000000000E+00  0.00000000000E+00 -0.41068967127E+03  0.42929139477E+03  0.12500038217E+03 0.  0.
    9000005    1    3    3    0    0  0.17973508132E+02  0.48475410779E+02 -0.32590668268E+03  0.32998345149E+03  0.10000000000E+01 0.  0.
    9000005    1    3    3    0    0 -0.17973508132E+02 -0.48475410779E+02 -0.84782988585E+02  0.99307943279E+02  0.10000000000E+01 0.  0.
<mgrwt>
<rscale>  0 0.12500038E+03</rscale>
<asrwt>0</asrwt>
<pdfrwt beam="1">  1        4 0.14309021E-02 0.12500038E+03</pdfrwt>
<pdfrwt beam="2">  1       -4 0.64613913E-01 0.12500038E+03</pdfrwt>
<totfact> 0.61799761E+03</totfact>
</mgrwt>
</event>
<event>
 5    1  0.3486294E-002  0.1249995E+03  0.7818608E-02  0.1235070E+00
         -4   -1    0    0    0  501 -0.00000000000E+00  0.00000000000E+00  0.14770486114E+04  0.14770491574E+04  0.12700000000E+01 0. -1.
          4   -1    0    0  501    0  0.00000000000E+00 -0.00000000000E+00 -0.24915628059E+01  0.27965666836E+01  0.12700000000E+01 0. -1.
         25    2    1    2    0    0  0.00000000000E+00  0.00000000000E+00  0.14745570486E+04  0.14798457240E+04  0.12499950997E+03 0.  0.
    9000005    1    3    3    0    0 -0.42257503627E+02 -0.44654504207E+02  0.86990387905E+03  0.87207424004E+03  0.10000000000E+01 0.  0.
    9000005    1    3    3    0    0  0.42257503627E+02  0.44654504207E+02  0.60465316951E+03  0.60777148399E+03  0.10000000000E+01 0.  0.
<mgrwt>
<rscale>  0 0.12499951E+03</rscale>
<asrwt>0</asrwt>
<pdfrwt beam="2">  1        4 0.40682096E-03 0.12499951E+03</pdfrwt>
<pdfrwt beam="1">  1       -4 0.22726188E+00 0.12499951E+03</pdfrwt>
<totfact> 0.18329783E+03</totfact>
</mgrwt>
</event>
<event>
 5    1  0.3486294E-002  0.1250047E+03  0.7818608E-02  0.1235062E+00
          4   -1    0    0  501    0  0.00000000000E+00  0.00000000000E+00  0.24964130014E+02  0.24996413490E+02  0.12700000000E+01 0. -1.
         -4   -1    0    0    0  501 -0.00000000000E+00 -0.00000000000E+00 -0.15635021299E+03  0.15635537088E+03  0.12700000000E+01 0. -1.
         25    2    1    2    0    0  0.00000000000E+00  0.00000000000E+00 -0.13138608298E+03  0.18135178437E+03  0.12500466749E+03 0.  0.
    9000005    1    3    3    0    0 -0.63383232970E+01  0.61513051443E+02 -0.78791074105E+02  0.10016517957E+03  0.10000000000E+01 0.  0.
    9000005    1    3    3    0    0  0.63383232970E+01 -0.61513051443E+02 -0.52595008874E+02  0.81186604798E+02  0.10000000000E+01 0.  0.
<mgrwt>
<rscale>  0 0.12500467E+03</rscale>
<asrwt>0</asrwt>
<pdfrwt beam="1">  1        4 0.38435156E-02 0.12500467E+03</pdfrwt>
<pdfrwt beam="2">  1       -4 0.24056758E-01 0.12500467E+03</pdfrwt>
<totfact> 0.93364472E+03</totfact>
</mgrwt>
</event>
<event>
 5    1  0.3486294E-002  0.1250254E+03  0.7818608E-02  0.1235030E+00
         -4   -1    0    0    0  501 -0.00000000000E+00  0.00000000000E+00  0.29169292461E+03  0.29169568932E+03  0.12700000000E+01 0.  1.
          4   -1    0    0  501    0  0.00000000000E+00 -0.00000000000E+00 -0.13364155488E+02  0.13424364115E+02  0.12700000000E+01 0.  1.
         25    2    1    2    0    0  0.00000000000E+00  0.00000000000E+00  0.27832876913E+03  0.30512005344E+03  0.12502537057E+03 0.  0.
    9000005    1    3    3    0    0 -0.36098463491E+02 -0.24819032230E+02  0.24797060984E+03  0.25181244364E+03  0.10000000000E+01 0.  0.
    9000005    1    3    3    0    0  0.36098463491E+02  0.24819032230E+02  0.30358159285E+02  0.53307609798E+02  0.10000000000E+01 0.  0.
<mgrwt>
<rscale>  0 0.12502537E+03</rscale>
<asrwt>0</asrwt>
<pdfrwt beam="2">  1        4 0.20608681E-02 0.12502537E+03</pdfrwt>
<pdfrwt beam="1">  1       -4 0.44880678E-01 0.12502537E+03</pdfrwt>
<totfact> 0.74918854E+03</totfact>
</mgrwt>
</event>
<event>
 5    1  0.3486294E-002  0.1250071E+03  0.7818608E-02  0.1235058E+00
         -4   -1    0    0    0  501 -0.00000000000E+00  0.00000000000E+00  0.14118665385E+02  0.14175669729E+02  0.12700000000E+01 0. -1.
          4   -1    0    0  501    0  0.00000000000E+00 -0.00000000000E+00 -0.27608832858E+03  0.27609124955E+03  0.12700000000E+01 0. -1.
         25    2    1    2    0    0  0.00000000000E+00  0.00000000000E+00 -0.26196966320E+03  0.29026691928E+03  0.12500711977E+03 0.  0.
    9000005    1    3    3    0    0 -0.36844946816E+02  0.40315867178E+02 -0.60448823068E+02  0.81473796171E+02  0.10000000000E+01 0.  0.
    9000005    1    3    3    0    0  0.36844946816E+02 -0.40315867178E+02 -0.20152084013E+03  0.20879312311E+03  0.10000000000E+01 0.  0.
<mgrwt>
<rscale>  0 0.12500712E+03</rscale>
<asrwt>0</asrwt>
<pdfrwt beam="2">  1        4 0.42479733E-01 0.12500712E+03</pdfrwt>
<pdfrwt beam="1">  1       -4 0.21767122E-02 0.12500712E+03</pdfrwt>
<totfact> 0.76824038E+03</totfact>
</mgrwt>
</event>
<event>
 5    1  0.3486294E-002  0.1249988E+03  0.7818608E-02  0.1235071E+00
         -4   -1    0    0    0  501 -0.00000000000E+00  0.00000000000E+00  0.61965821215E+01  0.63253877342E+01  0.12700000000E+01 0.  1.
          4   -1    0    0  501    0  0.00000000000E+00 -0.00000000000E+00 -0.62376216544E+03  0.62376345832E+03  0.12700000000E+01 0.  1.
         25    2    1    2    0    0  0.00000000000E+00  0.00000000000E+00 -0.61756558332E+03  0.63008884605E+03  0.12499881688E+03 0.  0.
    9000005    1    3    3    0    0  0.15137312995E+02  0.49892787930E+02 -0.48243289908E+03  0.48524316652E+03  0.10000000000E+01 0.  0.
    9000005    1    3    3    0    0 -0.15137312995E+02 -0.49892787930E+02 -0.13513268423E+03  0.14484567953E+03  0.10000000000E+01 0.  0.
<mgrwt>
<rscale>  0 0.12499882E+03</rscale>
<asrwt>0</asrwt>
<pdfrwt beam="2">  1        4 0.95973368E-01 0.12499882E+03</pdfrwt>
<pdfrwt beam="1">  1       -4 0.96332840E-03 0.12499882E+03</pdfrwt>
<totfact> 0.47023016E+03</totfact>
</mgrwt>
</event>
<event>
 5    1  0.3486294E-002  0.1250033E+03  0.7818608E-02  0.1235064E+00
         -4   -1    0    0    0  501 -0.00000000000E+00  0.00000000000E+00  0.22520208038E+02  0.22555989672E+02  0.12700000000E+01 0. -1.
          4   -1    0    0  501    0  0.00000000000E+00 -0.00000000000E+00 -0.17328862362E+03  0.17329327735E+03  0.12700000000E+01 0. -1.
         25    2    1    2    0    0  0.00000000000E+00  0.00000000000E+00 -0.15076841558E+03  0.19584926702E+03  0.12500328099E+03 0.  0.
    9000005    1    3    3    0    0  0.60269624239E+02 -0.37711487876E+01 -0.10058926112E+03  0.11732795329E+03  0.10000000000E+01 0.  0.
    9000005    1    3    3    0    0 -0.60269624239E+02  0.37711487876E+01 -0.50179154454E+02  0.78521313736E+02  0.10000000000E+01 0.  0.
<mgrwt>
<rscale>  0 0.12500328E+03</rscale>
<asrwt>0</asrwt>
<pdfrwt beam="2">  1        4 0.26662898E-01 0.12500328E+03</pdfrwt>
<pdfrwt beam="1">  1       -4 0.34677579E-02 0.12500328E+03</pdfrwt>
<totfact> 0.90832733E+03</totfact>
</mgrwt>
</event>
<event>
 5    1  0.3486294E-002  0.1249900E+03  0.7818608E-02  0.1235085E+00
         -4   -1    0    0    0  501 -0.00000000000E+00  0.00000000000E+00  0.83648574766E+03  0.83648671176E+03  0.12700000000E+01 0. -1.
          4   -1    0    0  501    0  0.00000000000E+00 -0.00000000000E+00 -0.45817411897E+01  0.47544981154E+01  0.12700000000E+01 0. -1.
         25    2    1    2    0    0  0.00000000000E+00  0.00000000000E+00  0.83190400647E+03  0.84124120987E+03  0.12498998839E+03 0.  0.
    9000005    1    3    3    0    0  0.39051257600E+02  0.26915479202E+02  0.68977378992E+03  0.69140315663E+03  0.10000000000E+01 0.  0.
    9000005    1    3    3    0    0 -0.39051257600E+02 -0.26915479202E+02  0.14213021656E+03  0.14983805324E+03  0.10000000000E+01 0.  0.
<mgrwt>
<rscale>  0 0.12498999E+03</rscale>
<asrwt>0</asrwt>
<pdfrwt beam="2">  1        4 0.71824698E-03 0.12498999E+03</pdfrwt>
<pdfrwt beam="1">  1       -4 0.12870338E+00 0.12498999E+03</pdfrwt>
<totfact> 0.36496452E+03</totfact>
</mgrwt>
</event>
<event>
 5    1  0.3486294E-002  0.1250052E+03  0.7818608E-02  0.1235061E+00
          4   -1    0    0  501    0  0.00000000000E+00  0.00000000000E+00  0.66277537186E+02  0.66289703842E+02  0.12700000000E+01 0.  1.
         -4   -1    0    0    0  501 -0.00000000000E+00 -0.00000000000E+00 -0.58918239631E+02  0.58931925653E+02  0.12700000000E+01 0.  1.
         25    2    1    2    0    0  0.00000000000E+00  0.00000000000E+00  0.73592975550E+01  0.12522162949E+03  0.12500518882E+03 0.  0.
    9000005    1    3    3    0    0  0.11078047583E+01  0.45030457507E+02  0.47074453858E+02  0.65161135201E+02  0.10000000000E+01 0.  0.
    9000005    1    3    3    0    0 -0.11078047583E+01 -0.45030457507E+02 -0.39715156303E+02  0.60060494294E+02  0.10000000000E+01 0.  0.
<mgrwt>
<rscale>  0 0.12500519E+03</rscale>
<asrwt>0</asrwt>
<pdfrwt beam="1">  1        4 0.10198533E-01 0.12500519E+03</pdfrwt>
<pdfrwt beam="2">  1       -4 0.90663332E-02 0.12500519E+03</pdfrwt>
<totfact> 0.10446826E+04</totfact>
</mgrwt>
</event>
<event>
 5    1  0.3486294E-002  0.1249999E+03  0.7818608E-02  0.1235069E+00
         -4   -1    0    0    0  501 -0.00000000000E+00  0.00000000000E+00  0.21111452711E+03  0.21111834704E+03  0.12700000000E+01 0. -1.
          4   -1    0    0  501    0  0.00000000000E+00 -0.00000000000E+00 -0.18477186015E+02  0.18520780303E+02  0.12700000000E+01 0. -1.
         25    2    1    2    0    0  0.00000000000E+00  0.00000000000E+00  0.19263734110E+03  0.22963912735E+03  0.12499993449E+03 0.  0.
    9000005    1    3    3    0    0 -0.36838870493E+02 -0.47285390333E+02  0.12878081185E+03  0.14205107539E+03  0.10000000000E+01 0.  0.
    9000005    1    3    3    0    0  0.36838870493E+02  0.47285390333E+02  0.63856529248E+02  0.87588051958E+02  0.10000000000E+01 0.  0.
<mgrwt>
<rscale>  0 0.12499993E+03</rscale>
<asrwt>0</asrwt>
<pdfrwt beam="2">  1        4 0.28462911E-02 0.12499993E+03</pdfrwt>
<pdfrwt beam="1">  1       -4 0.32482807E-01 0.12499993E+03</pdfrwt>
<totfact> 0.85365162E+03</totfact>
</mgrwt>
</event>
<event>
 5    1  0.3486294E-002  0.1249994E+03  0.7818608E-02  0.1235070E+00
          4   -1    0    0  501    0  0.00000000000E+00  0.00000000000E+00  0.17740059223E+02  0.17785460388E+02  0.12700000000E+01 0. -1.
         -4   -1    0    0    0  501 -0.00000000000E+00 -0.00000000000E+00 -0.21986315812E+03  0.21986682606E+03  0.12700000000E+01 0. -1.
         25    2    1    2    0    0  0.00000000000E+00  0.00000000000E+00 -0.20212309890E+03  0.23765228644E+03  0.12499944857E+03 0.  0.
    9000005    1    3    3    0    0 -0.29257457864E+02 -0.20021828424E+02 -0.19890258093E+03  0.20203987021E+03  0.10000000000E+01 0.  0.
    9000005    1    3    3    0    0  0.29257457864E+02  0.20021828424E+02 -0.32205179725E+01  0.35612416235E+02  0.10000000000E+01 0.  0.
<mgrwt>
<rscale>  0 0.12499945E+03</rscale>
<asrwt>0</asrwt>
<pdfrwt beam="1">  1        4 0.27330146E-02 0.12499945E+03</pdfrwt>
<pdfrwt beam="2">  1       -4 0.33828874E-01 0.12499945E+03</pdfrwt>
<totfact> 0.84149300E+03</totfact>
</mgrwt>
</event>
<event>
 5    1  0.3486294E-002  0.1250000E+03  0.7818608E-02  0.1235069E+00
         -4   -1    0    0    0  501 -0.00000000000E+00  0.00000000000E+00  0.93194825505E+02  0.93203478480E+02  0.12700000000E+01 0.  1.
          4   -1    0    0  501    0  0.00000000000E+00 -0.00000000000E+00 -0.41894678453E+02  0.41913923494E+02  0.12700000000E+01 0.  1.
         25    2    1    2    0    0  0.00000000000E+00  0.00000000000E+00  0.51300147052E+02  0.13511740197E+03  0.12500002891E+03 0.  0.
    9000005    1    3    3    0    0 -0.52840609557E+02  0.28766769912E+02  0.43917453944E+02  0.74494293946E+02  0.10000000000E+01 0.  0.
    9000005    1    3    3    0    0  0.52840609557E+02 -0.28766769912E+02  0.73826931082E+01  0.60623108029E+02  0.10000000000E+01 0.  0.
<mgrwt>
<rscale>  0 0.12500003E+03</rscale>
<asrwt>0</asrwt>
<pdfrwt beam="2">  1        4 0.64474813E-02 0.12500003E+03</pdfrwt>
<pdfrwt beam="1">  1       -4 0.14339811E-01 0.12500003E+03</pdfrwt>
<totfact> 0.10235590E+04</totfact>
</mgrwt>
</event>
<event>
 5    1  0.3486294E-002  0.1250090E+03  0.7818608E-02  0.1235055E+00
          4   -1    0    0  501    0  0.00000000000E+00  0.00000000000E+00  0.35742178872E+01  0.37931429587E+01  0.12700000000E+01 0.  1.
         -4   -1    0    0    0  501 -0.00000000000E+00 -0.00000000000E+00 -0.10603542728E+04  0.10603550333E+04  0.12700000000E+01 0.  1.
         25    2    1    2    0    0  0.00000000000E+00  0.00000000000E+00 -0.10567800549E+04  0.10641481763E+04  0.12500902637E+03 0.  0.
    9000005    1    3    3    0    0 -0.10732947595E+02 -0.44592314759E+02 -0.16701726675E+03  0.17320345866E+03  0.10000000000E+01 0.  0.
    9000005    1    3    3    0    0  0.10732947595E+02  0.44592314759E+02 -0.88976278814E+03  0.89094471762E+03  0.10000000000E+01 0.  0.
<mgrwt>
<rscale>  0 0.12500903E+03</rscale>
<asrwt>0</asrwt>
<pdfrwt beam="1">  1        4 0.56677942E-03 0.12500903E+03</pdfrwt>
<pdfrwt beam="2">  1       -4 0.16314808E+00 0.12500903E+03</pdfrwt>
<totfact> 0.28551516E+03</totfact>
</mgrwt>
</event>
<event>
 5    1  0.3486294E-002  0.1250010E+03  0.7818608E-02  0.1235068E+00
         -4   -1    0    0    0  501 -0.00000000000E+00  0.00000000000E+00  0.70012324683E+03  0.70012439870E+03  0.12700000000E+01 0.  1.
          4   -1    0    0  501    0  0.00000000000E+00 -0.00000000000E+00 -0.55060262101E+01  0.56505950684E+01  0.12700000000E+01 0.  1.
         25    2    1    2    0    0  0.00000000000E+00  0.00000000000E+00  0.69461722062E+03  0.70577499377E+03  0.12500103457E+03 0.  0.
    9000005    1    3    3    0    0  0.79047425333E+01  0.49948502704E+02  0.55460601537E+03  0.55690768550E+03  0.10000000000E+01 0.  0.
    9000005    1    3    3    0    0 -0.79047425333E+01 -0.49948502704E+02  0.14001120525E+03  0.14886730827E+03  0.10000000000E+01 0.  0.
<mgrwt>
<rscale>  0 0.12500103E+03</rscale>
<asrwt>0</asrwt>
<pdfrwt beam="2">  1        4 0.85829019E-03 0.12500103E+03</pdfrwt>
<pdfrwt beam="1">  1       -4 0.10772248E+00 0.12500103E+03</pdfrwt>
<totfact> 0.42782618E+03</totfact>
</mgrwt>
</event>
<event>
 5    1  0.3486294E-002  0.1250012E+03  0.7818608E-02  0.1235067E+00
         -4   -1    0    0    0  501 -0.00000000000E+00  0.00000000000E+00  0.34301761743E+02  0.34325264146E+02  0.12700000000E+01 0. -1.
          4   -1    0    0  501    0  0.00000000000E+00 -0.00000000000E+00 -0.11381504475E+03  0.11382213015E+03  0.12700000000E+01 0. -1.
         25    2    1    2    0    0  0.00000000000E+00  0.00000000000E+00 -0.79513283009E+02  0.14814739430E+03  0.12500115304E+03 0.  0.
    9000005    1    3    3    0    0  0.38098514468E+02 -0.43803506907E+02 -0.12341621737E+02  0.59359579253E+02  0.10000000000E+01 0.  0.
    9000005    1    3    3    0    0 -0.38098514468E+02  0.43803506907E+02 -0.67171661272E+02  0.88787815042E+02  0.10000000000E+01 0.  0.
<mgrwt>
<rscale>  0 0.12500115E+03</rscale>
<asrwt>0</asrwt>
<pdfrwt beam="2">  1        4 0.17512360E-01 0.12500115E+03</pdfrwt>
<pdfrwt beam="1">  1       -4 0.52795471E-02 0.12500115E+03</pdfrwt>
<totfact> 0.99671690E+03</totfact>
</mgrwt>
</event>
<event>
 5    1  0.3486294E-002  0.1249968E+03  0.7818608E-02  0.1235074E+00
          4   -1    0    0  501    0  0.00000000000E+00  0.00000000000E+00  0.32243227053E+02  0.32268228814E+02  0.12700000000E+01 0. -1.
         -4   -1    0    0    0  501 -0.00000000000E+00 -0.00000000000E+00 -0.12106798730E+03  0.12107464825E+03  0.12700000000E+01 0. -1.
         25    2    1    2    0    0  0.00000000000E+00  0.00000000000E+00 -0.88824760247E+02  0.15334287706E+03  0.12499679961E+03 0.  0.
    9000005    1    3    3    0    0  0.50095343646E+02 -0.26203671837E+02 -0.77074868632E+02  0.95591376428E+02  0.10000000000E+01 0.  0.
    9000005    1    3    3    0    0 -0.50095343646E+02  0.26203671837E+02 -0.11749891615E+02  0.57751500636E+02  0.10000000000E+01 0.  0.
<mgrwt>
<rscale>  0 0.12499680E+03</rscale>
<asrwt>0</asrwt>
<pdfrwt beam="1">  1        4 0.49629321E-02 0.12499680E+03</pdfrwt>
<pdfrwt beam="2">  1       -4 0.18628280E-01 0.12499680E+03</pdfrwt>
<totfact> 0.98648574E+03</totfact>
</mgrwt>
</event>
<event>
 5    1  0.3486294E-002  0.1249981E+03  0.7818608E-02  0.1235072E+00
          4   -1    0    0  501    0  0.00000000000E+00  0.00000000000E+00  0.27489878705E+03  0.27490172066E+03  0.12700000000E+01 0.  1.
         -4   -1    0    0    0  501 -0.00000000000E+00 -0.00000000000E+00 -0.14177960580E+02  0.14234727472E+02  0.12700000000E+01 0.  1.
         25    2    1    2    0    0  0.00000000000E+00  0.00000000000E+00  0.26072082647E+03  0.28913644813E+03  0.12499814512E+03 0.  0.
    9000005    1    3    3    0    0 -0.46933976438E+02 -0.96928253361E+01  0.37593247322E+02  0.60917987914E+02  0.10000000000E+01 0.  0.
    9000005    1    3    3    0    0  0.46933976438E+02  0.96928253361E+01  0.22312757915E+03  0.22821846022E+03  0.10000000000E+01 0.  0.
<mgrwt>
<rscale>  0 0.12499815E+03</rscale>
<asrwt>0</asrwt>
<pdfrwt beam="1">  1        4 0.42296708E-01 0.12499815E+03</pdfrwt>
<pdfrwt beam="2">  1       -4 0.21858173E-02 0.12499815E+03</pdfrwt>
<totfact> 0.76985242E+03</totfact>
</mgrwt>
</event>
<event>
 5    1  0.3486294E-002  0.1249991E+03  0.7818608E-02  0.1235071E+00
         -4   -1    0    0    0  501 -0.00000000000E+00  0.00000000000E+00  0.23261911003E+03  0.23262257683E+03  0.12700000000E+01 0. -1.
          4   -1    0    0  501    0  0.00000000000E+00 -0.00000000000E+00 -0.16764618639E+02  0.16812654107E+02  0.12700000000E+01 0. -1.
         25    2    1    2    0    0  0.00000000000E+00  0.00000000000E+00  0.21585449139E+03  0.24943523093E+03  0.12499909191E+03 0.  0.
    9000005    1    3    3    0    0  0.15944738599E+02  0.59555777022E+02  0.87570446305E+02  0.10710139276E+03  0.10000000000E+01 0.  0.
    9000005    1    3    3    0    0 -0.15944738599E+02 -0.59555777022E+02  0.12828404508E+03  0.14233383817E+03  0.10000000000E+01 0.  0.
<mgrwt>
<rscale>  0 0.12499909E+03</rscale>
<asrwt>0</asrwt>
<pdfrwt beam="2">  1        4 0.25831339E-02 0.12499909E+03</pdfrwt>
<pdfrwt beam="1">  1       -4 0.35791516E-01 0.12499909E+03</pdfrwt>
<totfact> 0.82413590E+03</totfact>
</mgrwt>
</event>
<event>
 5    1  0.3486294E-002  0.1249996E+03  0.7818608E-02  0.1235070E+00
         -4   -1    0    0    0  501 -0.00000000000E+00  0.00000000000E+00  0.10361400534E+04  0.10361408317E+04  0.12700000000E+01 0.  1.
          4   -1    0    0  501    0  0.00000000000E+00 -0.00000000000E+00 -0.36622220183E+01  0.38761798348E+01  0.12700000000E+01 0.  1.
         25    2    1    2    0    0  0.00000000000E+00  0.00000000000E+00  0.10324778314E+04  0.10400170116E+04  0.12499964812E+03 0.  0.
    9000005    1    3    3    0    0 -0.47927024844E+02 -0.22375478890E+02  0.23934302683E+03  0.24511986100E+03  0.10000000000E+01 0.  0.
    9000005    1    3    3    0    0  0.47927024844E+02  0.22375478890E+02  0.79313480457E+03  0.79489715057E+03  0.10000000000E+01 0.  0.
<mgrwt>
<rscale>  0 0.12499965E+03</rscale>
<asrwt>0</asrwt>
<pdfrwt beam="2">  1        4 0.57993778E-03 0.12499965E+03</pdfrwt>
<pdfrwt beam="1">  1       -4 0.15942245E+00 0.12499965E+03</pdfrwt>
<totfact> 0.29308805E+03</totfact>
</mgrwt>
</event>
<event>
 5    1  0.3486294E-002  0.1250057E+03  0.7818608E-02  0.1235060E+00
          4   -1    0    0  501    0  0.00000000000E+00  0.00000000000E+00  0.46098540844E+02  0.46116031571E+02  0.12700000000E+01 0. -1.
         -4   -1    0    0    0  501 -0.00000000000E+00 -0.00000000000E+00 -0.84706305613E+02  0.84715825621E+02  0.12700000000E+01 0. -1.
         25    2    1    2    0    0  0.00000000000E+00  0.00000000000E+00 -0.38607764770E+02  0.13083185719E+03  0.12500566130E+03 0.  0.
    9000005    1    3    3    0    0 -0.62310849128E+02 -0.40574655249E+01 -0.21971991157E+02  0.66203272888E+02  0.10000000000E+01 0.  0.
    9000005    1    3    3    0    0  0.62310849128E+02  0.40574655249E+01 -0.16635773613E+02  0.64628584305E+02  0.10000000000E+01 0.  0.
<mgrwt>
<rscale>  0 0.12500566E+03</rscale>
<asrwt>0</asrwt>
<pdfrwt beam="1">  1        4 0.70941609E-02 0.12500566E+03</pdfrwt>
<pdfrwt beam="2">  1       -4 0.13033817E-01 0.12500566E+03</pdfrwt>
<totfact> 0.10325376E+04</totfact>
</mgrwt>
</event>
<event>
 5    1  0.3486294E-002  0.1250026E+03  0.7818608E-02  0.1235065E+00
         -4   -1    0    0    0  501 -0.00000000000E+00  0.00000000000E+00  0.18105365789E+03  0.18105811204E+03  0.12700000000E+01 0.  1.
          4   -1    0    0  501    0  0.00000000000E+00 -0.00000000000E+00 -0.21552583889E+02  0.21589969252E+02  0.12700000000E+01 0.  1.
         25    2    1    2    0    0  0.00000000000E+00  0.00000000000E+00  0.15950107401E+03  0.20264808130E+03  0.12500260895E+03 0.  0.
    9000005    1    3    3    0    0 -0.51950759394E+02  0.23241130700E+02  0.37901556188E+02  0.68385375039E+02  0.10000000000E+01 0.  0.
    9000005    1    3    3    0    0  0.51950759394E+02 -0.23241130700E+02  0.12159951782E+03  0.13426270626E+03  0.10000000000E+01 0.  0.
<mgrwt>
<rscale>  0 0.12500261E+03</rscale>
<asrwt>0</asrwt>
<pdfrwt beam="2">  1        4 0.33190005E-02 0.12500261E+03</pdfrwt>
<pdfrwt beam="1">  1       -4 0.27857628E-01 0.12500261E+03</pdfrwt>
<totfact> 0.89685564E+03</totfact>
</mgrwt>
</event>
<event>
 5    1  0.3486294E-002  0.1250053E+03  0.7818608E-02  0.1235061E+00
          4   -1    0    0  501    0  0.00000000000E+00  0.00000000000E+00  0.23452547601E+03  0.23452891463E+03  0.12700000000E+01 0.  1.
         -4   -1    0    0    0  501 -0.00000000000E+00 -0.00000000000E+00 -0.16629599286E+02  0.16678023636E+02  0.12700000000E+01 0.  1.
         25    2    1    2    0    0  0.00000000000E+00  0.00000000000E+00  0.21789587672E+03  0.25120693827E+03  0.12500525085E+03 0.  0.
    9000005    1    3    3    0    0  0.23119589111E+02 -0.51787270285E+01 -0.72644227103E+01  0.24801339714E+02  0.10000000000E+01 0.  0.
    9000005    1    3    3    0    0 -0.23119589111E+02  0.51787270285E+01  0.22516029944E+03  0.22640559855E+03  0.10000000000E+01 0.  0.
<mgrwt>
<rscale>  0 0.12500525E+03</rscale>
<asrwt>0</asrwt>
<pdfrwt beam="1">  1        4 0.36084831E-01 0.12500525E+03</pdfrwt>
<pdfrwt beam="2">  1       -4 0.25623894E-02 0.12500525E+03</pdfrwt>
<totfact> 0.82146492E+03</totfact>
</mgrwt>
</event>
<event>
 5    1  0.3486294E-002  0.1250017E+03  0.7818608E-02  0.1235067E+00
         -4   -1    0    0    0  501 -0.00000000000E+00  0.00000000000E+00  0.36085961658E+03  0.36086185137E+03  0.12700000000E+01 0.  1.
          4   -1    0    0  501    0  0.00000000000E+00 -0.00000000000E+00 -0.10785609570E+02  0.10860123102E+02  0.12700000000E+01 0.  1.
         25    2    1    2    0    0  0.00000000000E+00  0.00000000000E+00  0.35007400701E+03  0.37172197448E+03  0.12500166369E+03 0.  0.
    9000005    1    3    3    0    0  0.57664347520E+02 -0.23794310867E+02  0.18616679552E+03  0.19634261371E+03  0.10000000000E+01 0.  0.
    9000005    1    3    3    0    0 -0.57664347520E+02  0.23794310867E+02  0.16390721149E+03  0.17537936076E+03  0.10000000000E+01 0.  0.
<mgrwt>
<rscale>  0 0.12500166E+03</rscale>
<asrwt>0</asrwt>
<pdfrwt beam="2">  1        4 0.16652282E-02 0.12500166E+03</pdfrwt>
<pdfrwt beam="1">  1       -4 0.55522771E-01 0.12500166E+03</pdfrwt>
<totfact> 0.67396687E+03</totfact>
</mgrwt>
</event>
<event>
 5    1  0.3486294E-002  0.1249966E+03  0.7818608E-02  0.1235075E+00
          4   -1    0    0  501    0  0.00000000000E+00  0.00000000000E+00  0.51644285055E+02  0.51659898169E+02  0.12700000000E+01 0.  1.
         -4   -1    0    0    0  501 -0.00000000000E+00 -0.00000000000E+00 -0.75601056494E+02  0.75611722920E+02  0.12700000000E+01 0.  1.
         25    2    1    2    0    0  0.00000000000E+00  0.00000000000E+00 -0.23956771439E+02  0.12727162109E+03  0.12499655450E+03 0.  0.
    9000005    1    3    3    0    0 -0.24238314123E+02 -0.24303468297E+02  0.41191602547E+02  0.53627442258E+02  0.10000000000E+01 0.  0.
    9000005    1    3    3    0    0  0.24238314123E+02  0.24303468297E+02 -0.65148373985E+02  0.73644178831E+02  0.10000000000E+01 0.  0.
<mgrwt>
<rscale>  0 0.12499655E+03</rscale>
<asrwt>0</asrwt>
<pdfrwt beam="1">  1        4 0.79472961E-02 0.12499655E+03</pdfrwt>
<pdfrwt beam="2">  1       -4 0.11632953E-01 0.12499655E+03</pdfrwt>
<totfact> 0.10404059E+04</totfact>
</mgrwt>
</event>
<event>
 5    1  0.3486294E-002  0.1249979E+03  0.7818608E-02  0.1235073E+00
         -4   -1    0    0    0  501 -0.00000000000E+00  0.00000000000E+00  0.85407060257E+02  0.85416502162E+02  0.12700000000E+01 0. -1.
          4   -1    0    0  501    0  0.00000000000E+00 -0.00000000000E+00 -0.45714504377E+02  0.45732141984E+02  0.12700000000E+01 0. -1.
         25    2    1    2    0    0  0.00000000000E+00  0.00000000000E+00  0.39692555879E+02  0.13114864415E+03  0.12499787146E+03 0.  0.
    9000005    1    3    3    0    0  0.40242713118E+02 -0.42929606097E+02 -0.22292454078E+01  0.58893094450E+02  0.10000000000E+01 0.  0.
    9000005    1    3    3    0    0 -0.40242713118E+02  0.42929606097E+02  0.41921801287E+02  0.72255549697E+02  0.10000000000E+01 0.  0.
<mgrwt>
<rscale>  0 0.12499787E+03</rscale>
<asrwt>0</asrwt>
<pdfrwt beam="2">  1        4 0.70350838E-02 0.12499787E+03</pdfrwt>
<pdfrwt beam="1">  1       -4 0.13141631E-01 0.12499787E+03</pdfrwt>
<totfact> 0.10320399E+04</totfact>
</mgrwt>
</event>
<event>
 5    1  0.3486294E-002  0.1250027E+03  0.7818608E-02  0.1235065E+00
          4   -1    0    0  501    0  0.00000000000E+00  0.00000000000E+00  0.30940545534E+03  0.30940806178E+03  0.12700000000E+01 0. -1.
         -4   -1    0    0    0  501 -0.00000000000E+00 -0.00000000000E+00 -0.12590967540E+02  0.12654855336E+02  0.12700000000E+01 0. -1.
         25    2    1    2    0    0  0.00000000000E+00  0.00000000000E+00  0.29681448780E+03  0.32206291712E+03  0.12500272962E+03 0.  0.
    9000005    1    3    3    0    0 -0.11929750674E+02  0.60585949937E+02  0.17317925965E+03  0.18386144853E+03  0.10000000000E+01 0.  0.
    9000005    1    3    3    0    0  0.11929750674E+02 -0.60585949937E+02  0.12363522815E+03  0.13820146859E+03  0.10000000000E+01 0.  0.
<mgrwt>
<rscale>  0 0.12500273E+03</rscale>
<asrwt>0</asrwt>
<pdfrwt beam="1">  1        4 0.47605952E-01 0.12500273E+03</pdfrwt>
<pdfrwt beam="2">  1       -4 0.19421870E-02 0.12500273E+03</pdfrwt>
<totfact> 0.72907028E+03</totfact>
</mgrwt>
</event>
<event>
 5    1  0.3486294E-002  0.1249989E+03  0.7818608E-02  0.1235071E+00
          4   -1    0    0  501    0  0.00000000000E+00  0.00000000000E+00  0.14500631047E+03  0.14501187185E+03  0.12700000000E+01 0. -1.
         -4   -1    0    0    0  501 -0.00000000000E+00 -0.00000000000E+00 -0.26916949162E+02  0.26946893182E+02  0.12700000000E+01 0. -1.
         25    2    1    2    0    0  0.00000000000E+00  0.00000000000E+00  0.11808936131E+03  0.17195876503E+03  0.12499887846E+03 0.  0.
    9000005    1    3    3    0    0 -0.25066766707E+02 -0.14284163207E+02 -0.17213305743E+02  0.33610682919E+02  0.10000000000E+01 0.  0.
    9000005    1    3    3    0    0  0.25066766707E+02  0.14284163207E+02  0.13530266705E+03  0.13834808211E+03  0.10000000000E+01 0.  0.
<mgrwt>
<rscale>  0 0.12499888E+03</rscale>
<asrwt>0</asrwt>
<pdfrwt beam="1">  1        4 0.22311395E-01 0.12499888E+03</pdfrwt>
<pdfrwt beam="2">  1       -4 0.41438003E-02 0.12499888E+03</pdfrwt>
<totfact> 0.95087198E+03</totfact>
</mgrwt>
</event>
<event>
 5    1  0.3486294E-002  0.1250039E+03  0.7818608E-02  0.1235063E+00
         -4   -1    0    0    0  501 -0.00000000000E+00  0.00000000000E+00  0.28965445452E+02  0.28993273879E+02  0.12700000000E+01 0. -1.
          4   -1    0    0  501    0  0.00000000000E+00 -0.00000000000E+00 -0.13477174910E+03  0.13477773278E+03  0.12700000000E+01 0. -1.
         25    2    1    2    0    0  0.00000000000E+00  0.00000000000E+00 -0.10580630364E+03  0.16377100666E+03  0.12500387487E+03 0.  0.
    9000005    1    3    3    0    0 -0.55116502363E+02 -0.25375456389E+02 -0.72500379645E+02  0.94546537051E+02  0.10000000000E+01 0.  0.
    9000005    1    3    3    0    0  0.55116502363E+02  0.25375456389E+02 -0.33305923999E+02  0.69224469612E+02  0.10000000000E+01 0.  0.
<mgrwt>
<rscale>  0 0.12500387E+03</rscale>
<asrwt>0</asrwt>
<pdfrwt beam="2">  1        4 0.20736716E-01 0.12500387E+03</pdfrwt>
<pdfrwt beam="1">  1       -4 0.44588234E-02 0.12500387E+03</pdfrwt>
<totfact> 0.96612240E+03</totfact>
</mgrwt>
</event>
<event>
 5    1  0.3486294E-002  0.1250057E+03  0.7818608E-02  0.1235060E+00
          4   -1    0    0  501    0  0.00000000000E+00  0.00000000000E+00  0.77787580550E+02  0.77797947195E+02  0.12700000000E+01 0. -1.
         -4   -1    0    0    0  501 -0.00000000000E+00 -0.00000000000E+00 -0.50199698078E+02  0.50215760346E+02  0.12700000000E+01 0. -1.
         25    2    1    2    0    0  0.00000000000E+00  0.00000000000E+00  0.27587882472E+02  0.12801370754E+03  0.12500567211E+03 0.  0.
    9000005    1    3    3    0    0  0.24029375812E+02  0.40639890075E+02  0.55725458163E+02  0.73043399802E+02  0.10000000000E+01 0.  0.
    9000005    1    3    3    0    0 -0.24029375812E+02 -0.40639890075E+02 -0.28137575691E+02  0.54970307739E+02  0.10000000000E+01 0.  0.
<mgrwt>
<rscale>  0 0.12500567E+03</rscale>
<asrwt>0</asrwt>
<pdfrwt beam="1">  1        4 0.11969353E-01 0.12500567E+03</pdfrwt>
<pdfrwt beam="2">  1       -4 0.77250635E-02 0.12500567E+03</pdfrwt>
<totfact> 0.10385862E+04</totfact>
</mgrwt>
</event>
<event>
 5    1  0.3486294E-002  0.1249701E+03  0.7818608E-02  0.1235116E+00
         -4   -1    0    0    0  501 -0.00000000000E+00  0.00000000000E+00  0.10184963497E+03  0.10185755270E+03  0.12700000000E+01 0. -1.
          4   -1    0    0  501    0  0.00000000000E+00 -0.00000000000E+00 -0.38314821539E+02  0.38335863752E+02  0.12700000000E+01 0. -1.
         25    2    1    2    0    0  0.00000000000E+00  0.00000000000E+00  0.63534813426E+02  0.14019341645E+03  0.12497008242E+03 0.  0.
    9000005    1    3    3    0    0  0.77930300953E+01 -0.10144683148E+02 -0.36835409825E+02  0.39006324246E+02  0.10000000000E+01 0.  0.
    9000005    1    3    3    0    0 -0.77930300953E+01  0.10144683148E+02  0.10037022325E+03  0.10118709221E+03  0.10000000000E+01 0.  0.
<mgrwt>
<rscale>  0 0.12497008E+03</rscale>
<asrwt>0</asrwt>
<pdfrwt beam="2">  1        4 0.58968158E-02 0.12497008E+03</pdfrwt>
<pdfrwt beam="1">  1       -4 0.15671402E-01 0.12497008E+03</pdfrwt>
<totfact> 0.10136409E+04</totfact>
</mgrwt>
</event>
<event>
 5    1  0.3486294E-002  0.1250005E+03  0.7818608E-02  0.1235069E+00
          4   -1    0    0  501    0  0.00000000000E+00  0.00000000000E+00  0.18718547058E+03  0.18718977882E+03  0.12700000000E+01 0. -1.
         -4   -1    0    0    0  501 -0.00000000000E+00 -0.00000000000E+00 -0.20844630774E+02  0.20883283556E+02  0.12700000000E+01 0. -1.
         25    2    1    2    0    0  0.00000000000E+00  0.00000000000E+00  0.16634083981E+03  0.20807306238E+03  0.12500049720E+03 0.  0.
    9000005    1    3    3    0    0 -0.35844660877E+02  0.99748373657E+01  0.16674721556E+03  0.17085072721E+03  0.10000000000E+01 0.  0.
    9000005    1    3    3    0    0  0.35844660877E+02 -0.99748373657E+01 -0.40637575206E+00  0.37222335164E+02  0.10000000000E+01 0.  0.
<mgrwt>
<rscale>  0 0.12500050E+03</rscale>
<asrwt>0</asrwt>
<pdfrwt beam="1">  1        4 0.28801071E-01 0.12500050E+03</pdfrwt>
<pdfrwt beam="2">  1       -4 0.32101708E-02 0.12500050E+03</pdfrwt>
<totfact> 0.88790556E+03</totfact>
</mgrwt>
</event>
<event>
 5    1  0.3486294E-002  0.1250014E+03  0.7818608E-02  0.1235067E+00
         -4   -1    0    0    0  501 -0.00000000000E+00  0.00000000000E+00  0.23156658862E+03  0.23157007117E+03  0.12700000000E+01 0. -1.
          4   -1    0    0  501    0  0.00000000000E+00 -0.00000000000E+00 -0.16841660103E+02  0.16889476458E+02  0.12700000000E+01 0. -1.
         25    2    1    2    0    0  0.00000000000E+00  0.00000000000E+00  0.21472492851E+03  0.24845954763E+03  0.12500140753E+03 0.  0.
    9000005    1    3    3    0    0  0.59155452839E+02  0.82567750526E+01  0.14389401108E+03  0.15580124633E+03  0.10000000000E+01 0.  0.
    9000005    1    3    3    0    0 -0.59155452839E+02 -0.82567750526E+01  0.70830917435E+02  0.92658301299E+02  0.10000000000E+01 0.  0.
<mgrwt>
<rscale>  0 0.12500141E+03</rscale>
<asrwt>0</asrwt>
<pdfrwt beam="2">  1        4 0.25949709E-02 0.12500141E+03</pdfrwt>
<pdfrwt beam="1">  1       -4 0.35629573E-01 0.12500141E+03</pdfrwt>
<totfact> 0.82550794E+03</totfact>
</mgrwt>
</event>
<event>
 5    1  0.3486294E-002  0.1250229E+03  0.7818608E-02  0.1235033E+00
          4   -1    0    0  501    0  0.00000000000E+00  0.00000000000E+00  0.85221136084E+01  0.86162242517E+01  0.12700000000E+01 0. -1.
         -4   -1    0    0    0  501 -0.00000000000E+00 -0.00000000000E+00 -0.45592147826E+03  0.45592324709E+03  0.12700000000E+01 0. -1.
         25    2    1    2    0    0  0.00000000000E+00  0.00000000000E+00 -0.44739936465E+03  0.46453947135E+03  0.12502291368E+03 0.  0.
    9000005    1    3    3    0    0  0.11139359524E+02 -0.48657969276E+02 -0.36346874779E+03  0.36688174379E+03  0.10000000000E+01 0.  0.
    9000005    1    3    3    0    0 -0.11139359524E+02  0.48657969276E+02 -0.83930616862E+02  0.97657727556E+02  0.10000000000E+01 0.  0.
<mgrwt>
<rscale>  0 0.12502291E+03</rscale>
<asrwt>0</asrwt>
<pdfrwt beam="1">  1        4 0.13184701E-02 0.12502291E+03</pdfrwt>
<pdfrwt beam="2">  1       -4 0.70149122E-01 0.12502291E+03</pdfrwt>
<totfact> 0.58695010E+03</totfact>
</mgrwt>
</event>
<event>
 5    1  0.3486294E-002  0.1249993E+03  0.7818608E-02  0.1235070E+00
         -4   -1    0    0    0  501 -0.00000000000E+00  0.00000000000E+00  0.38095962831E+01  0.40157096310E+01  0.12700000000E+01 0. -1.
          4   -1    0    0  501    0  0.00000000000E+00 -0.00000000000E+00 -0.99814654800E+03  0.99814735594E+03  0.12700000000E+01 0. -1.
         25    2    1    2    0    0  0.00000000000E+00  0.00000000000E+00 -0.99433695171E+03  0.10021630656E+04  0.12499934584E+03 0.  0.
    9000005    1    3    3    0    0 -0.17439727381E+02  0.92392022563E+00 -0.16113563584E+02  0.23783285119E+02  0.10000000000E+01 0.  0.
    9000005    1    3    3    0    0  0.17439727381E+02 -0.92392022563E+00 -0.97822338813E+03  0.97837978045E+03  0.10000000000E+01 0.  0.
<mgrwt>
<rscale>  0 0.12499935E+03</rscale>
<asrwt>0</asrwt>
<pdfrwt beam="2">  1        4 0.15357672E+00 0.12499935E+03</pdfrwt>
<pdfrwt beam="1">  1       -4 0.60200955E-03 0.12499935E+03</pdfrwt>
<totfact> 0.30533647E+03</totfact>
</mgrwt>
</event>
<event>
 5    1  0.3486294E-002  0.1250005E+03  0.7818608E-02  0.1235069E+00
          4   -1    0    0  501    0  0.00000000000E+00  0.00000000000E+00  0.12703243243E+03  0.12703878065E+03  0.12700000000E+01 0. -1.
         -4   -1    0    0    0  501 -0.00000000000E+00 -0.00000000000E+00 -0.30730027052E+02  0.30756258918E+02  0.12700000000E+01 0. -1.
         25    2    1    2    0    0  0.00000000000E+00  0.00000000000E+00  0.96302405378E+02  0.15779503957E+03  0.12500048492E+03 0.  0.
    9000005    1    3    3    0    0 -0.22648817456E+02  0.42561212135E+02 -0.20400011156E+01  0.48265798607E+02  0.10000000000E+01 0.  0.
    9000005    1    3    3    0    0  0.22648817456E+02 -0.42561212135E+02  0.98342406493E+02  0.10952924096E+03  0.10000000000E+01 0.  0.
<mgrwt>
<rscale>  0 0.12500048E+03</rscale>
<asrwt>0</asrwt>
<pdfrwt beam="1">  1        4 0.19545957E-01 0.12500048E+03</pdfrwt>
<pdfrwt beam="2">  1       -4 0.47302026E-02 0.12500048E+03</pdfrwt>
<totfact> 0.97768510E+03</totfact>
</mgrwt>
</event>
<event>
 5    1  0.3486294E-002  0.1250110E+03  0.7818608E-02  0.1235052E+00
         -4   -1    0    0    0  501 -0.00000000000E+00  0.00000000000E+00  0.17041694648E+02  0.17088951299E+02  0.12700000000E+01 0. -1.
          4   -1    0    0  501    0  0.00000000000E+00 -0.00000000000E+00 -0.22889121197E+03  0.22889473524E+03  0.12700000000E+01 0. -1.
         25    2    1    2    0    0  0.00000000000E+00  0.00000000000E+00 -0.21184951733E+03  0.24598368654E+03  0.12501102371E+03 0.  0.
    9000005    1    3    3    0    0  0.17936071264E+02 -0.17574264003E+02 -0.21853786730E+03  0.21997808266E+03  0.10000000000E+01 0.  0.
    9000005    1    3    3    0    0 -0.17936071264E+02  0.17574264003E+02  0.66883499715E+01  0.26005603876E+02  0.10000000000E+01 0.  0.
<mgrwt>
<rscale>  0 0.12501102E+03</rscale>
<asrwt>0</asrwt>
<pdfrwt beam="2">  1        4 0.35217937E-01 0.12501102E+03</pdfrwt>
<pdfrwt beam="1">  1       -4 0.26257055E-02 0.12501102E+03</pdfrwt>
<totfact> 0.82893834E+03</totfact>
</mgrwt>
</event>
<event>
 5    1  0.3486294E-002  0.1250020E+03  0.7818608E-02  0.1235066E+00
          4   -1    0    0  501    0  0.00000000000E+00  0.00000000000E+00  0.17456866441E+03  0.17457328402E+03  0.12700000000E+01 0.  1.
         -4   -1    0    0    0  501 -0.00000000000E+00 -0.00000000000E+00 -0.22354374812E+02  0.22390421462E+02  0.12700000000E+01 0.  1.
         25    2    1    2    0    0  0.00000000000E+00  0.00000000000E+00  0.15221428960E+03  0.19696370548E+03  0.12500204526E+03 0.  0.
    9000005    1    3    3    0    0  0.47972795087E+02 -0.39594046112E+02  0.66613695431E+02  0.91145279499E+02  0.10000000000E+01 0.  0.
    9000005    1    3    3    0    0 -0.47972795087E+02  0.39594046112E+02  0.85600594167E+02  0.10581842598E+03  0.10000000000E+01 0.  0.
<mgrwt>
<rscale>  0 0.12500205E+03</rscale>
<asrwt>0</asrwt>
<pdfrwt beam="1">  1        4 0.26859845E-01 0.12500205E+03</pdfrwt>
<pdfrwt beam="2">  1       -4 0.34422629E-02 0.12500205E+03</pdfrwt>
<totfact> 0.90645422E+03</totfact>
</mgrwt>
</event>
<event>
 5    1  0.3486294E-002  0.1250016E+03  0.7818608E-02  0.1235067E+00
          4   -1    0    0  501    0  0.00000000000E+00  0.00000000000E+00  0.89628091864E+01  0.90523393944E+01  0.12700000000E+01 0.  1.
         -4   -1    0    0    0  501 -0.00000000000E+00 -0.00000000000E+00 -0.43358319856E+03  0.43358505852E+03  0.12700000000E+01 0.  1.
         25    2    1    2    0    0  0.00000000000E+00  0.00000000000E+00 -0.42462038937E+03  0.44263739791E+03  0.12500156384E+03 0.  0.
    9000005    1    3    3    0    0 -0.10543915167E+02 -0.14812014460E+02 -0.42402790340E+03  0.42441869985E+03  0.10000000000E+01 0.  0.
    9000005    1    3    3    0    0  0.10543915167E+02  0.14812014460E+02 -0.59248596707E+00  0.18218698061E+02  0.10000000000E+01 0.  0.
<mgrwt>
<rscale>  0 0.12500156E+03</rscale>
<asrwt>0</asrwt>
<pdfrwt beam="1">  1        4 0.13859241E-02 0.12500156E+03</pdfrwt>
<pdfrwt beam="2">  1       -4 0.66712122E-01 0.12500156E+03</pdfrwt>
<totfact> 0.60604875E+03</totfact>
</mgrwt>
</event>
<event>
 5    1  0.3486294E-002  0.1249992E+03  0.7818608E-02  0.1235070E+00
         -4   -1    0    0    0  501 -0.00000000000E+00  0.00000000000E+00  0.70181929879E+02  0.70193419788E+02  0.12700000000E+01 0. -1.
          4   -1    0    0  501    0  0.00000000000E+00 -0.00000000000E+00 -0.55634931199E+02  0.55649424701E+02  0.12700000000E+01 0. -1.
         25    2    1    2    0    0  0.00000000000E+00  0.00000000000E+00  0.14546998679E+02  0.12584284449E+03  0.12499922535E+03 0.  0.
    9000005    1    3    3    0    0 -0.48778167262E+02  0.70563821674E+01  0.45952835736E+02  0.67392620092E+02  0.10000000000E+01 0.  0.
    9000005    1    3    3    0    0  0.48778167262E+02 -0.70563821674E+01 -0.31405837057E+02  0.58450224396E+02  0.10000000000E+01 0.  0.
<mgrwt>
<rscale>  0 0.12499923E+03</rscale>
<asrwt>0</asrwt>
<pdfrwt beam="2">  1        4 0.85612189E-02 0.12499923E+03</pdfrwt>
<pdfrwt beam="1">  1       -4 0.10799219E-01 0.12499923E+03</pdfrwt>
<totfact> 0.10434587E+04</totfact>
</mgrwt>
</event>
<event>
 5    1  0.3486294E-002  0.1250012E+03  0.7818608E-02  0.1235067E+00
         -4   -1    0    0    0  501 -0.00000000000E+00  0.00000000000E+00  0.14723365209E+03  0.14723912934E+03  0.12700000000E+01 0.  1.
          4   -1    0    0  501    0  0.00000000000E+00 -0.00000000000E+00 -0.26510307548E+02  0.26540710358E+02  0.12700000000E+01 0.  1.
         25    2    1    2    0    0  0.00000000000E+00  0.00000000000E+00  0.12072334454E+03  0.17377983970E+03  0.12500122706E+03 0.  0.
    9000005    1    3    3    0    0  0.61601936164E+02  0.53267051298E+01  0.72962539560E+02  0.95643632855E+02  0.10000000000E+01 0.  0.
    9000005    1    3    3    0    0 -0.61601936164E+02 -0.53267051298E+01  0.47760804984E+02  0.78136206840E+02  0.10000000000E+01 0.  0.
<mgrwt>
<rscale>  0 0.12500123E+03</rscale>
<asrwt>0</asrwt>
<pdfrwt beam="2">  1        4 0.40812689E-02 0.12500123E+03</pdfrwt>
<pdfrwt beam="1">  1       -4 0.22654091E-01 0.12500123E+03</pdfrwt>
<totfact> 0.94746178E+03</totfact>
</mgrwt>
</event>
<event>
 5    1  0.3486294E-002  0.1250217E+03  0.7818608E-02  0.1235035E+00
         -4   -1    0    0    0  501 -0.00000000000E+00  0.00000000000E+00  0.11162547633E+04  0.11162554858E+04  0.12700000000E+01 0.  1.
          4   -1    0    0  501    0  0.00000000000E+00 -0.00000000000E+00 -0.33847062755E+01  0.36151260796E+01  0.12700000000E+01 0.  1.
         25    2    1    2    0    0  0.00000000000E+00  0.00000000000E+00  0.11128700571E+04  0.11198706119E+04  0.12502169188E+03 0.  0.
    9000005    1    3    3    0    0 -0.22520860131E+02  0.30271451699E+02  0.10027852218E+04  0.10034952671E+04  0.10000000000E+01 0.  0.
    9000005    1    3    3    0    0  0.22520860131E+02 -0.30271451699E+02  0.11008483524E+03  0.11637534480E+03  0.10000000000E+01 0.  0.
<mgrwt>
<rscale>  0 0.12502169E+03</rscale>
<asrwt>0</asrwt>
<pdfrwt beam="2">  1        4 0.53850469E-03 0.12502169E+03</pdfrwt>
<pdfrwt beam="1">  1       -4 0.17174913E+00 0.12502169E+03</pdfrwt>
<totfact> 0.26896298E+03</totfact>
</mgrwt>
</event>
<event>
 5    1  0.3486294E-002  0.1250012E+03  0.7818608E-02  0.1235067E+00
         -4   -1    0    0    0  501 -0.00000000000E+00  0.00000000000E+00  0.17781173287E+02  0.17826469742E+02  0.12700000000E+01 0. -1.
          4   -1    0    0  501    0  0.00000000000E+00 -0.00000000000E+00 -0.21936210221E+03  0.21936577852E+03  0.12700000000E+01 0. -1.
         25    2    1    2    0    0  0.00000000000E+00  0.00000000000E+00 -0.20158092892E+03  0.23719224826E+03  0.12500116691E+03 0.  0.
    9000005    1    3    3    0    0 -0.17429469059E+02 -0.58751703587E+02 -0.12401272242E+03  0.13833186325E+03  0.10000000000E+01 0.  0.
    9000005    1    3    3    0    0  0.17429469059E+02  0.58751703587E+02 -0.77568206500E+02  0.98860385017E+02  0.10000000000E+01 0.  0.
<mgrwt>
<rscale>  0 0.12500117E+03</rscale>
<asrwt>0</asrwt>
<pdfrwt beam="2">  1        4 0.33751781E-01 0.12500117E+03</pdfrwt>
<pdfrwt beam="1">  1       -4 0.27393324E-02 0.12500117E+03</pdfrwt>
<totfact> 0.84215126E+03</totfact>
</mgrwt>
</event>
<event>
 5    1  0.3486294E-002  0.1249980E+03  0.7818608E-02  0.1235072E+00
          4   -1    0    0  501    0  0.00000000000E+00  0.00000000000E+00  0.91003798449E+01  0.91885697104E+01  0.12700000000E+01 0.  1.
         -4   -1    0    0    0  501 -0.00000000000E+00 -0.00000000000E+00 -0.42706798989E+03  0.42706987823E+03  0.12700000000E+01 0.  1.
         25    2    1    2    0    0  0.00000000000E+00  0.00000000000E+00 -0.41796761004E+03  0.43625844794E+03  0.12499804138E+03 0.  0.
    9000005    1    3    3    0    0 -0.57403264787E+02 -0.23366129569E+02 -0.18105916941E+03  0.19137537366E+03  0.10000000000E+01 0.  0.
    9000005    1    3    3    0    0  0.57403264787E+02  0.23366129569E+02 -0.23690844064E+03  0.24488307427E+03  0.10000000000E+01 0.  0.
<mgrwt>
<rscale>  0 0.12499804E+03</rscale>
<asrwt>0</asrwt>
<pdfrwt beam="1">  1        4 0.14069879E-02 0.12499804E+03</pdfrwt>
<pdfrwt beam="2">  1       -4 0.65709681E-01 0.12499804E+03</pdfrwt>
<totfact> 0.61175418E+03</totfact>
</mgrwt>
</event>
<event>
 5    1  0.3486294E-002  0.1249972E+03  0.7818608E-02  0.1235074E+00
          4   -1    0    0  501    0  0.00000000000E+00  0.00000000000E+00  0.90607744609E+02  0.90616644625E+02  0.12700000000E+01 0. -1.
         -4   -1    0    0    0  501 -0.00000000000E+00 -0.00000000000E+00 -0.43089361760E+02  0.43108073453E+02  0.12700000000E+01 0. -1.
         25    2    1    2    0    0  0.00000000000E+00  0.00000000000E+00  0.47518382849E+02  0.13372471808E+03  0.12499721403E+03 0.  0.
    9000005    1    3    3    0    0 -0.42898363202E+02  0.66380245071E+01 -0.24332150213E+02  0.49773350990E+02  0.10000000000E+01 0.  0.
    9000005    1    3    3    0    0  0.42898363202E+02 -0.66380245071E+01  0.71850533062E+02  0.83951367088E+02  0.10000000000E+01 0.  0.
<mgrwt>
<rscale>  0 0.12499721E+03</rscale>
<asrwt>0</asrwt>
<pdfrwt beam="1">  1        4 0.13941777E-01 0.12499721E+03</pdfrwt>
<pdfrwt beam="2">  1       -4 0.66312566E-02 0.12499721E+03</pdfrwt>
<totfact> 0.10265666E+04</totfact>
</mgrwt>
</event>
<event>
 5    1  0.3486294E-002  0.1249992E+03  0.7818608E-02  0.1235071E+00
         -4   -1    0    0    0  501 -0.00000000000E+00  0.00000000000E+00  0.34629015633E+02  0.34652296081E+02  0.12700000000E+01 0.  1.
          4   -1    0    0  501    0  0.00000000000E+00 -0.00000000000E+00 -0.11273655045E+03  0.11274370363E+03  0.12700000000E+01 0.  1.
         25    2    1    2    0    0  0.00000000000E+00  0.00000000000E+00 -0.78107534822E+02  0.14739599971E+03  0.12499917494E+03 0.  0.
    9000005    1    3    3    0    0 -0.52006381849E+02 -0.12067537453E+02 -0.77352649263E+02  0.93993199548E+02  0.10000000000E+01 0.  0.
    9000005    1    3    3    0    0  0.52006381849E+02  0.12067537453E+02 -0.75488555840E+00  0.53402800164E+02  0.10000000000E+01 0.  0.
<mgrwt>
<rscale>  0 0.12499917E+03</rscale>
<asrwt>0</asrwt>
<pdfrwt beam="2">  1        4 0.17346426E-01 0.12499917E+03</pdfrwt>
<pdfrwt beam="1">  1       -4 0.53298820E-02 0.12499917E+03</pdfrwt>
<totfact> 0.99827176E+03</totfact>
</mgrwt>
</event>
<event>
 5    1  0.3486294E-002  0.1250009E+03  0.7818608E-02  0.1235068E+00
          4   -1    0    0  501    0  0.00000000000E+00  0.00000000000E+00  0.28401348388E+01  0.31111518611E+01  0.12700000000E+01 0. -1.
         -4   -1    0    0    0  501 -0.00000000000E+00 -0.00000000000E+00 -0.13124884807E+04  0.13124890952E+04  0.12700000000E+01 0. -1.
         25    2    1    2    0    0  0.00000000000E+00  0.00000000000E+00 -0.13096483459E+04  0.13156002470E+04  0.12500088040E+03 0.  0.
    9000005    1    3    3    0    0  0.23745604834E+02  0.21258671439E+02 -0.12205731005E+04  0.12209895489E+04  0.10000000000E+01 0.  0.
    9000005    1    3    3    0    0 -0.23745604834E+02 -0.21258671439E+02 -0.89075245429E+02  0.94610698172E+02  0.10000000000E+01 0.  0.
<mgrwt>
<rscale>  0 0.12500088E+03</rscale>
<asrwt>0</asrwt>
<pdfrwt beam="1">  1        4 0.45783960E-03 0.12500088E+03</pdfrwt>
<pdfrwt beam="2">  1       -4 0.20194174E+00 0.12500088E+03</pdfrwt>
<totfact> 0.21862943E+03</totfact>
</mgrwt>
</event>
<event>
 5    1  0.3486294E-002  0.1250014E+03  0.7818608E-02  0.1235067E+00
         -4   -1    0    0    0  501 -0.00000000000E+00  0.00000000000E+00  0.37785053790E+02  0.37806390860E+02  0.12700000000E+01 0. -1.
          4   -1    0    0  501    0  0.00000000000E+00 -0.00000000000E+00 -0.10332877760E+03  0.10333658201E+03  0.12700000000E+01 0. -1.
         25    2    1    2    0    0  0.00000000000E+00  0.00000000000E+00 -0.65543723812E+02  0.14114297287E+03  0.12500143622E+03 0.  0.
    9000005    1    3    3    0    0 -0.12726299818E+02  0.53344686401E+01  0.36048864727E+02  0.38612639263E+02  0.10000000000E+01 0.  0.
    9000005    1    3    3    0    0  0.12726299818E+02 -0.53344686401E+01 -0.10159258854E+03  0.10253033360E+03  0.10000000000E+01 0.  0.
<mgrwt>
<rscale>  0 0.12500144E+03</rscale>
<asrwt>0</asrwt>
<pdfrwt beam="2">  1        4 0.15898977E-01 0.12500144E+03</pdfrwt>
<pdfrwt beam="1">  1       -4 0.58153269E-02 0.12500144E+03</pdfrwt>
<totfact> 0.10109625E+04</totfact>
</mgrwt>
</event>
<event>
 5    1  0.3486294E-002  0.1250006E+03  0.7818608E-02  0.1235068E+00
         -4   -1    0    0    0  501 -0.00000000000E+00  0.00000000000E+00  0.14419748384E+02  0.14475567120E+02  0.12700000000E+01 0.  1.
          4   -1    0    0  501    0  0.00000000000E+00 -0.00000000000E+00 -0.27031769805E+03  0.27032068138E+03  0.12700000000E+01 0.  1.
         25    2    1    2    0    0  0.00000000000E+00  0.00000000000E+00 -0.25589794967E+03  0.28479624850E+03  0.12500057005E+03 0.  0.
    9000005    1    3    3    0    0 -0.54923888509E+02  0.28308410949E+02 -0.10666295367E+03  0.12327199741E+03  0.10000000000E+01 0.  0.
    9000005    1    3    3    0    0  0.54923888509E+02 -0.28308410949E+02 -0.14923499599E+03  0.16152425109E+03  0.10000000000E+01 0.  0.
<mgrwt>
<rscale>  0 0.12500057E+03</rscale>
<asrwt>0</asrwt>
<pdfrwt beam="2">  1        4 0.41591858E-01 0.12500057E+03</pdfrwt>
<pdfrwt beam="1">  1       -4 0.22229463E-02 0.12500057E+03</pdfrwt>
<totfact> 0.77545445E+03</totfact>
</mgrwt>
</event>
<event>
 5    1  0.3486294E-002  0.1250015E+03  0.7818608E-02  0.1235067E+00
         -4   -1    0    0    0  501 -0.00000000000E+00  0.00000000000E+00  0.58047646842E+03  0.58047785771E+03  0.12700000000E+01 0.  1.
          4   -1    0    0  501    0  0.00000000000E+00 -0.00000000000E+00 -0.66682225209E+01  0.67880845302E+01  0.12700000000E+01 0.  1.
         25    2    1    2    0    0  0.00000000000E+00  0.00000000000E+00  0.57380824590E+03  0.58726594224E+03  0.12500153540E+03 0.  0.
    9000005    1    3    3    0    0 -0.57016517917E+02 -0.25557018692E+02  0.28154452696E+03  0.28839619481E+03  0.10000000000E+01 0.  0.
    9000005    1    3    3    0    0  0.57016517917E+02  0.25557018692E+02  0.29226371894E+03  0.29886974743E+03  0.10000000000E+01 0.  0.
<mgrwt>
<rscale>  0 0.12500154E+03</rscale>
<asrwt>0</asrwt>
<pdfrwt beam="2">  1        4 0.10352073E-02 0.12500154E+03</pdfrwt>
<pdfrwt beam="1">  1       -4 0.89313412E-01 0.12500154E+03</pdfrwt>
<totfact> 0.49679736E+03</totfact>
</mgrwt>
</event>
<event>
 5    1  0.3486294E-002  0.1249992E+03  0.7818608E-02  0.1235071E+00
          4   -1    0    0  501    0  0.00000000000E+00  0.00000000000E+00  0.61150552698E+02  0.61163739219E+02  0.12700000000E+01 0.  1.
         -4   -1    0    0    0  501 -0.00000000000E+00 -0.00000000000E+00 -0.63851988781E+02  0.63864617522E+02  0.12700000000E+01 0.  1.
         25    2    1    2    0    0  0.00000000000E+00  0.00000000000E+00 -0.27014360826E+01  0.12502835674E+03  0.12499916893E+03 0.  0.
    9000005    1    3    3    0    0  0.25849870537E+02  0.21581248906E+02 -0.54005502116E+02  0.63651868550E+02  0.10000000000E+01 0.  0.
    9000005    1    3    3    0    0 -0.25849870537E+02 -0.21581248906E+02  0.51304066033E+02  0.61376488191E+02  0.10000000000E+01 0.  0.
<mgrwt>
<rscale>  0 0.12499917E+03</rscale>
<asrwt>0</asrwt>
<pdfrwt beam="1">  1        4 0.94097631E-02 0.12499917E+03</pdfrwt>
<pdfrwt beam="2">  1       -4 0.98253687E-02 0.12499917E+03</pdfrwt>
<totfact> 0.10452443E+04</totfact>
</mgrwt>
</event>
<event>
 5    1  0.3486294E-002  0.1249987E+03  0.7818608E-02  0.1235071E+00
          4   -1    0    0  501    0  0.00000000000E+00  0.00000000000E+00  0.58287370850E+01  0.59654904246E+01  0.12700000000E+01 0.  1.
         -4   -1    0    0    0  501 -0.00000000000E+00 -0.00000000000E+00 -0.66224915346E+03  0.66225037120E+03  0.12700000000E+01 0.  1.
         25    2    1    2    0    0  0.00000000000E+00  0.00000000000E+00 -0.65642041637E+03  0.66821586163E+03  0.12499869878E+03 0.  0.
    9000005    1    3    3    0    0 -0.52525690118E+02 -0.58076586313E+00 -0.50916974515E+03  0.51187314326E+03  0.10000000000E+01 0.  0.
    9000005    1    3    3    0    0  0.52525690118E+02  0.58076586313E+00 -0.14725067123E+03  0.15634271837E+03  0.10000000000E+01 0.  0.
<mgrwt>
<rscale>  0 0.12499870E+03</rscale>
<asrwt>0</asrwt>
<pdfrwt beam="1">  1        4 0.90734246E-03 0.12499870E+03</pdfrwt>
<pdfrwt beam="2">  1       -4 0.10189504E+00 0.12499870E+03</pdfrwt>
<totfact> 0.44819744E+03</totfact>
</mgrwt>
</event>
<event>
 5    1  0.3486294E-002  0.1250008E+03  0.7818608E-02  0.1235068E+00
         -4   -1    0    0    0  501 -0.00000000000E+00  0.00000000000E+00  0.13656757074E+02  0.13715681309E+02  0.12700000000E+01 0. -1.
          4   -1    0    0  501    0  0.00000000000E+00 -0.00000000000E+00 -0.28535829451E+03  0.28536112060E+03  0.12700000000E+01 0. -1.
         25    2    1    2    0    0  0.00000000000E+00  0.00000000000E+00 -0.27170153744E+03  0.29907680191E+03  0.12500083196E+03 0.  0.
    9000005    1    3    3    0    0 -0.43873150444E+02 -0.43146097996E+02 -0.10976564041E+03  0.12584091114E+03  0.10000000000E+01 0.  0.
    9000005    1    3    3    0    0  0.43873150444E+02  0.43146097996E+02 -0.16193589703E+03  0.17323589077E+03  0.10000000000E+01 0.  0.
<mgrwt>
<rscale>  0 0.12500083E+03</rscale>
<asrwt>0</asrwt>
<pdfrwt beam="2">  1        4 0.43906022E-01 0.12500083E+03</pdfrwt>
<pdfrwt beam="1">  1       -4 0.21057898E-02 0.12500083E+03</pdfrwt>
<totfact> 0.75713392E+03</totfact>
</mgrwt>
</event>
<event>
 5    1  0.3486294E-002  0.1250002E+03  0.7818608E-02  0.1235069E+00
          4   -1    0    0  501    0  0.00000000000E+00  0.00000000000E+00  0.22538507650E+02  0.22574260278E+02  0.12700000000E+01 0. -1.
         -4   -1    0    0    0  501 -0.00000000000E+00 -0.00000000000E+00 -0.17313955048E+03  0.17314420822E+03  0.12700000000E+01 0. -1.
         25    2    1    2    0    0  0.00000000000E+00  0.00000000000E+00 -0.15060104283E+03  0.19571846850E+03  0.12500017924E+03 0.  0.
    9000005    1    3    3    0    0  0.41464853455E+02  0.34485854852E+02 -0.25870232339E+02  0.59823717522E+02  0.10000000000E+01 0.  0.
    9000005    1    3    3    0    0 -0.41464853455E+02 -0.34485854852E+02 -0.12473081049E+03  0.13589475097E+03  0.10000000000E+01 0.  0.
<mgrwt>
<rscale>  0 0.12500018E+03</rscale>
<asrwt>0</asrwt>
<pdfrwt beam="1">  1        4 0.34705713E-02 0.12500018E+03</pdfrwt>
<pdfrwt beam="2">  1       -4 0.26639962E-01 0.12500018E+03</pdfrwt>
<totfact> 0.90861366E+03</totfact>
</mgrwt>
</event>
<event>
 5    1  0.3486294E-002  0.1250013E+03  0.7818608E-02  0.1235067E+00
          4   -1    0    0  501    0  0.00000000000E+00  0.00000000000E+00  0.32887441612E+03  0.32887686826E+03  0.12700000000E+01 0.  1.
         -4   -1    0    0    0  501 -0.00000000000E+00 -0.00000000000E+00 -0.11841435346E+02  0.11909344694E+02  0.12700000000E+01 0.  1.
         25    2    1    2    0    0  0.00000000000E+00  0.00000000000E+00  0.31703298077E+03  0.34078621295E+03  0.12500132816E+03 0.  0.
    9000005    1    3    3    0    0 -0.37683280924E+02 -0.35395244298E+02  0.62806486350E+02  0.81354211370E+02  0.10000000000E+01 0.  0.
    9000005    1    3    3    0    0  0.37683280924E+02  0.35395244298E+02  0.25422649442E+03  0.25943200158E+03  0.10000000000E+01 0.  0.
<mgrwt>
<rscale>  0 0.12500133E+03</rscale>
<asrwt>0</asrwt>
<pdfrwt beam="1">  1        4 0.50601483E-01 0.12500133E+03</pdfrwt>
<pdfrwt beam="2">  1       -4 0.18271715E-02 0.12500133E+03</pdfrwt>
<totfact> 0.70748135E+03</totfact>
</mgrwt>
</event>
<event>
 5    1  0.3486294E-002  0.1249933E+03  0.7818608E-02  0.1235080E+00
          4   -1    0    0  501    0  0.00000000000E+00  0.00000000000E+00  0.39500350196E+02  0.39520761197E+02  0.12700000000E+01 0.  1.
         -4   -1    0    0    0  501 -0.00000000000E+00 -0.00000000000E+00 -0.98830843072E+02  0.98839002637E+02  0.12700000000E+01 0.  1.
         25    2    1    2    0    0  0.00000000000E+00  0.00000000000E+00 -0.59330492876E+02  0.13835976383E+03  0.12499326727E+03 0.  0.
    9000005    1    3    3    0    0 -0.62458365080E+01  0.28872537152E+02 -0.90619185929E+02  0.95317735672E+02  0.10000000000E+01 0.  0.
    9000005    1    3    3    0    0  0.62458365080E+01 -0.28872537152E+02  0.31288693053E+02  0.43042028161E+02  0.10000000000E+01 0.  0.
<mgrwt>
<rscale>  0 0.12499327E+03</rscale>
<asrwt>0</asrwt>
<pdfrwt beam="1">  1        4 0.60791747E-02 0.12499327E+03</pdfrwt>
<pdfrwt beam="2">  1       -4 0.15206943E-01 0.12499327E+03</pdfrwt>
<totfact> 0.10169237E+04</totfact>
</mgrwt>
</event>
<event>
 5    1  0.3486294E-002  0.1249988E+03  0.7818608E-02  0.1235071E+00
         -4   -1    0    0    0  501 -0.00000000000E+00  0.00000000000E+00  0.22008796959E+03  0.22009163378E+03  0.12700000000E+01 0.  1.
          4   -1    0    0  501    0  0.00000000000E+00 -0.00000000000E+00 -0.17721700222E+02  0.17767148301E+02  0.12700000000E+01 0.  1.
         25    2    1    2    0    0  0.00000000000E+00  0.00000000000E+00  0.20236626937E+03  0.23785878208E+03  0.12499877293E+03 0.  0.
    9000005    1    3    3    0    0  0.89723329913E+01 -0.67924793604E+01  0.21815328226E+03  0.21844563419E+03  0.10000000000E+01 0.  0.
    9000005    1    3    3    0    0 -0.89723329913E+01  0.67924793604E+01 -0.15787012888E+02  0.19413147893E+02  0.10000000000E+01 0.  0.
<mgrwt>
<rscale>  0 0.12499877E+03</rscale>
<asrwt>0</asrwt>
<pdfrwt beam="2">  1        4 0.27301933E-02 0.12499877E+03</pdfrwt>
<pdfrwt beam="1">  1       -4 0.33863466E-01 0.12499877E+03</pdfrwt>
<totfact> 0.84119601E+03</totfact>
</mgrwt>
</event>
<event>
 5    1  0.3486294E-002  0.1250008E+03  0.7818608E-02  0.1235068E+00
         -4   -1    0    0    0  501 -0.00000000000E+00  0.00000000000E+00  0.39374920543E+01  0.41372386537E+01  0.12700000000E+01 0. -1.
          4   -1    0    0  501    0  0.00000000000E+00 -0.00000000000E+00 -0.96733634268E+03  0.96733717636E+03  0.12700000000E+01 0. -1.
         25    2    1    2    0    0  0.00000000000E+00  0.00000000000E+00 -0.96339885062E+03  0.97147441501E+03  0.12500077456E+03 0.  0.
    9000005    1    3    3    0    0 -0.61880863699E+02 -0.79139376857E+01 -0.45322182166E+03  0.45749632931E+03  0.10000000000E+01 0.  0.
    9000005    1    3    3    0    0  0.61880863699E+02  0.79139376857E+01 -0.51017702896E+03  0.51397808570E+03  0.10000000000E+01 0.  0.
<mgrwt>
<rscale>  0 0.12500077E+03</rscale>
<asrwt>0</asrwt>
<pdfrwt beam="2">  1        4 0.14883622E+00 0.12500077E+03</pdfrwt>
<pdfrwt beam="1">  1       -4 0.62119803E-03 0.12500077E+03</pdfrwt>
<totfact> 0.31565112E+03</totfact>
</mgrwt>
</event>
<event>
 5    1  0.3486294E-002  0.1249991E+03  0.7818608E-02  0.1235071E+00
          4   -1    0    0  501    0  0.00000000000E+00  0.00000000000E+00  0.20777559034E+02  0.20816336359E+02  0.12700000000E+01 0.  1.
         -4   -1    0    0    0  501 -0.00000000000E+00 -0.00000000000E+00 -0.18778449709E+03  0.18778879159E+03  0.12700000000E+01 0.  1.
         25    2    1    2    0    0  0.00000000000E+00  0.00000000000E+00 -0.16700693806E+03  0.20860512795E+03  0.12499912819E+03 0.  0.
    9000005    1    3    3    0    0 -0.46003351530E+02 -0.23415866361E+02 -0.24723257124E+02  0.57243782128E+02  0.10000000000E+01 0.  0.
    9000005    1    3    3    0    0  0.46003351530E+02  0.23415866361E+02 -0.14228368093E+03  0.15136134582E+03  0.10000000000E+01 0.  0.
<mgrwt>
<rscale>  0 0.12499913E+03</rscale>
<asrwt>0</asrwt>
<pdfrwt beam="1">  1        4 0.31998609E-02 0.12499913E+03</pdfrwt>
<pdfrwt beam="2">  1       -4 0.28893235E-01 0.12499913E+03</pdfrwt>
<totfact> 0.88705919E+03</totfact>
</mgrwt>
</event>
<event>
 5    1  0.3486294E-002  0.1250064E+03  0.7818608E-02  0.1235059E+00
         -4   -1    0    0    0  501 -0.00000000000E+00  0.00000000000E+00  0.17833705296E+03  0.17834157496E+03  0.12700000000E+01 0.  1.
          4   -1    0    0  501    0  0.00000000000E+00 -0.00000000000E+00 -0.21882767801E+02  0.21919590020E+02  0.12700000000E+01 0.  1.
         25    2    1    2    0    0  0.00000000000E+00  0.00000000000E+00  0.15645428516E+03  0.20026116497E+03  0.12500636325E+03 0.  0.
    9000005    1    3    3    0    0  0.59072942526E+02 -0.20021350435E+02  0.84468952479E+02  0.10500700427E+03  0.10000000000E+01 0.  0.
    9000005    1    3    3    0    0 -0.59072942526E+02  0.20021350435E+02  0.71985332677E+02  0.95254160710E+02  0.10000000000E+01 0.  0.
<mgrwt>
<rscale>  0 0.12500636E+03</rscale>
<asrwt>0</asrwt>
<pdfrwt beam="2">  1        4 0.33697601E-02 0.12500636E+03</pdfrwt>
<pdfrwt beam="1">  1       -4 0.27439649E-01 0.12500636E+03</pdfrwt>
<totfact> 0.90078651E+03</totfact>
</mgrwt>
</event>
<event>
 5    1  0.3486294E-002  0.1250036E+03  0.7818608E-02  0.1235064E+00
         -4   -1    0    0    0  501 -0.00000000000E+00  0.00000000000E+00  0.34715165642E+02  0.34738388356E+02  0.12700000000E+01 0. -1.
          4   -1    0    0  501    0  0.00000000000E+00 -0.00000000000E+00 -0.11246486603E+03  0.11247203649E+03  0.12700000000E+01 0. -1.
         25    2    1    2    0    0  0.00000000000E+00  0.00000000000E+00 -0.77749700390E+02  0.14721042484E+03  0.12500357304E+03 0.  0.
    9000005    1    3    3    0    0 -0.35963475348E+02  0.18031194566E+02 -0.95192835727E+02  0.10334975332E+03  0.10000000000E+01 0.  0.
    9000005    1    3    3    0    0  0.35963475348E+02 -0.18031194566E+02  0.17443135336E+02  0.43860671528E+02  0.10000000000E+01 0.  0.
<mgrwt>
<rscale>  0 0.12500357E+03</rscale>
<asrwt>0</asrwt>
<pdfrwt beam="2">  1        4 0.17304625E-01 0.12500357E+03</pdfrwt>
<pdfrwt beam="1">  1       -4 0.53431327E-02 0.12500357E+03</pdfrwt>
<totfact> 0.99854661E+03</totfact>
</mgrwt>
</event>
<event>
 5    1  0.3486294E-002  0.1250002E+03  0.7818608E-02  0.1235069E+00
         -4   -1    0    0    0  501 -0.00000000000E+00  0.00000000000E+00  0.83180587698E+01  0.84144519546E+01  0.12700000000E+01 0. -1.
          4   -1    0    0  501    0  0.00000000000E+00 -0.00000000000E+00 -0.46680943955E+03  0.46681116713E+03  0.12700000000E+01 0. -1.
         25    2    1    2    0    0  0.00000000000E+00  0.00000000000E+00 -0.45849138078E+03  0.47522561908E+03  0.12500017112E+03 0.  0.
    9000005    1    3    3    0    0  0.94714864638E+01 -0.32782642616E+02 -0.30209582602E+02  0.45585409877E+02  0.10000000000E+01 0.  0.
    9000005    1    3    3    0    0 -0.94714864638E+01  0.32782642616E+02 -0.42828179818E+03  0.42964020921E+03  0.10000000000E+01 0.  0.
<mgrwt>
<rscale>  0 0.12500017E+03</rscale>
<asrwt>0</asrwt>
<pdfrwt beam="2">  1        4 0.71824364E-01 0.12500017E+03</pdfrwt>
<pdfrwt beam="1">  1       -4 0.12872495E-02 0.12500017E+03</pdfrwt>
<totfact> 0.57838920E+03</totfact>
</mgrwt>
</event>
<event>
 5    1  0.3486294E-002  0.1250002E+03  0.7818608E-02  0.1235069E+00
          4   -1    0    0  501    0  0.00000000000E+00  0.00000000000E+00  0.40160275950E+02  0.40180351720E+02  0.12700000000E+01 0.  1.
         -4   -1    0    0    0  501 -0.00000000000E+00 -0.00000000000E+00 -0.97218250727E+02  0.97226545626E+02  0.12700000000E+01 0.  1.
         25    2    1    2    0    0  0.00000000000E+00  0.00000000000E+00 -0.57057974777E+02  0.13740689735E+03  0.12500017181E+03 0.  0.
    9000005    1    3    3    0    0  0.18883795081E+01 -0.18395092519E+02  0.37089324232E+02  0.41455559072E+02  0.10000000000E+01 0.  0.
    9000005    1    3    3    0    0 -0.18883795081E+01  0.18395092519E+02 -0.94147299009E+02  0.95951338275E+02  0.10000000000E+01 0.  0.
<mgrwt>
<rscale>  0 0.12500017E+03</rscale>
<asrwt>0</asrwt>
<pdfrwt beam="1">  1        4 0.61806864E-02 0.12500017E+03</pdfrwt>
<pdfrwt beam="2">  1       -4 0.14958836E-01 0.12500017E+03</pdfrwt>
<totfact> 0.10187545E+04</totfact>
</mgrwt>
</event>
<event>
 5    1  0.3486294E-002  0.1250014E+03  0.7818608E-02  0.1235067E+00
          4   -1    0    0  501    0  0.00000000000E+00  0.00000000000E+00  0.11843431323E+02  0.11911329292E+02  0.12700000000E+01 0.  1.
         -4   -1    0    0    0  501 -0.00000000000E+00 -0.00000000000E+00 -0.32881971156E+03  0.32882216411E+03  0.12700000000E+01 0.  1.
         25    2    1    2    0    0  0.00000000000E+00  0.00000000000E+00 -0.31697628024E+03  0.34073349341E+03  0.12500140517E+03 0.  0.
    9000005    1    3    3    0    0  0.42009096318E+02 -0.11091779279E+02 -0.28092485331E+03  0.28426671446E+03  0.10000000000E+01 0.  0.
    9000005    1    3    3    0    0 -0.42009096318E+02  0.11091779279E+02 -0.36051426928E+02  0.56466778947E+02  0.10000000000E+01 0.  0.
<mgrwt>
<rscale>  0 0.12500141E+03</rscale>
<asrwt>0</asrwt>
<pdfrwt beam="1">  1        4 0.18274782E-02 0.12500141E+03</pdfrwt>
<pdfrwt beam="2">  1       -4 0.50593053E-01 0.12500141E+03</pdfrwt>
<totfact> 0.70753963E+03</totfact>
</mgrwt>
</event>
<event>
 5    1  0.3486294E-002  0.1250013E+03  0.7818608E-02  0.1235067E+00
         -4   -1    0    0    0  501 -0.00000000000E+00  0.00000000000E+00  0.16461647680E+03  0.16462137569E+03  0.12700000000E+01 0.  1.
          4   -1    0    0  501    0  0.00000000000E+00 -0.00000000000E+00 -0.23707661204E+02  0.23741653265E+02  0.12700000000E+01 0.  1.
         25    2    1    2    0    0  0.00000000000E+00  0.00000000000E+00  0.14090881560E+03  0.18836302896E+03  0.12500134545E+03 0.  0.
    9000005    1    3    3    0    0  0.47128867582E+02 -0.58366978272E+01  0.13166702726E+03  0.13997286619E+03  0.10000000000E+01 0.  0.
    9000005    1    3    3    0    0 -0.47128867582E+02  0.58366978272E+01  0.92417883360E+01  0.48390162768E+02  0.10000000000E+01 0.  0.
<mgrwt>
<rscale>  0 0.12500135E+03</rscale>
<asrwt>0</asrwt>
<pdfrwt beam="2">  1        4 0.36503241E-02 0.12500135E+03</pdfrwt>
<pdfrwt beam="1">  1       -4 0.25328604E-01 0.12500135E+03</pdfrwt>
<totfact> 0.92130147E+03</totfact>
</mgrwt>
</event>
<event>
 5    1  0.3486294E-002  0.1250124E+03  0.7818608E-02  0.1235050E+00
         -4   -1    0    0    0  501 -0.00000000000E+00  0.00000000000E+00  0.50106293636E+02  0.50122385836E+02  0.12700000000E+01 0.  1.
          4   -1    0    0  501    0  0.00000000000E+00 -0.00000000000E+00 -0.77941003965E+02  0.77951350206E+02  0.12700000000E+01 0.  1.
         25    2    1    2    0    0  0.00000000000E+00  0.00000000000E+00 -0.27834710329E+02  0.12807373604E+03  0.12501244244E+03 0.  0.
    9000005    1    3    3    0    0 -0.53848438018E+02 -0.31741736535E+01  0.18419775036E+02  0.57008927088E+02  0.10000000000E+01 0.  0.
    9000005    1    3    3    0    0  0.53848438018E+02  0.31741736535E+01 -0.46254485365E+02  0.71064808954E+02  0.10000000000E+01 0.  0.
<mgrwt>
<rscale>  0 0.12501244E+03</rscale>
<asrwt>0</asrwt>
<pdfrwt beam="2">  1        4 0.11992957E-01 0.12501244E+03</pdfrwt>
<pdfrwt beam="1">  1       -4 0.77106942E-02 0.12501244E+03</pdfrwt>
<totfact> 0.10382979E+04</totfact>
</mgrwt>
</event>
<event>
 5    1  0.3486294E-002  0.1249997E+03  0.7818608E-02  0.1235070E+00
          4   -1    0    0  501    0  0.00000000000E+00  0.00000000000E+00  0.97184816619E+01  0.98011114581E+01  0.12700000000E+01 0. -1.
         -4   -1    0    0    0  501 -0.00000000000E+00 -0.00000000000E+00 -0.40015317741E+03  0.40015519276E+03  0.12700000000E+01 0. -1.
         25    2    1    2    0    0  0.00000000000E+00  0.00000000000E+00 -0.39043469575E+03  0.40995630422E+03  0.12499967889E+03 0.  0.
    9000005    1    3    3    0    0 -0.22383005088E+02 -0.53931529386E+02 -0.12220377711E+03  0.13544139662E+03  0.10000000000E+01 0.  0.
    9000005    1    3    3    0    0  0.22383005088E+02  0.53931529386E+02 -0.26823091865E+03  0.27451490760E+03  0.10000000000E+01 0.  0.
<mgrwt>
<rscale>  0 0.12499968E+03</rscale>
<asrwt>0</asrwt>
<pdfrwt beam="1">  1        4 0.15016625E-02 0.12499968E+03</pdfrwt>
<pdfrwt beam="2">  1       -4 0.61568526E-01 0.12499968E+03</pdfrwt>
<totfact> 0.63596291E+03</totfact>
</mgrwt>
</event>
<event>
 4    1  0.3486294E-002  0.1246484E+03  0.7818608E-02  0.1235620E+00
          4   -1    0    0  501    0  0.00000000000E+00  0.00000000000E+00  0.50139640802E+02  0.50155722304E+02  0.12700000000E+01 0.  1.
         -4   -1    0    0    0  501 -0.00000000000E+00 -0.00000000000E+00 -0.77436042090E+02  0.77446455791E+02  0.12700000000E+01 0.  1.
    9000005    1    1    2    0    0 -0.48526462750E+02  0.37453940668E+02 -0.25125040471E+02  0.66256191539E+02  0.10000000000E+01 0.  0.
    9000005    1    1    2    0    0  0.48526462750E+02 -0.37453940668E+02 -0.21713608164E+01  0.61345986555E+02  0.10000000000E+01 0.  0.
<mgrwt>
<rscale>  0 0.12464839E+03</rscale>
<asrwt>0</asrwt>
<pdfrwt beam="1">  1        4 0.77158290E-02 0.12464839E+03</pdfrwt>
<pdfrwt beam="2">  1       -4 0.11915275E-01 0.12464839E+03</pdfrwt>
<totfact> 0.10479039E+04</totfact>
</mgrwt>
</event>
<event>
 5    1  0.3486294E-002  0.1249591E+03  0.7818608E-02  0.1235133E+00
         -4   -1    0    0    0  501 -0.00000000000E+00  0.00000000000E+00  0.20951724036E+02  0.20990179610E+02  0.12700000000E+01 0.  1.
          4   -1    0    0  501    0  0.00000000000E+00 -0.00000000000E+00 -0.18610706380E+03  0.18611139701E+03  0.12700000000E+01 0.  1.
         25    2    1    2    0    0  0.00000000000E+00  0.00000000000E+00 -0.16515533977E+03  0.20710157662E+03  0.12495910045E+03 0.  0.
    9000005    1    3    3    0    0 -0.16692960280E+02  0.56545868505E+02 -0.48346007436E+02  0.76252387523E+02  0.10000000000E+01 0.  0.
    9000005    1    3    3    0    0  0.16692960280E+02 -0.56545868505E+02 -0.11680933233E+03  0.13084918910E+03  0.10000000000E+01 0.  0.
<mgrwt>
<rscale>  0 0.12495910E+03</rscale>
<asrwt>0</asrwt>
<pdfrwt beam="2">  1        4 0.28635146E-01 0.12495910E+03</pdfrwt>
<pdfrwt beam="1">  1       -4 0.32266337E-02 0.12495910E+03</pdfrwt>
<totfact> 0.89032836E+03</totfact>
</mgrwt>
</event>
<event>
 5    1  0.3486294E-002  0.1249974E+03  0.7818608E-02  0.1235073E+00
         -4   -1    0    0    0  501 -0.00000000000E+00  0.00000000000E+00  0.70453225616E+03  0.70453340082E+03  0.12700000000E+01 0.  1.
          4   -1    0    0  501    0  0.00000000000E+00 -0.00000000000E+00 -0.54703327053E+01  0.56158205016E+01  0.12700000000E+01 0.  1.
         25    2    1    2    0    0  0.00000000000E+00  0.00000000000E+00  0.69906192346E+03  0.71014922132E+03  0.12499737485E+03 0.  0.
    9000005    1    3    3    0    0 -0.49453018845E+02 -0.36964741478E+02  0.29471505034E+03  0.30111451988E+03  0.10000000000E+01 0.  0.
    9000005    1    3    3    0    0  0.49453018845E+02  0.36964741478E+02  0.40434687311E+03  0.40903470144E+03  0.10000000000E+01 0.  0.
<mgrwt>
<rscale>  0 0.12499737E+03</rscale>
<asrwt>0</asrwt>
<pdfrwt beam="2">  1        4 0.85286898E-03 0.12499737E+03</pdfrwt>
<pdfrwt beam="1">  1       -4 0.10840087E+00 0.12499737E+03</pdfrwt>
<totfact> 0.42558762E+03</totfact>
</mgrwt>
</event>
<event>
 5    1  0.3486294E-002  0.1250046E+03  0.7818608E-02  0.1235062E+00
         -4   -1    0    0    0  501 -0.00000000000E+00  0.00000000000E+00  0.65174012537E+03  0.65174136275E+03  0.12700000000E+01 0.  1.
          4   -1    0    0  501    0  0.00000000000E+00 -0.00000000000E+00 -0.59254859501E+01  0.60600564143E+01  0.12700000000E+01 0.  1.
         25    2    1    2    0    0  0.00000000000E+00  0.00000000000E+00  0.64581463942E+03  0.65780141917E+03  0.12500463417E+03 0.  0.
    9000005    1    3    3    0    0  0.29611753994E+02 -0.30716665673E+01  0.61205394272E+03  0.61277836116E+03  0.10000000000E+01 0.  0.
    9000005    1    3    3    0    0 -0.29611753994E+02  0.30716665673E+01  0.33760696704E+02  0.45023058004E+02  0.10000000000E+01 0.  0.
<mgrwt>
<rscale>  0 0.12500463E+03</rscale>
<asrwt>0</asrwt>
<pdfrwt beam="2">  1        4 0.92206017E-03 0.12500463E+03</pdfrwt>
<pdfrwt beam="1">  1       -4 0.10027814E+00 0.12500463E+03</pdfrwt>
<totfact> 0.45405043E+03</totfact>
</mgrwt>
</event>
<event>
 5    1  0.3486294E-002  0.1249934E+03  0.7818608E-02  0.1235080E+00
         -4   -1    0    0    0  501 -0.00000000000E+00  0.00000000000E+00  0.18057147020E+03  0.18057593625E+03  0.12700000000E+01 0.  1.
          4   -1    0    0  501    0  0.00000000000E+00 -0.00000000000E+00 -0.21607041946E+02  0.21644333246E+02  0.12700000000E+01 0.  1.
         25    2    1    2    0    0  0.00000000000E+00  0.00000000000E+00  0.15896442826E+03  0.20222026949E+03  0.12499339159E+03 0.  0.
    9000005    1    3    3    0    0 -0.93160018886E+01  0.56538213821E+02  0.11981433189E+03  0.13281502791E+03  0.10000000000E+01 0.  0.
    9000005    1    3    3    0    0  0.93160018886E+01 -0.56538213821E+02  0.39150096370E+02  0.69405241582E+02  0.10000000000E+01 0.  0.
<mgrwt>
<rscale>  0 0.12499339E+03</rscale>
<asrwt>0</asrwt>
<pdfrwt beam="2">  1        4 0.33273723E-02 0.12499339E+03</pdfrwt>
<pdfrwt beam="1">  1       -4 0.27783439E-01 0.12499339E+03</pdfrwt>
<totfact> 0.89775657E+03</totfact>
</mgrwt>
</event>
<event>
 5    1  0.3486294E-002  0.1249952E+03  0.7818608E-02  0.1235077E+00
          4   -1    0    0  501    0  0.00000000000E+00  0.00000000000E+00  0.58771578177E+03  0.58771715395E+03  0.12700000000E+01 0.  1.
         -4   -1    0    0    0  501 -0.00000000000E+00 -0.00000000000E+00 -0.65839233407E+01  0.67052924288E+01  0.12700000000E+01 0.  1.
         25    2    1    2    0    0  0.00000000000E+00  0.00000000000E+00  0.58113185843E+03  0.59442244638E+03  0.12499523140E+03 0.  0.
    9000005    1    3    3    0    0 -0.37240692766E+02  0.37981533221E+02  0.44652265803E+03  0.44968094266E+03  0.10000000000E+01 0.  0.
    9000005    1    3    3    0    0  0.37240692766E+02 -0.37981533221E+02  0.13460920040E+03  0.14474150371E+03  0.10000000000E+01 0.  0.
<mgrwt>
<rscale>  0 0.12499523E+03</rscale>
<asrwt>0</asrwt>
<pdfrwt beam="1">  1        4 0.90427241E-01 0.12499523E+03</pdfrwt>
<pdfrwt beam="2">  1       -4 0.10223531E-02 0.12499523E+03</pdfrwt>
<totfact> 0.49226738E+03</totfact>
</mgrwt>
</event>
<event>
 4    1  0.3486294E-002  0.1250844E+03  0.7818608E-02  0.1234937E+00
          4   -1    0    0  501    0  0.00000000000E+00  0.00000000000E+00  0.17872598148E+03  0.17873049364E+03  0.12700000000E+01 0.  1.
         -4   -1    0    0    0  501 -0.00000000000E+00 -0.00000000000E+00 -0.21862384327E+02  0.21899240820E+02  0.12700000000E+01 0.  1.
    9000005    1    1    2    0    0  0.47260169703E+02 -0.14721434021E+02  0.13972474209E+03  0.14823713371E+03  0.10000000000E+01 0.  0.
    9000005    1    1    2    0    0 -0.47260169703E+02  0.14721434021E+02  0.17138855067E+02  0.52392600747E+02  0.10000000000E+01 0.  0.
<mgrwt>
<rscale>  0 0.12508438E+03</rscale>
<asrwt>0</asrwt>
<pdfrwt beam="1">  1        4 0.27499486E-01 0.12508438E+03</pdfrwt>
<pdfrwt beam="2">  1       -4 0.33666260E-02 0.12508438E+03</pdfrwt>
<totfact> 0.89859633E+03</totfact>
</mgrwt>
</event>
<event>
 5    1  0.3486294E-002  0.1249980E+03  0.7818608E-02  0.1235072E+00
         -4   -1    0    0    0  501 -0.00000000000E+00  0.00000000000E+00  0.63488385165E+01  0.64746158580E+01  0.12700000000E+01 0. -1.
          4   -1    0    0  501    0  0.00000000000E+00 -0.00000000000E+00 -0.60908892558E+03  0.60909024960E+03  0.12700000000E+01 0. -1.
         25    2    1    2    0    0  0.00000000000E+00  0.00000000000E+00 -0.60274008706E+03  0.61556486546E+03  0.12499796414E+03 0.  0.
    9000005    1    3    3    0    0 -0.38929324991E+02  0.48006923628E+02 -0.25597664466E+03  0.26333476731E+03  0.10000000000E+01 0.  0.
    9000005    1    3    3    0    0  0.38929324991E+02 -0.48006923628E+02 -0.34676344240E+03  0.35223009815E+03  0.10000000000E+01 0.  0.
<mgrwt>
<rscale>  0 0.12499796E+03</rscale>
<asrwt>0</asrwt>
<pdfrwt beam="2">  1        4 0.93715720E-01 0.12499796E+03</pdfrwt>
<pdfrwt beam="1">  1       -4 0.98652190E-03 0.12499796E+03</pdfrwt>
<totfact> 0.47901778E+03</totfact>
</mgrwt>
</event>
<event>
 5    1  0.3486294E-002  0.1249916E+03  0.7818608E-02  0.1235082E+00
          4   -1    0    0  501    0  0.00000000000E+00  0.00000000000E+00  0.10738544839E+02  0.10813382693E+02  0.12700000000E+01 0.  1.
         -4   -1    0    0    0  501 -0.00000000000E+00 -0.00000000000E+00 -0.36237178961E+03  0.36237401508E+03  0.12700000000E+01 0.  1.
         25    2    1    2    0    0  0.00000000000E+00  0.00000000000E+00 -0.35163324477E+03  0.37318739777E+03  0.12499157983E+03 0.  0.
    9000005    1    3    3    0    0 -0.39640793615E+02 -0.22701154074E+02 -0.30312055472E+03  0.30654494876E+03  0.10000000000E+01 0.  0.
    9000005    1    3    3    0    0  0.39640793615E+02  0.22701154074E+02 -0.48512690046E+02  0.66642449012E+02  0.10000000000E+01 0.  0.
<mgrwt>
<rscale>  0 0.12499158E+03</rscale>
<asrwt>0</asrwt>
<pdfrwt beam="1">  1        4 0.16580120E-02 0.12499158E+03</pdfrwt>
<pdfrwt beam="2">  1       -4 0.55755425E-01 0.12499158E+03</pdfrwt>
<totfact> 0.67259311E+03</totfact>
</mgrwt>
</event>
<event>
 5    1  0.3486294E-002  0.1250003E+03  0.7818608E-02  0.1235069E+00
          4   -1    0    0  501    0  0.00000000000E+00  0.00000000000E+00  0.20792382196E+04  0.20792386075E+04  0.12700000000E+01 0. -1.
         -4   -1    0    0    0  501 -0.00000000000E+00 -0.00000000000E+00 -0.16636399471E+01  0.20929877863E+01  0.12700000000E+01 0. -1.
         25    2    1    2    0    0  0.00000000000E+00  0.00000000000E+00  0.20775745797E+04  0.20813315953E+04  0.12500030138E+03 0.  0.
    9000005    1    3    3    0    0  0.41353316465E+02  0.36437549605E+02  0.54837741174E+03  0.55114115934E+03  0.10000000000E+01 0.  0.
    9000005    1    3    3    0    0 -0.41353316465E+02 -0.36437549605E+02  0.15291971680E+04  0.15301904360E+04  0.10000000000E+01 0.  0.
<mgrwt>
<rscale>  0 0.12500030E+03</rscale>
<asrwt>0</asrwt>
<pdfrwt beam="1">  1        4 0.31991630E+00 0.12500030E+03</pdfrwt>
<pdfrwt beam="2">  1       -4 0.28900081E-03 0.12500030E+03</pdfrwt>
<totfact> 0.88367020E+02</totfact>
</mgrwt>
</event>
<event>
 5    1  0.3486294E-002  0.1250027E+03  0.7818608E-02  0.1235065E+00
          4   -1    0    0  501    0  0.00000000000E+00  0.00000000000E+00  0.10448340875E+03  0.10449112691E+03  0.12700000000E+01 0. -1.
         -4   -1    0    0    0  501 -0.00000000000E+00 -0.00000000000E+00 -0.37368043907E+02  0.37389618953E+02  0.12700000000E+01 0. -1.
         25    2    1    2    0    0  0.00000000000E+00  0.00000000000E+00  0.67115364841E+02  0.14188074587E+03  0.12500269537E+03 0.  0.
    9000005    1    3    3    0    0  0.48766539856E+02 -0.38349884369E+02  0.42091460740E+02  0.74977197253E+02  0.10000000000E+01 0.  0.
    9000005    1    3    3    0    0 -0.48766539856E+02  0.38349884369E+02  0.25023904100E+02  0.66903548613E+02  0.10000000000E+01 0.  0.
<mgrwt>
<rscale>  0 0.12500270E+03</rscale>
<asrwt>0</asrwt>
<pdfrwt beam="1">  1        4 0.16076624E-01 0.12500270E+03</pdfrwt>
<pdfrwt beam="2">  1       -4 0.57511832E-02 0.12500270E+03</pdfrwt>
<totfact> 0.10094141E+04</totfact>
</mgrwt>
</event>
<event>
 5    1  0.3486294E-002  0.1250010E+03  0.7818608E-02  0.1235068E+00
         -4   -1    0    0    0  501 -0.00000000000E+00  0.00000000000E+00  0.30216302603E+02  0.30242980062E+02  0.12700000000E+01 0.  1.
          4   -1    0    0  501    0  0.00000000000E+00 -0.00000000000E+00 -0.12919148673E+03  0.12919772886E+03  0.12700000000E+01 0.  1.
         25    2    1    2    0    0  0.00000000000E+00  0.00000000000E+00 -0.98975184122E+02  0.15944070892E+03  0.12500101035E+03 0.  0.
    9000005    1    3    3    0    0 -0.47058196004E+02 -0.41035915742E+02 -0.52836385988E+02  0.81799167944E+02  0.10000000000E+01 0.  0.
    9000005    1    3    3    0    0  0.47058196004E+02  0.41035915742E+02 -0.46138798134E+02  0.77641540977E+02  0.10000000000E+01 0.  0.
<mgrwt>
<rscale>  0 0.12500101E+03</rscale>
<asrwt>0</asrwt>
<pdfrwt beam="2">  1        4 0.19878145E-01 0.12500101E+03</pdfrwt>
<pdfrwt beam="1">  1       -4 0.46511943E-02 0.12500101E+03</pdfrwt>
<totfact> 0.97448507E+03</totfact>
</mgrwt>
</event>
<event>
 5    1  0.3486294E-002  0.1250071E+03  0.7818608E-02  0.1235058E+00
         -4   -1    0    0    0  501 -0.00000000000E+00  0.00000000000E+00  0.18446708180E+03  0.18447145353E+03  0.12700000000E+01 0. -1.
          4   -1    0    0  501    0  0.00000000000E+00 -0.00000000000E+00 -0.21154611952E+02  0.21192699376E+02  0.12700000000E+01 0. -1.
         25    2    1    2    0    0  0.00000000000E+00  0.00000000000E+00  0.16331246984E+03  0.20566415290E+03  0.12500712373E+03 0.  0.
    9000005    1    3    3    0    0  0.59094989736E+02 -0.78052071785E+01  0.11254766409E+03  0.12736214415E+03  0.10000000000E+01 0.  0.
    9000005    1    3    3    0    0 -0.59094989736E+02  0.78052071785E+01  0.50764805755E+02  0.78302008750E+02  0.10000000000E+01 0.  0.
<mgrwt>
<rscale>  0 0.12500712E+03</rscale>
<asrwt>0</asrwt>
<pdfrwt beam="2">  1        4 0.32578217E-02 0.12500712E+03</pdfrwt>
<pdfrwt beam="1">  1       -4 0.28382818E-01 0.12500712E+03</pdfrwt>
<totfact> 0.89174704E+03</totfact>
</mgrwt>
</event>
<event>
 5    1  0.3486294E-002  0.1250014E+03  0.7818608E-02  0.1235067E+00
          4   -1    0    0  501    0  0.00000000000E+00  0.00000000000E+00  0.68402750247E+03  0.68402868144E+03  0.12700000000E+01 0. -1.
         -4   -1    0    0    0  501 -0.00000000000E+00 -0.00000000000E+00 -0.56389826261E+01  0.57802270766E+01  0.12700000000E+01 0. -1.
         25    2    1    2    0    0  0.00000000000E+00  0.00000000000E+00  0.67838851985E+03  0.68980890852E+03  0.12500138566E+03 0.  0.
    9000005    1    3    3    0    0 -0.13717918333E+02  0.51998432676E+02  0.51485993891E+03  0.51766183458E+03  0.10000000000E+01 0.  0.
    9000005    1    3    3    0    0  0.13717918333E+02 -0.51998432676E+02  0.16352858094E+03  0.17214707394E+03  0.10000000000E+01 0.  0.
<mgrwt>
<rscale>  0 0.12500139E+03</rscale>
<asrwt>0</asrwt>
<pdfrwt beam="1">  1        4 0.10524593E+00 0.12500139E+03</pdfrwt>
<pdfrwt beam="2">  1       -4 0.87849166E-03 0.12500139E+03</pdfrwt>
<totfact> 0.43628837E+03</totfact>
</mgrwt>
</event>
<event>
 5    1  0.3486294E-002  0.1250027E+03  0.7818608E-02  0.1235065E+00
         -4   -1    0    0    0  501 -0.00000000000E+00  0.00000000000E+00  0.25563255756E+02  0.25594783548E+02  0.12700000000E+01 0. -1.
          4   -1    0    0  501    0  0.00000000000E+00 -0.00000000000E+00 -0.15268544218E+03  0.15269072386E+03  0.12700000000E+01 0. -1.
         25    2    1    2    0    0  0.00000000000E+00  0.00000000000E+00 -0.12712218642E+03  0.17828550741E+03  0.12500268746E+03 0.  0.
    9000005    1    3    3    0    0  0.58180932642E+02 -0.22316811539E+02 -0.70304869244E+02  0.93951240757E+02  0.10000000000E+01 0.  0.
    9000005    1    3    3    0    0 -0.58180932642E+02  0.22316811539E+02 -0.56817317176E+02  0.84334266650E+02  0.10000000000E+01 0.  0.
<mgrwt>
<rscale>  0 0.12500269E+03</rscale>
<asrwt>0</asrwt>
<pdfrwt beam="2">  1        4 0.23492899E-01 0.12500269E+03</pdfrwt>
<pdfrwt beam="1">  1       -4 0.39356402E-02 0.12500269E+03</pdfrwt>
<totfact> 0.93920871E+03</totfact>
</mgrwt>
</event>
<event>
 5    1  0.3486294E-002  0.1250018E+03  0.7818608E-02  0.1235066E+00
         -4   -1    0    0    0  501 -0.00000000000E+00  0.00000000000E+00  0.28071510678E+03  0.28071797960E+03  0.12700000000E+01 0.  1.
          4   -1    0    0  501    0  0.00000000000E+00 -0.00000000000E+00 -0.13883823550E+02  0.13941788133E+02  0.12700000000E+01 0.  1.
         25    2    1    2    0    0  0.00000000000E+00  0.00000000000E+00  0.26683128323E+03  0.29465976774E+03  0.12500178004E+03 0.  0.
    9000005    1    3    3    0    0 -0.42566010735E+02  0.54482214563E+01  0.24050339378E+03  0.24430397214E+03  0.10000000000E+01 0.  0.
    9000005    1    3    3    0    0  0.42566010735E+02 -0.54482214563E+01  0.26327889450E+02  0.50355795593E+02  0.10000000000E+01 0.  0.
<mgrwt>
<rscale>  0 0.12500178E+03</rscale>
<asrwt>0</asrwt>
<pdfrwt beam="2">  1        4 0.21406526E-02 0.12500178E+03</pdfrwt>
<pdfrwt beam="1">  1       -4 0.43191621E-01 0.12500178E+03</pdfrwt>
<totfact> 0.76270610E+03</totfact>
</mgrwt>
</event>
<event>
 5    1  0.3486294E-002  0.1249992E+03  0.7818608E-02  0.1235070E+00
         -4   -1    0    0    0  501 -0.00000000000E+00  0.00000000000E+00  0.73551662855E+03  0.73551772499E+03  0.12700000000E+01 0.  1.
          4   -1    0    0  501    0  0.00000000000E+00 -0.00000000000E+00 -0.52337869387E+01  0.53856685490E+01  0.12700000000E+01 0.  1.
         25    2    1    2    0    0  0.00000000000E+00  0.00000000000E+00  0.73028284161E+03  0.74090339354E+03  0.12499923922E+03 0.  0.
    9000005    1    3    3    0    0 -0.50080278596E+02 -0.33678190841E+02  0.46125590220E+03  0.46518841576E+03  0.10000000000E+01 0.  0.
    9000005    1    3    3    0    0  0.50080278596E+02  0.33678190841E+02  0.26902693941E+03  0.27571497777E+03  0.10000000000E+01 0.  0.
<mgrwt>
<rscale>  0 0.12499924E+03</rscale>
<asrwt>0</asrwt>
<pdfrwt beam="2">  1        4 0.81696596E-03 0.12499924E+03</pdfrwt>
<pdfrwt beam="1">  1       -4 0.11316811E+00 0.12499924E+03</pdfrwt>
<totfact> 0.41013752E+03</totfact>
</mgrwt>
</event>
<event>
 5    1  0.3486294E-002  0.1249997E+03  0.7818608E-02  0.1235070E+00
          4   -1    0    0  501    0  0.00000000000E+00  0.00000000000E+00  0.35214795502E+02  0.35237688946E+02  0.12700000000E+01 0.  1.
         -4   -1    0    0    0  501 -0.00000000000E+00 -0.00000000000E+00 -0.11086325240E+03  0.11087052644E+03  0.12700000000E+01 0.  1.
         25    2    1    2    0    0  0.00000000000E+00  0.00000000000E+00 -0.75648456897E+02  0.14610821538E+03  0.12499968629E+03 0.  0.
    9000005    1    3    3    0    0  0.10594918479E+02  0.26596211604E+02  0.27104501378E+02  0.39436845262E+02  0.10000000000E+01 0.  0.
    9000005    1    3    3    0    0 -0.10594918479E+02 -0.26596211604E+02 -0.10275295827E+03  0.10667137012E+03  0.10000000000E+01 0.  0.
<mgrwt>
<rscale>  0 0.12499969E+03</rscale>
<asrwt>0</asrwt>
<pdfrwt beam="1">  1        4 0.54199815E-02 0.12499969E+03</pdfrwt>
<pdfrwt beam="2">  1       -4 0.17058205E-01 0.12499969E+03</pdfrwt>
<totfact> 0.10008591E+04</totfact>
</mgrwt>
</event>
<event>
 5    1  0.3486294E-002  0.1249988E+03  0.7818608E-02  0.1235071E+00
          4   -1    0    0  501    0  0.00000000000E+00  0.00000000000E+00  0.19052523220E+03  0.19052946493E+03  0.12700000000E+01 0.  1.
         -4   -1    0    0    0  501 -0.00000000000E+00 -0.00000000000E+00 -0.20478017013E+02  0.20517360473E+02  0.12700000000E+01 0.  1.
         25    2    1    2    0    0  0.00000000000E+00  0.00000000000E+00  0.17004721519E+03  0.21104682540E+03  0.12499882847E+03 0.  0.
    9000005    1    3    3    0    0  0.27498784932E+00  0.18926380253E+02  0.18557704989E+03  0.18654255529E+03  0.10000000000E+01 0.  0.
    9000005    1    3    3    0    0 -0.27498784932E+00 -0.18926380253E+02 -0.15529834701E+02  0.24504270111E+02  0.10000000000E+01 0.  0.
<mgrwt>
<rscale>  0 0.12499883E+03</rscale>
<asrwt>0</asrwt>
<pdfrwt beam="1">  1        4 0.29314927E-01 0.12499883E+03</pdfrwt>
<pdfrwt beam="2">  1       -4 0.31538161E-02 0.12499883E+03</pdfrwt>
<totfact> 0.88307517E+03</totfact>
</mgrwt>
</event>
<event>
 5    1  0.3486294E-002  0.1249961E+03  0.7818608E-02  0.1235075E+00
         -4   -1    0    0    0  501 -0.00000000000E+00  0.00000000000E+00  0.15889842446E+02  0.15940514200E+02  0.12700000000E+01 0.  1.
          4   -1    0    0  501    0  0.00000000000E+00 -0.00000000000E+00 -0.24537403447E+03  0.24537732107E+03  0.12700000000E+01 0.  1.
         25    2    1    2    0    0  0.00000000000E+00  0.00000000000E+00 -0.22948419203E+03  0.26131783527E+03  0.12499606649E+03 0.  0.
    9000005    1    3    3    0    0 -0.57156208921E+02  0.22035162631E+02 -0.88914530031E+02  0.10797765630E+03  0.10000000000E+01 0.  0.
    9000005    1    3    3    0    0  0.57156208921E+02 -0.22035162631E+02 -0.14056966200E+03  0.15334017896E+03  0.10000000000E+01 0.  0.
<mgrwt>
<rscale>  0 0.12499607E+03</rscale>
<asrwt>0</asrwt>
<pdfrwt beam="2">  1        4 0.37753999E-01 0.12499607E+03</pdfrwt>
<pdfrwt beam="1">  1       -4 0.24487420E-02 0.12499607E+03</pdfrwt>
<totfact> 0.80728545E+03</totfact>
</mgrwt>
</event>
<event>
 5    1  0.3486294E-002  0.1249988E+03  0.7818608E-02  0.1235071E+00
         -4   -1    0    0    0  501 -0.00000000000E+00  0.00000000000E+00  0.14024872302E+03  0.14025447304E+03  0.12700000000E+01 0. -1.
          4   -1    0    0  501    0  0.00000000000E+00 -0.00000000000E+00 -0.27830952011E+02  0.27859913673E+02  0.12700000000E+01 0. -1.
         25    2    1    2    0    0  0.00000000000E+00  0.00000000000E+00  0.11241777101E+03  0.16811438671E+03  0.12499876712E+03 0.  0.
    9000005    1    3    3    0    0  0.27813659570E+02  0.23649151852E+02 -0.12002864556E+02  0.38444125683E+02  0.10000000000E+01 0.  0.
    9000005    1    3    3    0    0 -0.27813659570E+02 -0.23649151852E+02  0.12442063556E+03  0.12967026103E+03  0.10000000000E+01 0.  0.
<mgrwt>
<rscale>  0 0.12499877E+03</rscale>
<asrwt>0</asrwt>
<pdfrwt beam="2">  1        4 0.42843552E-02 0.12499877E+03</pdfrwt>
<pdfrwt beam="1">  1       -4 0.21579396E-01 0.12499877E+03</pdfrwt>
<totfact> 0.95803459E+03</totfact>
</mgrwt>
</event>
<event>
 5    1  0.3486294E-002  0.1250015E+03  0.7818608E-02  0.1235067E+00
          4   -1    0    0  501    0  0.00000000000E+00  0.00000000000E+00  0.41159447460E+02  0.41179036114E+02  0.12700000000E+01 0.  1.
         -4   -1    0    0    0  501 -0.00000000000E+00 -0.00000000000E+00 -0.94861201853E+02  0.94869702840E+02  0.12700000000E+01 0.  1.
         25    2    1    2    0    0  0.00000000000E+00  0.00000000000E+00 -0.53701754392E+02  0.13604873895E+03  0.12500152377E+03 0.  0.
    9000005    1    3    3    0    0 -0.16906505628E+01 -0.17225236911E+01 -0.94815792680E+02  0.94851778732E+02  0.10000000000E+01 0.  0.
    9000005    1    3    3    0    0  0.16906505628E+01  0.17225236911E+01  0.41114038287E+02  0.41196960221E+02  0.10000000000E+01 0.  0.
<mgrwt>
<rscale>  0 0.12500152E+03</rscale>
<asrwt>0</asrwt>
<pdfrwt beam="1">  1        4 0.63343834E-02 0.12500152E+03</pdfrwt>
<pdfrwt beam="2">  1       -4 0.14596192E-01 0.12500152E+03</pdfrwt>
<totfact> 0.10215662E+04</totfact>
</mgrwt>
</event>
<event>
 5    1  0.3486294E-002  0.1249752E+03  0.7818608E-02  0.1235108E+00
         -4   -1    0    0    0  501 -0.00000000000E+00  0.00000000000E+00  0.11563793027E+03  0.11564490398E+03  0.12700000000E+01 0. -1.
          4   -1    0    0  501    0  0.00000000000E+00 -0.00000000000E+00 -0.33746649578E+02  0.33770538310E+02  0.12700000000E+01 0. -1.
         25    2    1    2    0    0  0.00000000000E+00  0.00000000000E+00  0.81891280688E+02  0.14941544229E+03  0.12497516770E+03 0.  0.
    9000005    1    3    3    0    0  0.10300957897E+02 -0.69462545619E+01 -0.32260759631E+02  0.34584921541E+02  0.10000000000E+01 0.  0.
    9000005    1    3    3    0    0 -0.10300957897E+02  0.69462545619E+01  0.11415204032E+03  0.11483052075E+03  0.10000000000E+01 0.  0.
<mgrwt>
<rscale>  0 0.12497517E+03</rscale>
<asrwt>0</asrwt>
<pdfrwt beam="2">  1        4 0.51941662E-02 0.12497517E+03</pdfrwt>
<pdfrwt beam="1">  1       -4 0.17792825E-01 0.12497517E+03</pdfrwt>
<totfact> 0.99475935E+03</totfact>
</mgrwt>
</event>
<event>
 5    1  0.3486294E-002  0.1249974E+03  0.7818608E-02  0.1235073E+00
          4   -1    0    0  501    0  0.00000000000E+00  0.00000000000E+00  0.17993511613E+04  0.17993516095E+04  0.12700000000E+01 0.  1.
         -4   -1    0    0    0  501 -0.00000000000E+00 -0.00000000000E+00 -0.19845990224E+01  0.23561691959E+01  0.12700000000E+01 0.  1.
         25    2    1    2    0    0  0.00000000000E+00  0.00000000000E+00  0.17973665623E+04  0.18017077787E+04  0.12499744230E+03 0.  0.
    9000005    1    3    3    0    0 -0.61017622859E+02  0.12959067314E+02  0.84474653023E+03  0.84704709908E+03  0.10000000000E+01 0.  0.
    9000005    1    3    3    0    0  0.61017622859E+02 -0.12959067314E+02  0.95262003205E+03  0.95466067961E+03  0.10000000000E+01 0.  0.
<mgrwt>
<rscale>  0 0.12499744E+03</rscale>
<asrwt>0</asrwt>
<pdfrwt beam="1">  1        4 0.27685208E+00 0.12499744E+03</pdfrwt>
<pdfrwt beam="2">  1       -4 0.33393948E-03 0.12499744E+03</pdfrwt>
<totfact> 0.12677887E+03</totfact>
</mgrwt>
</event>
<event>
 5    1  0.3486294E-002  0.1249985E+03  0.7818608E-02  0.1235072E+00
         -4   -1    0    0    0  501 -0.00000000000E+00  0.00000000000E+00  0.11931146973E+02  0.11998548582E+02  0.12700000000E+01 0.  1.
          4   -1    0    0  501    0  0.00000000000E+00 -0.00000000000E+00 -0.32640082451E+03  0.32640329524E+03  0.12700000000E+01 0.  1.
         25    2    1    2    0    0  0.00000000000E+00  0.00000000000E+00 -0.31446967754E+03  0.33840184382E+03  0.12499851923E+03 0.  0.
    9000005    1    3    3    0    0  0.41719390677E+02 -0.46476054875E+02 -0.15141191833E+03  0.16378980508E+03  0.10000000000E+01 0.  0.
    9000005    1    3    3    0    0 -0.41719390677E+02  0.46476054875E+02 -0.16305775921E+03  0.17461203874E+03  0.10000000000E+01 0.  0.
<mgrwt>
<rscale>  0 0.12499852E+03</rscale>
<asrwt>0</asrwt>
<pdfrwt beam="2">  1        4 0.50220879E-01 0.12499852E+03</pdfrwt>
<pdfrwt beam="1">  1       -4 0.18409361E-02 0.12499852E+03</pdfrwt>
<totfact> 0.71021960E+03</totfact>
</mgrwt>
</event>
<event>
 5    1  0.3486294E-002  0.1249847E+03  0.7818608E-02  0.1235093E+00
          4   -1    0    0  501    0  0.00000000000E+00  0.00000000000E+00  0.27989037788E+03  0.27989325917E+03  0.12700000000E+01 0. -1.
         -4   -1    0    0    0  501 -0.00000000000E+00 -0.00000000000E+00 -0.13921085304E+02  0.13978895380E+02  0.12700000000E+01 0. -1.
         25    2    1    2    0    0  0.00000000000E+00  0.00000000000E+00  0.26596929257E+03  0.29387215455E+03  0.12498471357E+03 0.  0.
    9000005    1    3    3    0    0  0.49149688711E+02  0.38416865240E+02  0.12458986657E+03  0.13933837335E+03  0.10000000000E+01 0.  0.
    9000005    1    3    3    0    0 -0.49149688711E+02 -0.38416865240E+02  0.14137942600E+03  0.15453378120E+03  0.10000000000E+01 0.  0.
<mgrwt>
<rscale>  0 0.12498471E+03</rscale>
<asrwt>0</asrwt>
<pdfrwt beam="1">  1        4 0.43064720E-01 0.12498471E+03</pdfrwt>
<pdfrwt beam="2">  1       -4 0.21463743E-02 0.12498471E+03</pdfrwt>
<totfact> 0.76399927E+03</totfact>
</mgrwt>
</event>
<event>
 5    1  0.3486294E-002  0.1250025E+03  0.7818608E-02  0.1235065E+00
         -4   -1    0    0    0  501 -0.00000000000E+00  0.00000000000E+00  0.52194588159E+02  0.52210036708E+02  0.12700000000E+01 0.  1.
          4   -1    0    0  501    0  0.00000000000E+00 -0.00000000000E+00 -0.74811249394E+02  0.74822028414E+02  0.12700000000E+01 0.  1.
         25    2    1    2    0    0  0.00000000000E+00  0.00000000000E+00 -0.22616661235E+02  0.12703206512E+03  0.12500252879E+03 0.  0.
    9000005    1    3    3    0    0  0.38029669119E+02  0.40417238212E+02 -0.40508084043E+02  0.68714727322E+02  0.10000000000E+01 0.  0.
    9000005    1    3    3    0    0 -0.38029669119E+02 -0.40417238212E+02  0.17891422808E+02  0.58317337800E+02  0.10000000000E+01 0.  0.
<mgrwt>
<rscale>  0 0.12500253E+03</rscale>
<asrwt>0</asrwt>
<pdfrwt beam="2">  1        4 0.11511441E-01 0.12500253E+03</pdfrwt>
<pdfrwt beam="1">  1       -4 0.80319541E-02 0.12500253E+03</pdfrwt>
<totfact> 0.10407855E+04</totfact>
</mgrwt>
</event>
<event>
 5    1  0.3486294E-002  0.1249971E+03  0.7818608E-02  0.1235074E+00
         -4   -1    0    0    0  501 -0.00000000000E+00  0.00000000000E+00  0.12398718213E+02  0.12463591510E+02  0.12700000000E+01 0. -1.
          4   -1    0    0  501    0  0.00000000000E+00 -0.00000000000E+00 -0.31415014080E+03  0.31415270788E+03  0.12700000000E+01 0. -1.
         25    2    1    2    0    0  0.00000000000E+00  0.00000000000E+00 -0.30175142259E+03  0.32661629939E+03  0.12499714393E+03 0.  0.
    9000005    1    3    3    0    0  0.24599479546E+02  0.63490082803E+01 -0.30005953366E+03  0.30113480045E+03  0.10000000000E+01 0.  0.
    9000005    1    3    3    0    0 -0.24599479546E+02 -0.63490082803E+01 -0.16918889297E+01  0.25481498940E+02  0.10000000000E+01 0.  0.
<mgrwt>
<rscale>  0 0.12499714E+03</rscale>
<asrwt>0</asrwt>
<pdfrwt beam="2">  1        4 0.48335973E-01 0.12499714E+03</pdfrwt>
<pdfrwt beam="1">  1       -4 0.19126831E-02 0.12499714E+03</pdfrwt>
<totfact> 0.72380637E+03</totfact>
</mgrwt>
</event>
<event>
 5    1  0.3486294E-002  0.1250000E+03  0.7818608E-02  0.1235069E+00
          4   -1    0    0  501    0  0.00000000000E+00  0.00000000000E+00  0.13392073081E+02  0.13452156757E+02  0.12700000000E+01 0. -1.
         -4   -1    0    0    0  501 -0.00000000000E+00 -0.00000000000E+00 -0.29096928471E+03  0.29097205629E+03  0.12700000000E+01 0. -1.
         25    2    1    2    0    0  0.00000000000E+00  0.00000000000E+00 -0.27757721162E+03  0.30442421305E+03  0.12499997231E+03 0.  0.
    9000005    1    3    3    0    0 -0.37820682650E+02 -0.39165238515E+02 -0.21349324052E+03  0.22032858120E+03  0.10000000000E+01 0.  0.
    9000005    1    3    3    0    0  0.37820682650E+02  0.39165238515E+02 -0.64083971105E+02  0.84095631852E+02  0.10000000000E+01 0.  0.
<mgrwt>
<rscale>  0 0.12499997E+03</rscale>
<asrwt>0</asrwt>
<pdfrwt beam="1">  1        4 0.20651542E-02 0.12499997E+03</pdfrwt>
<pdfrwt beam="2">  1       -4 0.44769336E-01 0.12499997E+03</pdfrwt>
<totfact> 0.75047252E+03</totfact>
</mgrwt>
</event>
<event>
 5    1  0.3486294E-002  0.1249849E+03  0.7818608E-02  0.1235093E+00
         -4   -1    0    0    0  501 -0.00000000000E+00  0.00000000000E+00  0.64176412100E+03  0.64176537762E+03  0.12700000000E+01 0.  1.
          4   -1    0    0  501    0  0.00000000000E+00 -0.00000000000E+00 -0.60177303157E+01  0.61502827701E+01  0.12700000000E+01 0.  1.
         25    2    1    2    0    0  0.00000000000E+00  0.00000000000E+00  0.63574639069E+03  0.64791566039E+03  0.12498491790E+03 0.  0.
    9000005    1    3    3    0    0  0.55545384917E+02  0.25095088209E+02  0.38918864368E+03  0.39393381882E+03  0.10000000000E+01 0.  0.
    9000005    1    3    3    0    0 -0.55545384917E+02 -0.25095088209E+02  0.24655774701E+03  0.25398184157E+03  0.10000000000E+01 0.  0.
<mgrwt>
<rscale>  0 0.12498492E+03</rscale>
<asrwt>0</asrwt>
<pdfrwt beam="2">  1        4 0.93609803E-03 0.12498492E+03</pdfrwt>
<pdfrwt beam="1">  1       -4 0.98743197E-01 0.12498492E+03</pdfrwt>
<totfact> 0.45991341E+03</totfact>
</mgrwt>
</event>
<event>
 5    1  0.3486294E-002  0.1249999E+03  0.7818608E-02  0.1235070E+00
          4   -1    0    0  501    0  0.00000000000E+00  0.00000000000E+00  0.75481410983E+01  0.76542363460E+01  0.12700000000E+01 0. -1.
         -4   -1    0    0    0  501 -0.00000000000E+00 -0.00000000000E+00 -0.51379178985E+03  0.51379335946E+03  0.12700000000E+01 0. -1.
         25    2    1    2    0    0  0.00000000000E+00  0.00000000000E+00 -0.50624364876E+03  0.52144759580E+03  0.12499985305E+03 0.  0.
    9000005    1    3    3    0    0 -0.42020799980E+02 -0.27736934634E+02 -0.98708021571E+02  0.11081226781E+03  0.10000000000E+01 0.  0.
    9000005    1    3    3    0    0  0.42020799980E+02  0.27736934634E+02 -0.40753562719E+03  0.41063532800E+03  0.10000000000E+01 0.  0.
<mgrwt>
<rscale>  0 0.12499985E+03</rscale>
<asrwt>0</asrwt>
<pdfrwt beam="1">  1        4 0.11695348E-02 0.12499985E+03</pdfrwt>
<pdfrwt beam="2">  1       -4 0.79053145E-01 0.12499985E+03</pdfrwt>
<totfact> 0.54238054E+03</totfact>
</mgrwt>
</event>
<event>
 5    1  0.3486294E-002  0.1250047E+03  0.7818608E-02  0.1235062E+00
          4   -1    0    0  501    0  0.00000000000E+00  0.00000000000E+00  0.14288609931E+02  0.14344938960E+02  0.12700000000E+01 0.  1.
         -4   -1    0    0    0  501 -0.00000000000E+00 -0.00000000000E+00 -0.27280695485E+03  0.27280991096E+03  0.12700000000E+01 0.  1.
         25    2    1    2    0    0  0.00000000000E+00  0.00000000000E+00 -0.25851834492E+03  0.28715484992E+03  0.12500469259E+03 0.  0.
    9000005    1    3    3    0    0  0.26334379356E+02 -0.18377613281E+02 -0.61029322303E+01  0.32702935461E+02  0.10000000000E+01 0.  0.
    9000005    1    3    3    0    0 -0.26334379356E+02  0.18377613281E+02 -0.25241541269E+03  0.25445191446E+03  0.10000000000E+01 0.  0.
<mgrwt>
<rscale>  0 0.12500469E+03</rscale>
<asrwt>0</asrwt>
<pdfrwt beam="1">  1        4 0.22028083E-02 0.12500469E+03</pdfrwt>
<pdfrwt beam="2">  1       -4 0.41974857E-01 0.12500469E+03</pdfrwt>
<totfact> 0.77230838E+03</totfact>
</mgrwt>
</event>
<event>
 5    1  0.3486294E-002  0.1249996E+03  0.7818608E-02  0.1235070E+00
          4   -1    0    0  501    0  0.00000000000E+00  0.00000000000E+00  0.17288825644E+03  0.17289292095E+03  0.12700000000E+01 0.  1.
         -4   -1    0    0    0  501 -0.00000000000E+00 -0.00000000000E+00 -0.22571097094E+02  0.22606798182E+02  0.12700000000E+01 0.  1.
         25    2    1    2    0    0  0.00000000000E+00  0.00000000000E+00  0.15031715935E+03  0.19549971913E+03  0.12499956715E+03 0.  0.
    9000005    1    3    3    0    0  0.22809216512E+02  0.49944968204E+02  0.12182940753E+03  0.13363444446E+03  0.10000000000E+01 0.  0.
    9000005    1    3    3    0    0 -0.22809216512E+02 -0.49944968204E+02  0.28487751813E+02  0.61865274671E+02  0.10000000000E+01 0.  0.
<mgrwt>
<rscale>  0 0.12499957E+03</rscale>
<asrwt>0</asrwt>
<pdfrwt beam="1">  1        4 0.26601299E-01 0.12499957E+03</pdfrwt>
<pdfrwt beam="2">  1       -4 0.34755815E-02 0.12499957E+03</pdfrwt>
<totfact> 0.90899970E+03</totfact>
</mgrwt>
</event>
<event>
 5    1  0.3486294E-002  0.1250004E+03  0.7818608E-02  0.1235069E+00
         -4   -1    0    0    0  501 -0.00000000000E+00  0.00000000000E+00  0.10310115301E+02  0.10388040119E+02  0.12700000000E+01 0. -1.
          4   -1    0    0  501    0  0.00000000000E+00 -0.00000000000E+00 -0.37737262279E+03  0.37737475980E+03  0.12700000000E+01 0. -1.
         25    2    1    2    0    0  0.00000000000E+00  0.00000000000E+00 -0.36706250749E+03  0.38776279992E+03  0.12500041838E+03 0.  0.
    9000005    1    3    3    0    0  0.32217619649E+02 -0.46241116091E+02 -0.26729120301E+03  0.27316991606E+03  0.10000000000E+01 0.  0.
    9000005    1    3    3    0    0 -0.32217619649E+02  0.46241116091E+02 -0.99771304484E+02  0.11459288386E+03  0.10000000000E+01 0.  0.
<mgrwt>
<rscale>  0 0.12500042E+03</rscale>
<asrwt>0</asrwt>
<pdfrwt beam="2">  1        4 0.58063475E-01 0.12500042E+03</pdfrwt>
<pdfrwt beam="1">  1       -4 0.15923305E-02 0.12500042E+03</pdfrwt>
<totfact> 0.65760020E+03</totfact>
</mgrwt>
</event>
<event>
 5    1  0.3486294E-002  0.1250016E+03  0.7818608E-02  0.1235067E+00
         -4   -1    0    0    0  501 -0.00000000000E+00  0.00000000000E+00  0.45417777295E+03  0.45417954857E+03  0.12700000000E+01 0.  1.
          4   -1    0    0  501    0  0.00000000000E+00 -0.00000000000E+00 -0.85522492817E+01  0.86460319093E+01  0.12700000000E+01 0.  1.
         25    2    1    2    0    0  0.00000000000E+00  0.00000000000E+00  0.44562552367E+03  0.46282558048E+03  0.12500164240E+03 0.  0.
    9000005    1    3    3    0    0 -0.39764713088E+02 -0.15678597736E+02  0.54019174250E+02  0.68892104196E+02  0.10000000000E+01 0.  0.
    9000005    1    3    3    0    0  0.39764713088E+02  0.15678597736E+02  0.39160634942E+03  0.39393347629E+03  0.10000000000E+01 0.  0.
<mgrwt>
<rscale>  0 0.12500164E+03</rscale>
<asrwt>0</asrwt>
<pdfrwt beam="2">  1        4 0.13230809E-02 0.12500164E+03</pdfrwt>
<pdfrwt beam="1">  1       -4 0.69880874E-01 0.12500164E+03</pdfrwt>
<totfact> 0.58866458E+03</totfact>
</mgrwt>
</event>
<event>
 5    1  0.3486294E-002  0.1249993E+03  0.7818608E-02  0.1235070E+00
         -4   -1    0    0    0  501 -0.00000000000E+00  0.00000000000E+00  0.27191284344E+02  0.27220926588E+02  0.12700000000E+01 0.  1.
          4   -1    0    0  501    0  0.00000000000E+00 -0.00000000000E+00 -0.14354593515E+03  0.14355155310E+03  0.12700000000E+01 0.  1.
         25    2    1    2    0    0  0.00000000000E+00  0.00000000000E+00 -0.11635465080E+03  0.17077247969E+03  0.12499934022E+03 0.  0.
    9000005    1    3    3    0    0 -0.46819355760E+02 -0.37391784113E+02 -0.33929480729E+02  0.68865138172E+02  0.10000000000E+01 0.  0.
    9000005    1    3    3    0    0  0.46819355760E+02  0.37391784113E+02 -0.82425170072E+02  0.10190734151E+03  0.10000000000E+01 0.  0.
<mgrwt>
<rscale>  0 0.12499934E+03</rscale>
<asrwt>0</asrwt>
<pdfrwt beam="2">  1        4 0.22086702E-01 0.12499934E+03</pdfrwt>
<pdfrwt beam="1">  1       -4 0.41859869E-02 0.12499934E+03</pdfrwt>
<totfact> 0.95306264E+03</totfact>
</mgrwt>
</event>
<event>
 5    1  0.3486294E-002  0.1250001E+03  0.7818608E-02  0.1235069E+00
          4   -1    0    0  501    0  0.00000000000E+00  0.00000000000E+00  0.57532836760E+01  0.58917886127E+01  0.12700000000E+01 0.  1.
         -4   -1    0    0    0  501 -0.00000000000E+00 -0.00000000000E+00 -0.67074696433E+03  0.67074816664E+03  0.12700000000E+01 0.  1.
         25    2    1    2    0    0  0.00000000000E+00  0.00000000000E+00 -0.66499368065E+03  0.67663995526E+03  0.12500013497E+03 0.  0.
    9000005    1    3    3    0    0  0.26084608520E+02 -0.54767853553E+02 -0.25123991658E+03  0.25846164178E+03  0.10000000000E+01 0.  0.
    9000005    1    3    3    0    0 -0.26084608520E+02  0.54767853553E+02 -0.41375376407E+03  0.41817831348E+03  0.10000000000E+01 0.  0.
<mgrwt>
<rscale>  0 0.12500013E+03</rscale>
<asrwt>0</asrwt>
<pdfrwt beam="1">  1        4 0.89586781E-03 0.12500013E+03</pdfrwt>
<pdfrwt beam="2">  1       -4 0.10320253E+00 0.12500013E+03</pdfrwt>
<totfact> 0.44348753E+03</totfact>
</mgrwt>
</event>
<event>
 5    1  0.3486294E-002  0.1249981E+03  0.7818608E-02  0.1235072E+00
          4   -1    0    0  501    0  0.00000000000E+00  0.00000000000E+00  0.20752360323E+03  0.20752748926E+03  0.12700000000E+01 0.  1.
         -4   -1    0    0    0  501 -0.00000000000E+00 -0.00000000000E+00 -0.18797102681E+02  0.18839956720E+02  0.12700000000E+01 0.  1.
         25    2    1    2    0    0  0.00000000000E+00  0.00000000000E+00  0.18872650055E+03  0.22636744598E+03  0.12499811434E+03 0.  0.
    9000005    1    3    3    0    0 -0.60710004021E+02  0.13660781829E+02  0.83989934748E+02  0.10453530833E+03  0.10000000000E+01 0.  0.
    9000005    1    3    3    0    0  0.60710004021E+02 -0.13660781829E+02  0.10473656580E+03  0.12183213765E+03  0.10000000000E+01 0.  0.
<mgrwt>
<rscale>  0 0.12499811E+03</rscale>
<asrwt>0</asrwt>
<pdfrwt beam="1">  1        4 0.31930305E-01 0.12499811E+03</pdfrwt>
<pdfrwt beam="2">  1       -4 0.28954572E-02 0.12499811E+03</pdfrwt>
<totfact> 0.85874130E+03</totfact>
</mgrwt>
</event>
<event>
 5    1  0.3486294E-002  0.1249911E+03  0.7818608E-02  0.1235083E+00
         -4   -1    0    0    0  501 -0.00000000000E+00  0.00000000000E+00  0.13045468325E+03  0.13046086494E+03  0.12700000000E+01 0. -1.
          4   -1    0    0  501    0  0.00000000000E+00 -0.00000000000E+00 -0.29918725362E+02  0.29945667921E+02  0.12700000000E+01 0. -1.
         25    2    1    2    0    0  0.00000000000E+00  0.00000000000E+00  0.10053595789E+03  0.16040653286E+03  0.12499110751E+03 0.  0.
    9000005    1    3    3    0    0 -0.40264819745E+02 -0.22941840081E+02 -0.35270905665E+01  0.46486816446E+02  0.10000000000E+01 0.  0.
    9000005    1    3    3    0    0  0.40264819745E+02  0.22941840081E+02  0.10406304845E+03  0.11391971642E+03  0.10000000000E+01 0.  0.
<mgrwt>
<rscale>  0 0.12499111E+03</rscale>
<asrwt>0</asrwt>
<pdfrwt beam="2">  1        4 0.46054288E-02 0.12499111E+03</pdfrwt>
<pdfrwt beam="1">  1       -4 0.20072500E-01 0.12499111E+03</pdfrwt>
<totfact> 0.97283908E+03</totfact>
</mgrwt>
</event>
<event>
 5    1  0.3486294E-002  0.1249996E+03  0.7818608E-02  0.1235070E+00
          4   -1    0    0  501    0  0.00000000000E+00  0.00000000000E+00  0.45966079102E+01  0.47688263000E+01  0.12700000000E+01 0. -1.
         -4   -1    0    0    0  501 -0.00000000000E+00 -0.00000000000E+00 -0.83400680446E+03  0.83400777141E+03  0.12700000000E+01 0. -1.
         25    2    1    2    0    0  0.00000000000E+00  0.00000000000E+00 -0.82941019655E+03  0.83877659771E+03  0.12499962695E+03 0.  0.
    9000005    1    3    3    0    0 -0.81504092873E+01 -0.38032096023E+02 -0.86496012999E+02  0.94844239489E+02  0.10000000000E+01 0.  0.
    9000005    1    3    3    0    0  0.81504092873E+01  0.38032096023E+02 -0.74291418355E+03  0.74393235823E+03  0.10000000000E+01 0.  0.
<mgrwt>
<rscale>  0 0.12499963E+03</rscale>
<asrwt>0</asrwt>
<pdfrwt beam="1">  1        4 0.72049306E-03 0.12499963E+03</pdfrwt>
<pdfrwt beam="2">  1       -4 0.12832194E+00 0.12499963E+03</pdfrwt>
<totfact> 0.36591378E+03</totfact>
</mgrwt>
</event>
<event>
 5    1  0.3486294E-002  0.1249981E+03  0.7818608E-02  0.1235072E+00
         -4   -1    0    0    0  501 -0.00000000000E+00  0.00000000000E+00  0.19270506435E+03  0.19270924920E+03  0.12700000000E+01 0.  1.
          4   -1    0    0  501    0  0.00000000000E+00 -0.00000000000E+00 -0.20245681267E+02  0.20285475345E+02  0.12700000000E+01 0.  1.
         25    2    1    2    0    0  0.00000000000E+00  0.00000000000E+00  0.17245938308E+03  0.21299472454E+03  0.12499805546E+03 0.  0.
    9000005    1    3    3    0    0 -0.59940383328E+02 -0.16947696876E+02  0.77700491026E+02  0.99591366537E+02  0.10000000000E+01 0.  0.
    9000005    1    3    3    0    0  0.59940383328E+02  0.16947696876E+02  0.94758892057E+02  0.11340335800E+03  0.10000000000E+01 0.  0.
<mgrwt>
<rscale>  0 0.12499806E+03</rscale>
<asrwt>0</asrwt>
<pdfrwt beam="2">  1        4 0.31181031E-02 0.12499806E+03</pdfrwt>
<pdfrwt beam="1">  1       -4 0.29650317E-01 0.12499806E+03</pdfrwt>
<totfact> 0.87992950E+03</totfact>
</mgrwt>
</event>
<event>
 5    1  0.3486294E-002  0.1249987E+03  0.7818608E-02  0.1235071E+00
         -4   -1    0    0    0  501 -0.00000000000E+00  0.00000000000E+00  0.10103565460E+02  0.10183071000E+02  0.12700000000E+01 0. -1.
          4   -1    0    0  501    0  0.00000000000E+00 -0.00000000000E+00 -0.38501726397E+03  0.38501935854E+03  0.12700000000E+01 0. -1.
         25    2    1    2    0    0  0.00000000000E+00  0.00000000000E+00 -0.37491369851E+03  0.39520242954E+03  0.12499871595E+03 0.  0.
    9000005    1    3    3    0    0 -0.50674880129E+02  0.33529964640E+02 -0.14131755285E+03  0.15383059757E+03  0.10000000000E+01 0.  0.
    9000005    1    3    3    0    0  0.50674880129E+02 -0.33529964640E+02 -0.23359614566E+03  0.24137183198E+03  0.10000000000E+01 0.  0.
<mgrwt>
<rscale>  0 0.12499872E+03</rscale>
<asrwt>0</asrwt>
<pdfrwt beam="2">  1        4 0.59239691E-01 0.12499872E+03</pdfrwt>
<pdfrwt beam="1">  1       -4 0.15606719E-02 0.12499872E+03</pdfrwt>
<totfact> 0.65023934E+03</totfact>
</mgrwt>
</event>
<event>
 5    1  0.3486294E-002  0.1249927E+03  0.7818608E-02  0.1235081E+00
         -4   -1    0    0    0  501 -0.00000000000E+00  0.00000000000E+00  0.11279075136E+02  0.11350349594E+02  0.12700000000E+01 0. -1.
          4   -1    0    0  501    0  0.00000000000E+00 -0.00000000000E+00 -0.34512384347E+03  0.34512618016E+03  0.12700000000E+01 0. -1.
         25    2    1    2    0    0  0.00000000000E+00  0.00000000000E+00 -0.33384476834E+03  0.35647652975E+03  0.12499274747E+03 0.  0.
    9000005    1    3    3    0    0  0.24914146269E+02  0.43806063451E+02 -0.27229556411E+03  0.27692157755E+03  0.10000000000E+01 0.  0.
    9000005    1    3    3    0    0 -0.24914146269E+02 -0.43806063451E+02 -0.61549204226E+02  0.79554952204E+02  0.10000000000E+01 0.  0.
<mgrwt>
<rscale>  0 0.12499275E+03</rscale>
<asrwt>0</asrwt>
<pdfrwt beam="2">  1        4 0.53101630E-01 0.12499275E+03</pdfrwt>
<pdfrwt beam="1">  1       -4 0.17409050E-02 0.12499275E+03</pdfrwt>
<totfact> 0.69028965E+03</totfact>
</mgrwt>
</event>
<event>
 5    1  0.3486294E-002  0.1249971E+03  0.7818608E-02  0.1235074E+00
          4   -1    0    0  501    0  0.00000000000E+00  0.00000000000E+00  0.30407107698E+02  0.30433617901E+02  0.12700000000E+01 0.  1.
         -4   -1    0    0    0  501 -0.00000000000E+00 -0.00000000000E+00 -0.12837337571E+03  0.12837965762E+03  0.12700000000E+01 0.  1.
         25    2    1    2    0    0  0.00000000000E+00  0.00000000000E+00 -0.97966268007E+02  0.15881327552E+03  0.12499706722E+03 0.  0.
    9000005    1    3    3    0    0 -0.80663123216E+01  0.43739272329E+02  0.67885833010E+01  0.45003046581E+02  0.10000000000E+01 0.  0.
    9000005    1    3    3    0    0  0.80663123216E+01 -0.43739272329E+02 -0.10475485131E+03  0.11381022894E+03  0.10000000000E+01 0.  0.
<mgrwt>
<rscale>  0 0.12499707E+03</rscale>
<asrwt>0</asrwt>
<pdfrwt beam="1">  1        4 0.46805391E-02 0.12499707E+03</pdfrwt>
<pdfrwt beam="2">  1       -4 0.19752272E-01 0.12499707E+03</pdfrwt>
<totfact> 0.97578498E+03</totfact>
</mgrwt>
</event>
<event>
 5    1  0.3486294E-002  0.1250021E+03  0.7818608E-02  0.1235066E+00
         -4   -1    0    0    0  501 -0.00000000000E+00  0.00000000000E+00  0.62066134021E+03  0.62066263955E+03  0.12700000000E+01 0.  1.
          4   -1    0    0  501    0  0.00000000000E+00 -0.00000000000E+00 -0.62285139353E+01  0.63566725448E+01  0.12700000000E+01 0.  1.
         25    2    1    2    0    0  0.00000000000E+00  0.00000000000E+00  0.61443282628E+03  0.62701931210E+03  0.12500207892E+03 0.  0.
    9000005    1    3    3    0    0  0.60236153368E+02 -0.15892277548E+02  0.28242804993E+03  0.28921888259E+03  0.10000000000E+01 0.  0.
    9000005    1    3    3    0    0 -0.60236153368E+02  0.15892277548E+02  0.33200477635E+03  0.33780042951E+03  0.10000000000E+01 0.  0.
<mgrwt>
<rscale>  0 0.12500208E+03</rscale>
<asrwt>0</asrwt>
<pdfrwt beam="2">  1        4 0.96819105E-03 0.12500208E+03</pdfrwt>
<pdfrwt beam="1">  1       -4 0.95496335E-01 0.12500208E+03</pdfrwt>
<totfact> 0.47203157E+03</totfact>
</mgrwt>
</event>
<event>
 5    1  0.3486294E-002  0.1250264E+03  0.7818608E-02  0.1235028E+00
          4   -1    0    0  501    0  0.00000000000E+00  0.00000000000E+00  0.13224057184E+04  0.13224063283E+04  0.12700000000E+01 0.  1.
         -4   -1    0    0    0  501 -0.00000000000E+00 -0.00000000000E+00 -0.28180550407E+01  0.30910086076E+01  0.12700000000E+01 0.  1.
         25    2    1    2    0    0  0.00000000000E+00  0.00000000000E+00  0.13195876634E+04  0.13254973369E+04  0.12502635198E+03 0.  0.
    9000005    1    3    3    0    0  0.46818665122E+02 -0.40614375065E+02  0.74551881674E+03  0.74809145228E+03  0.10000000000E+01 0.  0.
    9000005    1    3    3    0    0 -0.46818665122E+02  0.40614375065E+02  0.57406884667E+03  0.57740588461E+03  0.10000000000E+01 0.  0.
<mgrwt>
<rscale>  0 0.12502635E+03</rscale>
<asrwt>0</asrwt>
<pdfrwt beam="1">  1        4 0.20346803E+00 0.12502635E+03</pdfrwt>
<pdfrwt beam="2">  1       -4 0.45459038E-03 0.12502635E+03</pdfrwt>
<totfact> 0.21622192E+03</totfact>
</mgrwt>
</event>
<event>
 5    1  0.3486294E-002  0.1249972E+03  0.7818608E-02  0.1235074E+00
          4   -1    0    0  501    0  0.00000000000E+00  0.00000000000E+00  0.93740422576E+02  0.93749025194E+02  0.12700000000E+01 0.  1.
         -4   -1    0    0    0  501 -0.00000000000E+00 -0.00000000000E+00 -0.41648830893E+02  0.41668189482E+02  0.12700000000E+01 0.  1.
         25    2    1    2    0    0  0.00000000000E+00  0.00000000000E+00  0.52091591683E+02  0.13541721468E+03  0.12499715239E+03 0.  0.
    9000005    1    3    3    0    0  0.52284889214E+02  0.34045275906E+02  0.29842447823E+02  0.69169083727E+02  0.10000000000E+01 0.  0.
    9000005    1    3    3    0    0 -0.52284889214E+02 -0.34045275906E+02  0.22249143860E+02  0.66248130948E+02  0.10000000000E+01 0.  0.
<mgrwt>
<rscale>  0 0.12499715E+03</rscale>
<asrwt>0</asrwt>
<pdfrwt beam="1">  1        4 0.14423754E-01 0.12499715E+03</pdfrwt>
<pdfrwt beam="2">  1       -4 0.64096633E-02 0.12499715E+03</pdfrwt>
<totfact> 0.10229941E+04</totfact>
</mgrwt>
</event>
<event>
 5    1  0.3486294E-002  0.1249983E+03  0.7818608E-02  0.1235072E+00
          4   -1    0    0  501    0  0.00000000000E+00  0.00000000000E+00  0.53447924672E+02  0.53463011061E+02  0.12700000000E+01 0.  1.
         -4   -1    0    0    0  501 -0.00000000000E+00 -0.00000000000E+00 -0.73052298922E+02  0.73063337440E+02  0.12700000000E+01 0.  1.
         25    2    1    2    0    0  0.00000000000E+00  0.00000000000E+00 -0.19604374250E+02  0.12652634850E+03  0.12499834149E+03 0.  0.
    9000005    1    3    3    0    0 -0.27640075002E+02 -0.19023039291E+02 -0.63165670373E+02  0.71531473378E+02  0.10000000000E+01 0.  0.
    9000005    1    3    3    0    0  0.27640075002E+02  0.19023039291E+02  0.43561296123E+02  0.54994875123E+02  0.10000000000E+01 0.  0.
<mgrwt>
<rscale>  0 0.12499834E+03</rscale>
<asrwt>0</asrwt>
<pdfrwt beam="1">  1        4 0.82247672E-02 0.12499834E+03</pdfrwt>
<pdfrwt beam="2">  1       -4 0.11240825E-01 0.12499834E+03</pdfrwt>
<totfact> 0.10419844E+04</totfact>
</mgrwt>
</event>
<event>
 5    1  0.3486294E-002  0.1250000E+03  0.7818608E-02  0.1235069E+00
         -4   -1    0    0    0  501 -0.00000000000E+00  0.00000000000E+00  0.33024040975E+04  0.33024043417E+04  0.12700000000E+01 0. -1.
          4   -1    0    0  501    0  0.00000000000E+00 -0.00000000000E+00 -0.84164411554E+00  0.15235697612E+01  0.12700000000E+01 0. -1.
         25    2    1    2    0    0  0.00000000000E+00  0.00000000000E+00  0.33015624533E+04  0.33039279114E+04  0.12500004216E+03 0.  0.
    9000005    1    3    3    0    0 -0.42455079908E+02  0.32070528040E+02  0.78445152823E+03  0.78625450887E+03  0.10000000000E+01 0.  0.
    9000005    1    3    3    0    0  0.42455079908E+02 -0.32070528040E+02  0.25171109251E+04  0.25176734026E+04  0.10000000000E+01 0.  0.
<mgrwt>
<rscale>  0 0.12500004E+03</rscale>
<asrwt>0</asrwt>
<pdfrwt beam="2">  1        4 0.18195989E-03 0.12500004E+03</pdfrwt>
<pdfrwt beam="1">  1       -4 0.50811024E+00 0.12500004E+03</pdfrwt>
<totfact> 0.92673201E+01</totfact>
</mgrwt>
</event>
<event>
 5    1  0.3486294E-002  0.1249947E+03  0.7818608E-02  0.1235078E+00
         -4   -1    0    0    0  501 -0.00000000000E+00  0.00000000000E+00  0.17938492587E+03  0.17938942145E+03  0.12700000000E+01 0.  1.
          4   -1    0    0  501    0  0.00000000000E+00 -0.00000000000E+00 -0.21750668061E+02  0.21787713535E+02  0.12700000000E+01 0.  1.
         25    2    1    2    0    0  0.00000000000E+00  0.00000000000E+00  0.15763425781E+03  0.20117713498E+03  0.12499472152E+03 0.  0.
    9000005    1    3    3    0    0 -0.58516957611E+02 -0.21845236886E+02  0.81815871685E+02  0.10293826092E+03  0.10000000000E+01 0.  0.
    9000005    1    3    3    0    0  0.58516957611E+02  0.21845236886E+02  0.75818386120E+02  0.98238874059E+02  0.10000000000E+01 0.  0.
<mgrwt>
<rscale>  0 0.12499472E+03</rscale>
<asrwt>0</asrwt>
<pdfrwt beam="2">  1        4 0.33494524E-02 0.12499472E+03</pdfrwt>
<pdfrwt beam="1">  1       -4 0.27600874E-01 0.12499472E+03</pdfrwt>
<totfact> 0.89947977E+03</totfact>
</mgrwt>
</event>
<event>
 5    1  0.3486294E-002  0.1249996E+03  0.7818608E-02  0.1235070E+00
          4   -1    0    0  501    0  0.00000000000E+00  0.00000000000E+00  0.77552500162E+03  0.77552604150E+03  0.12700000000E+01 0.  1.
         -4   -1    0    0    0  501 -0.00000000000E+00 -0.00000000000E+00 -0.49557657208E+01  0.51159079233E+01  0.12700000000E+01 0.  1.
         25    2    1    2    0    0  0.00000000000E+00  0.00000000000E+00  0.77056923590E+03  0.78064194942E+03  0.12499962351E+03 0.  0.
    9000005    1    3    3    0    0 -0.13046849335E+02  0.49932513621E+02  0.16521488683E+03  0.17309082883E+03  0.10000000000E+01 0.  0.
    9000005    1    3    3    0    0  0.13046849335E+02 -0.49932513621E+02  0.60535434907E+03  0.60755112059E+03  0.10000000000E+01 0.  0.
<mgrwt>
<rscale>  0 0.12499962E+03</rscale>
<asrwt>0</asrwt>
<pdfrwt beam="1">  1        4 0.11932394E+00 0.12499962E+03</pdfrwt>
<pdfrwt beam="2">  1       -4 0.77482412E-03 0.12499962E+03</pdfrwt>
<totfact> 0.39143984E+03</totfact>
</mgrwt>
</event>
<event>
 5    1  0.3486294E-002  0.1249891E+03  0.7818608E-02  0.1235086E+00
          4   -1    0    0  501    0  0.00000000000E+00  0.00000000000E+00  0.37583051687E+03  0.37583266265E+03  0.12700000000E+01 0.  1.
         -4   -1    0    0    0  501 -0.00000000000E+00 -0.00000000000E+00 -0.10350843842E+02  0.10428464328E+02  0.12700000000E+01 0.  1.
         25    2    1    2    0    0  0.00000000000E+00  0.00000000000E+00  0.36547967303E+03  0.38626112697E+03  0.12498906678E+03 0.  0.
    9000005    1    3    3    0    0  0.42143938481E+02  0.44752023485E+02  0.14809036918E+03  0.16034529179E+03  0.10000000000E+01 0.  0.
    9000005    1    3    3    0    0 -0.42143938481E+02 -0.44752023485E+02  0.21738930385E+03  0.22591583518E+03  0.10000000000E+01 0.  0.
<mgrwt>
<rscale>  0 0.12498907E+03</rscale>
<asrwt>0</asrwt>
<pdfrwt beam="1">  1        4 0.57826219E-01 0.12498907E+03</pdfrwt>
<pdfrwt beam="2">  1       -4 0.15985733E-02 0.12498907E+03</pdfrwt>
<totfact> 0.65927233E+03</totfact>
</mgrwt>
</event>
<event>
 5    1  0.3486294E-002  0.1250039E+03  0.7818608E-02  0.1235063E+00
         -4   -1    0    0    0  501 -0.00000000000E+00  0.00000000000E+00  0.11209057369E+02  0.11280774225E+02  0.12700000000E+01 0.  1.
          4   -1    0    0  501    0  0.00000000000E+00 -0.00000000000E+00 -0.34732800640E+03  0.34733032826E+03  0.12700000000E+01 0.  1.
         25    2    1    2    0    0  0.00000000000E+00  0.00000000000E+00 -0.33611894903E+03  0.35861110248E+03  0.12500389965E+03 0.  0.
    9000005    1    3    3    0    0 -0.58419403299E+02  0.21050799606E+02 -0.18824956284E+03  0.19822931356E+03  0.10000000000E+01 0.  0.
    9000005    1    3    3    0    0  0.58419403299E+02 -0.21050799606E+02 -0.14786938619E+03  0.16038178892E+03  0.10000000000E+01 0.  0.
<mgrwt>
<rscale>  0 0.12500390E+03</rscale>
<asrwt>0</asrwt>
<pdfrwt beam="2">  1        4 0.53440765E-01 0.12500390E+03</pdfrwt>
<pdfrwt beam="1">  1       -4 0.17301659E-02 0.12500390E+03</pdfrwt>
<totfact> 0.68781574E+03</totfact>
</mgrwt>
</event>
<event>
 5    1  0.3486294E-002  0.1250035E+03  0.7818608E-02  0.1235064E+00
          4   -1    0    0  501    0  0.00000000000E+00  0.00000000000E+00  0.16105339505E+03  0.16105840232E+03  0.12700000000E+01 0.  1.
         -4   -1    0    0    0  501 -0.00000000000E+00 -0.00000000000E+00 -0.24233722310E+02  0.24266977500E+02  0.12700000000E+01 0.  1.
         25    2    1    2    0    0  0.00000000000E+00  0.00000000000E+00  0.13681967274E+03  0.18532537982E+03  0.12500349417E+03 0.  0.
    9000005    1    3    3    0    0  0.61367339133E+02 -0.11446538529E+02  0.72730894939E+02  0.95852786267E+02  0.10000000000E+01 0.  0.
    9000005    1    3    3    0    0 -0.61367339133E+02  0.11446538529E+02  0.64088777803E+02  0.89472593551E+02  0.10000000000E+01 0.  0.
<mgrwt>
<rscale>  0 0.12500349E+03</rscale>
<asrwt>0</asrwt>
<pdfrwt beam="1">  1        4 0.24780389E-01 0.12500349E+03</pdfrwt>
<pdfrwt beam="2">  1       -4 0.37312083E-02 0.12500349E+03</pdfrwt>
<totfact> 0.92659850E+03</totfact>
</mgrwt>
</event>
<event>
 5    1  0.3486294E-002  0.1249990E+03  0.7818608E-02  0.1235071E+00
          4   -1    0    0  501    0  0.00000000000E+00  0.00000000000E+00  0.15687812461E+03  0.15688326514E+03  0.12700000000E+01 0. -1.
         -4   -1    0    0    0  501 -0.00000000000E+00 -0.00000000000E+00 -0.24877763511E+02  0.24910158918E+02  0.12700000000E+01 0. -1.
         25    2    1    2    0    0  0.00000000000E+00  0.00000000000E+00  0.13200036110E+03  0.18179342406E+03  0.12499901480E+03 0.  0.
    9000005    1    3    3    0    0 -0.54698770935E+02  0.23073580913E+02  0.94382273909E+02  0.11150497436E+03  0.10000000000E+01 0.  0.
    9000005    1    3    3    0    0  0.54698770935E+02 -0.23073580913E+02  0.37618087194E+02  0.70288449706E+02  0.10000000000E+01 0.  0.
<mgrwt>
<rscale>  0 0.12499901E+03</rscale>
<asrwt>0</asrwt>
<pdfrwt beam="1">  1        4 0.24137984E-01 0.12499901E+03</pdfrwt>
<pdfrwt beam="2">  1       -4 0.38302356E-02 0.12499901E+03</pdfrwt>
<totfact> 0.93297234E+03</totfact>
</mgrwt>
</event>
<event>
 5    1  0.3486294E-002  0.1249981E+03  0.7818608E-02  0.1235072E+00
         -4   -1    0    0    0  501 -0.00000000000E+00  0.00000000000E+00  0.13739850306E+02  0.13798419708E+02  0.12700000000E+01 0.  1.
          4   -1    0    0  501    0  0.00000000000E+00 -0.00000000000E+00 -0.28362771180E+03  0.28363055512E+03  0.12700000000E+01 0.  1.
         25    2    1    2    0    0  0.00000000000E+00  0.00000000000E+00 -0.26988786149E+03  0.29742897483E+03  0.12499814914E+03 0.  0.
    9000005    1    3    3    0    0 -0.27165925002E+02  0.21659348143E+02 -0.25853930935E+03  0.26086527044E+03  0.10000000000E+01 0.  0.
    9000005    1    3    3    0    0  0.27165925002E+02 -0.21659348143E+02 -0.11348552145E+02  0.36563704393E+02  0.10000000000E+01 0.  0.
<mgrwt>
<rscale>  0 0.12499815E+03</rscale>
<asrwt>0</asrwt>
<pdfrwt beam="2">  1        4 0.43639752E-01 0.12499815E+03</pdfrwt>
<pdfrwt beam="1">  1       -4 0.21185474E-02 0.12499815E+03</pdfrwt>
<totfact> 0.75925601E+03</totfact>
</mgrwt>
</event>
<event>
 5    1  0.3486294E-002  0.1250007E+03  0.7818608E-02  0.1235068E+00
         -4   -1    0    0    0  501 -0.00000000000E+00  0.00000000000E+00  0.49750702490E+02  0.49766909672E+02  0.12700000000E+01 0.  1.
          4   -1    0    0  501    0  0.00000000000E+00 -0.00000000000E+00 -0.78483236208E+02  0.78493510978E+02  0.12700000000E+01 0.  1.
         25    2    1    2    0    0  0.00000000000E+00  0.00000000000E+00 -0.28732533718E+02  0.12826042065E+03  0.12500070804E+03 0.  0.
    9000005    1    3    3    0    0 -0.21647254479E+02  0.58135597430E+02 -0.22109103947E+02  0.65864738612E+02  0.10000000000E+01 0.  0.
    9000005    1    3    3    0    0  0.21647254479E+02 -0.58135597430E+02 -0.66234297708E+01  0.62395682038E+02  0.10000000000E+01 0.  0.
<mgrwt>
<rscale>  0 0.12500071E+03</rscale>
<asrwt>0</asrwt>
<pdfrwt beam="2">  1        4 0.12076381E-01 0.12500071E+03</pdfrwt>
<pdfrwt beam="1">  1       -4 0.76559914E-02 0.12500071E+03</pdfrwt>
<totfact> 0.10381701E+04</totfact>
</mgrwt>
</event>
<event>
 5    1  0.3486294E-002  0.1250010E+03  0.7818608E-02  0.1235068E+00
          4   -1    0    0  501    0  0.00000000000E+00  0.00000000000E+00  0.89553458727E+02  0.89562463510E+02  0.12700000000E+01 0. -1.
         -4   -1    0    0    0  501 -0.00000000000E+00 -0.00000000000E+00 -0.43599454275E+02  0.43617947144E+02  0.12700000000E+01 0. -1.
         25    2    1    2    0    0  0.00000000000E+00  0.00000000000E+00  0.45954004452E+02  0.13318041065E+03  0.12500100502E+03 0.  0.
    9000005    1    3    3    0    0 -0.16089755074E+02 -0.52172318818E+02  0.55371855320E+02  0.77768074624E+02  0.10000000000E+01 0.  0.
    9000005    1    3    3    0    0  0.16089755074E+02  0.52172318818E+02 -0.94178508678E+01  0.55412336029E+02  0.10000000000E+01 0.  0.
<mgrwt>
<rscale>  0 0.12500101E+03</rscale>
<asrwt>0</asrwt>
<pdfrwt beam="1">  1        4 0.13779570E-01 0.12500101E+03</pdfrwt>
<pdfrwt beam="2">  1       -4 0.67097236E-02 0.12500101E+03</pdfrwt>
<totfact> 0.10276334E+04</totfact>
</mgrwt>
</event>
<event>
 5    1  0.3486294E-002  0.1250008E+03  0.7818608E-02  0.1235068E+00
         -4   -1    0    0    0  501 -0.00000000000E+00  0.00000000000E+00  0.32340290720E+02  0.32365217500E+02  0.12700000000E+01 0. -1.
          4   -1    0    0  501    0  0.00000000000E+00 -0.00000000000E+00 -0.12071254065E+03  0.12071922121E+03  0.12700000000E+01 0. -1.
         25    2    1    2    0    0  0.00000000000E+00  0.00000000000E+00 -0.88372249927E+02  0.15308443871E+03  0.12500076327E+03 0.  0.
    9000005    1    3    3    0    0 -0.59175306689E+02 -0.24418446186E+01 -0.68606453169E+02  0.90639533005E+02  0.10000000000E+01 0.  0.
    9000005    1    3    3    0    0  0.59175306689E+02  0.24418446186E+01 -0.19765796757E+02  0.62444905704E+02  0.10000000000E+01 0.  0.
<mgrwt>
<rscale>  0 0.12500076E+03</rscale>
<asrwt>0</asrwt>
<pdfrwt beam="2">  1        4 0.18573591E-01 0.12500076E+03</pdfrwt>
<pdfrwt beam="1">  1       -4 0.49778607E-02 0.12500076E+03</pdfrwt>
<totfact> 0.98690682E+03</totfact>
</mgrwt>
</event>
<event>
 5    1  0.3486294E-002  0.1250055E+03  0.7818608E-02  0.1235061E+00
         -4   -1    0    0    0  501 -0.00000000000E+00  0.00000000000E+00  0.91503132130E+03  0.91503220264E+03  0.12700000000E+01 0.  1.
          4   -1    0    0  501    0  0.00000000000E+00 -0.00000000000E+00 -0.41740028390E+01  0.43629347577E+01  0.12700000000E+01 0.  1.
         25    2    1    2    0    0  0.00000000000E+00  0.00000000000E+00  0.91085731846E+03  0.91939513739E+03  0.12500545615E+03 0.  0.
    9000005    1    3    3    0    0 -0.59968463971E+01 -0.38882385000E+02  0.81255813862E+03  0.81351062111E+03  0.10000000000E+01 0.  0.
    9000005    1    3    3    0    0  0.59968463971E+01  0.38882385000E+02  0.98299179843E+02  0.10588451628E+03  0.10000000000E+01 0.  0.
<mgrwt>
<rscale>  0 0.12500546E+03</rscale>
<asrwt>0</asrwt>
<pdfrwt beam="2">  1        4 0.65675576E-03 0.12500546E+03</pdfrwt>
<pdfrwt beam="1">  1       -4 0.14078855E+00 0.12500546E+03</pdfrwt>
<totfact> 0.33424102E+03</totfact>
</mgrwt>
</event>
<event>
 5    1  0.3486294E-002  0.1250026E+03  0.7818608E-02  0.1235065E+00
          4   -1    0    0  501    0  0.00000000000E+00  0.00000000000E+00  0.15789360644E+03  0.15789871391E+03  0.12700000000E+01 0.  1.
         -4   -1    0    0    0  501 -0.00000000000E+00 -0.00000000000E+00 -0.24718965615E+02  0.24751568861E+02  0.12700000000E+01 0.  1.
         25    2    1    2    0    0  0.00000000000E+00  0.00000000000E+00  0.13317464082E+03  0.18265028277E+03  0.12500256332E+03 0.  0.
    9000005    1    3    3    0    0 -0.24594795030E+02 -0.55512012886E+02  0.88206878870E+02  0.10708847276E+03  0.10000000000E+01 0.  0.
    9000005    1    3    3    0    0  0.24594795030E+02  0.55512012886E+02  0.44967761950E+02  0.75561810010E+02  0.10000000000E+01 0.  0.
<mgrwt>
<rscale>  0 0.12500256E+03</rscale>
<asrwt>0</asrwt>
<pdfrwt beam="1">  1        4 0.24294225E-01 0.12500256E+03</pdfrwt>
<pdfrwt beam="2">  1       -4 0.38058187E-02 0.12500256E+03</pdfrwt>
<totfact> 0.93136756E+03</totfact>
</mgrwt>
</event>
<event>
 5    1  0.3486294E-002  0.1250008E+03  0.7818608E-02  0.1235068E+00
         -4   -1    0    0    0  501 -0.00000000000E+00  0.00000000000E+00  0.28889152339E+03  0.28889431490E+03  0.12700000000E+01 0.  1.
          4   -1    0    0  501    0  0.00000000000E+00 -0.00000000000E+00 -0.13489010855E+02  0.13548664652E+02  0.12700000000E+01 0.  1.
         25    2    1    2    0    0  0.00000000000E+00  0.00000000000E+00  0.27540251253E+03  0.30244297956E+03  0.12500084790E+03 0.  0.
    9000005    1    3    3    0    0 -0.50505814893E+01 -0.62170534421E+02  0.12845015583E+03  0.14279750087E+03  0.10000000000E+01 0.  0.
    9000005    1    3    3    0    0  0.50505814893E+01  0.62170534421E+02  0.14695235670E+03  0.15964547868E+03  0.10000000000E+01 0.  0.
<mgrwt>
<rscale>  0 0.12500085E+03</rscale>
<asrwt>0</asrwt>
<pdfrwt beam="2">  1        4 0.20800360E-02 0.12500085E+03</pdfrwt>
<pdfrwt beam="1">  1       -4 0.44449652E-01 0.12500085E+03</pdfrwt>
<totfact> 0.75291996E+03</totfact>
</mgrwt>
</event>
<event>
 5    1  0.3486294E-002  0.1250007E+03  0.7818608E-02  0.1235068E+00
         -4   -1    0    0    0  501 -0.00000000000E+00  0.00000000000E+00  0.74340411155E+02  0.74351258434E+02  0.12700000000E+01 0.  1.
          4   -1    0    0  501    0  0.00000000000E+00 -0.00000000000E+00 -0.52523656314E+02  0.52539008104E+02  0.12700000000E+01 0.  1.
         25    2    1    2    0    0  0.00000000000E+00  0.00000000000E+00  0.21816754841E+02  0.12689026654E+03  0.12500067580E+03 0.  0.
    9000005    1    3    3    0    0 -0.50253596259E+01  0.53038227225E+02 -0.22250131583E+02  0.57744057201E+02  0.10000000000E+01 0.  0.
    9000005    1    3    3    0    0  0.50253596259E+01 -0.53038227225E+02  0.44066886424E+02  0.69146209337E+02  0.10000000000E+01 0.  0.
<mgrwt>
<rscale>  0 0.12500068E+03</rscale>
<asrwt>0</asrwt>
<pdfrwt beam="2">  1        4 0.80825778E-02 0.12500068E+03</pdfrwt>
<pdfrwt beam="1">  1       -4 0.11439002E-01 0.12500068E+03</pdfrwt>
<totfact> 0.10411372E+04</totfact>
</mgrwt>
</event>
<event>
 5    1  0.3486294E-002  0.1250011E+03  0.7818608E-02  0.1235068E+00
          4   -1    0    0  501    0  0.00000000000E+00  0.00000000000E+00  0.69635960748E+02  0.69647540727E+02  0.12700000000E+01 0. -1.
         -4   -1    0    0    0  501 -0.00000000000E+00 -0.00000000000E+00 -0.56072862528E+02  0.56087242864E+02  0.12700000000E+01 0. -1.
         25    2    1    2    0    0  0.00000000000E+00  0.00000000000E+00  0.13563098221E+02  0.12573478359E+03  0.12500111268E+03 0.  0.
    9000005    1    3    3    0    0 -0.10950638206E+02 -0.57530192908E+02 -0.15156549885E+02  0.60500913857E+02  0.10000000000E+01 0.  0.
    9000005    1    3    3    0    0  0.10950638206E+02  0.57530192908E+02  0.28719648106E+02  0.65233869734E+02  0.10000000000E+01 0.  0.
<mgrwt>
<rscale>  0 0.12500111E+03</rscale>
<asrwt>0</asrwt>
<pdfrwt beam="1">  1        4 0.10715222E-01 0.12500111E+03</pdfrwt>
<pdfrwt beam="2">  1       -4 0.86285912E-02 0.12500111E+03</pdfrwt>
<totfact> 0.10436517E+04</totfact>
</mgrwt>
</event>
<event>
 5    1  0.3486294E-002  0.1250089E+03  0.7818608E-02  0.1235055E+00
         -4   -1    0    0    0  501 -0.00000000000E+00  0.00000000000E+00  0.12660807402E+03  0.12661444352E+03  0.12700000000E+01 0.  1.
          4   -1    0    0  501    0  0.00000000000E+00 -0.00000000000E+00 -0.30837270823E+02  0.30863411539E+02  0.12700000000E+01 0.  1.
         25    2    1    2    0    0  0.00000000000E+00  0.00000000000E+00  0.95770803197E+02  0.15747785506E+03  0.12500891203E+03 0.  0.
    9000005    1    3    3    0    0 -0.32221561116E+02  0.51766117409E+02  0.65150965767E+02  0.89239051164E+02  0.10000000000E+01 0.  0.
    9000005    1    3    3    0    0  0.32221561116E+02 -0.51766117409E+02  0.30619837430E+02  0.68238803891E+02  0.10000000000E+01 0.  0.
<mgrwt>
<rscale>  0 0.12500891E+03</rscale>
<asrwt>0</asrwt>
<pdfrwt beam="2">  1        4 0.47466962E-02 0.12500891E+03</pdfrwt>
<pdfrwt beam="1">  1       -4 0.19480666E-01 0.12500891E+03</pdfrwt>
<totfact> 0.97811649E+03</totfact>
</mgrwt>
</event>
<event>
 5    1  0.3486294E-002  0.1249982E+03  0.7818608E-02  0.1235072E+00
          4   -1    0    0  501    0  0.00000000000E+00  0.00000000000E+00  0.20618793654E+02  0.20657869003E+02  0.12700000000E+01 0. -1.
         -4   -1    0    0    0  501 -0.00000000000E+00 -0.00000000000E+00 -0.18922480667E+03  0.18922906848E+03  0.12700000000E+01 0. -1.
         25    2    1    2    0    0  0.00000000000E+00  0.00000000000E+00 -0.16860601301E+03  0.20988693748E+03  0.12499815560E+03 0.  0.
    9000005    1    3    3    0    0  0.45628251016E+02  0.60568008163E+01 -0.15527464757E+03  0.16195628517E+03  0.10000000000E+01 0.  0.
    9000005    1    3    3    0    0 -0.45628251016E+02 -0.60568008163E+01 -0.13331365440E+02  0.47930652316E+02  0.10000000000E+01 0.  0.
<mgrwt>
<rscale>  0 0.12499816E+03</rscale>
<asrwt>0</asrwt>
<pdfrwt beam="1">  1        4 0.31754559E-02 0.12499816E+03</pdfrwt>
<pdfrwt beam="2">  1       -4 0.29114841E-01 0.12499816E+03</pdfrwt>
<totfact> 0.88497998E+03</totfact>
</mgrwt>
</event>
<event>
 5    1  0.3486294E-002  0.1249991E+03  0.7818608E-02  0.1235071E+00
         -4   -1    0    0    0  501 -0.00000000000E+00  0.00000000000E+00  0.27738280350E+03  0.27738571084E+03  0.12700000000E+01 0.  1.
          4   -1    0    0  501    0  0.00000000000E+00 -0.00000000000E+00 -0.14050697799E+02  0.14107976774E+02  0.12700000000E+01 0.  1.
         25    2    1    2    0    0  0.00000000000E+00  0.00000000000E+00  0.26333210570E+03  0.29149368761E+03  0.12499908810E+03 0.  0.
    9000005    1    3    3    0    0 -0.30543132983E+02  0.15898827749E+02  0.25327620180E+03  0.25560807908E+03  0.10000000000E+01 0.  0.
    9000005    1    3    3    0    0  0.30543132983E+02 -0.15898827749E+02  0.10055903905E+02  0.35885608530E+02  0.10000000000E+01 0.  0.
<mgrwt>
<rscale>  0 0.12499909E+03</rscale>
<asrwt>0</asrwt>
<pdfrwt beam="2">  1        4 0.21662756E-02 0.12499909E+03</pdfrwt>
<pdfrwt beam="1">  1       -4 0.42678905E-01 0.12499909E+03</pdfrwt>
<totfact> 0.76679949E+03</totfact>
</mgrwt>
</event>
<event>
 5    1  0.3486294E-002  0.1250002E+03  0.7818608E-02  0.1235069E+00
          4   -1    0    0  501    0  0.00000000000E+00  0.00000000000E+00  0.28533918100E+02  0.28562166972E+02  0.12700000000E+01 0.  1.
         -4   -1    0    0    0  501 -0.00000000000E+00 -0.00000000000E+00 -0.13680003631E+03  0.13680593128E+03  0.12700000000E+01 0.  1.
         25    2    1    2    0    0  0.00000000000E+00  0.00000000000E+00 -0.10826611821E+03  0.16536809825E+03  0.12500022227E+03 0.  0.
    9000005    1    3    3    0    0  0.51574716921E+02 -0.31736029411E+02 -0.74548290086E+02  0.96049854467E+02  0.10000000000E+01 0.  0.
    9000005    1    3    3    0    0 -0.51574716921E+02  0.31736029411E+02 -0.33717828120E+02  0.69318243785E+02  0.10000000000E+01 0.  0.
<mgrwt>
<rscale>  0 0.12500022E+03</rscale>
<asrwt>0</asrwt>
<pdfrwt beam="1">  1        4 0.43924601E-02 0.12500022E+03</pdfrwt>
<pdfrwt beam="2">  1       -4 0.21048785E-01 0.12500022E+03</pdfrwt>
<totfact> 0.96317245E+03</totfact>
</mgrwt>
</event>
<event>
 5    1  0.3486294E-002  0.1249962E+03  0.7818608E-02  0.1235075E+00
          4   -1    0    0  501    0  0.00000000000E+00  0.00000000000E+00  0.32850497972E+02  0.32875037901E+02  0.12700000000E+01 0.  1.
         -4   -1    0    0    0  501 -0.00000000000E+00 -0.00000000000E+00 -0.11883026745E+03  0.11883705383E+03  0.12700000000E+01 0.  1.
         25    2    1    2    0    0  0.00000000000E+00  0.00000000000E+00 -0.85979769480E+02  0.15171209173E+03  0.12499615201E+03 0.  0.
    9000005    1    3    3    0    0 -0.80974721820E+01  0.19807395824E+02  0.28270960219E+02  0.35470398599E+02  0.10000000000E+01 0.  0.
    9000005    1    3    3    0    0  0.80974721820E+01 -0.19807395824E+02 -0.11425072970E+03  0.11624169313E+03  0.10000000000E+01 0.  0.
<mgrwt>
<rscale>  0 0.12499615E+03</rscale>
<asrwt>0</asrwt>
<pdfrwt beam="1">  1        4 0.50563326E-02 0.12499615E+03</pdfrwt>
<pdfrwt beam="2">  1       -4 0.18283989E-01 0.12499615E+03</pdfrwt>
<totfact> 0.98972076E+03</totfact>
</mgrwt>
</event>
<event>
 5    1  0.3486294E-002  0.1249926E+03  0.7818608E-02  0.1235081E+00
          4   -1    0    0  501    0  0.00000000000E+00  0.00000000000E+00  0.24043594733E+02  0.24077112528E+02  0.12700000000E+01 0.  1.
         -4   -1    0    0    0  501 -0.00000000000E+00 -0.00000000000E+00 -0.16229683416E+03  0.16230180306E+03  0.12700000000E+01 0.  1.
         25    2    1    2    0    0  0.00000000000E+00  0.00000000000E+00 -0.13825323942E+03  0.18637891559E+03  0.12499256764E+03 0.  0.
    9000005    1    3    3    0    0  0.28175765258E+02  0.47538000450E+02 -0.11262671362E+03  0.12545721125E+03  0.10000000000E+01 0.  0.
    9000005    1    3    3    0    0 -0.28175765258E+02 -0.47538000450E+02 -0.25626525804E+02  0.60921704338E+02  0.10000000000E+01 0.  0.
<mgrwt>
<rscale>  0 0.12499257E+03</rscale>
<asrwt>0</asrwt>
<pdfrwt beam="1">  1        4 0.37019752E-02 0.12499257E+03</pdfrwt>
<pdfrwt beam="2">  1       -4 0.24971704E-01 0.12499257E+03</pdfrwt>
<totfact> 0.92496621E+03</totfact>
</mgrwt>
</event>
<event>
 5    1  0.3486294E-002  0.1249990E+03  0.7818608E-02  0.1235071E+00
          4   -1    0    0  501    0  0.00000000000E+00  0.00000000000E+00  0.11209996898E+03  0.11210716278E+03  0.12700000000E+01 0. -1.
         -4   -1    0    0    0  501 -0.00000000000E+00 -0.00000000000E+00 -0.34825703888E+02  0.34848852941E+02  0.12700000000E+01 0. -1.
         25    2    1    2    0    0  0.00000000000E+00  0.00000000000E+00  0.77274265096E+02  0.14695601572E+03  0.12499903404E+03 0.  0.
    9000005    1    3    3    0    0 -0.89535786719E+01 -0.61066570796E+02  0.50149991783E+02  0.79531844663E+02  0.10000000000E+01 0.  0.
    9000005    1    3    3    0    0  0.89535786719E+01  0.61066570796E+02  0.27124273314E+02  0.67424171056E+02  0.10000000000E+01 0.  0.
<mgrwt>
<rscale>  0 0.12499903E+03</rscale>
<asrwt>0</asrwt>
<pdfrwt beam="1">  1        4 0.17248483E-01 0.12499903E+03</pdfrwt>
<pdfrwt beam="2">  1       -4 0.53601347E-02 0.12499903E+03</pdfrwt>
<totfact> 0.99916142E+03</totfact>
</mgrwt>
</event>
<event>
 5    1  0.3486294E-002  0.1249970E+03  0.7818608E-02  0.1235074E+00
          4   -1    0    0  501    0  0.00000000000E+00  0.00000000000E+00  0.21017457756E+02  0.21055793277E+02  0.12700000000E+01 0. -1.
         -4   -1    0    0    0  501 -0.00000000000E+00 -0.00000000000E+00 -0.18563852386E+03  0.18564286801E+03  0.12700000000E+01 0. -1.
         25    2    1    2    0    0  0.00000000000E+00  0.00000000000E+00 -0.16462106611E+03  0.20669866128E+03  0.12499696465E+03 0.  0.
    9000005    1    3    3    0    0  0.23223084080E+02 -0.28533135773E+02 -0.16584106446E+03  0.16987557251E+03  0.10000000000E+01 0.  0.
    9000005    1    3    3    0    0 -0.23223084080E+02  0.28533135773E+02  0.12199983574E+01  0.36823088779E+02  0.10000000000E+01 0.  0.
<mgrwt>
<rscale>  0 0.12499696E+03</rscale>
<asrwt>0</asrwt>
<pdfrwt beam="1">  1        4 0.32367382E-02 0.12499696E+03</pdfrwt>
<pdfrwt beam="2">  1       -4 0.28563055E-01 0.12499696E+03</pdfrwt>
<totfact> 0.89023930E+03</totfact>
</mgrwt>
</event>
<event>
 5    1  0.3486294E-002  0.1250009E+03  0.7818608E-02  0.1235068E+00
         -4   -1    0    0    0  501 -0.00000000000E+00  0.00000000000E+00  0.64175622878E+03  0.64175748541E+03  0.12700000000E+01 0.  1.
          4   -1    0    0  501    0  0.00000000000E+00 -0.00000000000E+00 -0.60193829757E+01  0.61518998211E+01  0.12700000000E+01 0.  1.
         25    2    1    2    0    0  0.00000000000E+00  0.00000000000E+00  0.63573684580E+03  0.64790938523E+03  0.12500093742E+03 0.  0.
    9000005    1    3    3    0    0 -0.12372094951E+02 -0.12061653374E+02  0.65825547207E+01  0.18517079744E+02  0.10000000000E+01 0.  0.
    9000005    1    3    3    0    0  0.12372094951E+02  0.12061653374E+02  0.62915429108E+03  0.62939230549E+03  0.10000000000E+01 0.  0.
<mgrwt>
<rscale>  0 0.12500094E+03</rscale>
<asrwt>0</asrwt>
<pdfrwt beam="2">  1        4 0.93634950E-03 0.12500094E+03</pdfrwt>
<pdfrwt beam="1">  1       -4 0.98741985E-01 0.12500094E+03</pdfrwt>
<totfact> 0.45975568E+03</totfact>
</mgrwt>
</event>
<event>
 5    1  0.3486294E-002  0.1249998E+03  0.7818608E-02  0.1235070E+00
          4   -1    0    0  501    0  0.00000000000E+00  0.00000000000E+00  0.25844178187E+02  0.25875363691E+02  0.12700000000E+01 0.  1.
         -4   -1    0    0    0  501 -0.00000000000E+00 -0.00000000000E+00 -0.15102063176E+03  0.15102597167E+03  0.12700000000E+01 0.  1.
         25    2    1    2    0    0  0.00000000000E+00  0.00000000000E+00 -0.12517645358E+03  0.17690133536E+03  0.12499975169E+03 0.  0.
    9000005    1    3    3    0    0 -0.44389897807E+02 -0.61469856247E+01 -0.12422700565E+03  0.13206663997E+03  0.10000000000E+01 0.  0.
    9000005    1    3    3    0    0  0.44389897807E+02  0.61469856247E+01 -0.94944792802E+00  0.44834695393E+02  0.10000000000E+01 0.  0.
<mgrwt>
<rscale>  0 0.12499975E+03</rscale>
<asrwt>0</asrwt>
<pdfrwt beam="1">  1        4 0.39788372E-02 0.12499975E+03</pdfrwt>
<pdfrwt beam="2">  1       -4 0.23236752E-01 0.12499975E+03</pdfrwt>
<totfact> 0.94178290E+03</totfact>
</mgrwt>
</event>
<event>
 5    1  0.3486294E-002  0.1250050E+03  0.7818608E-02  0.1235062E+00
          4   -1    0    0  501    0  0.00000000000E+00  0.00000000000E+00  0.17905596944E+01  0.21952229999E+01  0.12700000000E+01 0.  1.
         -4   -1    0    0    0  501 -0.00000000000E+00 -0.00000000000E+00 -0.19598428462E+04  0.19598432577E+04  0.12700000000E+01 0.  1.
         25    2    1    2    0    0  0.00000000000E+00  0.00000000000E+00 -0.19580522865E+04  0.19620384807E+04  0.12500497193E+03 0.  0.
    9000005    1    3    3    0    0 -0.10000892520E+02 -0.53915033195E+02 -0.14495596200E+04  0.14505967533E+04  0.10000000000E+01 0.  0.
    9000005    1    3    3    0    0  0.10000892520E+02  0.53915033195E+02 -0.50849266648E+03  0.51144172739E+03  0.10000000000E+01 0.  0.
<mgrwt>
<rscale>  0 0.12500497E+03</rscale>
<asrwt>0</asrwt>
<pdfrwt beam="1">  1        4 0.30663189E-03 0.12500497E+03</pdfrwt>
<pdfrwt beam="2">  1       -4 0.30154390E+00 0.12500497E+03</pdfrwt>
<totfact> 0.10363965E+03</totfact>
</mgrwt>
</event>
<event>
 5    1  0.3486294E-002  0.1250056E+03  0.7818608E-02  0.1235061E+00
          4   -1    0    0  501    0  0.00000000000E+00  0.00000000000E+00  0.11605840067E+03  0.11606534912E+03  0.12700000000E+01 0.  1.
         -4   -1    0    0    0  501 -0.00000000000E+00 -0.00000000000E+00 -0.33640675544E+02  0.33664639476E+02  0.12700000000E+01 0.  1.
         25    2    1    2    0    0  0.00000000000E+00  0.00000000000E+00  0.82417725129E+02  0.14972998860E+03  0.12500555216E+03 0.  0.
    9000005    1    3    3    0    0 -0.12352024207E+02 -0.27117976528E+02 -0.24589213183E+02  0.38646947589E+02  0.10000000000E+01 0.  0.
    9000005    1    3    3    0    0  0.12352024207E+02  0.27117976528E+02  0.10700693831E+03  0.11108304101E+03  0.10000000000E+01 0.  0.
<mgrwt>
<rscale>  0 0.12500555E+03</rscale>
<asrwt>0</asrwt>
<pdfrwt beam="1">  1        4 0.17857516E-01 0.12500555E+03</pdfrwt>
<pdfrwt beam="2">  1       -4 0.51778664E-02 0.12500555E+03</pdfrwt>
<totfact> 0.99345133E+03</totfact>
</mgrwt>
</event>
<event>
 5    1  0.3486294E-002  0.1250098E+03  0.7818608E-02  0.1235054E+00
         -4   -1    0    0    0  501 -0.00000000000E+00  0.00000000000E+00  0.75112172402E+03  0.75112279768E+03  0.12700000000E+01 0.  1.
          4   -1    0    0  501    0  0.00000000000E+00 -0.00000000000E+00 -0.51227582123E+01  0.52778358919E+01  0.12700000000E+01 0.  1.
         25    2    1    2    0    0  0.00000000000E+00  0.00000000000E+00  0.74599896581E+03  0.75640063357E+03  0.12500984554E+03 0.  0.
    9000005    1    3    3    0    0  0.99937108376E+01 -0.61117386175E+02  0.42386024568E+03  0.42836166613E+03  0.10000000000E+01 0.  0.
    9000005    1    3    3    0    0 -0.99937108376E+01  0.61117386175E+02  0.32213872013E+03  0.32803896744E+03  0.10000000000E+01 0.  0.
<mgrwt>
<rscale>  0 0.12500985E+03</rscale>
<asrwt>0</asrwt>
<pdfrwt beam="2">  1        4 0.80012836E-03 0.12500985E+03</pdfrwt>
<pdfrwt beam="1">  1       -4 0.11556919E+00 0.12500985E+03</pdfrwt>
<totfact> 0.40261187E+03</totfact>
</mgrwt>
</event>
<event>
 5    1  0.3486294E-002  0.1249933E+03  0.7818608E-02  0.1235080E+00
          4   -1    0    0  501    0  0.00000000000E+00  0.00000000000E+00  0.26798334311E+02  0.26828410721E+02  0.12700000000E+01 0.  1.
         -4   -1    0    0    0  501 -0.00000000000E+00 -0.00000000000E+00 -0.14563442845E+03  0.14563996584E+03  0.12700000000E+01 0.  1.
         25    2    1    2    0    0  0.00000000000E+00  0.00000000000E+00 -0.11883609414E+03  0.17246837656E+03  0.12499329439E+03 0.  0.
    9000005    1    3    3    0    0 -0.22345362487E+02 -0.13582208973E+02  0.18892592615E+02  0.32275713485E+02  0.10000000000E+01 0.  0.
    9000005    1    3    3    0    0  0.22345362487E+02  0.13582208973E+02 -0.13772868676E+03  0.14019266308E+03  0.10000000000E+01 0.  0.
<mgrwt>
<rscale>  0 0.12499329E+03</rscale>
<asrwt>0</asrwt>
<pdfrwt beam="1">  1        4 0.41255603E-02 0.12499329E+03</pdfrwt>
<pdfrwt beam="2">  1       -4 0.22408036E-01 0.12499329E+03</pdfrwt>
<totfact> 0.95004852E+03</totfact>
</mgrwt>
</event>
<event>
 5    1  0.3486294E-002  0.1249979E+03  0.7818608E-02  0.1235073E+00
          4   -1    0    0  501    0  0.00000000000E+00  0.00000000000E+00  0.23724369184E+02  0.23758337340E+02  0.12700000000E+01 0.  1.
         -4   -1    0    0    0  501 -0.00000000000E+00 -0.00000000000E+00 -0.16449152586E+03  0.16449642847E+03  0.12700000000E+01 0.  1.
         25    2    1    2    0    0  0.00000000000E+00  0.00000000000E+00 -0.14076715667E+03  0.18825476581E+03  0.12499785779E+03 0.  0.
    9000005    1    3    3    0    0  0.31001141024E+01 -0.55631288246E+02 -0.27767951728E+02  0.62261626083E+02  0.10000000000E+01 0.  0.
    9000005    1    3    3    0    0 -0.31001141024E+01  0.55631288246E+02 -0.11299920494E+03  0.12599313972E+03  0.10000000000E+01 0.  0.
<mgrwt>
<rscale>  0 0.12499786E+03</rscale>
<asrwt>0</asrwt>
<pdfrwt beam="1">  1        4 0.36528931E-02 0.12499786E+03</pdfrwt>
<pdfrwt beam="2">  1       -4 0.25309378E-01 0.12499786E+03</pdfrwt>
<totfact> 0.92156292E+03</totfact>
</mgrwt>
</event>
<event>
 5    1  0.3486294E-002  0.1250002E+03  0.7818608E-02  0.1235069E+00
         -4   -1    0    0    0  501 -0.00000000000E+00  0.00000000000E+00  0.16194753254E+03  0.16195251217E+03  0.12700000000E+01 0.  1.
          4   -1    0    0  501    0  0.00000000000E+00 -0.00000000000E+00 -0.24098475066E+02  0.24131916635E+02  0.12700000000E+01 0.  1.
         25    2    1    2    0    0  0.00000000000E+00  0.00000000000E+00  0.13784905748E+03  0.18608442880E+03  0.12500020798E+03 0.  0.
    9000005    1    3    3    0    0  0.34182079325E+02  0.24282029267E+02 -0.57940121669E-01  0.41940849412E+02  0.10000000000E+01 0.  0.
    9000005    1    3    3    0    0 -0.34182079325E+02 -0.24282029267E+02  0.13790699760E+03  0.14414357939E+03  0.10000000000E+01 0.  0.
<mgrwt>
<rscale>  0 0.12500021E+03</rscale>
<asrwt>0</asrwt>
<pdfrwt beam="2">  1        4 0.37104132E-02 0.12500021E+03</pdfrwt>
<pdfrwt beam="1">  1       -4 0.24917961E-01 0.12500021E+03</pdfrwt>
<totfact> 0.92532678E+03</totfact>
</mgrwt>
</event>
<event>
 5    1  0.3486294E-002  0.1249894E+03  0.7818608E-02  0.1235086E+00
         -4   -1    0    0    0  501 -0.00000000000E+00  0.00000000000E+00  0.15607690609E+03  0.15608207301E+03  0.12700000000E+01 0.  1.
          4   -1    0    0  501    0  0.00000000000E+00 -0.00000000000E+00 -0.25001777562E+02  0.25034012488E+02  0.12700000000E+01 0.  1.
         25    2    1    2    0    0  0.00000000000E+00  0.00000000000E+00  0.13107512853E+03  0.18111608550E+03  0.12498938798E+03 0.  0.
    9000005    1    3    3    0    0 -0.15610112225E+02  0.22070017823E+02  0.14717237745E+03  0.14963779594E+03  0.10000000000E+01 0.  0.
    9000005    1    3    3    0    0  0.15610112225E+02 -0.22070017823E+02 -0.16097248922E+02  0.31478289554E+02  0.10000000000E+01 0.  0.
<mgrwt>
<rscale>  0 0.12498939E+03</rscale>
<asrwt>0</asrwt>
<pdfrwt beam="2">  1        4 0.38493044E-02 0.12498939E+03</pdfrwt>
<pdfrwt beam="1">  1       -4 0.24014708E-01 0.12498939E+03</pdfrwt>
<totfact> 0.93438718E+03</totfact>
</mgrwt>
</event>
<event>
 5    1  0.3486294E-002  0.1249954E+03  0.7818608E-02  0.1235076E+00
          4   -1    0    0  501    0  0.00000000000E+00  0.00000000000E+00  0.10122507160E+02  0.10201865084E+02  0.12700000000E+01 0.  1.
         -4   -1    0    0    0  501 -0.00000000000E+00 -0.00000000000E+00 -0.38428221397E+03  0.38428431255E+03  0.12700000000E+01 0.  1.
         25    2    1    2    0    0  0.00000000000E+00  0.00000000000E+00 -0.37415970681E+03  0.39448617763E+03  0.12499543250E+03 0.  0.
    9000005    1    3    3    0    0 -0.32076410882E+02 -0.49443534114E+02 -0.25263101668E+03  0.25941663360E+03  0.10000000000E+01 0.  0.
    9000005    1    3    3    0    0  0.32076410882E+02  0.49443534114E+02 -0.12152869013E+03  0.13506954403E+03  0.10000000000E+01 0.  0.
<mgrwt>
<rscale>  0 0.12499543E+03</rscale>
<asrwt>0</asrwt>
<pdfrwt beam="1">  1        4 0.15635750E-02 0.12499543E+03</pdfrwt>
<pdfrwt beam="2">  1       -4 0.59126595E-01 0.12499543E+03</pdfrwt>
<totfact> 0.65099184E+03</totfact>
</mgrwt>
</event>
<event>
 5    1  0.3486294E-002  0.1249999E+03  0.7818608E-02  0.1235069E+00
         -4   -1    0    0    0  501 -0.00000000000E+00  0.00000000000E+00  0.51555800222E+03  0.51555956645E+03  0.12700000000E+01 0. -1.
          4   -1    0    0  501    0  0.00000000000E+00 -0.00000000000E+00 -0.75219204267E+01  0.76283803593E+01  0.12700000000E+01 0. -1.
         25    2    1    2    0    0  0.00000000000E+00  0.00000000000E+00  0.50803608179E+03  0.52318794681E+03  0.12499986911E+03 0.  0.
    9000005    1    3    3    0    0 -0.54839375764E+02 -0.26947932235E+02  0.19917452764E+03  0.20833876415E+03  0.10000000000E+01 0.  0.
    9000005    1    3    3    0    0  0.54839375764E+02  0.26947932235E+02  0.30886155415E+03  0.31484918265E+03  0.10000000000E+01 0.  0.
<mgrwt>
<rscale>  0 0.12499987E+03</rscale>
<asrwt>0</asrwt>
<pdfrwt beam="2">  1        4 0.11655279E-02 0.12499987E+03</pdfrwt>
<pdfrwt beam="1">  1       -4 0.79324940E-01 0.12499987E+03</pdfrwt>
<totfact> 0.54109253E+03</totfact>
</mgrwt>
</event>
<event>
 5    1  0.3486294E-002  0.1249978E+03  0.7818608E-02  0.1235073E+00
          4   -1    0    0  501    0  0.00000000000E+00  0.00000000000E+00  0.43185836707E+02  0.43204506618E+02  0.12700000000E+01 0.  1.
         -4   -1    0    0    0  501 -0.00000000000E+00 -0.00000000000E+00 -0.90406216698E+02  0.90415136551E+02  0.12700000000E+01 0.  1.
         25    2    1    2    0    0  0.00000000000E+00  0.00000000000E+00 -0.47220379991E+02  0.13361964317E+03  0.12499777900E+03 0.  0.
    9000005    1    3    3    0    0 -0.53985041216E+02  0.31226804222E+02 -0.27834094906E+02  0.68302524231E+02  0.10000000000E+01 0.  0.
    9000005    1    3    3    0    0  0.53985041216E+02 -0.31226804222E+02 -0.19386285085E+02  0.65317118938E+02  0.10000000000E+01 0.  0.
<mgrwt>
<rscale>  0 0.12499778E+03</rscale>
<asrwt>0</asrwt>
<pdfrwt beam="1">  1        4 0.66460972E-02 0.12499778E+03</pdfrwt>
<pdfrwt beam="2">  1       -4 0.13910771E-01 0.12499778E+03</pdfrwt>
<totfact> 0.10267762E+04</totfact>
</mgrwt>
</event>
<event>
 5    1  0.3486294E-002  0.1250018E+03  0.7818608E-02  0.1235067E+00
         -4   -1    0    0    0  501 -0.00000000000E+00  0.00000000000E+00  0.12956227026E+02  0.13018322425E+02  0.12700000000E+01 0.  1.
          4   -1    0    0  501    0  0.00000000000E+00 -0.00000000000E+00 -0.30072025615E+03  0.30072293786E+03  0.12700000000E+01 0.  1.
         25    2    1    2    0    0  0.00000000000E+00  0.00000000000E+00 -0.28776402912E+03  0.31374126029E+03  0.12500176779E+03 0.  0.
    9000005    1    3    3    0    0  0.46595047969E+02  0.41280685912E+02 -0.15766747508E+03  0.16951467848E+03  0.10000000000E+01 0.  0.
    9000005    1    3    3    0    0 -0.46595047969E+02 -0.41280685912E+02 -0.13009655404E+03  0.14422658180E+03  0.10000000000E+01 0.  0.
<mgrwt>
<rscale>  0 0.12500177E+03</rscale>
<asrwt>0</asrwt>
<pdfrwt beam="2">  1        4 0.46269632E-01 0.12500177E+03</pdfrwt>
<pdfrwt beam="1">  1       -4 0.19982488E-02 0.12500177E+03</pdfrwt>
<totfact> 0.73903860E+03</totfact>
</mgrwt>
</event>
<event>
 5    1  0.3486294E-002  0.1250014E+03  0.7818608E-02  0.1235067E+00
          4   -1    0    0  501    0  0.00000000000E+00  0.00000000000E+00  0.95448021213E+02  0.95456469940E+02  0.12700000000E+01 0. -1.
         -4   -1    0    0    0  501 -0.00000000000E+00 -0.00000000000E+00 -0.40906185065E+02  0.40925894940E+02  0.12700000000E+01 0. -1.
         25    2    1    2    0    0  0.00000000000E+00  0.00000000000E+00  0.54541836147E+02  0.13638236488E+03  0.12500135023E+03 0.  0.
    9000005    1    3    3    0    0 -0.27311594572E+02 -0.55325726058E+02  0.38097889995E+02  0.72521089236E+02  0.10000000000E+01 0.  0.
    9000005    1    3    3    0    0  0.27311594572E+02  0.55325726058E+02  0.16443946152E+02  0.63861275644E+02  0.10000000000E+01 0.  0.
<mgrwt>
<rscale>  0 0.12500135E+03</rscale>
<asrwt>0</asrwt>
<pdfrwt beam="1">  1        4 0.14686477E-01 0.12500135E+03</pdfrwt>
<pdfrwt beam="2">  1       -4 0.62954253E-02 0.12500135E+03</pdfrwt>
<totfact> 0.10208705E+04</totfact>
</mgrwt>
</event>
<event>
 5    1  0.3486294E-002  0.1249994E+03  0.7818608E-02  0.1235070E+00
         -4   -1    0    0    0  501 -0.00000000000E+00  0.00000000000E+00  0.14315913802E+02  0.14372135819E+02  0.12700000000E+01 0. -1.
          4   -1    0    0  501    0  0.00000000000E+00 -0.00000000000E+00 -0.27226560788E+03  0.27226856986E+03  0.12700000000E+01 0. -1.
         25    2    1    2    0    0  0.00000000000E+00  0.00000000000E+00 -0.25794969407E+03  0.28664070568E+03  0.12499939791E+03 0.  0.
    9000005    1    3    3    0    0  0.50206207898E+02  0.36087932489E+02 -0.14976667918E+03  0.16203104756E+03  0.10000000000E+01 0.  0.
    9000005    1    3    3    0    0 -0.50206207898E+02 -0.36087932489E+02 -0.10818301490E+03  0.12460965811E+03  0.10000000000E+01 0.  0.
<mgrwt>
<rscale>  0 0.12499940E+03</rscale>
<asrwt>0</asrwt>
<pdfrwt beam="2">  1        4 0.41891565E-01 0.12499940E+03</pdfrwt>
<pdfrwt beam="1">  1       -4 0.22070011E-02 0.12499940E+03</pdfrwt>
<totfact> 0.77306791E+03</totfact>
</mgrwt>
</event>
<event>
 5    1  0.3486294E-002  0.1250011E+03  0.7818608E-02  0.1235068E+00
          4   -1    0    0  501    0  0.00000000000E+00  0.00000000000E+00  0.13532391762E+02  0.13591855164E+02  0.12700000000E+01 0.  1.
         -4   -1    0    0    0  501 -0.00000000000E+00 -0.00000000000E+00 -0.28797049088E+03  0.28797329133E+03  0.12700000000E+01 0.  1.
         25    2    1    2    0    0  0.00000000000E+00  0.00000000000E+00 -0.27443809912E+03  0.30156514649E+03  0.12500106932E+03 0.  0.
    9000005    1    3    3    0    0  0.24162710268E+02 -0.44031225803E+02 -0.47509983818E+02  0.69143213518E+02  0.10000000000E+01 0.  0.
    9000005    1    3    3    0    0 -0.24162710268E+02  0.44031225803E+02 -0.22692811530E+03  0.23242193297E+03  0.10000000000E+01 0.  0.
<mgrwt>
<rscale>  0 0.12500107E+03</rscale>
<asrwt>0</asrwt>
<pdfrwt beam="1">  1        4 0.20866962E-02 0.12500107E+03</pdfrwt>
<pdfrwt beam="2">  1       -4 0.44307937E-01 0.12500107E+03</pdfrwt>
<totfact> 0.75401141E+03</totfact>
</mgrwt>
</event>
<event>
 5    1  0.3486294E-002  0.1250023E+03  0.7818608E-02  0.1235066E+00
         -4   -1    0    0    0  501 -0.00000000000E+00  0.00000000000E+00  0.62110220852E+03  0.62110350694E+03  0.12700000000E+01 0. -1.
          4   -1    0    0  501    0  0.00000000000E+00 -0.00000000000E+00 -0.62240195806E+01  0.63522688655E+01  0.12700000000E+01 0. -1.
         25    2    1    2    0    0  0.00000000000E+00  0.00000000000E+00  0.61487818894E+03  0.62745577580E+03  0.12500225339E+03 0.  0.
    9000005    1    3    3    0    0 -0.24149974277E+01 -0.34209326094E+02  0.56967332188E+03  0.57070553166E+03  0.10000000000E+01 0.  0.
    9000005    1    3    3    0    0  0.24149974277E+01  0.34209326094E+02  0.45204867057E+02  0.56750244141E+02  0.10000000000E+01 0.  0.
<mgrwt>
<rscale>  0 0.12500225E+03</rscale>
<asrwt>0</asrwt>
<pdfrwt beam="2">  1        4 0.96750656E-03 0.12500225E+03</pdfrwt>
<pdfrwt beam="1">  1       -4 0.95564164E-01 0.12500225E+03</pdfrwt>
<totfact> 0.47176817E+03</totfact>
</mgrwt>
</event>
<event>
 5    1  0.3486294E-002  0.1249978E+03  0.7818608E-02  0.1235073E+00
          4   -1    0    0  501    0  0.00000000000E+00  0.00000000000E+00  0.30634787453E+02  0.30661100800E+02  0.12700000000E+01 0. -1.
         -4   -1    0    0    0  501 -0.00000000000E+00 -0.00000000000E+00 -0.12742147254E+03  0.12742780138E+03  0.12700000000E+01 0. -1.
         25    2    1    2    0    0  0.00000000000E+00  0.00000000000E+00 -0.96786685088E+02  0.15808890218E+03  0.12499775431E+03 0.  0.
    9000005    1    3    3    0    0  0.61656101111E+02  0.99881365632E+01 -0.50882000023E+02  0.80568080544E+02  0.10000000000E+01 0.  0.
    9000005    1    3    3    0    0 -0.61656101111E+02 -0.99881365632E+01 -0.45904685066E+02  0.77520821637E+02  0.10000000000E+01 0.  0.
<mgrwt>
<rscale>  0 0.12499775E+03</rscale>
<asrwt>0</asrwt>
<pdfrwt beam="1">  1        4 0.47155552E-02 0.12499775E+03</pdfrwt>
<pdfrwt beam="2">  1       -4 0.19605814E-01 0.12499775E+03</pdfrwt>
<totfact> 0.97717433E+03</totfact>
</mgrwt>
</event>
<event>
 5    1  0.3486294E-002  0.1249984E+03  0.7818608E-02  0.1235072E+00
          4   -1    0    0  501    0  0.00000000000E+00  0.00000000000E+00  0.28363833867E+02  0.28392251965E+02  0.12700000000E+01 0. -1.
         -4   -1    0    0    0  501 -0.00000000000E+00 -0.00000000000E+00 -0.13761553358E+03  0.13762139362E+03  0.12700000000E+01 0. -1.
         25    2    1    2    0    0  0.00000000000E+00  0.00000000000E+00 -0.10925169971E+03  0.16601364558E+03  0.12499838651E+03 0.  0.
    9000005    1    3    3    0    0 -0.21955901079E+02  0.32480457577E+02  0.10005031848E+02  0.40473971622E+02  0.10000000000E+01 0.  0.
    9000005    1    3    3    0    0  0.21955901079E+02 -0.32480457577E+02 -0.11925673156E+03  0.12553967396E+03  0.10000000000E+01 0.  0.
<mgrwt>
<rscale>  0 0.12499839E+03</rscale>
<asrwt>0</asrwt>
<pdfrwt beam="1">  1        4 0.43663036E-02 0.12499839E+03</pdfrwt>
<pdfrwt beam="2">  1       -4 0.21174257E-01 0.12499839E+03</pdfrwt>
<totfact> 0.96199254E+03</totfact>
</mgrwt>
</event>
<event>
 5    1  0.3486294E-002  0.1250046E+03  0.7818608E-02  0.1235062E+00
         -4   -1    0    0    0  501 -0.00000000000E+00  0.00000000000E+00  0.38969686017E+03  0.38969892959E+03  0.12700000000E+01 0. -1.
          4   -1    0    0  501    0  0.00000000000E+00 -0.00000000000E+00 -0.99822252741E+01  0.10062689572E+02  0.12700000000E+01 0. -1.
         25    2    1    2    0    0  0.00000000000E+00  0.00000000000E+00  0.37971463489E+03  0.39976161916E+03  0.12500459273E+03 0.  0.
    9000005    1    3    3    0    0 -0.49655516930E+02 -0.36615526955E+02  0.15801057548E+03  0.16963109721E+03  0.10000000000E+01 0.  0.
    9000005    1    3    3    0    0  0.49655516930E+02  0.36615526955E+02  0.22170405941E+03  0.23013052195E+03  0.10000000000E+01 0.  0.
<mgrwt>
<rscale>  0 0.12500459E+03</rscale>
<asrwt>0</asrwt>
<pdfrwt beam="2">  1        4 0.15420758E-02 0.12500459E+03</pdfrwt>
<pdfrwt beam="1">  1       -4 0.59959707E-01 0.12500459E+03</pdfrwt>
<totfact> 0.64569434E+03</totfact>
</mgrwt>
</event>
<event>
 5    1  0.3486294E-002  0.1249981E+03  0.7818608E-02  0.1235072E+00
          4   -1    0    0  501    0  0.00000000000E+00  0.00000000000E+00  0.71537270604E+01  0.72655839995E+01  0.12700000000E+01 0. -1.
         -4   -1    0    0    0  501 -0.00000000000E+00 -0.00000000000E+00 -0.54167885394E+03  0.54168034274E+03  0.12700000000E+01 0. -1.
         25    2    1    2    0    0  0.00000000000E+00  0.00000000000E+00 -0.53452512688E+03  0.54894592674E+03  0.12499807684E+03 0.  0.
    9000005    1    3    3    0    0  0.48843588924E+02  0.28733183313E+02 -0.15158338004E+03  0.16183267009E+03  0.10000000000E+01 0.  0.
    9000005    1    3    3    0    0 -0.48843588924E+02 -0.28733183313E+02 -0.38294174684E+03  0.38711325665E+03  0.10000000000E+01 0.  0.
<mgrwt>
<rscale>  0 0.12499808E+03</rscale>
<asrwt>0</asrwt>
<pdfrwt beam="1">  1        4 0.11092927E-02 0.12499808E+03</pdfrwt>
<pdfrwt beam="2">  1       -4 0.83343895E-01 0.12499808E+03</pdfrwt>
<totfact> 0.52259698E+03</totfact>
</mgrwt>
</event>
<event>
 5    1  0.3486294E-002  0.1250054E+03  0.7818608E-02  0.1235061E+00
          4   -1    0    0  501    0  0.00000000000E+00  0.00000000000E+00  0.10771030488E+02  0.10845644185E+02  0.12700000000E+01 0.  1.
         -4   -1    0    0    0  501 -0.00000000000E+00 -0.00000000000E+00 -0.36136644173E+03  0.36136867339E+03  0.12700000000E+01 0.  1.
         25    2    1    2    0    0  0.00000000000E+00  0.00000000000E+00 -0.35059541124E+03  0.37221431758E+03  0.12500542318E+03 0.  0.
    9000005    1    3    3    0    0  0.32610828338E+02 -0.24640775204E+02 -0.31606397934E+03  0.31869746307E+03  0.10000000000E+01 0.  0.
    9000005    1    3    3    0    0 -0.32610828338E+02  0.24640775204E+02 -0.34531431900E+02  0.53516854510E+02  0.10000000000E+01 0.  0.
<mgrwt>
<rscale>  0 0.12500542E+03</rscale>
<asrwt>0</asrwt>
<pdfrwt beam="1">  1        4 0.16629931E-02 0.12500542E+03</pdfrwt>
<pdfrwt beam="2">  1       -4 0.55600739E-01 0.12500542E+03</pdfrwt>
<totfact> 0.67339844E+03</totfact>
</mgrwt>
</event>
<event>
 5    1  0.3486294E-002  0.1249750E+03  0.7818608E-02  0.1235108E+00
          4   -1    0    0  501    0  0.00000000000E+00  0.00000000000E+00  0.84972108823E+01  0.85915943094E+01  0.12700000000E+01 0. -1.
         -4   -1    0    0    0  501 -0.00000000000E+00 -0.00000000000E+00 -0.45689265658E+03  0.45689442165E+03  0.12700000000E+01 0. -1.
         25    2    1    2    0    0  0.00000000000E+00  0.00000000000E+00 -0.44839544570E+03  0.46548601596E+03  0.12497501884E+03 0.  0.
    9000005    1    3    3    0    0 -0.42296300079E+02  0.39146497316E+02 -0.31407362052E+03  0.31931906357E+03  0.10000000000E+01 0.  0.
    9000005    1    3    3    0    0  0.42296300079E+02 -0.39146497316E+02 -0.13432182518E+03  0.14616695239E+03  0.10000000000E+01 0.  0.
<mgrwt>
<rscale>  0 0.12497502E+03</rscale>
<asrwt>0</asrwt>
<pdfrwt beam="1">  1        4 0.13146596E-02 0.12497502E+03</pdfrwt>
<pdfrwt beam="2">  1       -4 0.70298555E-01 0.12497502E+03</pdfrwt>
<totfact> 0.58677603E+03</totfact>
</mgrwt>
</event>
<event>
 5    1  0.3486294E-002  0.1250153E+03  0.7818608E-02  0.1235045E+00
         -4   -1    0    0    0  501 -0.00000000000E+00  0.00000000000E+00  0.23645146878E+03  0.23645487940E+03  0.12700000000E+01 0.  1.
          4   -1    0    0  501    0  0.00000000000E+00 -0.00000000000E+00 -0.16496416155E+02  0.16545230308E+02  0.12700000000E+01 0.  1.
         25    2    1    2    0    0  0.00000000000E+00  0.00000000000E+00  0.21995505263E+03  0.25300010970E+03  0.12501532039E+03 0.  0.
    9000005    1    3    3    0    0  0.38693787156E+02 -0.59835585375E+01  0.11389488181E+02  0.40788878120E+02  0.10000000000E+01 0.  0.
    9000005    1    3    3    0    0 -0.38693787156E+02  0.59835585375E+01  0.20856556445E+03  0.21221123158E+03  0.10000000000E+01 0.  0.
<mgrwt>
<rscale>  0 0.12501532E+03</rscale>
<asrwt>0</asrwt>
<pdfrwt beam="2">  1        4 0.25419275E-02 0.12501532E+03</pdfrwt>
<pdfrwt beam="1">  1       -4 0.36381166E-01 0.12501532E+03</pdfrwt>
<totfact> 0.81870604E+03</totfact>
</mgrwt>
</event>
<event>
 5    1  0.3486294E-002  0.1249997E+03  0.7818608E-02  0.1235070E+00
         -4   -1    0    0    0  501 -0.00000000000E+00  0.00000000000E+00  0.19657752548E+03  0.19658162789E+03  0.12700000000E+01 0.  1.
          4   -1    0    0  501    0  0.00000000000E+00 -0.00000000000E+00 -0.19846608143E+02  0.19887200778E+02  0.12700000000E+01 0.  1.
         25    2    1    2    0    0  0.00000000000E+00  0.00000000000E+00  0.17673091734E+03  0.21646882867E+03  0.12499974657E+03 0.  0.
    9000005    1    3    3    0    0  0.58984664121E+02  0.19894941563E+02  0.78843194819E+02  0.10046018450E+03  0.10000000000E+01 0.  0.
    9000005    1    3    3    0    0 -0.58984664121E+02 -0.19894941563E+02  0.97887722520E+02  0.11600864417E+03  0.10000000000E+01 0.  0.
<mgrwt>
<rscale>  0 0.12499975E+03</rscale>
<asrwt>0</asrwt>
<pdfrwt beam="2">  1        4 0.30567625E-02 0.12499975E+03</pdfrwt>
<pdfrwt beam="1">  1       -4 0.30246134E-01 0.12499975E+03</pdfrwt>
<totfact> 0.87430709E+03</totfact>
</mgrwt>
</event>
<event>
 5    1  0.3486294E-002  0.1249611E+03  0.7818608E-02  0.1235130E+00
         -4   -1    0    0    0  501 -0.00000000000E+00  0.00000000000E+00  0.60058988175E+01  0.61387067535E+01  0.12700000000E+01 0. -1.
          4   -1    0    0  501    0  0.00000000000E+00 -0.00000000000E+00 -0.64275609247E+03  0.64275734714E+03  0.12700000000E+01 0. -1.
         25    2    1    2    0    0  0.00000000000E+00  0.00000000000E+00 -0.63675019365E+03  0.64889605390E+03  0.12496111254E+03 0.  0.
    9000005    1    3    3    0    0  0.29975349821E+02 -0.31800136956E+02 -0.55019958197E+03  0.55193328429E+03  0.10000000000E+01 0.  0.
    9000005    1    3    3    0    0 -0.29975349821E+02  0.31800136956E+02 -0.86550611683E+02  0.96962769608E+02  0.10000000000E+01 0.  0.
<mgrwt>
<rscale>  0 0.12496111E+03</rscale>
<asrwt>0</asrwt>
<pdfrwt beam="2">  1        4 0.98895811E-01 0.12496111E+03</pdfrwt>
<pdfrwt beam="1">  1       -4 0.93429745E-03 0.12496111E+03</pdfrwt>
<totfact> 0.45958768E+03</totfact>
</mgrwt>
</event>
<event>
 5    1  0.3486294E-002  0.1250012E+03  0.7818608E-02  0.1235067E+00
          4   -1    0    0  501    0  0.00000000000E+00  0.00000000000E+00  0.69160912396E+02  0.69172571901E+02  0.12700000000E+01 0.  1.
         -4   -1    0    0    0  501 -0.00000000000E+00 -0.00000000000E+00 -0.56458116847E+02  0.56472399081E+02  0.12700000000E+01 0.  1.
         25    2    1    2    0    0  0.00000000000E+00  0.00000000000E+00  0.12702795548E+02  0.12564497098E+03  0.12500119087E+03 0.  0.
    9000005    1    3    3    0    0  0.33403020183E+02  0.45826867118E+02  0.32744217290E+02  0.65490818235E+02  0.10000000000E+01 0.  0.
    9000005    1    3    3    0    0 -0.33403020183E+02 -0.45826867118E+02 -0.20041421741E+02  0.60154152746E+02  0.10000000000E+01 0.  0.
<mgrwt>
<rscale>  0 0.12500119E+03</rscale>
<asrwt>0</asrwt>
<pdfrwt beam="1">  1        4 0.10642136E-01 0.12500119E+03</pdfrwt>
<pdfrwt beam="2">  1       -4 0.86878598E-02 0.12500119E+03</pdfrwt>
<totfact> 0.10438475E+04</totfact>
</mgrwt>
</event>
<event>
 5    1  0.3486294E-002  0.1249980E+03  0.7818608E-02  0.1235072E+00
          4   -1    0    0  501    0  0.00000000000E+00  0.00000000000E+00  0.15160460771E+03  0.15160992704E+03  0.12700000000E+01 0. -1.
         -4   -1    0    0    0  501 -0.00000000000E+00 -0.00000000000E+00 -0.25743796985E+02  0.25775103942E+02  0.12700000000E+01 0. -1.
         25    2    1    2    0    0  0.00000000000E+00  0.00000000000E+00  0.12586081072E+03  0.17738503099E+03  0.12499802215E+03 0.  0.
    9000005    1    3    3    0    0  0.24265531011E+02 -0.38985909457E+02  0.12307775135E+03  0.13136913644E+03  0.10000000000E+01 0.  0.
    9000005    1    3    3    0    0 -0.24265531011E+02  0.38985909457E+02  0.27830593738E+01  0.46015894547E+02  0.10000000000E+01 0.  0.
<mgrwt>
<rscale>  0 0.12499802E+03</rscale>
<asrwt>0</asrwt>
<pdfrwt beam="1">  1        4 0.23326603E-01 0.12499802E+03</pdfrwt>
<pdfrwt beam="2">  1       -4 0.39634016E-02 0.12499802E+03</pdfrwt>
<totfact> 0.94094009E+03</totfact>
</mgrwt>
</event>
<event>
 5    1  0.3486294E-002  0.1249985E+03  0.7818608E-02  0.1235072E+00
         -4   -1    0    0    0  501 -0.00000000000E+00  0.00000000000E+00  0.16922602993E+02  0.16970191279E+02  0.12700000000E+01 0. -1.
          4   -1    0    0  501    0  0.00000000000E+00 -0.00000000000E+00 -0.23045124890E+03  0.23045474831E+03  0.12700000000E+01 0. -1.
         25    2    1    2    0    0  0.00000000000E+00  0.00000000000E+00 -0.21352864591E+03  0.24742493959E+03  0.12499847243E+03 0.  0.
    9000005    1    3    3    0    0  0.57036329858E+02 -0.18110125540E+02 -0.14239587166E+03  0.15446262926E+03  0.10000000000E+01 0.  0.
    9000005    1    3    3    0    0 -0.57036329858E+02  0.18110125540E+02 -0.71132774247E+02  0.92962310335E+02  0.10000000000E+01 0.  0.
<mgrwt>
<rscale>  0 0.12499847E+03</rscale>
<asrwt>0</asrwt>
<pdfrwt beam="2">  1        4 0.35457966E-01 0.12499847E+03</pdfrwt>
<pdfrwt beam="1">  1       -4 0.26074074E-02 0.12499847E+03</pdfrwt>
<totfact> 0.82706650E+03</totfact>
</mgrwt>
</event>
<event>
 5    1  0.3486294E-002  0.1249994E+03  0.7818608E-02  0.1235070E+00
         -4   -1    0    0    0  501 -0.00000000000E+00  0.00000000000E+00  0.32027816273E+03  0.32028068069E+03  0.12700000000E+01 0.  1.
          4   -1    0    0  501    0  0.00000000000E+00 -0.00000000000E+00 -0.12160673874E+02  0.12226810258E+02  0.12700000000E+01 0.  1.
         25    2    1    2    0    0  0.00000000000E+00  0.00000000000E+00  0.30811748886E+03  0.33250749094E+03  0.12499937838E+03 0.  0.
    9000005    1    3    3    0    0  0.43664160182E+02 -0.17046384743E+01  0.27289426300E+03  0.27637247231E+03  0.10000000000E+01 0.  0.
    9000005    1    3    3    0    0 -0.43664160182E+02  0.17046384743E+01  0.35223225859E+02  0.56135018630E+02  0.10000000000E+01 0.  0.
<mgrwt>
<rscale>  0 0.12499938E+03</rscale>
<asrwt>0</asrwt>
<pdfrwt beam="2">  1        4 0.18761539E-02 0.12499938E+03</pdfrwt>
<pdfrwt beam="1">  1       -4 0.49278847E-01 0.12499938E+03</pdfrwt>
<totfact> 0.71693794E+03</totfact>
</mgrwt>
</event>
<event>
 5    1  0.3486294E-002  0.1250012E+03  0.7818608E-02  0.1235067E+00
         -4   -1    0    0    0  501 -0.00000000000E+00  0.00000000000E+00  0.18095077401E+03  0.18095523069E+03  0.12700000000E+01 0. -1.
          4   -1    0    0  501    0  0.00000000000E+00 -0.00000000000E+00 -0.21564364318E+02  0.21601729293E+02  0.12700000000E+01 0. -1.
         25    2    1    2    0    0  0.00000000000E+00  0.00000000000E+00  0.15938640969E+03  0.20255695998E+03  0.12500117777E+03 0.  0.
    9000005    1    3    3    0    0  0.55123661257E+02  0.15979384422E+01  0.12732842521E+03  0.13876130334E+03  0.10000000000E+01 0.  0.
    9000005    1    3    3    0    0 -0.55123661257E+02 -0.15979384422E+01  0.32057984480E+02  0.63795656644E+02  0.10000000000E+01 0.  0.
<mgrwt>
<rscale>  0 0.12500118E+03</rscale>
<asrwt>0</asrwt>
<pdfrwt beam="2">  1        4 0.33208117E-02 0.12500118E+03</pdfrwt>
<pdfrwt beam="1">  1       -4 0.27841797E-01 0.12500118E+03</pdfrwt>
<totfact> 0.89703676E+03</totfact>
</mgrwt>
</event>
<event>
 5    1  0.3486294E-002  0.1249961E+03  0.7818608E-02  0.1235075E+00
         -4   -1    0    0    0  501 -0.00000000000E+00  0.00000000000E+00  0.13553004943E+03  0.13553599964E+03  0.12700000000E+01 0.  1.
          4   -1    0    0  501    0  0.00000000000E+00 -0.00000000000E+00 -0.28799667502E+02  0.28827655961E+02  0.12700000000E+01 0.  1.
         25    2    1    2    0    0  0.00000000000E+00  0.00000000000E+00  0.10673038193E+03  0.16436365560E+03  0.12499614737E+03 0.  0.
    9000005    1    3    3    0    0  0.15608930397E+02 -0.20254224384E+02  0.12834197237E+03  0.13086838497E+03  0.10000000000E+01 0.  0.
    9000005    1    3    3    0    0 -0.15608930397E+02  0.20254224384E+02 -0.21611590437E+02  0.33495270633E+02  0.10000000000E+01 0.  0.
<mgrwt>
<rscale>  0 0.12499615E+03</rscale>
<asrwt>0</asrwt>
<pdfrwt beam="2">  1        4 0.44333288E-02 0.12499615E+03</pdfrwt>
<pdfrwt beam="1">  1       -4 0.20853387E-01 0.12499615E+03</pdfrwt>
<totfact> 0.96516395E+03</totfact>
</mgrwt>
</event>
<event>
 5    1  0.3486294E-002  0.1249997E+03  0.7818608E-02  0.1235070E+00
         -4   -1    0    0    0  501 -0.00000000000E+00  0.00000000000E+00  0.21253768356E+02  0.21291678406E+02  0.12700000000E+01 0.  1.
          4   -1    0    0  501    0  0.00000000000E+00 -0.00000000000E+00 -0.18358631652E+03  0.18359070922E+03  0.12700000000E+01 0.  1.
         25    2    1    2    0    0  0.00000000000E+00  0.00000000000E+00 -0.16233254816E+03  0.20488238763E+03  0.12499974627E+03 0.  0.
    9000005    1    3    3    0    0 -0.15622221560E+02  0.13248137477E+02 -0.17793576455E+03  0.17911366017E+03  0.10000000000E+01 0.  0.
    9000005    1    3    3    0    0  0.15622221560E+02 -0.13248137477E+02  0.15603216390E+02  0.25768727458E+02  0.10000000000E+01 0.  0.
<mgrwt>
<rscale>  0 0.12499975E+03</rscale>
<asrwt>0</asrwt>
<pdfrwt beam="2">  1        4 0.28247302E-01 0.12499975E+03</pdfrwt>
<pdfrwt beam="1">  1       -4 0.32730647E-02 0.12499975E+03</pdfrwt>
<totfact> 0.89319042E+03</totfact>
</mgrwt>
</event>
<event>
 5    1  0.3486294E-002  0.1250004E+03  0.7818608E-02  0.1235069E+00
          4   -1    0    0  501    0  0.00000000000E+00  0.00000000000E+00  0.29229564354E+02  0.29257141561E+02  0.12700000000E+01 0. -1.
         -4   -1    0    0    0  501 -0.00000000000E+00 -0.00000000000E+00 -0.13354760434E+03  0.13355364287E+03  0.12700000000E+01 0. -1.
         25    2    1    2    0    0  0.00000000000E+00  0.00000000000E+00 -0.10431803998E+03  0.16281078443E+03  0.12500039225E+03 0.  0.
    9000005    1    3    3    0    0  0.43163247634E+02  0.19861453933E+02  0.71166994454E+00  0.47529462155E+02  0.10000000000E+01 0.  0.
    9000005    1    3    3    0    0 -0.43163247634E+02 -0.19861453933E+02 -0.10502970993E+03  0.11528132228E+03  0.10000000000E+01 0.  0.
<mgrwt>
<rscale>  0 0.12500039E+03</rscale>
<asrwt>0</asrwt>
<pdfrwt beam="1">  1        4 0.44994419E-02 0.12500039E+03</pdfrwt>
<pdfrwt beam="2">  1       -4 0.20548371E-01 0.12500039E+03</pdfrwt>
<totfact> 0.96802756E+03</totfact>
</mgrwt>
</event>
<event>
 5    1  0.3486294E-002  0.1249997E+03  0.7818608E-02  0.1235070E+00
         -4   -1    0    0    0  501 -0.00000000000E+00  0.00000000000E+00  0.68481199973E+01  0.69648867541E+01  0.12700000000E+01 0.  1.
          4   -1    0    0  501    0  0.00000000000E+00 -0.00000000000E+00 -0.56546989080E+03  0.56547131696E+03  0.12700000000E+01 0.  1.
         25    2    1    2    0    0  0.00000000000E+00  0.00000000000E+00 -0.55862177080E+03  0.57243620371E+03  0.12499969802E+03 0.  0.
    9000005    1    3    3    0    0  0.49794741611E+02 -0.11736042698E+02 -0.11495974889E+03  0.12583320252E+03  0.10000000000E+01 0.  0.
    9000005    1    3    3    0    0 -0.49794741611E+02  0.11736042698E+02 -0.44366202191E+03  0.44660300120E+03  0.10000000000E+01 0.  0.
<mgrwt>
<rscale>  0 0.12499970E+03</rscale>
<asrwt>0</asrwt>
<pdfrwt beam="2">  1        4 0.87004423E-01 0.12499970E+03</pdfrwt>
<pdfrwt beam="1">  1       -4 0.10626491E-02 0.12499970E+03</pdfrwt>
<totfact> 0.50655411E+03</totfact>
</mgrwt>
</event>
<event>
 5    1  0.3486294E-002  0.1250130E+03  0.7818608E-02  0.1235049E+00
         -4   -1    0    0    0  501 -0.00000000000E+00  0.00000000000E+00  0.59444463237E+01  0.60785970499E+01  0.12700000000E+01 0.  1.
          4   -1    0    0  501    0  0.00000000000E+00 -0.00000000000E+00 -0.64979396713E+03  0.64979520822E+03  0.12700000000E+01 0.  1.
         25    2    1    2    0    0  0.00000000000E+00  0.00000000000E+00 -0.64384952081E+03  0.65587380527E+03  0.12501297129E+03 0.  0.
    9000005    1    3    3    0    0  0.27707528386E+02  0.49502605271E+02 -0.18432720487E+03  0.19286195455E+03  0.10000000000E+01 0.  0.
    9000005    1    3    3    0    0 -0.27707528386E+02 -0.49502605271E+02 -0.45952231594E+03  0.46301185072E+03  0.10000000000E+01 0.  0.
<mgrwt>
<rscale>  0 0.12501297E+03</rscale>
<asrwt>0</asrwt>
<pdfrwt beam="2">  1        4 0.99978662E-01 0.12501297E+03</pdfrwt>
<pdfrwt beam="1">  1       -4 0.92494547E-03 0.12501297E+03</pdfrwt>
<totfact> 0.45507364E+03</totfact>
</mgrwt>
</event>
<event>
 5    1  0.3486294E-002  0.1249981E+03  0.7818608E-02  0.1235072E+00
          4   -1    0    0  501    0  0.00000000000E+00  0.00000000000E+00  0.25670481773E+02  0.25701878033E+02  0.12700000000E+01 0.  1.
         -4   -1    0    0    0  501 -0.00000000000E+00 -0.00000000000E+00 -0.15203737013E+03  0.15204267432E+03  0.12700000000E+01 0.  1.
         25    2    1    2    0    0  0.00000000000E+00  0.00000000000E+00 -0.12636688836E+03  0.17774455236E+03  0.12499814167E+03 0.  0.
    9000005    1    3    3    0    0 -0.19034449629E+02  0.50884869356E+02 -0.10709363351E+03  0.12009007678E+03  0.10000000000E+01 0.  0.
    9000005    1    3    3    0    0  0.19034449629E+02 -0.50884869356E+02 -0.19273254847E+02  0.57654475581E+02  0.10000000000E+01 0.  0.
<mgrwt>
<rscale>  0 0.12499814E+03</rscale>
<asrwt>0</asrwt>
<pdfrwt beam="1">  1        4 0.39521281E-02 0.12499814E+03</pdfrwt>
<pdfrwt beam="2">  1       -4 0.23393187E-01 0.12499814E+03</pdfrwt>
<totfact> 0.94028493E+03</totfact>
</mgrwt>
</event>
<event>
 5    1  0.3486294E-002  0.1250015E+03  0.7818608E-02  0.1235067E+00
          4   -1    0    0  501    0  0.00000000000E+00  0.00000000000E+00  0.77290449340E+02  0.77300882655E+02  0.12700000000E+01 0.  1.
         -4   -1    0    0    0  501 -0.00000000000E+00 -0.00000000000E+00 -0.50519267773E+02  0.50535228469E+02  0.12700000000E+01 0.  1.
         25    2    1    2    0    0  0.00000000000E+00  0.00000000000E+00  0.26771181567E+02  0.12783611112E+03  0.12500150057E+03 0.  0.
    9000005    1    3    3    0    0 -0.29019003454E+02 -0.55073069739E+02  0.19005495537E+02  0.65094964725E+02  0.10000000000E+01 0.  0.
    9000005    1    3    3    0    0  0.29019003454E+02  0.55073069739E+02  0.77656860297E+01  0.62741146399E+02  0.10000000000E+01 0.  0.
<mgrwt>
<rscale>  0 0.12500150E+03</rscale>
<asrwt>0</asrwt>
<pdfrwt beam="1">  1        4 0.11892869E-01 0.12500150E+03</pdfrwt>
<pdfrwt beam="2">  1       -4 0.77742254E-02 0.12500150E+03</pdfrwt>
<totfact> 0.10390676E+04</totfact>
</mgrwt>
</event>
<event>
 5    1  0.3486294E-002  0.1249704E+03  0.7818608E-02  0.1235116E+00
         -4   -1    0    0    0  501 -0.00000000000E+00  0.00000000000E+00  0.23747613262E+03  0.23747952852E+03  0.12700000000E+01 0. -1.
          4   -1    0    0  501    0  0.00000000000E+00 -0.00000000000E+00 -0.16413174968E+02  0.16462235952E+02  0.12700000000E+01 0. -1.
         25    2    1    2    0    0  0.00000000000E+00  0.00000000000E+00  0.22106295765E+03  0.25394176447E+03  0.12497035046E+03 0.  0.
    9000005    1    3    3    0    0 -0.20826562308E+02 -0.27804811226E+02  0.21605053369E+03  0.21882798343E+03  0.10000000000E+01 0.  0.
    9000005    1    3    3    0    0  0.20826562308E+02  0.27804811226E+02  0.50124239649E+01  0.35113781039E+02  0.10000000000E+01 0.  0.
<mgrwt>
<rscale>  0 0.12497035E+03</rscale>
<asrwt>0</asrwt>
<pdfrwt beam="2">  1        4 0.25291392E-02 0.12497035E+03</pdfrwt>
<pdfrwt beam="1">  1       -4 0.36538822E-01 0.12497035E+03</pdfrwt>
<totfact> 0.81817850E+03</totfact>
</mgrwt>
</event>
<event>
 5    1  0.3486294E-002  0.1249744E+03  0.7818608E-02  0.1235109E+00
          4   -1    0    0  501    0  0.00000000000E+00  0.00000000000E+00  0.17563045862E+03  0.17563505031E+03  0.12700000000E+01 0.  1.
         -4   -1    0    0    0  501 -0.00000000000E+00 -0.00000000000E+00 -0.22209180807E+02  0.22245462731E+02  0.12700000000E+01 0.  1.
         25    2    1    2    0    0  0.00000000000E+00  0.00000000000E+00  0.15342127782E+03  0.19788051304E+03  0.12497443320E+03 0.  0.
    9000005    1    3    3    0    0  0.29399299552E+02 -0.12502161278E+02 -0.83064806305E+01  0.33024543468E+02  0.10000000000E+01 0.  0.
    9000005    1    3    3    0    0 -0.29399299552E+02  0.12502161278E+02  0.16172775845E+03  0.16485596957E+03  0.10000000000E+01 0.  0.
<mgrwt>
<rscale>  0 0.12497443E+03</rscale>
<asrwt>0</asrwt>
<pdfrwt beam="1">  1        4 0.27023215E-01 0.12497443E+03</pdfrwt>
<pdfrwt beam="2">  1       -4 0.34199411E-02 0.12497443E+03</pdfrwt>
<totfact> 0.90545727E+03</totfact>
</mgrwt>
</event>
<event>
 5    1  0.3486294E-002  0.1249985E+03  0.7818608E-02  0.1235072E+00
         -4   -1    0    0    0  501 -0.00000000000E+00  0.00000000000E+00  0.30368359077E+02  0.30394903077E+02  0.12700000000E+01 0.  1.
          4   -1    0    0  501    0  0.00000000000E+00 -0.00000000000E+00 -0.12853997382E+03  0.12854624759E+03  0.12700000000E+01 0.  1.
         25    2    1    2    0    0  0.00000000000E+00  0.00000000000E+00 -0.98171614738E+02  0.15894115066E+03  0.12499849373E+03 0.  0.
    9000005    1    3    3    0    0  0.24857294095E+02  0.42644089864E+02 -0.35474649512E+00  0.49371341031E+02  0.10000000000E+01 0.  0.
    9000005    1    3    3    0    0 -0.24857294095E+02 -0.42644089864E+02 -0.97816868243E+02  0.10956980963E+03  0.10000000000E+01 0.  0.
<mgrwt>
<rscale>  0 0.12499849E+03</rscale>
<asrwt>0</asrwt>
<pdfrwt beam="2">  1        4 0.19777905E-01 0.12499849E+03</pdfrwt>
<pdfrwt beam="1">  1       -4 0.46745798E-02 0.12499849E+03</pdfrwt>
<totfact> 0.97550615E+03</totfact>
</mgrwt>
</event>
<event>
 5    1  0.3486294E-002  0.1250011E+03  0.7818608E-02  0.1235068E+00
          4   -1    0    0  501    0  0.00000000000E+00  0.00000000000E+00  0.37040088823E+03  0.37040306546E+03  0.12700000000E+01 0.  1.
         -4   -1    0    0    0  501 -0.00000000000E+00 -0.00000000000E+00 -0.10505739400E+02  0.10582223790E+02  0.12700000000E+01 0.  1.
         25    2    1    2    0    0  0.00000000000E+00  0.00000000000E+00  0.35989514883E+03  0.38098528925E+03  0.12500108989E+03 0.  0.
    9000005    1    3    3    0    0  0.58322676044E+02 -0.26972428389E+01  0.11203382108E+03  0.12633838184E+03  0.10000000000E+01 0.  0.
    9000005    1    3    3    0    0 -0.58322676044E+02  0.26972428389E+01  0.24786132775E+03  0.25464690741E+03  0.10000000000E+01 0.  0.
<mgrwt>
<rscale>  0 0.12500109E+03</rscale>
<asrwt>0</asrwt>
<pdfrwt beam="1">  1        4 0.56990792E-01 0.12500109E+03</pdfrwt>
<pdfrwt beam="2">  1       -4 0.16223188E-02 0.12500109E+03</pdfrwt>
<totfact> 0.66443522E+03</totfact>
</mgrwt>
</event>
<event>
 5    1  0.3486294E-002  0.1249916E+03  0.7818608E-02  0.1235082E+00
         -4   -1    0    0    0  501 -0.00000000000E+00  0.00000000000E+00  0.14343265004E+03  0.14343827243E+03  0.12700000000E+01 0. -1.
          4   -1    0    0  501    0  0.00000000000E+00 -0.00000000000E+00 -0.27209425678E+02  0.27239048179E+02  0.12700000000E+01 0. -1.
         25    2    1    2    0    0  0.00000000000E+00  0.00000000000E+00  0.11622322436E+03  0.17067732061E+03  0.12499163928E+03 0.  0.
    9000005    1    3    3    0    0 -0.35924368156E+02  0.38984100230E+02  0.12938052105E+02  0.54577591468E+02  0.10000000000E+01 0.  0.
    9000005    1    3    3    0    0  0.35924368156E+02 -0.38984100230E+02  0.10328517226E+03  0.11609972914E+03  0.10000000000E+01 0.  0.
<mgrwt>
<rscale>  0 0.12499164E+03</rscale>
<asrwt>0</asrwt>
<pdfrwt beam="2">  1        4 0.41887766E-02 0.12499164E+03</pdfrwt>
<pdfrwt beam="1">  1       -4 0.22069273E-01 0.12499164E+03</pdfrwt>
<totfact> 0.95340432E+03</totfact>
</mgrwt>
</event>
<event>
 5    1  0.3486294E-002  0.1250002E+03  0.7818608E-02  0.1235069E+00
          4   -1    0    0  501    0  0.00000000000E+00  0.00000000000E+00  0.40627892481E+02  0.40647737298E+02  0.12700000000E+01 0. -1.
         -4   -1    0    0    0  501 -0.00000000000E+00 -0.00000000000E+00 -0.96099738989E+02  0.96108130425E+02  0.12700000000E+01 0. -1.
         25    2    1    2    0    0  0.00000000000E+00  0.00000000000E+00 -0.55471846508E+02  0.13675586772E+03  0.12500016641E+03 0.  0.
    9000005    1    3    3    0    0  0.19413091669E+02 -0.28482555054E+02  0.29292464385E+02  0.45245690848E+02  0.10000000000E+01 0.  0.
    9000005    1    3    3    0    0 -0.19413091669E+02  0.28482555054E+02 -0.84764310893E+02  0.91510176875E+02  0.10000000000E+01 0.  0.
<mgrwt>
<rscale>  0 0.12500017E+03</rscale>
<asrwt>0</asrwt>
<pdfrwt beam="1">  1        4 0.62526170E-02 0.12500017E+03</pdfrwt>
<pdfrwt beam="2">  1       -4 0.14786747E-01 0.12500017E+03</pdfrwt>
<totfact> 0.10201154E+04</totfact>
</mgrwt>
</event>
<event>
 5    1  0.3486294E-002  0.1249968E+03  0.7818608E-02  0.1235074E+00
         -4   -1    0    0    0  501 -0.00000000000E+00  0.00000000000E+00  0.59384407208E+03  0.59384543010E+03  0.12700000000E+01 0. -1.
          4   -1    0    0  501    0  0.00000000000E+00 -0.00000000000E+00 -0.65148829661E+01  0.66375145998E+01  0.12700000000E+01 0. -1.
         25    2    1    2    0    0  0.00000000000E+00  0.00000000000E+00  0.58732918912E+03  0.60048294470E+03  0.12499676189E+03 0.  0.
    9000005    1    3    3    0    0  0.60462576801E+02  0.15492968551E+02  0.27902042447E+03  0.28591808712E+03  0.10000000000E+01 0.  0.
    9000005    1    3    3    0    0 -0.60462576801E+02 -0.15492968551E+02  0.30830876464E+03  0.31456485758E+03  0.10000000000E+01 0.  0.
<mgrwt>
<rscale>  0 0.12499676E+03</rscale>
<asrwt>0</asrwt>
<pdfrwt beam="2">  1        4 0.10118273E-02 0.12499676E+03</pdfrwt>
<pdfrwt beam="1">  1       -4 0.91370166E-01 0.12499676E+03</pdfrwt>
<totfact> 0.48840606E+03</totfact>
</mgrwt>
</event>
<event>
 5    1  0.3486294E-002  0.1249985E+03  0.7818608E-02  0.1235072E+00
         -4   -1    0    0    0  501 -0.00000000000E+00  0.00000000000E+00  0.27360549274E+03  0.27360844021E+03  0.12700000000E+01 0. -1.
          4   -1    0    0  501    0  0.00000000000E+00 -0.00000000000E+00 -0.14245323962E+02  0.14301823477E+02  0.12700000000E+01 0. -1.
         25    2    1    2    0    0  0.00000000000E+00  0.00000000000E+00  0.25936016877E+03  0.28791026369E+03  0.12499849115E+03 0.  0.
    9000005    1    3    3    0    0  0.62279558851E+02  0.48606781575E+01  0.12583551935E+03  0.14049180607E+03  0.10000000000E+01 0.  0.
    9000005    1    3    3    0    0 -0.62279558851E+02 -0.48606781575E+01  0.13352464942E+03  0.14741845762E+03  0.10000000000E+01 0.  0.
<mgrwt>
<rscale>  0 0.12499849E+03</rscale>
<asrwt>0</asrwt>
<pdfrwt beam="2">  1        4 0.21961611E-02 0.12499849E+03</pdfrwt>
<pdfrwt beam="1">  1       -4 0.42097727E-01 0.12499849E+03</pdfrwt>
<totfact> 0.77143401E+03</totfact>
</mgrwt>
</event>
<event>
 5    1  0.3486294E-002  0.1249984E+03  0.7818608E-02  0.1235072E+00
         -4   -1    0    0    0  501 -0.00000000000E+00  0.00000000000E+00  0.22511485091E+02  0.22547280568E+02  0.12700000000E+01 0. -1.
          4   -1    0    0  501    0  0.00000000000E+00 -0.00000000000E+00 -0.17334226263E+03  0.17334691492E+03  0.12700000000E+01 0. -1.
         25    2    1    2    0    0  0.00000000000E+00  0.00000000000E+00 -0.15083077753E+03  0.19589419549E+03  0.12499844949E+03 0.  0.
    9000005    1    3    3    0    0 -0.47047923727E+02  0.14766574277E+01 -0.10999708282E+02  0.48349573178E+02  0.10000000000E+01 0.  0.
    9000005    1    3    3    0    0  0.47047923727E+02 -0.14766574277E+01 -0.13983106925E+03  0.14754462231E+03  0.10000000000E+01 0.  0.
<mgrwt>
<rscale>  0 0.12499845E+03</rscale>
<asrwt>0</asrwt>
<pdfrwt beam="2">  1        4 0.26671151E-01 0.12499845E+03</pdfrwt>
<pdfrwt beam="1">  1       -4 0.34664169E-02 0.12499845E+03</pdfrwt>
<totfact> 0.90834891E+03</totfact>
</mgrwt>
</event>
<event>
 5    1  0.3486294E-002  0.1250012E+03  0.7818608E-02  0.1235067E+00
         -4   -1    0    0    0  501 -0.00000000000E+00  0.00000000000E+00  0.53622719630E+03  0.53622870023E+03  0.12700000000E+01 0. -1.
          4   -1    0    0  501    0  0.00000000000E+00 -0.00000000000E+00 -0.72279551957E+01  0.73386808291E+01  0.12700000000E+01 0. -1.
         25    2    1    2    0    0  0.00000000000E+00  0.00000000000E+00  0.52899924110E+03  0.54356738106E+03  0.12500120265E+03 0.  0.
    9000005    1    3    3    0    0 -0.58381063795E+02 -0.18678570532E+02  0.31741701877E+03  0.32328285047E+03  0.10000000000E+01 0.  0.
    9000005    1    3    3    0    0  0.58381063795E+02  0.18678570532E+02  0.21158222233E+03  0.22028453058E+03  0.10000000000E+01 0.  0.
<mgrwt>
<rscale>  0 0.12500120E+03</rscale>
<asrwt>0</asrwt>
<pdfrwt beam="2">  1        4 0.11206260E-02 0.12500120E+03</pdfrwt>
<pdfrwt beam="1">  1       -4 0.82505136E-01 0.12500120E+03</pdfrwt>
<totfact> 0.52634340E+03</totfact>
</mgrwt>
</event>
<event>
 5    1  0.3486294E-002  0.1250002E+03  0.7818608E-02  0.1235069E+00
         -4   -1    0    0    0  501 -0.00000000000E+00  0.00000000000E+00  0.18496542039E+03  0.18496978034E+03  0.12700000000E+01 0.  1.
          4   -1    0    0  501    0  0.00000000000E+00 -0.00000000000E+00 -0.21095182272E+02  0.21133376802E+02  0.12700000000E+01 0.  1.
         25    2    1    2    0    0  0.00000000000E+00  0.00000000000E+00  0.16387023812E+03  0.20610315715E+03  0.12500022578E+03 0.  0.
    9000005    1    3    3    0    0  0.24643033787E+01  0.56516696764E+02  0.38154174009E+02  0.68241855181E+02  0.10000000000E+01 0.  0.
    9000005    1    3    3    0    0 -0.24643033787E+01 -0.56516696764E+02  0.12571606411E+03  0.13786130197E+03  0.10000000000E+01 0.  0.
<mgrwt>
<rscale>  0 0.12500023E+03</rscale>
<asrwt>0</asrwt>
<pdfrwt beam="2">  1        4 0.32486860E-02 0.12500023E+03</pdfrwt>
<pdfrwt beam="1">  1       -4 0.28459492E-01 0.12500023E+03</pdfrwt>
<totfact> 0.89115816E+03</totfact>
</mgrwt>
</event>
<event>
 5    1  0.3486294E-002  0.1249974E+03  0.7818608E-02  0.1235073E+00
         -4   -1    0    0    0  501 -0.00000000000E+00  0.00000000000E+00  0.64814079496E+02  0.64826520815E+02  0.12700000000E+01 0. -1.
          4   -1    0    0  501    0  0.00000000000E+00 -0.00000000000E+00 -0.60241092753E+02  0.60254478307E+02  0.12700000000E+01 0. -1.
         25    2    1    2    0    0  0.00000000000E+00  0.00000000000E+00  0.45729867432E+01  0.12508099912E+03  0.12499737651E+03 0.  0.
    9000005    1    3    3    0    0  0.12666047639E+02 -0.36094271966E+02 -0.47161753107E+02  0.60732661622E+02  0.10000000000E+01 0.  0.
    9000005    1    3    3    0    0 -0.12666047639E+02  0.36094271966E+02  0.51734739850E+02  0.64348337499E+02  0.10000000000E+01 0.  0.
<mgrwt>
<rscale>  0 0.12499738E+03</rscale>
<asrwt>0</asrwt>
<pdfrwt beam="2">  1        4 0.92698471E-02 0.12499738E+03</pdfrwt>
<pdfrwt beam="1">  1       -4 0.99733835E-02 0.12499738E+03</pdfrwt>
<totfact> 0.10451723E+04</totfact>
</mgrwt>
</event>
<event>
 5    1  0.3486294E-002  0.1249981E+03  0.7818608E-02  0.1235072E+00
          4   -1    0    0  501    0  0.00000000000E+00  0.00000000000E+00  0.55749446059E+03  0.55749590715E+03  0.12700000000E+01 0.  1.
         -4   -1    0    0    0  501 -0.00000000000E+00 -0.00000000000E+00 -0.69475619191E+01  0.70626848025E+01  0.12700000000E+01 0.  1.
         25    2    1    2    0    0  0.00000000000E+00  0.00000000000E+00  0.55054689867E+03  0.56455859195E+03  0.12499806443E+03 0.  0.
    9000005    1    3    3    0    0  0.33035832838E+02  0.14104278572E+01  0.51476814418E+03  0.51583000865E+03  0.10000000000E+01 0.  0.
    9000005    1    3    3    0    0 -0.33035832838E+02 -0.14104278572E+01  0.35778754491E+02  0.48728583305E+02  0.10000000000E+01 0.  0.
<mgrwt>
<rscale>  0 0.12499806E+03</rscale>
<asrwt>0</asrwt>
<pdfrwt beam="1">  1        4 0.85777357E-01 0.12499806E+03</pdfrwt>
<pdfrwt beam="2">  1       -4 0.10778224E-02 0.12499806E+03</pdfrwt>
<totfact> 0.51186194E+03</totfact>
</mgrwt>
</event>
<event>
 5    1  0.3486294E-002  0.1249967E+03  0.7818608E-02  0.1235074E+00
         -4   -1    0    0    0  501 -0.00000000000E+00  0.00000000000E+00  0.25922850834E+01  0.28866662353E+01  0.12700000000E+01 0.  1.
          4   -1    0    0  501    0  0.00000000000E+00 -0.00000000000E+00 -0.14255408119E+04  0.14255413776E+04  0.12700000000E+01 0.  1.
         25    2    1    2    0    0  0.00000000000E+00  0.00000000000E+00 -0.14229485268E+04  0.14284280439E+04  0.12499666591E+03 0.  0.
    9000005    1    3    3    0    0 -0.26104215237E+02 -0.56305726428E+02 -0.79488630710E+03  0.79730609310E+03  0.10000000000E+01 0.  0.
    9000005    1    3    3    0    0  0.26104215237E+02  0.56305726428E+02 -0.62806221973E+03  0.63112195076E+03  0.10000000000E+01 0.  0.
<mgrwt>
<rscale>  0 0.12499667E+03</rscale>
<asrwt>0</asrwt>
<pdfrwt beam="2">  1        4 0.21933607E+00 0.12499667E+03</pdfrwt>
<pdfrwt beam="1">  1       -4 0.42150245E-03 0.12499667E+03</pdfrwt>
<totfact> 0.19380468E+03</totfact>
</mgrwt>
</event>
<event>
 5    1  0.3486294E-002  0.1250035E+03  0.7818608E-02  0.1235064E+00
         -4   -1    0    0    0  501 -0.00000000000E+00  0.00000000000E+00  0.40684277547E+02  0.40704094874E+02  0.12700000000E+01 0. -1.
          4   -1    0    0  501    0  0.00000000000E+00 -0.00000000000E+00 -0.95971710973E+02  0.95980113602E+02  0.12700000000E+01 0. -1.
         25    2    1    2    0    0  0.00000000000E+00  0.00000000000E+00 -0.55287433426E+02  0.13668420848E+03  0.12500349016E+03 0.  0.
    9000005    1    3    3    0    0 -0.49864334980E+02  0.31293337976E+02 -0.47141532894E+01  0.59067318764E+02  0.10000000000E+01 0.  0.
    9000005    1    3    3    0    0  0.49864334980E+02 -0.31293337976E+02 -0.50573280137E+02  0.77616889712E+02  0.10000000000E+01 0.  0.
<mgrwt>
<rscale>  0 0.12500349E+03</rscale>
<asrwt>0</asrwt>
<pdfrwt beam="2">  1        4 0.14767049E-01 0.12500349E+03</pdfrwt>
<pdfrwt beam="1">  1       -4 0.62612904E-02 0.12500349E+03</pdfrwt>
<totfact> 0.10201890E+04</totfact>
</mgrwt>
</event>
<event>
 5    1  0.3486294E-002  0.1250002E+03  0.7818608E-02  0.1235069E+00
         -4   -1    0    0    0  501 -0.00000000000E+00  0.00000000000E+00  0.23249902233E+02  0.23284562565E+02  0.12700000000E+01 0. -1.
          4   -1    0    0  501    0  0.00000000000E+00 -0.00000000000E+00 -0.16784969590E+03  0.16785450042E+03  0.12700000000E+01 0. -1.
         25    2    1    2    0    0  0.00000000000E+00  0.00000000000E+00 -0.14459979366E+03  0.19113906299E+03  0.12500016429E+03 0.  0.
    9000005    1    3    3    0    0  0.18302979514E+02  0.59474395902E+02 -0.63508184176E+02  0.88918458625E+02  0.10000000000E+01 0.  0.
    9000005    1    3    3    0    0 -0.18302979514E+02 -0.59474395902E+02 -0.81091609487E+02  0.10222060436E+03  0.10000000000E+01 0.  0.
<mgrwt>
<rscale>  0 0.12500016E+03</rscale>
<asrwt>0</asrwt>
<pdfrwt beam="2">  1        4 0.25826065E-01 0.12500016E+03</pdfrwt>
<pdfrwt beam="1">  1       -4 0.35799439E-02 0.12500016E+03</pdfrwt>
<totfact> 0.91649162E+03</totfact>
</mgrwt>
</event>
<event>
 5    1  0.3486294E-002  0.1250042E+03  0.7818608E-02  0.1235063E+00
          4   -1    0    0  501    0  0.00000000000E+00  0.00000000000E+00  0.19876070340E+02  0.19916602927E+02  0.12700000000E+01 0.  1.
         -4   -1    0    0    0  501 -0.00000000000E+00 -0.00000000000E+00 -0.19630086149E+03  0.19630496968E+03  0.12700000000E+01 0.  1.
         25    2    1    2    0    0  0.00000000000E+00  0.00000000000E+00 -0.17642479115E+03  0.21622157261E+03  0.12500424605E+03 0.  0.
    9000005    1    3    3    0    0 -0.23768052435E+02  0.45960995786E+02 -0.14883095464E+03  0.15757216287E+03  0.10000000000E+01 0.  0.
    9000005    1    3    3    0    0  0.23768052435E+02 -0.45960995786E+02 -0.27593836510E+02  0.58649409746E+02  0.10000000000E+01 0.  0.
<mgrwt>
<rscale>  0 0.12500425E+03</rscale>
<asrwt>0</asrwt>
<pdfrwt beam="1">  1        4 0.30612910E-02 0.12500425E+03</pdfrwt>
<pdfrwt beam="2">  1       -4 0.30203565E-01 0.12500425E+03</pdfrwt>
<totfact> 0.87461492E+03</totfact>
</mgrwt>
</event>
<event>
 5    1  0.3486294E-002  0.1249956E+03  0.7818608E-02  0.1235076E+00
          4   -1    0    0  501    0  0.00000000000E+00  0.00000000000E+00  0.54767254642E+02  0.54781977702E+02  0.12700000000E+01 0. -1.
         -4   -1    0    0    0  501 -0.00000000000E+00 -0.00000000000E+00 -0.71289596709E+02  0.71300908122E+02  0.12700000000E+01 0. -1.
         25    2    1    2    0    0  0.00000000000E+00  0.00000000000E+00 -0.16522342067E+02  0.12608288582E+03  0.12499562516E+03 0.  0.
    9000005    1    3    3    0    0 -0.36666658295E+02  0.42683061961E+02 -0.35676416217E+02  0.66634032468E+02  0.10000000000E+01 0.  0.
    9000005    1    3    3    0    0  0.36666658295E+02 -0.42683061961E+02  0.19154074149E+02  0.59448853356E+02  0.10000000000E+01 0.  0.
<mgrwt>
<rscale>  0 0.12499563E+03</rscale>
<asrwt>0</asrwt>
<pdfrwt beam="1">  1        4 0.84277341E-02 0.12499563E+03</pdfrwt>
<pdfrwt beam="2">  1       -4 0.10969633E-01 0.12499563E+03</pdfrwt>
<totfact> 0.10430171E+04</totfact>
</mgrwt>
</event>
<event>
 5    1  0.3486294E-002  0.1250447E+03  0.7818608E-02  0.1234999E+00
          4   -1    0    0  501    0  0.00000000000E+00  0.00000000000E+00  0.65532059830E+03  0.65532182892E+03  0.12700000000E+01 0.  1.
         -4   -1    0    0    0  501 -0.00000000000E+00 -0.00000000000E+00 -0.58962406266E+01  0.60314636305E+01  0.12700000000E+01 0.  1.
         25    2    1    2    0    0  0.00000000000E+00  0.00000000000E+00  0.64942435767E+03  0.66135329255E+03  0.12504471690E+03 0.  0.
    9000005    1    3    3    0    0  0.36965815795E+02  0.32907554490E+02  0.52670977241E+03  0.52903077702E+03  0.10000000000E+01 0.  0.
    9000005    1    3    3    0    0 -0.36965815795E+02 -0.32907554490E+02  0.12271458526E+03  0.13232251553E+03  0.10000000000E+01 0.  0.
<mgrwt>
<rscale>  0 0.12504472E+03</rscale>
<asrwt>0</asrwt>
<pdfrwt beam="1">  1        4 0.10082904E+00 0.12504472E+03</pdfrwt>
<pdfrwt beam="2">  1       -4 0.91761043E-03 0.12504472E+03</pdfrwt>
<totfact> 0.45162460E+03</totfact>
</mgrwt>
</event>
<event>
 5    1  0.3486294E-002  0.1250002E+03  0.7818608E-02  0.1235069E+00
         -4   -1    0    0    0  501 -0.00000000000E+00  0.00000000000E+00  0.67232174032E+03  0.67232293982E+03  0.12700000000E+01 0. -1.
          4   -1    0    0  501    0  0.00000000000E+00 -0.00000000000E+00 -0.57394866240E+01  0.58783166559E+01  0.12700000000E+01 0. -1.
         25    2    1    2    0    0  0.00000000000E+00  0.00000000000E+00  0.66658225370E+03  0.67820125647E+03  0.12500017337E+03 0.  0.
    9000005    1    3    3    0    0 -0.15679237982E+02 -0.50897606067E+02  0.15590993028E+03  0.16475834172E+03  0.10000000000E+01 0.  0.
    9000005    1    3    3    0    0  0.15679237982E+02  0.50897606067E+02  0.51067232342E+03  0.51344291475E+03  0.10000000000E+01 0.  0.
<mgrwt>
<rscale>  0 0.12500017E+03</rscale>
<asrwt>0</asrwt>
<pdfrwt beam="2">  1        4 0.89376999E-03 0.12500017E+03</pdfrwt>
<pdfrwt beam="1">  1       -4 0.10344482E+00 0.12500017E+03</pdfrwt>
<totfact> 0.44262530E+03</totfact>
</mgrwt>
</event>
<event>
 5    1  0.3486294E-002  0.1249979E+03  0.7818608E-02  0.1235073E+00
          4   -1    0    0  501    0  0.00000000000E+00  0.00000000000E+00  0.68647818592E+02  0.68659565229E+02  0.12700000000E+01 0. -1.
         -4   -1    0    0    0  501 -0.00000000000E+00 -0.00000000000E+00 -0.56877096542E+02  0.56891273593E+02  0.12700000000E+01 0. -1.
         25    2    1    2    0    0  0.00000000000E+00  0.00000000000E+00  0.11770722050E+02  0.12555083882E+03  0.12499785291E+03 0.  0.
    9000005    1    3    3    0    0  0.59763068269E+01 -0.58484996237E+02  0.27166466305E+02  0.64770579121E+02  0.10000000000E+01 0.  0.
    9000005    1    3    3    0    0 -0.59763068269E+01  0.58484996237E+02 -0.15395744255E+02  0.60780259701E+02  0.10000000000E+01 0.  0.
<mgrwt>
<rscale>  0 0.12499785E+03</rscale>
<asrwt>0</asrwt>
<pdfrwt beam="1">  1        4 0.10563197E-01 0.12499785E+03</pdfrwt>
<pdfrwt beam="2">  1       -4 0.87523167E-02 0.12499785E+03</pdfrwt>
<totfact> 0.10441337E+04</totfact>
</mgrwt>
</event>
<event>
 5    1  0.3486294E-002  0.1250008E+03  0.7818608E-02  0.1235068E+00
         -4   -1    0    0    0  501 -0.00000000000E+00  0.00000000000E+00  0.91547331865E+02  0.91556140546E+02  0.12700000000E+01 0.  1.
          4   -1    0    0  501    0  0.00000000000E+00 -0.00000000000E+00 -0.42649430547E+02  0.42668335167E+02  0.12700000000E+01 0.  1.
         25    2    1    2    0    0  0.00000000000E+00  0.00000000000E+00  0.48897901318E+02  0.13422447571E+03  0.12500082051E+03 0.  0.
    9000005    1    3    3    0    0 -0.40863775208E-01  0.62492020436E+02  0.24216174404E+02  0.67027437597E+02  0.10000000000E+01 0.  0.
    9000005    1    3    3    0    0  0.40863775208E-01 -0.62492020436E+02  0.24681726915E+02  0.67197038116E+02  0.10000000000E+01 0.  0.
<mgrwt>
<rscale>  0 0.12500082E+03</rscale>
<asrwt>0</asrwt>
<pdfrwt beam="2">  1        4 0.65635828E-02 0.12500082E+03</pdfrwt>
<pdfrwt beam="1">  1       -4 0.14086336E-01 0.12500082E+03</pdfrwt>
<totfact> 0.10254253E+04</totfact>
</mgrwt>
</event>
<event>
 5    1  0.3486294E-002  0.1249885E+03  0.7818608E-02  0.1235087E+00
          4   -1    0    0  501    0  0.00000000000E+00  0.00000000000E+00  0.11279843413E+03  0.11280558338E+03  0.12700000000E+01 0. -1.
         -4   -1    0    0    0  501 -0.00000000000E+00 -0.00000000000E+00 -0.34604097952E+02  0.34627395153E+02  0.12700000000E+01 0. -1.
         25    2    1    2    0    0  0.00000000000E+00  0.00000000000E+00  0.78194336174E+02  0.14743297853E+03  0.12498851527E+03 0.  0.
    9000005    1    3    3    0    0  0.20421589120E+02  0.30349690850E+02 -0.20659396335E+02  0.42023275620E+02  0.10000000000E+01 0.  0.
    9000005    1    3    3    0    0 -0.20421589120E+02 -0.30349690850E+02  0.98853732509E+02  0.10540970291E+03  0.10000000000E+01 0.  0.
<mgrwt>
<rscale>  0 0.12498852E+03</rscale>
<asrwt>0</asrwt>
<pdfrwt beam="1">  1        4 0.17355947E-01 0.12498852E+03</pdfrwt>
<pdfrwt beam="2">  1       -4 0.53260494E-02 0.12498852E+03</pdfrwt>
<totfact> 0.99843690E+03</totfact>
</mgrwt>
</event>
<event>
 5    1  0.3486294E-002  0.1249920E+03  0.7818608E-02  0.1235082E+00
         -4   -1    0    0    0  501 -0.00000000000E+00  0.00000000000E+00  0.13894389099E+02  0.13952309789E+02  0.12700000000E+01 0. -1.
          4   -1    0    0  501    0  0.00000000000E+00 -0.00000000000E+00 -0.28045857122E+03  0.28046144667E+03  0.12700000000E+01 0. -1.
         25    2    1    2    0    0  0.00000000000E+00  0.00000000000E+00 -0.26656418212E+03  0.29441375646E+03  0.12499198696E+03 0.  0.
    9000005    1    3    3    0    0  0.42552912158E+02 -0.24783868251E+02 -0.42673081370E+02  0.65168875487E+02  0.10000000000E+01 0.  0.
    9000005    1    3    3    0    0 -0.42552912158E+02  0.24783868251E+02 -0.22389110075E+03  0.22924488097E+03  0.10000000000E+01 0.  0.
<mgrwt>
<rscale>  0 0.12499199E+03</rscale>
<asrwt>0</asrwt>
<pdfrwt beam="2">  1        4 0.43152145E-01 0.12499199E+03</pdfrwt>
<pdfrwt beam="1">  1       -4 0.21422752E-02 0.12499199E+03</pdfrwt>
<totfact> 0.76318534E+03</totfact>
</mgrwt>
</event>
<event>
 5    1  0.3486294E-002  0.1250018E+03  0.7818608E-02  0.1235067E+00
         -4   -1    0    0    0  501 -0.00000000000E+00  0.00000000000E+00  0.10936521900E+03  0.10937259267E+03  0.12700000000E+01 0. -1.
          4   -1    0    0  501    0  0.00000000000E+00 -0.00000000000E+00 -0.35698622712E+02  0.35721206077E+02  0.12700000000E+01 0. -1.
         25    2    1    2    0    0  0.00000000000E+00  0.00000000000E+00  0.73666596292E+02  0.14509379875E+03  0.12500177209E+03 0.  0.
    9000005    1    3    3    0    0  0.45625390802E+02  0.32774731357E+02  0.68610739187E+02  0.88680848175E+02  0.10000000000E+01 0.  0.
    9000005    1    3    3    0    0 -0.45625390802E+02 -0.32774731357E+02  0.50558571049E+01  0.56412950573E+02  0.10000000000E+01 0.  0.
<mgrwt>
<rscale>  0 0.12500177E+03</rscale>
<asrwt>0</asrwt>
<pdfrwt beam="2">  1        4 0.54944003E-02 0.12500177E+03</pdfrwt>
<pdfrwt beam="1">  1       -4 0.16827722E-01 0.12500177E+03</pdfrwt>
<totfact> 0.10028683E+04</totfact>
</mgrwt>
</event>
<event>
 5    1  0.3486294E-002  0.1250000E+03  0.7818608E-02  0.1235069E+00
          4   -1    0    0  501    0  0.00000000000E+00  0.00000000000E+00  0.59933089410E+01  0.61263898066E+01  0.12700000000E+01 0.  1.
         -4   -1    0    0    0  501 -0.00000000000E+00 -0.00000000000E+00 -0.64447771640E+03  0.64447896772E+03  0.12700000000E+01 0.  1.
         25    2    1    2    0    0  0.00000000000E+00  0.00000000000E+00 -0.63848440746E+03  0.65060535753E+03  0.12499997071E+03 0.  0.
    9000005    1    3    3    0    0 -0.26208759679E+02  0.33267415336E+02 -0.80066838007E+02  0.90583213431E+02  0.10000000000E+01 0.  0.
    9000005    1    3    3    0    0  0.26208759679E+02 -0.33267415336E+02 -0.55841756945E+03  0.56002214410E+03  0.10000000000E+01 0.  0.
<mgrwt>
<rscale>  0 0.12499997E+03</rscale>
<asrwt>0</asrwt>
<pdfrwt beam="1">  1        4 0.93238128E-03 0.12499997E+03</pdfrwt>
<pdfrwt beam="2">  1       -4 0.99160697E-01 0.12499997E+03</pdfrwt>
<totfact> 0.45821371E+03</totfact>
</mgrwt>
</event>
<event>
 5    1  0.3486294E-002  0.1250008E+03  0.7818608E-02  0.1235068E+00
          4   -1    0    0  501    0  0.00000000000E+00  0.00000000000E+00  0.27932886864E+02  0.27961742945E+02  0.12700000000E+01 0.  1.
         -4   -1    0    0    0  501 -0.00000000000E+00 -0.00000000000E+00 -0.13974205738E+03  0.13974782825E+03  0.12700000000E+01 0.  1.
         25    2    1    2    0    0  0.00000000000E+00  0.00000000000E+00 -0.11180917052E+03  0.16770957120E+03  0.12500083863E+03 0.  0.
    9000005    1    3    3    0    0  0.54527534916E+01  0.58736119119E+02 -0.28224640226E+02  0.65401028475E+02  0.10000000000E+01 0.  0.
    9000005    1    3    3    0    0 -0.54527534916E+01 -0.58736119119E+02 -0.83584530290E+02  0.10230854272E+03  0.10000000000E+01 0.  0.
<mgrwt>
<rscale>  0 0.12500084E+03</rscale>
<asrwt>0</asrwt>
<pdfrwt beam="1">  1        4 0.43000309E-02 0.12500084E+03</pdfrwt>
<pdfrwt beam="2">  1       -4 0.21501441E-01 0.12500084E+03</pdfrwt>
<totfact> 0.95874884E+03</totfact>
</mgrwt>
</event>
<event>
 5    1  0.3486294E-002  0.1250047E+03  0.7818608E-02  0.1235062E+00
         -4   -1    0    0    0  501 -0.00000000000E+00  0.00000000000E+00  0.99834115028E+01  0.10063866316E+02  0.12700000000E+01 0. -1.
          4   -1    0    0  501    0  0.00000000000E+00 -0.00000000000E+00 -0.38965141336E+03  0.38965348302E+03  0.12700000000E+01 0. -1.
         25    2    1    2    0    0  0.00000000000E+00  0.00000000000E+00 -0.37966800186E+03  0.39971734934E+03  0.12500467083E+03 0.  0.
    9000005    1    3    3    0    0 -0.70808653673E+01 -0.51317798094E+02 -0.30160837801E+03  0.30602658175E+03  0.10000000000E+01 0.  0.
    9000005    1    3    3    0    0  0.70808653673E+01  0.51317798094E+02 -0.78059623850E+02  0.93690767588E+02  0.10000000000E+01 0.  0.
<mgrwt>
<rscale>  0 0.12500467E+03</rscale>
<asrwt>0</asrwt>
<pdfrwt beam="2">  1        4 0.59952708E-01 0.12500467E+03</pdfrwt>
<pdfrwt beam="1">  1       -4 0.15422578E-02 0.12500467E+03</pdfrwt>
<totfact> 0.64573635E+03</totfact>
</mgrwt>
</event>
<event>
 5    1  0.3486294E-002  0.1250020E+03  0.7818608E-02  0.1235066E+00
         -4   -1    0    0    0  501 -0.00000000000E+00  0.00000000000E+00  0.62095498219E+01  0.63380919046E+01  0.12700000000E+01 0.  1.
          4   -1    0    0  501    0  0.00000000000E+00 -0.00000000000E+00 -0.62251722810E+03  0.62251852357E+03  0.12700000000E+01 0.  1.
         25    2    1    2    0    0  0.00000000000E+00  0.00000000000E+00 -0.61630767828E+03  0.62885661547E+03  0.12500195405E+03 0.  0.
    9000005    1    3    3    0    0  0.13250133993E+01  0.70572086950E+00 -0.62245117250E+03  0.62245378612E+03  0.10000000000E+01 0.  0.
    9000005    1    3    3    0    0 -0.13250133993E+01 -0.70572086950E+00  0.61434942232E+01  0.64028293530E+01  0.10000000000E+01 0.  0.
<mgrwt>
<rscale>  0 0.12500195E+03</rscale>
<asrwt>0</asrwt>
<pdfrwt beam="2">  1        4 0.95781820E-01 0.12500195E+03</pdfrwt>
<pdfrwt beam="1">  1       -4 0.96530336E-03 0.12500195E+03</pdfrwt>
<totfact> 0.47093332E+03</totfact>
</mgrwt>
</event>
<event>
 5    1  0.3486294E-002  0.1249995E+03  0.7818608E-02  0.1235070E+00
         -4   -1    0    0    0  501 -0.00000000000E+00  0.00000000000E+00  0.10885007942E+03  0.10885748798E+03  0.12700000000E+01 0.  1.
          4   -1    0    0  501    0  0.00000000000E+00 -0.00000000000E+00 -0.35866338578E+02  0.35888816406E+02  0.12700000000E+01 0.  1.
         25    2    1    2    0    0  0.00000000000E+00  0.00000000000E+00  0.72983740843E+02  0.14474630439E+03  0.12499946483E+03 0.  0.
    9000005    1    3    3    0    0  0.46322280062E+02  0.11308570761E+02  0.83265751156E+02  0.95957400539E+02  0.10000000000E+01 0.  0.
    9000005    1    3    3    0    0 -0.46322280062E+02 -0.11308570761E+02 -0.10282010313E+02  0.48788903849E+02  0.10000000000E+01 0.  0.
<mgrwt>
<rscale>  0 0.12499946E+03</rscale>
<asrwt>0</asrwt>
<pdfrwt beam="2">  1        4 0.55201974E-02 0.12499946E+03</pdfrwt>
<pdfrwt beam="1">  1       -4 0.16748464E-01 0.12499946E+03</pdfrwt>
<totfact> 0.10036266E+04</totfact>
</mgrwt>
</event>
<event>
 5    1  0.3486294E-002  0.1249979E+03  0.7818608E-02  0.1235073E+00
         -4   -1    0    0    0  501 -0.00000000000E+00  0.00000000000E+00  0.38528510541E+02  0.38549436111E+02  0.12700000000E+01 0.  1.
          4   -1    0    0  501    0  0.00000000000E+00 -0.00000000000E+00 -0.10133014653E+03  0.10133810486E+03  0.12700000000E+01 0.  1.
         25    2    1    2    0    0  0.00000000000E+00  0.00000000000E+00 -0.62801635993E+02  0.13988754097E+03  0.12499791452E+03 0.  0.
    9000005    1    3    3    0    0 -0.54410909396E+02  0.23436951716E+02 -0.53650803295E+02  0.79932762127E+02  0.10000000000E+01 0.  0.
    9000005    1    3    3    0    0  0.54410909396E+02 -0.23436951716E+02 -0.91508326977E+01  0.59954778843E+02  0.10000000000E+01 0.  0.
<mgrwt>
<rscale>  0 0.12499791E+03</rscale>
<asrwt>0</asrwt>
<pdfrwt beam="2">  1        4 0.15591475E-01 0.12499791E+03</pdfrwt>
<pdfrwt beam="1">  1       -4 0.59296850E-02 0.12499791E+03</pdfrwt>
<totfact> 0.10136393E+04</totfact>
</mgrwt>
</event>
<event>
 5    1  0.3486294E-002  0.1250009E+03  0.7818608E-02  0.1235068E+00
          4   -1    0    0  501    0  0.00000000000E+00  0.00000000000E+00  0.74433026532E+03  0.74433134878E+03  0.12700000000E+01 0.  1.
         -4   -1    0    0    0  501 -0.00000000000E+00 -0.00000000000E+00 -0.51701452092E+01  0.53238427367E+01  0.12700000000E+01 0.  1.
         25    2    1    2    0    0  0.00000000000E+00  0.00000000000E+00  0.73916012011E+03  0.74965519151E+03  0.12500089200E+03 0.  0.
    9000005    1    3    3    0    0  0.29326186050E+02  0.39735399730E+02  0.13992739303E+03  0.14839003504E+03  0.10000000000E+01 0.  0.
    9000005    1    3    3    0    0 -0.29326186050E+02 -0.39735399730E+02  0.59923272708E+03  0.60126515647E+03  0.10000000000E+01 0.  0.
<mgrwt>
<rscale>  0 0.12500089E+03</rscale>
<asrwt>0</asrwt>
<pdfrwt beam="1">  1        4 0.11452425E+00 0.12500089E+03</pdfrwt>
<pdfrwt beam="2">  1       -4 0.80731325E-03 0.12500089E+03</pdfrwt>
<totfact> 0.40589843E+03</totfact>
</mgrwt>
</event>
<event>
 5    1  0.3486294E-002  0.1250005E+03  0.7818608E-02  0.1235069E+00
          4   -1    0    0  501    0  0.00000000000E+00  0.00000000000E+00  0.60664731967E+02  0.60678024067E+02  0.12700000000E+01 0. -1.
         -4   -1    0    0    0  501 -0.00000000000E+00 -0.00000000000E+00 -0.64364673551E+02  0.64377201721E+02  0.12700000000E+01 0. -1.
         25    2    1    2    0    0  0.00000000000E+00  0.00000000000E+00 -0.36999415844E+01  0.12505522579E+03  0.12500047972E+03 0.  0.
    9000005    1    3    3    0    0 -0.29545342729E+02 -0.35193396647E+02 -0.44221530973E+02  0.63781237415E+02  0.10000000000E+01 0.  0.
    9000005    1    3    3    0    0  0.29545342729E+02  0.35193396647E+02  0.40521589389E+02  0.61273988373E+02  0.10000000000E+01 0.  0.
<mgrwt>
<rscale>  0 0.12500048E+03</rscale>
<asrwt>0</asrwt>
<pdfrwt beam="1">  1        4 0.93350218E-02 0.12500048E+03</pdfrwt>
<pdfrwt beam="2">  1       -4 0.99042437E-02 0.12500048E+03</pdfrwt>
<totfact> 0.10451550E+04</totfact>
</mgrwt>
</event>
<event>
 5    1  0.3486294E-002  0.1250092E+03  0.7818608E-02  0.1235055E+00
         -4   -1    0    0    0  501 -0.00000000000E+00  0.00000000000E+00  0.49079699069E+02  0.49096127756E+02  0.12700000000E+01 0.  1.
          4   -1    0    0  501    0  0.00000000000E+00 -0.00000000000E+00 -0.79566785096E+02  0.79576919961E+02  0.12700000000E+01 0.  1.
         25    2    1    2    0    0  0.00000000000E+00  0.00000000000E+00 -0.30487086027E+02  0.12867304772E+03  0.12500916284E+03 0.  0.
    9000005    1    3    3    0    0  0.12086141695E+02  0.45674087591E+02  0.26865453890E+02  0.54359449142E+02  0.10000000000E+01 0.  0.
    9000005    1    3    3    0    0 -0.12086141695E+02 -0.45674087591E+02 -0.57352539917E+02  0.74313598576E+02  0.10000000000E+01 0.  0.
<mgrwt>
<rscale>  0 0.12500916E+03</rscale>
<asrwt>0</asrwt>
<pdfrwt beam="2">  1        4 0.12243087E-01 0.12500916E+03</pdfrwt>
<pdfrwt beam="1">  1       -4 0.75527663E-02 0.12500916E+03</pdfrwt>
<totfact> 0.10370832E+04</totfact>
</mgrwt>
</event>
<event>
 5    1  0.3486294E-002  0.1249999E+03  0.7818608E-02  0.1235069E+00
          4   -1    0    0  501    0  0.00000000000E+00  0.00000000000E+00  0.10262562512E+03  0.10263348299E+03  0.12700000000E+01 0. -1.
         -4   -1    0    0    0  501 -0.00000000000E+00 -0.00000000000E+00 -0.38043143633E+02  0.38064336031E+02  0.12700000000E+01 0. -1.
         25    2    1    2    0    0  0.00000000000E+00  0.00000000000E+00  0.64582481486E+02  0.14069781902E+03  0.12499991745E+03 0.  0.
    9000005    1    3    3    0    0  0.34858912273E+02  0.50337010597E+02  0.18219808996E+02  0.63889904059E+02  0.10000000000E+01 0.  0.
    9000005    1    3    3    0    0 -0.34858912273E+02 -0.50337010597E+02  0.46362672491E+02  0.76807914965E+02  0.10000000000E+01 0.  0.
<mgrwt>
<rscale>  0 0.12499992E+03</rscale>
<asrwt>0</asrwt>
<pdfrwt beam="1">  1        4 0.15790792E-01 0.12499992E+03</pdfrwt>
<pdfrwt beam="2">  1       -4 0.58550260E-02 0.12499992E+03</pdfrwt>
<totfact> 0.10119162E+04</totfact>
</mgrwt>
</event>
<event>
 5    1  0.3486294E-002  0.1249848E+03  0.7818608E-02  0.1235093E+00
          4   -1    0    0  501    0  0.00000000000E+00  0.00000000000E+00  0.19735819750E+02  0.19776639786E+02  0.12700000000E+01 0.  1.
         -4   -1    0    0    0  501 -0.00000000000E+00 -0.00000000000E+00 -0.19763161994E+03  0.19763570047E+03  0.12700000000E+01 0.  1.
         25    2    1    2    0    0  0.00000000000E+00  0.00000000000E+00 -0.17789580019E+03  0.21741234026E+03  0.12498483896E+03 0.  0.
    9000005    1    3    3    0    0  0.29681339510E+02 -0.53968558952E+02 -0.70644552649E+02  0.93729611594E+02  0.10000000000E+01 0.  0.
    9000005    1    3    3    0    0 -0.29681339510E+02  0.53968558952E+02 -0.10725124754E+03  0.12368272867E+03  0.10000000000E+01 0.  0.
<mgrwt>
<rscale>  0 0.12498484E+03</rscale>
<asrwt>0</asrwt>
<pdfrwt beam="1">  1        4 0.30397340E-02 0.12498484E+03</pdfrwt>
<pdfrwt beam="2">  1       -4 0.30408317E-01 0.12498484E+03</pdfrwt>
<totfact> 0.87309047E+03</totfact>
</mgrwt>
</event>
<event>
 5    1  0.3486294E-002  0.1250005E+03  0.7818608E-02  0.1235069E+00
         -4   -1    0    0    0  501 -0.00000000000E+00  0.00000000000E+00  0.90038667093E+01  0.90929926712E+01  0.12700000000E+01 0. -1.
          4   -1    0    0  501    0  0.00000000000E+00 -0.00000000000E+00 -0.43161806593E+03  0.43161993436E+03  0.12700000000E+01 0. -1.
         25    2    1    2    0    0  0.00000000000E+00  0.00000000000E+00 -0.42261419923E+03  0.44071292704E+03  0.12500049068E+03 0.  0.
    9000005    1    3    3    0    0  0.36047405622E+02 -0.42954306331E+02 -0.11405986422E+03  0.12710287373E+03  0.10000000000E+01 0.  0.
    9000005    1    3    3    0    0 -0.36047405622E+02  0.42954306331E+02 -0.30855433500E+03  0.31361005331E+03  0.10000000000E+01 0.  0.
<mgrwt>
<rscale>  0 0.12500049E+03</rscale>
<asrwt>0</asrwt>
<pdfrwt beam="2">  1        4 0.66409763E-01 0.12500049E+03</pdfrwt>
<pdfrwt beam="1">  1       -4 0.13922102E-02 0.12500049E+03</pdfrwt>
<totfact> 0.60776140E+03</totfact>
</mgrwt>
</event>
<event>
 5    1  0.3486294E-002  0.1249991E+03  0.7818608E-02  0.1235071E+00
         -4   -1    0    0    0  501 -0.00000000000E+00  0.00000000000E+00  0.11296541078E+03  0.11297254946E+03  0.12700000000E+01 0.  1.
          4   -1    0    0  501    0  0.00000000000E+00 -0.00000000000E+00 -0.34558748301E+02  0.34582076053E+02  0.12700000000E+01 0.  1.
         25    2    1    2    0    0  0.00000000000E+00  0.00000000000E+00  0.78406662478E+02  0.14755462552E+03  0.12499905116E+03 0.  0.
    9000005    1    3    3    0    0  0.15465997373E+02  0.20874319113E+02  0.10629438472E+03  0.10942774098E+03  0.10000000000E+01 0.  0.
    9000005    1    3    3    0    0 -0.15465997373E+02 -0.20874319113E+02 -0.27887722238E+02  0.38126884541E+02  0.10000000000E+01 0.  0.
<mgrwt>
<rscale>  0 0.12499905E+03</rscale>
<asrwt>0</asrwt>
<pdfrwt beam="2">  1        4 0.53190741E-02 0.12499905E+03</pdfrwt>
<pdfrwt beam="1">  1       -4 0.17381637E-01 0.12499905E+03</pdfrwt>
<totfact> 0.99795531E+03</totfact>
</mgrwt>
</event>
<event>
 5    1  0.3486294E-002  0.1250061E+03  0.7818608E-02  0.1235060E+00
         -4   -1    0    0    0  501 -0.00000000000E+00  0.00000000000E+00  0.55306197989E+02  0.55320777616E+02  0.12700000000E+01 0.  1.
          4   -1    0    0  501    0  0.00000000000E+00 -0.00000000000E+00 -0.70606812470E+02  0.70618233248E+02  0.12700000000E+01 0.  1.
         25    2    1    2    0    0  0.00000000000E+00  0.00000000000E+00 -0.15300614480E+02  0.12593901086E+03  0.12500610247E+03 0.  0.
    9000005    1    3    3    0    0 -0.30757460377E+02  0.53804711105E+02  0.45104190407E+00  0.61985254252E+02  0.10000000000E+01 0.  0.
    9000005    1    3    3    0    0  0.30757460377E+02 -0.53804711105E+02 -0.15751656384E+02  0.63953756612E+02  0.10000000000E+01 0.  0.
<mgrwt>
<rscale>  0 0.12500610E+03</rscale>
<asrwt>0</asrwt>
<pdfrwt beam="2">  1        4 0.10864587E-01 0.12500610E+03</pdfrwt>
<pdfrwt beam="1">  1       -4 0.85106458E-02 0.12500610E+03</pdfrwt>
<totfact> 0.10430857E+04</totfact>
</mgrwt>
</event>
<event>
 5    1  0.3486294E-002  0.1250094E+03  0.7818608E-02  0.1235055E+00
         -4   -1    0    0    0  501 -0.00000000000E+00  0.00000000000E+00  0.14500186219E+03  0.14500742373E+03  0.12700000000E+01 0. -1.
          4   -1    0    0  501    0  0.00000000000E+00 -0.00000000000E+00 -0.26922320139E+02  0.26952258192E+02  0.12700000000E+01 0. -1.
         25    2    1    2    0    0  0.00000000000E+00  0.00000000000E+00  0.11807954205E+03  0.17195968192E+03  0.12500941547E+03 0.  0.
    9000005    1    3    3    0    0  0.44690868618E+02 -0.43219842234E+02  0.67805748361E+02  0.91999173971E+02  0.10000000000E+01 0.  0.
    9000005    1    3    3    0    0 -0.44690868618E+02  0.43219842234E+02  0.50273793686E+02  0.79960507953E+02  0.10000000000E+01 0.  0.
<mgrwt>
<rscale>  0 0.12500942E+03</rscale>
<asrwt>0</asrwt>
<pdfrwt beam="2">  1        4 0.41446261E-02 0.12500942E+03</pdfrwt>
<pdfrwt beam="1">  1       -4 0.22310710E-01 0.12500942E+03</pdfrwt>
<totfact> 0.95064548E+03</totfact>
</mgrwt>
</event>
<event>
 5    1  0.3486294E-002  0.1249998E+03  0.7818608E-02  0.1235070E+00
         -4   -1    0    0    0  501 -0.00000000000E+00  0.00000000000E+00  0.69641776812E+01  0.70790303556E+01  0.12700000000E+01 0.  1.
          4   -1    0    0  501    0  0.00000000000E+00 -0.00000000000E+00 -0.55620181393E+03  0.55620326386E+03  0.12700000000E+01 0.  1.
         25    2    1    2    0    0  0.00000000000E+00  0.00000000000E+00 -0.54923763625E+03  0.56328229421E+03  0.12499984758E+03 0.  0.
    9000005    1    3    3    0    0  0.13894292022E+02  0.59551113691E+02 -0.21658521076E+03  0.22505452676E+03  0.10000000000E+01 0.  0.
    9000005    1    3    3    0    0 -0.13894292022E+02 -0.59551113691E+02 -0.33265242549E+03  0.33822776746E+03  0.10000000000E+01 0.  0.
<mgrwt>
<rscale>  0 0.12499985E+03</rscale>
<asrwt>0</asrwt>
<pdfrwt beam="2">  1        4 0.85578422E-01 0.12499985E+03</pdfrwt>
<pdfrwt beam="1">  1       -4 0.10803587E-02 0.12499985E+03</pdfrwt>
<totfact> 0.51270699E+03</totfact>
</mgrwt>
</event>
<event>
 5    1  0.3486294E-002  0.1249512E+03  0.7818608E-02  0.1235146E+00
          4   -1    0    0  501    0  0.00000000000E+00  0.00000000000E+00  0.33397792888E+03  0.33398034355E+03  0.12700000000E+01 0. -1.
         -4   -1    0    0    0  501 -0.00000000000E+00 -0.00000000000E+00 -0.11650028698E+02  0.11719047259E+02  0.12700000000E+01 0. -1.
         25    2    1    2    0    0  0.00000000000E+00  0.00000000000E+00  0.32232790018E+03  0.34569939081E+03  0.12495116475E+03 0.  0.
    9000005    1    3    3    0    0  0.34973342265E+02 -0.50757220513E+02  0.18921104404E+03  0.19900062635E+03  0.10000000000E+01 0.  0.
    9000005    1    3    3    0    0 -0.34973342265E+02  0.50757220513E+02  0.13311685614E+03  0.14669876446E+03  0.10000000000E+01 0.  0.
<mgrwt>
<rscale>  0 0.12495116E+03</rscale>
<asrwt>0</asrwt>
<pdfrwt beam="1">  1        4 0.51386714E-01 0.12495116E+03</pdfrwt>
<pdfrwt beam="2">  1       -4 0.17978070E-02 0.12495116E+03</pdfrwt>
<totfact> 0.70276219E+03</totfact>
</mgrwt>
</event>
<event>
 5    1  0.3486294E-002  0.1250019E+03  0.7818608E-02  0.1235066E+00
          4   -1    0    0  501    0  0.00000000000E+00  0.00000000000E+00  0.54583780260E+02  0.54598552796E+02  0.12700000000E+01 0. -1.
         -4   -1    0    0    0  501 -0.00000000000E+00 -0.00000000000E+00 -0.71536431807E+02  0.71547704195E+02  0.12700000000E+01 0. -1.
         25    2    1    2    0    0  0.00000000000E+00  0.00000000000E+00 -0.16952651547E+02  0.12614625699E+03  0.12500194302E+03 0.  0.
    9000005    1    3    3    0    0 -0.28487859484E+02  0.60080733205E+01  0.47326501498E+02  0.55573850209E+02  0.10000000000E+01 0.  0.
    9000005    1    3    3    0    0  0.28487859484E+02 -0.60080733205E+01 -0.64279153045E+02  0.70572406783E+02  0.10000000000E+01 0.  0.
<mgrwt>
<rscale>  0 0.12500194E+03</rscale>
<asrwt>0</asrwt>
<pdfrwt beam="1">  1        4 0.83995082E-02 0.12500194E+03</pdfrwt>
<pdfrwt beam="2">  1       -4 0.11007608E-01 0.12500194E+03</pdfrwt>
<totfact> 0.10427297E+04</totfact>
</mgrwt>
</event>
<event>
 5    1  0.3486294E-002  0.1250002E+03  0.7818608E-02  0.1235069E+00
          4   -1    0    0  501    0  0.00000000000E+00  0.00000000000E+00  0.10297951760E+02  0.10375967928E+02  0.12700000000E+01 0. -1.
         -4   -1    0    0    0  501 -0.00000000000E+00 -0.00000000000E+00 -0.37781399458E+03  0.37781612909E+03  0.12700000000E+01 0. -1.
         25    2    1    2    0    0  0.00000000000E+00  0.00000000000E+00 -0.36751604282E+03  0.38819209701E+03  0.12500024983E+03 0.  0.
    9000005    1    3    3    0    0  0.84498416437E+01 -0.61266972425E+02 -0.21157357070E+03  0.22043007406E+03  0.10000000000E+01 0.  0.
    9000005    1    3    3    0    0 -0.84498416437E+01  0.61266972425E+02 -0.15594247212E+03  0.16776202295E+03  0.10000000000E+01 0.  0.
<mgrwt>
<rscale>  0 0.12500025E+03</rscale>
<asrwt>0</asrwt>
<pdfrwt beam="1">  1        4 0.15904660E-02 0.12500025E+03</pdfrwt>
<pdfrwt beam="2">  1       -4 0.58131385E-01 0.12500025E+03</pdfrwt>
<totfact> 0.65717287E+03</totfact>
</mgrwt>
</event>
<event>
 5    1  0.3486294E-002  0.1249990E+03  0.7818608E-02  0.1235071E+00
          4   -1    0    0  501    0  0.00000000000E+00  0.00000000000E+00  0.48955590610E+02  0.48972060933E+02  0.12700000000E+01 0.  1.
         -4   -1    0    0    0  501 -0.00000000000E+00 -0.00000000000E+00 -0.79755511796E+02  0.79765622682E+02  0.12700000000E+01 0.  1.
         25    2    1    2    0    0  0.00000000000E+00  0.00000000000E+00 -0.30799921186E+02  0.12873768361E+03  0.12499902415E+03 0.  0.
    9000005    1    3    3    0    0 -0.20482689525E+02 -0.41762500502E+02  0.27580002995E+02  0.54086075690E+02  0.10000000000E+01 0.  0.
    9000005    1    3    3    0    0  0.20482689525E+02  0.41762500502E+02 -0.58379924181E+02  0.74651607925E+02  0.10000000000E+01 0.  0.
<mgrwt>
<rscale>  0 0.12499902E+03</rscale>
<asrwt>0</asrwt>
<pdfrwt beam="1">  1        4 0.75336740E-02 0.12499902E+03</pdfrwt>
<pdfrwt beam="2">  1       -4 0.12272123E-01 0.12499902E+03</pdfrwt>
<totfact> 0.10371815E+04</totfact>
</mgrwt>
</event>
<event>
 5    1  0.3486294E-002  0.1250002E+03  0.7818608E-02  0.1235069E+00
         -4   -1    0    0    0  501 -0.00000000000E+00  0.00000000000E+00  0.17452370549E+04  0.17452375170E+04  0.12700000000E+01 0. -1.
          4   -1    0    0  501    0  0.00000000000E+00 -0.00000000000E+00 -0.20575893292E+01  0.24179689509E+01  0.12700000000E+01 0. -1.
         25    2    1    2    0    0  0.00000000000E+00  0.00000000000E+00  0.17431794656E+04  0.17476554860E+04  0.12500019335E+03 0.  0.
    9000005    1    3    3    0    0  0.56053233012E+02  0.17590525494E+02  0.11694490225E+04  0.11709241683E+04  0.10000000000E+01 0.  0.
    9000005    1    3    3    0    0 -0.56053233012E+02 -0.17590525494E+02  0.57373044305E+03  0.57673131768E+03  0.10000000000E+01 0.  0.
<mgrwt>
<rscale>  0 0.12500019E+03</rscale>
<asrwt>0</asrwt>
<pdfrwt beam="2">  1        4 0.34430886E-03 0.12500019E+03</pdfrwt>
<pdfrwt beam="1">  1       -4 0.26852607E+00 0.12500019E+03</pdfrwt>
<totfact> 0.13527345E+03</totfact>
</mgrwt>
</event>
<event>
 5    1  0.3486294E-002  0.1250003E+03  0.7818608E-02  0.1235069E+00
         -4   -1    0    0    0  501 -0.00000000000E+00  0.00000000000E+00  0.43951517984E+02  0.43969862782E+02  0.12700000000E+01 0. -1.
          4   -1    0    0  501    0  0.00000000000E+00 -0.00000000000E+00 -0.88835360952E+02  0.88844438518E+02  0.12700000000E+01 0. -1.
         25    2    1    2    0    0  0.00000000000E+00  0.00000000000E+00 -0.44883842969E+02  0.13281430130E+03  0.12500031708E+03 0.  0.
    9000005    1    3    3    0    0 -0.55020233253E+02 -0.21841471943E+02 -0.43718538940E+02  0.73597463345E+02  0.10000000000E+01 0.  0.
    9000005    1    3    3    0    0  0.55020233253E+02  0.21841471943E+02 -0.11653040289E+01  0.59216837955E+02  0.10000000000E+01 0.  0.
<mgrwt>
<rscale>  0 0.12500032E+03</rscale>
<asrwt>0</asrwt>
<pdfrwt beam="2">  1        4 0.13669088E-01 0.12500032E+03</pdfrwt>
<pdfrwt beam="1">  1       -4 0.67638814E-02 0.12500032E+03</pdfrwt>
<totfact> 0.10284275E+04</totfact>
</mgrwt>
</event>
<event>
 5    1  0.3486294E-002  0.1249999E+03  0.7818608E-02  0.1235070E+00
          4   -1    0    0  501    0  0.00000000000E+00  0.00000000000E+00  0.26237333775E+02  0.26268052528E+02  0.12700000000E+01 0. -1.
         -4   -1    0    0    0  501 -0.00000000000E+00 -0.00000000000E+00 -0.14876047269E+03  0.14876589372E+03  0.12700000000E+01 0. -1.
         25    2    1    2    0    0  0.00000000000E+00  0.00000000000E+00 -0.12252313891E+03  0.17503394625E+03  0.12499985108E+03 0.  0.
    9000005    1    3    3    0    0  0.33981247538E+02  0.33742453500E+02 -0.11748149089E+03  0.12687071787E+03  0.10000000000E+01 0.  0.
    9000005    1    3    3    0    0 -0.33981247538E+02 -0.33742453500E+02 -0.50416480239E+01  0.48163228373E+02  0.10000000000E+01 0.  0.
<mgrwt>
<rscale>  0 0.12499985E+03</rscale>
<asrwt>0</asrwt>
<pdfrwt beam="1">  1        4 0.40392930E-02 0.12499985E+03</pdfrwt>
<pdfrwt beam="2">  1       -4 0.22889006E-01 0.12499985E+03</pdfrwt>
<totfact> 0.94518940E+03</totfact>
</mgrwt>
</event>
<event>
 5    1  0.3486294E-002  0.1249985E+03  0.7818608E-02  0.1235072E+00
         -4   -1    0    0    0  501 -0.00000000000E+00  0.00000000000E+00  0.12016347611E+04  0.12016354322E+04  0.12700000000E+01 0.  1.
          4   -1    0    0  501    0  0.00000000000E+00 -0.00000000000E+00 -0.31259628918E+01  0.33740989910E+01  0.12700000000E+01 0.  1.
         25    2    1    2    0    0  0.00000000000E+00  0.00000000000E+00  0.11985087982E+04  0.12050095312E+04  0.12499852377E+03 0.  0.
    9000005    1    3    3    0    0  0.43295337271E+02  0.13263442233E+02  0.10144269124E+04  0.10154375243E+04  0.10000000000E+01 0.  0.
    9000005    1    3    3    0    0 -0.43295337271E+02 -0.13263442233E+02  0.18408188582E+03  0.18957200695E+03  0.10000000000E+01 0.  0.
<mgrwt>
<rscale>  0 0.12499852E+03</rscale>
<asrwt>0</asrwt>
<pdfrwt beam="2">  1        4 0.50005569E-03 0.12499852E+03</pdfrwt>
<pdfrwt beam="1">  1       -4 0.18488628E+00 0.12499852E+03</pdfrwt>
<totfact> 0.24582748E+03</totfact>
</mgrwt>
</event>
<event>
 5    1  0.3486294E-002  0.1250015E+03  0.7818608E-02  0.1235067E+00
          4   -1    0    0  501    0  0.00000000000E+00  0.00000000000E+00  0.63114569593E+02  0.63127345856E+02  0.12700000000E+01 0. -1.
         -4   -1    0    0    0  501 -0.00000000000E+00 -0.00000000000E+00 -0.61867337106E+02  0.61880370883E+02  0.12700000000E+01 0. -1.
         25    2    1    2    0    0  0.00000000000E+00  0.00000000000E+00  0.12472324864E+01  0.12500771674E+03  0.12500149461E+03 0.  0.
    9000005    1    3    3    0    0 -0.51826720958E+02  0.68613549498E+01  0.34863547920E+02  0.62845478521E+02  0.10000000000E+01 0.  0.
    9000005    1    3    3    0    0  0.51826720958E+02 -0.68613549498E+01 -0.33616315434E+02  0.62162238218E+02  0.10000000000E+01 0.  0.
<mgrwt>
<rscale>  0 0.12500149E+03</rscale>
<asrwt>0</asrwt>
<pdfrwt beam="1">  1        4 0.97119191E-02 0.12500149E+03</pdfrwt>
<pdfrwt beam="2">  1       -4 0.95200373E-02 0.12500149E+03</pdfrwt>
<totfact> 0.10452342E+04</totfact>
</mgrwt>
</event>
<event>
 5    1  0.3486294E-002  0.1250017E+03  0.7818608E-02  0.1235067E+00
         -4   -1    0    0    0  501 -0.00000000000E+00  0.00000000000E+00  0.34462894271E+03  0.34463128275E+03  0.12700000000E+01 0.  1.
          4   -1    0    0  501    0  0.00000000000E+00 -0.00000000000E+00 -0.11297005788E+02  0.11368167828E+02  0.12700000000E+01 0.  1.
         25    2    1    2    0    0  0.00000000000E+00  0.00000000000E+00  0.33333193692E+03  0.35599945058E+03  0.12500171456E+03 0.  0.
    9000005    1    3    3    0    0 -0.13971800641E+00  0.36494180653E+02  0.22189708074E+02  0.42722685860E+02  0.10000000000E+01 0.  0.
    9000005    1    3    3    0    0  0.13971800641E+00 -0.36494180653E+02  0.31114222885E+03  0.31327676472E+03  0.10000000000E+01 0.  0.
<mgrwt>
<rscale>  0 0.12500171E+03</rscale>
<asrwt>0</asrwt>
<pdfrwt beam="2">  1        4 0.17436549E-02 0.12500171E+03</pdfrwt>
<pdfrwt beam="1">  1       -4 0.53025491E-01 0.12500171E+03</pdfrwt>
<totfact> 0.69066926E+03</totfact>
</mgrwt>
</event>
<event>
 5    1  0.3486294E-002  0.1249990E+03  0.7818608E-02  0.1235071E+00
          4   -1    0    0  501    0  0.00000000000E+00  0.00000000000E+00  0.39125724267E+03  0.39125930384E+03  0.12700000000E+01 0. -1.
         -4   -1    0    0    0  501 -0.00000000000E+00 -0.00000000000E+00 -0.99411894982E+01  0.10021983269E+02  0.12700000000E+01 0. -1.
         25    2    1    2    0    0  0.00000000000E+00  0.00000000000E+00  0.38131605317E+03  0.40128128711E+03  0.12499895590E+03 0.  0.
    9000005    1    3    3    0    0 -0.17611743802E+02 -0.59786766187E+02  0.17610381355E+03  0.18681055666E+03  0.10000000000E+01 0.  0.
    9000005    1    3    3    0    0  0.17611743802E+02  0.59786766187E+02  0.20521223961E+03  0.21447073045E+03  0.10000000000E+01 0.  0.
<mgrwt>
<rscale>  0 0.12499896E+03</rscale>
<asrwt>0</asrwt>
<pdfrwt beam="1">  1        4 0.60199810E-01 0.12499896E+03</pdfrwt>
<pdfrwt beam="2">  1       -4 0.15357868E-02 0.12499896E+03</pdfrwt>
<totfact> 0.64429837E+03</totfact>
</mgrwt>
</event>
<event>
 5    1  0.3486294E-002  0.1250016E+03  0.7818608E-02  0.1235067E+00
         -4   -1    0    0    0  501 -0.00000000000E+00  0.00000000000E+00  0.56965322114E+03  0.56965463682E+03  0.12700000000E+01 0.  1.
          4   -1    0    0  501    0  0.00000000000E+00 -0.00000000000E+00 -0.67971804832E+01  0.69148074826E+01  0.12700000000E+01 0.  1.
         25    2    1    2    0    0  0.00000000000E+00  0.00000000000E+00  0.56285604065E+03  0.57656944430E+03  0.12500160641E+03 0.  0.
    9000005    1    3    3    0    0 -0.33876437766E+02 -0.51992741668E+02  0.24737911791E+03  0.25504565513E+03  0.10000000000E+01 0.  0.
    9000005    1    3    3    0    0  0.33876437766E+02  0.51992741668E+02  0.31547692274E+03  0.32152378917E+03  0.10000000000E+01 0.  0.
<mgrwt>
<rscale>  0 0.12500161E+03</rscale>
<asrwt>0</asrwt>
<pdfrwt beam="2">  1        4 0.10548773E-02 0.12500161E+03</pdfrwt>
<pdfrwt beam="1">  1       -4 0.87648107E-01 0.12500161E+03</pdfrwt>
<totfact> 0.50379049E+03</totfact>
</mgrwt>
</event>
<event>
 5    1  0.3486294E-002  0.1249969E+03  0.7818608E-02  0.1235074E+00
         -4   -1    0    0    0  501 -0.00000000000E+00  0.00000000000E+00  0.69765665666E+02  0.69777224120E+02  0.12700000000E+01 0.  1.
          4   -1    0    0  501    0  0.00000000000E+00 -0.00000000000E+00 -0.55964875444E+02  0.55979283521E+02  0.12700000000E+01 0.  1.
         25    2    1    2    0    0  0.00000000000E+00  0.00000000000E+00  0.13800790222E+02  0.12575650764E+03  0.12499694958E+03 0.  0.
    9000005    1    3    3    0    0 -0.16583950734E+02 -0.35150732227E+01 -0.53612216860E+02  0.56237469345E+02  0.10000000000E+01 0.  0.
    9000005    1    3    3    0    0  0.16583950734E+02  0.35150732227E+01  0.67413007082E+02  0.69519038295E+02  0.10000000000E+01 0.  0.
<mgrwt>
<rscale>  0 0.12499695E+03</rscale>
<asrwt>0</asrwt>
<pdfrwt beam="2">  1        4 0.86119783E-02 0.12499695E+03</pdfrwt>
<pdfrwt beam="1">  1       -4 0.10735177E-01 0.12499695E+03</pdfrwt>
<totfact> 0.10437020E+04</totfact>
</mgrwt>
</event>
<event>
 5    1  0.3486294E-002  0.1249989E+03  0.7818608E-02  0.1235071E+00
          4   -1    0    0  501    0  0.00000000000E+00  0.00000000000E+00  0.50498187972E+02  0.50514155327E+02  0.12700000000E+01 0.  1.
         -4   -1    0    0    0  501 -0.00000000000E+00 -0.00000000000E+00 -0.77319499562E+02  0.77329928957E+02  0.12700000000E+01 0.  1.
         25    2    1    2    0    0  0.00000000000E+00  0.00000000000E+00 -0.26821311590E+02  0.12784408428E+03  0.12499890852E+03 0.  0.
    9000005    1    3    3    0    0 -0.37069456809E+02 -0.46234358851E+02  0.68756657225E+01  0.59666031757E+02  0.10000000000E+01 0.  0.
    9000005    1    3    3    0    0  0.37069456809E+02  0.46234358851E+02 -0.33696977313E+02  0.68178052528E+02  0.10000000000E+01 0.  0.
<mgrwt>
<rscale>  0 0.12499891E+03</rscale>
<asrwt>0</asrwt>
<pdfrwt beam="1">  1        4 0.77709825E-02 0.12499891E+03</pdfrwt>
<pdfrwt beam="2">  1       -4 0.11897338E-01 0.12499891E+03</pdfrwt>
<totfact> 0.10391112E+04</totfact>
</mgrwt>
</event>
<event>
 5    1  0.3486294E-002  0.1249994E+03  0.7818608E-02  0.1235070E+00
          4   -1    0    0  501    0  0.00000000000E+00  0.00000000000E+00  0.69310099262E+01  0.70464032384E+01  0.12700000000E+01 0.  1.
         -4   -1    0    0    0  501 -0.00000000000E+00 -0.00000000000E+00 -0.55881575570E+03  0.55881719884E+03  0.12700000000E+01 0.  1.
         25    2    1    2    0    0  0.00000000000E+00  0.00000000000E+00 -0.55188474578E+03  0.56586360208E+03  0.12499937415E+03 0.  0.
    9000005    1    3    3    0    0 -0.48176530873E+01  0.23350731877E+02 -0.14446166420E+02  0.27895486815E+02  0.10000000000E+01 0.  0.
    9000005    1    3    3    0    0  0.48176530873E+01 -0.23350731877E+02 -0.53743857936E+03  0.53796811526E+03  0.10000000000E+01 0.  0.
<mgrwt>
<rscale>  0 0.12499937E+03</rscale>
<asrwt>0</asrwt>
<pdfrwt beam="1">  1        4 0.10752971E-02 0.12499937E+03</pdfrwt>
<pdfrwt beam="2">  1       -4 0.85980607E-01 0.12499937E+03</pdfrwt>
<totfact> 0.51096536E+03</totfact>
</mgrwt>
</event>
<event>
 5    1  0.3486294E-002  0.1250009E+03  0.7818608E-02  0.1235068E+00
         -4   -1    0    0    0  501 -0.00000000000E+00  0.00000000000E+00  0.45055902670E+02  0.45073797992E+02  0.12700000000E+01 0. -1.
          4   -1    0    0  501    0  0.00000000000E+00 -0.00000000000E+00 -0.86659363753E+02  0.86668669230E+02  0.12700000000E+01 0. -1.
         25    2    1    2    0    0  0.00000000000E+00  0.00000000000E+00 -0.41603461082E+02  0.13174246722E+03  0.12500091878E+03 0.  0.
    9000005    1    3    3    0    0  0.15865993255E+02 -0.36711821008E+02 -0.71410441650E+02  0.81853153393E+02  0.10000000000E+01 0.  0.
    9000005    1    3    3    0    0 -0.15865993255E+02  0.36711821008E+02  0.29806980568E+02  0.49889313829E+02  0.10000000000E+01 0.  0.
<mgrwt>
<rscale>  0 0.12500092E+03</rscale>
<asrwt>0</asrwt>
<pdfrwt beam="2">  1        4 0.13334302E-01 0.12500092E+03</pdfrwt>
<pdfrwt beam="1">  1       -4 0.69337697E-02 0.12500092E+03</pdfrwt>
<totfact> 0.10306985E+04</totfact>
</mgrwt>
</event>
<event>
 5    1  0.3486294E-002  0.1250018E+03  0.7818608E-02  0.1235066E+00
         -4   -1    0    0    0  501 -0.00000000000E+00  0.00000000000E+00  0.22593729366E+03  0.22594086299E+03  0.12700000000E+01 0.  1.
          4   -1    0    0  501    0  0.00000000000E+00 -0.00000000000E+00 -0.17262558362E+02  0.17309212033E+02  0.12700000000E+01 0.  1.
         25    2    1    2    0    0  0.00000000000E+00  0.00000000000E+00  0.20867473530E+03  0.24325007502E+03  0.12500181537E+03 0.  0.
    9000005    1    3    3    0    0  0.32650902203E+02 -0.37565030302E+02  0.30797362212E+02  0.58537940138E+02  0.10000000000E+01 0.  0.
    9000005    1    3    3    0    0 -0.32650902203E+02  0.37565030302E+02  0.17787737309E+03  0.18471213488E+03  0.10000000000E+01 0.  0.
<mgrwt>
<rscale>  0 0.12500182E+03</rscale>
<asrwt>0</asrwt>
<pdfrwt beam="2">  1        4 0.26596415E-02 0.12500182E+03</pdfrwt>
<pdfrwt beam="1">  1       -4 0.34763447E-01 0.12500182E+03</pdfrwt>
<totfact> 0.83312324E+03</totfact>
</mgrwt>
</event>
<event>
 5    1  0.3486294E-002  0.1250024E+03  0.7818608E-02  0.1235066E+00
          4   -1    0    0  501    0  0.00000000000E+00  0.00000000000E+00  0.55631880295E+02  0.55646374592E+02  0.12700000000E+01 0.  1.
         -4   -1    0    0    0  501 -0.00000000000E+00 -0.00000000000E+00 -0.70189297612E+02  0.70200786315E+02  0.12700000000E+01 0.  1.
         25    2    1    2    0    0  0.00000000000E+00  0.00000000000E+00 -0.14557417317E+02  0.12584716091E+03  0.12500235802E+03 0.  0.
    9000005    1    3    3    0    0 -0.29649034081E+02 -0.49392985451E+02 -0.31663573889E+02  0.65744308842E+02  0.10000000000E+01 0.  0.
    9000005    1    3    3    0    0  0.29649034081E+02  0.49392985451E+02  0.17106156573E+02  0.60102852065E+02  0.10000000000E+01 0.  0.
<mgrwt>
<rscale>  0 0.12500236E+03</rscale>
<asrwt>0</asrwt>
<pdfrwt beam="1">  1        4 0.85607495E-02 0.12500236E+03</pdfrwt>
<pdfrwt beam="2">  1       -4 0.10800352E-01 0.12500236E+03</pdfrwt>
<totfact> 0.10433754E+04</totfact>
</mgrwt>
</event>
<event>
 5    1  0.3486294E-002  0.1250021E+03  0.7818608E-02  0.1235066E+00
          4   -1    0    0  501    0  0.00000000000E+00  0.00000000000E+00  0.83294661745E+01  0.84257288558E+01  0.12700000000E+01 0. -1.
         -4   -1    0    0    0  501 -0.00000000000E+00 -0.00000000000E+00 -0.46619213241E+03  0.46619386227E+03  0.12700000000E+01 0. -1.
         25    2    1    2    0    0  0.00000000000E+00  0.00000000000E+00 -0.45786266624E+03  0.47461959113E+03  0.12500214059E+03 0.  0.
    9000005    1    3    3    0    0  0.34019947523E+02  0.36378374774E+02 -0.85619879609E+02  0.99058097927E+02  0.10000000000E+01 0.  0.
    9000005    1    3    3    0    0 -0.34019947523E+02 -0.36378374774E+02 -0.37224278663E+03  0.37556149320E+03  0.10000000000E+01 0.  0.
<mgrwt>
<rscale>  0 0.12500214E+03</rscale>
<asrwt>0</asrwt>
<pdfrwt beam="1">  1        4 0.12889946E-02 0.12500214E+03</pdfrwt>
<pdfrwt beam="2">  1       -4 0.71729384E-01 0.12500214E+03</pdfrwt>
<totfact> 0.57886070E+03</totfact>
</mgrwt>
</event>
<event>
 5    1  0.3486294E-002  0.1249984E+03  0.7818608E-02  0.1235072E+00
         -4   -1    0    0    0  501 -0.00000000000E+00  0.00000000000E+00  0.34205192197E+02  0.34228760907E+02  0.12700000000E+01 0.  1.
          4   -1    0    0  501    0  0.00000000000E+00 -0.00000000000E+00 -0.11413119521E+03  0.11413826099E+03  0.12700000000E+01 0.  1.
         25    2    1    2    0    0  0.00000000000E+00  0.00000000000E+00 -0.79926003017E+02  0.14836702189E+03  0.12499842890E+03 0.  0.
    9000005    1    3    3    0    0 -0.27417458472E+01 -0.13127813122E+02  0.32482791220E+02  0.35156626305E+02  0.10000000000E+01 0.  0.
    9000005    1    3    3    0    0  0.27417458472E+01  0.13127813122E+02 -0.11240879424E+03  0.11321039559E+03  0.10000000000E+01 0.  0.
<mgrwt>
<rscale>  0 0.12499843E+03</rscale>
<asrwt>0</asrwt>
<pdfrwt beam="2">  1        4 0.17561002E-01 0.12499843E+03</pdfrwt>
<pdfrwt beam="1">  1       -4 0.52646938E-02 0.12499843E+03</pdfrwt>
<totfact> 0.99633732E+03</totfact>
</mgrwt>
</event>
<event>
 5    1  0.3486294E-002  0.1249978E+03  0.7818608E-02  0.1235073E+00
          4   -1    0    0  501    0  0.00000000000E+00  0.00000000000E+00  0.22363363154E+02  0.22399395340E+02  0.12700000000E+01 0. -1.
         -4   -1    0    0    0  501 -0.00000000000E+00 -0.00000000000E+00 -0.17448667396E+03  0.17449129574E+03  0.12700000000E+01 0. -1.
         25    2    1    2    0    0  0.00000000000E+00  0.00000000000E+00 -0.15212331080E+03  0.19689069108E+03  0.12499777015E+03 0.  0.
    9000005    1    3    3    0    0 -0.48418145188E+02  0.17106754604E+00 -0.13829048304E+03  0.14652509596E+03  0.10000000000E+01 0.  0.
    9000005    1    3    3    0    0  0.48418145188E+02 -0.17106754604E+00 -0.13832827765E+02  0.50365595117E+02  0.10000000000E+01 0.  0.
<mgrwt>
<rscale>  0 0.12499777E+03</rscale>
<asrwt>0</asrwt>
<pdfrwt beam="1">  1        4 0.34436448E-02 0.12499777E+03</pdfrwt>
<pdfrwt beam="2">  1       -4 0.26847230E-01 0.12499777E+03</pdfrwt>
<totfact> 0.90666514E+03</totfact>
</mgrwt>
</event>
<event>
 5    1  0.3486294E-002  0.1249939E+03  0.7818608E-02  0.1235079E+00
          4   -1    0    0  501    0  0.00000000000E+00  0.00000000000E+00  0.24603770896E+02  0.24636526588E+02  0.12700000000E+01 0.  1.
         -4   -1    0    0    0  501 -0.00000000000E+00 -0.00000000000E+00 -0.15860989586E+03  0.15861498027E+03  0.12700000000E+01 0.  1.
         25    2    1    2    0    0  0.00000000000E+00  0.00000000000E+00 -0.13400612497E+03  0.18325150686E+03  0.12499389280E+03 0.  0.
    9000005    1    3    3    0    0  0.76934511907E+01 -0.33188117568E+02 -0.14380441245E+03  0.14778819093E+03  0.10000000000E+01 0.  0.
    9000005    1    3    3    0    0 -0.76934511907E+01  0.33188117568E+02  0.97982874814E+01  0.35463315926E+02  0.10000000000E+01 0.  0.
<mgrwt>
<rscale>  0 0.12499389E+03</rscale>
<asrwt>0</asrwt>
<pdfrwt beam="1">  1        4 0.37881064E-02 0.12499389E+03</pdfrwt>
<pdfrwt beam="2">  1       -4 0.24404433E-01 0.12499389E+03</pdfrwt>
<totfact> 0.93047711E+03</totfact>
</mgrwt>
</event>
<event>
 5    1  0.3486294E-002  0.1249970E+03  0.7818608E-02  0.1235074E+00
          4   -1    0    0  501    0  0.00000000000E+00  0.00000000000E+00  0.60382770498E+03  0.60382904055E+03  0.12700000000E+01 0. -1.
         -4   -1    0    0    0  501 -0.00000000000E+00 -0.00000000000E+00 -0.64051433125E+01  0.65298362042E+01  0.12700000000E+01 0. -1.
         25    2    1    2    0    0  0.00000000000E+00  0.00000000000E+00  0.59742256167E+03  0.61035887675E+03  0.12499696490E+03 0.  0.
    9000005    1    3    3    0    0 -0.18582914002E+00  0.30987618869E+02  0.56369134562E+03  0.56454335545E+03  0.10000000000E+01 0.  0.
    9000005    1    3    3    0    0  0.18582914002E+00 -0.30987618869E+02  0.33731216050E+02  0.45815521299E+02  0.10000000000E+01 0.  0.
<mgrwt>
<rscale>  0 0.12499696E+03</rscale>
<asrwt>0</asrwt>
<pdfrwt beam="1">  1        4 0.92906257E-01 0.12499696E+03</pdfrwt>
<pdfrwt beam="2">  1       -4 0.99510124E-03 0.12499696E+03</pdfrwt>
<totfact> 0.48223400E+03</totfact>
</mgrwt>
</event>
<event>
 5    1  0.3486294E-002  0.1249976E+03  0.7818608E-02  0.1235073E+00
          4   -1    0    0  501    0  0.00000000000E+00  0.00000000000E+00  0.37887319507E+02  0.37908599017E+02  0.12700000000E+01 0. -1.
         -4   -1    0    0    0  501 -0.00000000000E+00 -0.00000000000E+00 -0.10304367374E+03  0.10305149973E+03  0.12700000000E+01 0. -1.
         25    2    1    2    0    0  0.00000000000E+00  0.00000000000E+00 -0.65156354230E+02  0.14096009875E+03  0.12499759575E+03 0.  0.
    9000005    1    3    3    0    0  0.30705110583E+02  0.18271150609E+02  0.25237458203E+02  0.43755777413E+02  0.10000000000E+01 0.  0.
    9000005    1    3    3    0    0 -0.30705110583E+02 -0.18271150609E+02 -0.90393812432E+02  0.97204321337E+02  0.10000000000E+01 0.  0.
<mgrwt>
<rscale>  0 0.12499760E+03</rscale>
<asrwt>0</asrwt>
<pdfrwt beam="1">  1        4 0.58310573E-02 0.12499760E+03</pdfrwt>
<pdfrwt beam="2">  1       -4 0.15855112E-01 0.12499760E+03</pdfrwt>
<totfact> 0.10114274E+04</totfact>
</mgrwt>
</event>
<event>
 5    1  0.3486294E-002  0.1249984E+03  0.7818608E-02  0.1235072E+00
          4   -1    0    0  501    0  0.00000000000E+00  0.00000000000E+00  0.88605335471E+03  0.88605426487E+03  0.12700000000E+01 0.  1.
         -4   -1    0    0    0  501 -0.00000000000E+00 -0.00000000000E+00 -0.43160865573E+01  0.44990558088E+01  0.12700000000E+01 0.  1.
         25    2    1    2    0    0  0.00000000000E+00  0.00000000000E+00  0.88173726815E+03  0.89055332068E+03  0.12499842768E+03 0.  0.
    9000005    1    3    3    0    0 -0.45778672757E+02 -0.15854911390E+02  0.15964541287E+03  0.16683741471E+03  0.10000000000E+01 0.  0.
    9000005    1    3    3    0    0  0.45778672757E+02  0.15854911390E+02  0.72209185528E+03  0.72371590597E+03  0.10000000000E+01 0.  0.
<mgrwt>
<rscale>  0 0.12499843E+03</rscale>
<asrwt>0</asrwt>
<pdfrwt beam="1">  1        4 0.13632997E+00 0.12499843E+03</pdfrwt>
<pdfrwt beam="2">  1       -4 0.67815827E-03 0.12499843E+03</pdfrwt>
<totfact> 0.34523967E+03</totfact>
</mgrwt>
</event>
<event>
 5    1  0.3486294E-002  0.1250034E+03  0.7818608E-02  0.1235064E+00
         -4   -1    0    0    0  501 -0.00000000000E+00  0.00000000000E+00  0.61611038789E+02  0.61624126774E+02  0.12700000000E+01 0. -1.
          4   -1    0    0  501    0  0.00000000000E+00 -0.00000000000E+00 -0.63379055869E+02  0.63391778827E+02  0.12700000000E+01 0. -1.
         25    2    1    2    0    0  0.00000000000E+00  0.00000000000E+00 -0.17680170802E+01  0.12501590560E+03  0.12500340303E+03 0.  0.
    9000005    1    3    3    0    0 -0.49724776638E+02  0.25912386221E+02  0.26713271166E+02  0.62117662768E+02  0.10000000000E+01 0.  0.
    9000005    1    3    3    0    0  0.49724776638E+02 -0.25912386221E+02 -0.28481288247E+02  0.62898242833E+02  0.10000000000E+01 0.  0.
<mgrwt>
<rscale>  0 0.12500340E+03</rscale>
<asrwt>0</asrwt>
<pdfrwt beam="2">  1        4 0.97526094E-02 0.12500340E+03</pdfrwt>
<pdfrwt beam="1">  1       -4 0.94806068E-02 0.12500340E+03</pdfrwt>
<totfact> 0.10451713E+04</totfact>
</mgrwt>
</event>
<event>
 5    1  0.3486294E-002  0.1249999E+03  0.7818608E-02  0.1235069E+00
         -4   -1    0    0    0  501 -0.00000000000E+00  0.00000000000E+00  0.33307766013E+02  0.33331969291E+02  0.12700000000E+01 0.  1.
          4   -1    0    0  501    0  0.00000000000E+00 -0.00000000000E+00 -0.11720703259E+03  0.11721391294E+03  0.12700000000E+01 0.  1.
         25    2    1    2    0    0  0.00000000000E+00  0.00000000000E+00 -0.83899266574E+02  0.15054588224E+03  0.12499990291E+03 0.  0.
    9000005    1    3    3    0    0 -0.99832702348E+01  0.35780207924E+02  0.18573363145E+02  0.41543456550E+02  0.10000000000E+01 0.  0.
    9000005    1    3    3    0    0  0.99832702348E+01 -0.35780207924E+02 -0.10247262972E+03  0.10900242568E+03  0.10000000000E+01 0.  0.
<mgrwt>
<rscale>  0 0.12499990E+03</rscale>
<asrwt>0</asrwt>
<pdfrwt beam="2">  1        4 0.18034242E-01 0.12499990E+03</pdfrwt>
<pdfrwt beam="1">  1       -4 0.51266628E-02 0.12499990E+03</pdfrwt>
<totfact> 0.99195213E+03</totfact>
</mgrwt>
</event>
<event>
 5    1  0.3486294E-002  0.1250035E+03  0.7818608E-02  0.1235064E+00
          4   -1    0    0  501    0  0.00000000000E+00  0.00000000000E+00  0.23671739390E+03  0.23672080068E+03  0.12700000000E+01 0.  1.
         -4   -1    0    0    0  501 -0.00000000000E+00 -0.00000000000E+00 -0.16474704633E+02  0.16523582927E+02  0.12700000000E+01 0.  1.
         25    2    1    2    0    0  0.00000000000E+00  0.00000000000E+00  0.22024268927E+03  0.25324438361E+03  0.12500350257E+03 0.  0.
    9000005    1    3    3    0    0  0.22472202741E+02 -0.42142365871E+02  0.19177510008E+03  0.19763518894E+03  0.10000000000E+01 0.  0.
    9000005    1    3    3    0    0 -0.22472202741E+02  0.42142365871E+02  0.28467589185E+02  0.55609194664E+02  0.10000000000E+01 0.  0.
<mgrwt>
<rscale>  0 0.12500350E+03</rscale>
<asrwt>0</asrwt>
<pdfrwt beam="1">  1        4 0.36422084E-01 0.12500350E+03</pdfrwt>
<pdfrwt beam="2">  1       -4 0.25385917E-02 0.12500350E+03</pdfrwt>
<totfact> 0.81857175E+03</totfact>
</mgrwt>
</event>
<event>
 5    1  0.3486294E-002  0.1250040E+03  0.7818608E-02  0.1235063E+00
         -4   -1    0    0    0  501 -0.00000000000E+00  0.00000000000E+00  0.12035590569E+03  0.12036260605E+03  0.12700000000E+01 0. -1.
          4   -1    0    0  501    0  0.00000000000E+00 -0.00000000000E+00 -0.32437861280E+02  0.32462713140E+02  0.12700000000E+01 0. -1.
         25    2    1    2    0    0  0.00000000000E+00  0.00000000000E+00  0.87918044409E+02  0.15282531919E+03  0.12500398254E+03 0.  0.
    9000005    1    3    3    0    0 -0.50701486054E+02 -0.33301925624E+02  0.25586369315E+02  0.65843156312E+02  0.10000000000E+01 0.  0.
    9000005    1    3    3    0    0  0.50701486054E+02  0.33301925624E+02  0.62331675094E+02  0.86982162875E+02  0.10000000000E+01 0.  0.
<mgrwt>
<rscale>  0 0.12500398E+03</rscale>
<asrwt>0</asrwt>
<pdfrwt beam="2">  1        4 0.49928673E-02 0.12500398E+03</pdfrwt>
<pdfrwt beam="1">  1       -4 0.18518720E-01 0.12500398E+03</pdfrwt>
<totfact> 0.98734618E+03</totfact>
</mgrwt>
</event>
<event>
 5    1  0.3486294E-002  0.1250007E+03  0.7818608E-02  0.1235068E+00
         -4   -1    0    0    0  501 -0.00000000000E+00  0.00000000000E+00  0.14457185018E+03  0.14457742826E+03  0.12700000000E+01 0.  1.
          4   -1    0    0  501    0  0.00000000000E+00 -0.00000000000E+00 -0.26998705198E+02  0.27028558644E+02  0.12700000000E+01 0.  1.
         25    2    1    2    0    0  0.00000000000E+00  0.00000000000E+00  0.11757314498E+03  0.17160598691E+03  0.12500068129E+03 0.  0.
    9000005    1    3    3    0    0 -0.86124822044E+01 -0.51986503980E+02  0.10490504384E+03  0.11740033930E+03  0.10000000000E+01 0.  0.
    9000005    1    3    3    0    0  0.86124822044E+01  0.51986503980E+02  0.12668101138E+02  0.54205647604E+02  0.10000000000E+01 0.  0.
<mgrwt>
<rscale>  0 0.12500068E+03</rscale>
<asrwt>0</asrwt>
<pdfrwt beam="2">  1        4 0.41563726E-02 0.12500068E+03</pdfrwt>
<pdfrwt beam="1">  1       -4 0.22244548E-01 0.12500068E+03</pdfrwt>
<totfact> 0.95148693E+03</totfact>
</mgrwt>
</event>
<event>
 5    1  0.3486294E-002  0.1249894E+03  0.7818608E-02  0.1235086E+00
          4   -1    0    0  501    0  0.00000000000E+00  0.00000000000E+00  0.50415800996E+03  0.50415960956E+03  0.12700000000E+01 0.  1.
         -4   -1    0    0    0  501 -0.00000000000E+00 -0.00000000000E+00 -0.76930841569E+01  0.77972074389E+01  0.12700000000E+01 0.  1.
         25    2    1    2    0    0  0.00000000000E+00  0.00000000000E+00  0.49646492581E+03  0.51195681700E+03  0.12498943921E+03 0.  0.
    9000005    1    3    3    0    0 -0.45594099856E+02 -0.18822636774E+02  0.91110585905E+02  0.10361106341E+03  0.10000000000E+01 0.  0.
    9000005    1    3    3    0    0  0.45594099856E+02  0.18822636774E+02  0.40535433990E+03  0.40834575359E+03  0.10000000000E+01 0.  0.
<mgrwt>
<rscale>  0 0.12498944E+03</rscale>
<asrwt>0</asrwt>
<pdfrwt beam="1">  1        4 0.77570891E-01 0.12498944E+03</pdfrwt>
<pdfrwt beam="2">  1       -4 0.11916841E-02 0.12498944E+03</pdfrwt>
<totfact> 0.54961215E+03</totfact>
</mgrwt>
</event>
<event>
 5    1  0.3486294E-002  0.1250019E+03  0.7818608E-02  0.1235066E+00
         -4   -1    0    0    0  501 -0.00000000000E+00  0.00000000000E+00  0.11026921321E+03  0.11027652644E+03  0.12700000000E+01 0.  1.
          4   -1    0    0  501    0  0.00000000000E+00 -0.00000000000E+00 -0.35405861643E+02  0.35428631623E+02  0.12700000000E+01 0.  1.
         25    2    1    2    0    0  0.00000000000E+00  0.00000000000E+00  0.74863351571E+02  0.14570515806E+03  0.12500188669E+03 0.  0.
    9000005    1    3    3    0    0 -0.25950780615E+02  0.21961003738E+02  0.98553487010E+02  0.10425698299E+03  0.10000000000E+01 0.  0.
    9000005    1    3    3    0    0  0.25950780615E+02 -0.21961003738E+02 -0.23690135438E+02  0.41448175072E+02  0.10000000000E+01 0.  0.
<mgrwt>
<rscale>  0 0.12500189E+03</rscale>
<asrwt>0</asrwt>
<pdfrwt beam="2">  1        4 0.54493698E-02 0.12500189E+03</pdfrwt>
<pdfrwt beam="1">  1       -4 0.16966808E-01 0.12500189E+03</pdfrwt>
<totfact> 0.10016255E+04</totfact>
</mgrwt>
</event>
<event>
 5    1  0.3486294E-002  0.1249950E+03  0.7818608E-02  0.1235077E+00
         -4   -1    0    0    0  501 -0.00000000000E+00  0.00000000000E+00  0.21769261992E+02  0.21806275878E+02  0.12700000000E+01 0. -1.
          4   -1    0    0  501    0  0.00000000000E+00 -0.00000000000E+00 -0.17923271010E+03  0.17923720950E+03  0.12700000000E+01 0. -1.
         25    2    1    2    0    0  0.00000000000E+00  0.00000000000E+00 -0.15746344811E+03  0.20104348538E+03  0.12499498199E+03 0.  0.
    9000005    1    3    3    0    0 -0.27455296259E+02 -0.16774074651E+02 -0.16489480853E+03  0.16800732351E+03  0.10000000000E+01 0.  0.
    9000005    1    3    3    0    0  0.27455296259E+02  0.16774074651E+02  0.74313604246E+01  0.33036161866E+02  0.10000000000E+01 0.  0.
<mgrwt>
<rscale>  0 0.12499498E+03</rscale>
<asrwt>0</asrwt>
<pdfrwt beam="2">  1        4 0.27577455E-01 0.12499498E+03</pdfrwt>
<pdfrwt beam="1">  1       -4 0.33523107E-02 0.12499498E+03</pdfrwt>
<totfact> 0.89969914E+03</totfact>
</mgrwt>
</event>
<event>
 5    1  0.3486294E-002  0.1249973E+03  0.7818608E-02  0.1235074E+00
         -4   -1    0    0    0  501 -0.00000000000E+00  0.00000000000E+00  0.23110916835E+02  0.23145785296E+02  0.12700000000E+01 0.  1.
          4   -1    0    0  501    0  0.00000000000E+00 -0.00000000000E+00 -0.16884982003E+03  0.16885459610E+03  0.12700000000E+01 0.  1.
         25    2    1    2    0    0  0.00000000000E+00  0.00000000000E+00 -0.14573890320E+03  0.19200038140E+03  0.12499727418E+03 0.  0.
    9000005    1    3    3    0    0  0.11829976245E+02 -0.60977187419E+02 -0.83390339313E+02  0.10398612607E+03  0.10000000000E+01 0.  0.
    9000005    1    3    3    0    0 -0.11829976245E+02  0.60977187419E+02 -0.62348563886E+02  0.88014255335E+02  0.10000000000E+01 0.  0.
<mgrwt>
<rscale>  0 0.12499727E+03</rscale>
<asrwt>0</asrwt>
<pdfrwt beam="2">  1        4 0.25979944E-01 0.12499727E+03</pdfrwt>
<pdfrwt beam="1">  1       -4 0.35585753E-02 0.12499727E+03</pdfrwt>
<totfact> 0.91506002E+03</totfact>
</mgrwt>
</event>
<event>
 5    1  0.3486294E-002  0.1249991E+03  0.7818608E-02  0.1235071E+00
          4   -1    0    0  501    0  0.00000000000E+00  0.00000000000E+00  0.40184685164E+02  0.40204748746E+02  0.12700000000E+01 0.  1.
         -4   -1    0    0    0  501 -0.00000000000E+00 -0.00000000000E+00 -0.97157500110E+02  0.97165800195E+02  0.12700000000E+01 0.  1.
         25    2    1    2    0    0  0.00000000000E+00  0.00000000000E+00 -0.56972814946E+02  0.13737054894E+03  0.12499906429E+03 0.  0.
    9000005    1    3    3    0    0  0.15698309050E+02 -0.59306244088E+02 -0.41560211031E+02  0.74107480296E+02  0.10000000000E+01 0.  0.
    9000005    1    3    3    0    0 -0.15698309050E+02  0.59306244088E+02 -0.15412603915E+02  0.63263068645E+02  0.10000000000E+01 0.  0.
<mgrwt>
<rscale>  0 0.12499906E+03</rscale>
<asrwt>0</asrwt>
<pdfrwt beam="1">  1        4 0.61844411E-02 0.12499906E+03</pdfrwt>
<pdfrwt beam="2">  1       -4 0.14949489E-01 0.12499906E+03</pdfrwt>
<totfact> 0.10188559E+04</totfact>
</mgrwt>
</event>
<event>
 5    1  0.3486294E-002  0.1250019E+03  0.7818608E-02  0.1235066E+00
          4   -1    0    0  501    0  0.00000000000E+00  0.00000000000E+00  0.59487988205E+03  0.59488123770E+03  0.12700000000E+01 0. -1.
         -4   -1    0    0    0  501 -0.00000000000E+00 -0.00000000000E+00 -0.65038746725E+01  0.66267100250E+01  0.12700000000E+01 0. -1.
         25    2    1    2    0    0  0.00000000000E+00  0.00000000000E+00  0.58837600738E+03  0.60150794773E+03  0.12500194046E+03 0.  0.
    9000005    1    3    3    0    0 -0.12862364835E+02  0.12835252438E+02  0.58191062302E+03  0.58219511963E+03  0.10000000000E+01 0.  0.
    9000005    1    3    3    0    0  0.12862364835E+02 -0.12835252438E+02  0.64653843588E+01  0.19312828099E+02  0.10000000000E+01 0.  0.
<mgrwt>
<rscale>  0 0.12500194E+03</rscale>
<asrwt>0</asrwt>
<pdfrwt beam="1">  1        4 0.91529567E-01 0.12500194E+03</pdfrwt>
<pdfrwt beam="2">  1       -4 0.10101489E-02 0.12500194E+03</pdfrwt>
<totfact> 0.48770474E+03</totfact>
</mgrwt>
</event>
<event>
 5    1  0.3486294E-002  0.1249990E+03  0.7818608E-02  0.1235071E+00
         -4   -1    0    0    0  501 -0.00000000000E+00  0.00000000000E+00  0.20718865535E+03  0.20719254766E+03  0.12700000000E+01 0. -1.
          4   -1    0    0  501    0  0.00000000000E+00 -0.00000000000E+00 -0.18827815353E+02  0.18870599645E+02  0.12700000000E+01 0. -1.
         25    2    1    2    0    0  0.00000000000E+00  0.00000000000E+00  0.18836084000E+03  0.22606314731E+03  0.12499896210E+03 0.  0.
    9000005    1    3    3    0    0  0.16192821695E+02  0.26556011729E+02 -0.38433081641E+01  0.31356024159E+02  0.10000000000E+01 0.  0.
    9000005    1    3    3    0    0 -0.16192821695E+02 -0.26556011729E+02  0.19220414816E+03  0.19470712315E+03  0.10000000000E+01 0.  0.
<mgrwt>
<rscale>  0 0.12499896E+03</rscale>
<asrwt>0</asrwt>
<pdfrwt beam="2">  1        4 0.29001778E-02 0.12499896E+03</pdfrwt>
<pdfrwt beam="1">  1       -4 0.31878765E-01 0.12499896E+03</pdfrwt>
<totfact> 0.85919786E+03</totfact>
</mgrwt>
</event>
<event>
 5    1  0.3486294E-002  0.1250018E+03  0.7818608E-02  0.1235066E+00
         -4   -1    0    0    0  501 -0.00000000000E+00  0.00000000000E+00  0.23092399542E+02  0.23127295921E+02  0.12700000000E+01 0.  1.
          4   -1    0    0  501    0  0.00000000000E+00 -0.00000000000E+00 -0.16899735895E+03  0.16900213085E+03  0.12700000000E+01 0.  1.
         25    2    1    2    0    0  0.00000000000E+00  0.00000000000E+00 -0.14590495941E+03  0.19212942677E+03  0.12500183779E+03 0.  0.
    9000005    1    3    3    0    0  0.17369491795E+02  0.12006194326E+02  0.17451014777E+02  0.27411418499E+02  0.10000000000E+01 0.  0.
    9000005    1    3    3    0    0 -0.17369491795E+02 -0.12006194326E+02 -0.16335597419E+03  0.16471800827E+03  0.10000000000E+01 0.  0.
<mgrwt>
<rscale>  0 0.12500184E+03</rscale>
<asrwt>0</asrwt>
<pdfrwt beam="2">  1        4 0.26002644E-01 0.12500184E+03</pdfrwt>
<pdfrwt beam="1">  1       -4 0.35557284E-02 0.12500184E+03</pdfrwt>
<totfact> 0.91474351E+03</totfact>
</mgrwt>
</event>
<event>
 5    1  0.3486294E-002  0.1249984E+03  0.7818608E-02  0.1235072E+00
         -4   -1    0    0    0  501 -0.00000000000E+00  0.00000000000E+00  0.74651797300E+02  0.74662599340E+02  0.12700000000E+01 0.  1.
          4   -1    0    0  501    0  0.00000000000E+00 -0.00000000000E+00 -0.52302649777E+02  0.52318066418E+02  0.12700000000E+01 0.  1.
         25    2    1    2    0    0  0.00000000000E+00  0.00000000000E+00  0.22349147523E+02  0.12698066576E+03  0.12499842032E+03 0.  0.
    9000005    1    3    3    0    0 -0.40497280456E+02 -0.47372309093E+02  0.65208924529E+01  0.62671264799E+02  0.10000000000E+01 0.  0.
    9000005    1    3    3    0    0  0.40497280456E+02  0.47372309093E+02  0.15828255070E+02  0.64309400959E+02  0.10000000000E+01 0.  0.
<mgrwt>
<rscale>  0 0.12499842E+03</rscale>
<asrwt>0</asrwt>
<pdfrwt beam="2">  1        4 0.80485784E-02 0.12499842E+03</pdfrwt>
<pdfrwt beam="1">  1       -4 0.11486909E-01 0.12499842E+03</pdfrwt>
<totfact> 0.10409937E+04</totfact>
</mgrwt>
</event>
<event>
 5    1  0.3486294E-002  0.1250065E+03  0.7818608E-02  0.1235059E+00
         -4   -1    0    0    0  501 -0.00000000000E+00  0.00000000000E+00  0.35775901767E+03  0.35776127183E+03  0.12700000000E+01 0.  1.
          4   -1    0    0  501    0  0.00000000000E+00 -0.00000000000E+00 -0.10880572783E+02  0.10954440382E+02  0.12700000000E+01 0.  1.
         25    2    1    2    0    0  0.00000000000E+00  0.00000000000E+00  0.34687844488E+03  0.36871571221E+03  0.12500648346E+03 0.  0.
    9000005    1    3    3    0    0 -0.51710824412E+02  0.35071052592E+02  0.17724763985E+03  0.18794071917E+03  0.10000000000E+01 0.  0.
    9000005    1    3    3    0    0  0.51710824412E+02 -0.35071052592E+02  0.16963080503E+03  0.18077499304E+03  0.10000000000E+01 0.  0.
<mgrwt>
<rscale>  0 0.12500648E+03</rscale>
<asrwt>0</asrwt>
<pdfrwt beam="2">  1        4 0.16797902E-02 0.12500648E+03</pdfrwt>
<pdfrwt beam="1">  1       -4 0.55045691E-01 0.12500648E+03</pdfrwt>
<totfact> 0.67703814E+03</totfact>
</mgrwt>
</event>
<event>
 5    1  0.3486294E-002  0.1249896E+03  0.7818608E-02  0.1235085E+00
         -4   -1    0    0    0  501 -0.00000000000E+00  0.00000000000E+00  0.72056508980E+02  0.72067700021E+02  0.12700000000E+01 0. -1.
          4   -1    0    0  501    0  0.00000000000E+00 -0.00000000000E+00 -0.54179092982E+02  0.54193975831E+02  0.12700000000E+01 0. -1.
         25    2    1    2    0    0  0.00000000000E+00  0.00000000000E+00  0.17877415997E+02  0.12626167585E+03  0.12498963472E+03 0.  0.
    9000005    1    3    3    0    0 -0.40861297917E+02 -0.47180831515E+02  0.11956698584E+02  0.63558155818E+02  0.10000000000E+01 0.  0.
    9000005    1    3    3    0    0  0.40861297917E+02  0.47180831515E+02  0.59207174134E+01  0.62703520034E+02  0.10000000000E+01 0.  0.
<mgrwt>
<rscale>  0 0.12498963E+03</rscale>
<asrwt>0</asrwt>
<pdfrwt beam="2">  1        4 0.83372507E-02 0.12498963E+03</pdfrwt>
<pdfrwt beam="1">  1       -4 0.11087623E-01 0.12498963E+03</pdfrwt>
<totfact> 0.10427670E+04</totfact>
</mgrwt>
</event>
<event>
 5    1  0.3486294E-002  0.1250094E+03  0.7818608E-02  0.1235055E+00
          4   -1    0    0  501    0  0.00000000000E+00  0.00000000000E+00  0.15475257764E+02  0.15527282533E+02  0.12700000000E+01 0. -1.
         -4   -1    0    0    0  501 -0.00000000000E+00 -0.00000000000E+00 -0.25197993348E+03  0.25198313391E+03  0.12700000000E+01 0. -1.
         25    2    1    2    0    0  0.00000000000E+00  0.00000000000E+00 -0.23650467571E+03  0.26751041644E+03  0.12500944473E+03 0.  0.
    9000005    1    3    3    0    0 -0.27926545490E+02 -0.71446095226E+01  0.41018470468E+00  0.28846241345E+02  0.10000000000E+01 0.  0.
    9000005    1    3    3    0    0  0.27926545490E+02  0.71446095226E+01 -0.23691486042E+03  0.23866417510E+03  0.10000000000E+01 0.  0.
<mgrwt>
<rscale>  0 0.12500944E+03</rscale>
<asrwt>0</asrwt>
<pdfrwt beam="1">  1        4 0.23850572E-02 0.12500944E+03</pdfrwt>
<pdfrwt beam="2">  1       -4 0.38770389E-01 0.12500944E+03</pdfrwt>
<totfact> 0.79846721E+03</totfact>
</mgrwt>
</event>
<event>
 5    1  0.3486294E-002  0.1250021E+03  0.7818608E-02  0.1235066E+00
          4   -1    0    0  501    0  0.00000000000E+00  0.00000000000E+00  0.10278090763E+03  0.10278875363E+03  0.12700000000E+01 0.  1.
         -4   -1    0    0    0  501 -0.00000000000E+00 -0.00000000000E+00 -0.37986943394E+02  0.38008167128E+02  0.12700000000E+01 0.  1.
         25    2    1    2    0    0  0.00000000000E+00  0.00000000000E+00  0.64793964234E+02  0.14079692076E+03  0.12500206036E+03 0.  0.
    9000005    1    3    3    0    0 -0.34423328525E+02 -0.26972994432E+02  0.82679331013E+02  0.93538119247E+02  0.10000000000E+01 0.  0.
    9000005    1    3    3    0    0  0.34423328525E+02  0.26972994432E+02 -0.17885366779E+02  0.47258801511E+02  0.10000000000E+01 0.  0.
<mgrwt>
<rscale>  0 0.12500206E+03</rscale>
<asrwt>0</asrwt>
<pdfrwt beam="1">  1        4 0.15814683E-01 0.12500206E+03</pdfrwt>
<pdfrwt beam="2">  1       -4 0.58463813E-02 0.12500206E+03</pdfrwt>
<totfact> 0.10116626E+04</totfact>
</mgrwt>
</event>
<event>
 5    1  0.3486294E-002  0.1249979E+03  0.7818608E-02  0.1235072E+00
         -4   -1    0    0    0  501 -0.00000000000E+00  0.00000000000E+00  0.50465696633E+02  0.50481674265E+02  0.12700000000E+01 0.  1.
          4   -1    0    0  501    0  0.00000000000E+00 -0.00000000000E+00 -0.77368078911E+02  0.77378501758E+02  0.12700000000E+01 0.  1.
         25    2    1    2    0    0  0.00000000000E+00  0.00000000000E+00 -0.26902382278E+02  0.12786017602E+03  0.12499794575E+03 0.  0.
    9000005    1    3    3    0    0  0.11606076098E+02 -0.52742796907E+02  0.18711077498E+02  0.57162995452E+02  0.10000000000E+01 0.  0.
    9000005    1    3    3    0    0 -0.11606076098E+02  0.52742796907E+02 -0.45613459776E+02  0.70697180571E+02  0.10000000000E+01 0.  0.
<mgrwt>
<rscale>  0 0.12499795E+03</rscale>
<asrwt>0</asrwt>
<pdfrwt beam="2">  1        4 0.11904812E-01 0.12499795E+03</pdfrwt>
<pdfrwt beam="1">  1       -4 0.77659841E-02 0.12499795E+03</pdfrwt>
<totfact> 0.10390990E+04</totfact>
</mgrwt>
</event>
<event>
 5    1  0.3486294E-002  0.1249987E+03  0.7818608E-02  0.1235071E+00
         -4   -1    0    0    0  501 -0.00000000000E+00  0.00000000000E+00  0.11439826411E+03  0.11440531339E+03  0.12700000000E+01 0. -1.
          4   -1    0    0  501    0  0.00000000000E+00 -0.00000000000E+00 -0.34125441489E+02  0.34149065241E+02  0.12700000000E+01 0. -1.
         25    2    1    2    0    0  0.00000000000E+00  0.00000000000E+00  0.80272822623E+02  0.14855437863E+03  0.12499870943E+03 0.  0.
    9000005    1    3    3    0    0  0.68403294862E+01  0.15320104452E+02  0.11167732228E+03  0.11293502565E+03  0.10000000000E+01 0.  0.
    9000005    1    3    3    0    0 -0.68403294862E+01 -0.15320104452E+02 -0.31404499656E+02  0.35619352978E+02  0.10000000000E+01 0.  0.
<mgrwt>
<rscale>  0 0.12499871E+03</rscale>
<asrwt>0</asrwt>
<pdfrwt beam="2">  1        4 0.52524274E-02 0.12499871E+03</pdfrwt>
<pdfrwt beam="1">  1       -4 0.17602092E-01 0.12499871E+03</pdfrwt>
<totfact> 0.99595538E+03</totfact>
</mgrwt>
</event>
<event>
 5    1  0.3486294E-002  0.1250109E+03  0.7818608E-02  0.1235052E+00
         -4   -1    0    0    0  501 -0.00000000000E+00  0.00000000000E+00  0.13859113074E+03  0.13859694953E+03  0.12700000000E+01 0. -1.
          4   -1    0    0  501    0  0.00000000000E+00 -0.00000000000E+00 -0.28169612898E+02  0.28198226732E+02  0.12700000000E+01 0. -1.
         25    2    1    2    0    0  0.00000000000E+00  0.00000000000E+00  0.11042151784E+03  0.16679517627E+03  0.12501087642E+03 0.  0.
    9000005    1    3    3    0    0  0.27976231987E+02 -0.48214067844E+02  0.92917388721E+02  0.10836008039E+03  0.10000000000E+01 0.  0.
    9000005    1    3    3    0    0 -0.27976231987E+02  0.48214067844E+02  0.17504129123E+02  0.58435095881E+02  0.10000000000E+01 0.  0.
<mgrwt>
<rscale>  0 0.12501088E+03</rscale>
<asrwt>0</asrwt>
<pdfrwt beam="2">  1        4 0.43364353E-02 0.12501088E+03</pdfrwt>
<pdfrwt beam="1">  1       -4 0.21324361E-01 0.12501088E+03</pdfrwt>
<totfact> 0.96025031E+03</totfact>
</mgrwt>
</event>
<event>
 5    1  0.3486294E-002  0.1250458E+03  0.7818608E-02  0.1234998E+00
          4   -1    0    0  501    0  0.00000000000E+00  0.00000000000E+00  0.17831608850E+02  0.17876777512E+02  0.12700000000E+01 0.  1.
         -4   -1    0    0    0  501 -0.00000000000E+00 -0.00000000000E+00 -0.21889944294E+03  0.21890312702E+03  0.12700000000E+01 0.  1.
         25    2    1    2    0    0  0.00000000000E+00  0.00000000000E+00 -0.20106783409E+03  0.23677990453E+03  0.12504578875E+03 0.  0.
    9000005    1    3    3    0    0 -0.52225380476E+02 -0.33797198575E+02 -0.88804426166E+02  0.10842954904E+03  0.10000000000E+01 0.  0.
    9000005    1    3    3    0    0  0.52225380476E+02  0.33797198575E+02 -0.11226340792E+03  0.12835035550E+03  0.10000000000E+01 0.  0.
<mgrwt>
<rscale>  0 0.12504579E+03</rscale>
<asrwt>0</asrwt>
<pdfrwt beam="1">  1        4 0.27470825E-02 0.12504579E+03</pdfrwt>
<pdfrwt beam="2">  1       -4 0.33680593E-01 0.12504579E+03</pdfrwt>
<totfact> 0.84193297E+03</totfact>
</mgrwt>
</event>
<event>
 5    1  0.3486294E-002  0.1249998E+03  0.7818608E-02  0.1235070E+00
          4   -1    0    0  501    0  0.00000000000E+00  0.00000000000E+00  0.64765061024E+03  0.64765185543E+03  0.12700000000E+01 0.  1.
         -4   -1    0    0    0  501 -0.00000000000E+00 -0.00000000000E+00 -0.59632756320E+01  0.60970120766E+01  0.12700000000E+01 0.  1.
         25    2    1    2    0    0  0.00000000000E+00  0.00000000000E+00  0.64168733461E+03  0.65374886751E+03  0.12499978549E+03 0.  0.
    9000005    1    3    3    0    0  0.26123753814E+02  0.55629975846E+02  0.38003559173E+03  0.38497427928E+03  0.10000000000E+01 0.  0.
    9000005    1    3    3    0    0 -0.26123753814E+02 -0.55629975846E+02  0.26165174288E+03  0.26877458823E+03  0.10000000000E+01 0.  0.
<mgrwt>
<rscale>  0 0.12499979E+03</rscale>
<asrwt>0</asrwt>
<pdfrwt beam="1">  1        4 0.99648878E-01 0.12499979E+03</pdfrwt>
<pdfrwt beam="2">  1       -4 0.92781079E-03 0.12499979E+03</pdfrwt>
<totfact> 0.45641583E+03</totfact>
</mgrwt>
</event>
<event>
 5    1  0.3486294E-002  0.1250088E+03  0.7818608E-02  0.1235056E+00
         -4   -1    0    0    0  501 -0.00000000000E+00  0.00000000000E+00  0.46774133262E+02  0.46791371452E+02  0.12700000000E+01 0.  1.
          4   -1    0    0  501    0  0.00000000000E+00 -0.00000000000E+00 -0.83487291752E+02  0.83496950747E+02  0.12700000000E+01 0.  1.
         25    2    1    2    0    0  0.00000000000E+00  0.00000000000E+00 -0.36713158491E+02  0.13028832220E+03  0.12500876327E+03 0.  0.
    9000005    1    3    3    0    0 -0.97610773085E+01 -0.58024159036E+02  0.35976203192E+01  0.58957819956E+02  0.10000000000E+01 0.  0.
    9000005    1    3    3    0    0  0.97610773085E+01  0.58024159036E+02 -0.40310778810E+02  0.71330502243E+02  0.10000000000E+01 0.  0.
<mgrwt>
<rscale>  0 0.12500876E+03</rscale>
<asrwt>0</asrwt>
<pdfrwt beam="2">  1        4 0.12846268E-01 0.12500876E+03</pdfrwt>
<pdfrwt beam="1">  1       -4 0.71980895E-02 0.12500876E+03</pdfrwt>
<totfact> 0.10336299E+04</totfact>
</mgrwt>
</event>
<event>
 5    1  0.3486294E-002  0.1249960E+03  0.7818608E-02  0.1235076E+00
         -4   -1    0    0    0  501 -0.00000000000E+00  0.00000000000E+00  0.99831045247E+02  0.99839123068E+02  0.12700000000E+01 0.  1.
          4   -1    0    0  501    0  0.00000000000E+00 -0.00000000000E+00 -0.39106147522E+02  0.39126764165E+02  0.12700000000E+01 0.  1.
         25    2    1    2    0    0  0.00000000000E+00  0.00000000000E+00  0.60724897725E+02  0.13896588723E+03  0.12499601838E+03 0.  0.
    9000005    1    3    3    0    0  0.13707810259E+02  0.47052792682E+02  0.73465752269E+02  0.88318096207E+02  0.10000000000E+01 0.  0.
    9000005    1    3    3    0    0 -0.13707810259E+02 -0.47052792682E+02 -0.12740854544E+02  0.50647791026E+02  0.10000000000E+01 0.  0.
<mgrwt>
<rscale>  0 0.12499602E+03</rscale>
<asrwt>0</asrwt>
<pdfrwt beam="2">  1        4 0.60185378E-02 0.12499602E+03</pdfrwt>
<pdfrwt beam="1">  1       -4 0.15360829E-01 0.12499602E+03</pdfrwt>
<totfact> 0.10155974E+04</totfact>
</mgrwt>
</event>
<event>
 5    1  0.3486294E-002  0.1250153E+03  0.7818608E-02  0.1235045E+00
          4   -1    0    0  501    0  0.00000000000E+00  0.00000000000E+00  0.73566212239E+01  0.74654387568E+01  0.12700000000E+01 0. -1.
         -4   -1    0    0    0  501 -0.00000000000E+00 -0.00000000000E+00 -0.52710539237E+03  0.52710692232E+03  0.12700000000E+01 0. -1.
         25    2    1    2    0    0  0.00000000000E+00  0.00000000000E+00 -0.51974877114E+03  0.53457236108E+03  0.12501529557E+03 0.  0.
    9000005    1    3    3    0    0 -0.21417339576E+02 -0.30917016826E+02 -0.47331946195E+03  0.47481246553E+03  0.10000000000E+01 0.  0.
    9000005    1    3    3    0    0  0.21417339576E+02  0.30917016826E+02 -0.46429309196E+02  0.59759895552E+02  0.10000000000E+01 0.  0.
<mgrwt>
<rscale>  0 0.12501530E+03</rscale>
<asrwt>0</asrwt>
<pdfrwt beam="1">  1        4 0.11402766E-02 0.12501530E+03</pdfrwt>
<pdfrwt beam="2">  1       -4 0.81101596E-01 0.12501530E+03</pdfrwt>
<totfact> 0.53260445E+03</totfact>
</mgrwt>
</event>
<event>
 5    1  0.3486294E-002  0.1249984E+03  0.7818608E-02  0.1235072E+00
          4   -1    0    0  501    0  0.00000000000E+00  0.00000000000E+00  0.70095023464E+01  0.71236242984E+01  0.12700000000E+01 0. -1.
         -4   -1    0    0    0  501 -0.00000000000E+00 -0.00000000000E+00 -0.55265018736E+03  0.55265164660E+03  0.12700000000E+01 0. -1.
         25    2    1    2    0    0  0.00000000000E+00  0.00000000000E+00 -0.54564068501E+03  0.55977527090E+03  0.12499838706E+03 0.  0.
    9000005    1    3    3    0    0  0.44430614485E+02  0.39220682448E+02 -0.36157667066E+03  0.36640282505E+03  0.10000000000E+01 0.  0.
    9000005    1    3    3    0    0 -0.44430614485E+02 -0.39220682448E+02 -0.18406401435E+03  0.19337244585E+03  0.10000000000E+01 0.  0.
<mgrwt>
<rscale>  0 0.12499839E+03</rscale>
<asrwt>0</asrwt>
<pdfrwt beam="1">  1        4 0.10872763E-02 0.12499839E+03</pdfrwt>
<pdfrwt beam="2">  1       -4 0.85031963E-01 0.12499839E+03</pdfrwt>
<totfact> 0.51511149E+03</totfact>
</mgrwt>
</event>
<event>
 5    1  0.3486294E-002  0.1249983E+03  0.7818608E-02  0.1235072E+00
         -4   -1    0    0    0  501 -0.00000000000E+00  0.00000000000E+00  0.36183842669E+02  0.36206123381E+02  0.12700000000E+01 0. -1.
          4   -1    0    0  501    0  0.00000000000E+00 -0.00000000000E+00 -0.10789350336E+03  0.10790097760E+03  0.12700000000E+01 0. -1.
         25    2    1    2    0    0  0.00000000000E+00  0.00000000000E+00 -0.71709660692E+02  0.14410710098E+03  0.12499832446E+03 0.  0.
    9000005    1    3    3    0    0 -0.50818330582E+02 -0.20568774923E+02 -0.70432697557E+02  0.89259969247E+02  0.10000000000E+01 0.  0.
    9000005    1    3    3    0    0  0.50818330582E+02  0.20568774923E+02 -0.12769631358E+01  0.54847131737E+02  0.10000000000E+01 0.  0.
<mgrwt>
<rscale>  0 0.12499832E+03</rscale>
<asrwt>0</asrwt>
<pdfrwt beam="2">  1        4 0.16601289E-01 0.12499832E+03</pdfrwt>
<pdfrwt beam="1">  1       -4 0.55690339E-02 0.12499832E+03</pdfrwt>
<totfact> 0.10049541E+04</totfact>
</mgrwt>
</event>
<event>
 5    1  0.3486294E-002  0.1249940E+03  0.7818608E-02  0.1235079E+00
         -4   -1    0    0    0  501 -0.00000000000E+00  0.00000000000E+00  0.13902254969E+03  0.13902835043E+03  0.12700000000E+01 0.  1.
          4   -1    0    0  501    0  0.00000000000E+00 -0.00000000000E+00 -0.28074522857E+02  0.28103233508E+02  0.12700000000E+01 0.  1.
         25    2    1    2    0    0  0.00000000000E+00  0.00000000000E+00  0.11094802684E+03  0.16713158394E+03  0.12499400662E+03 0.  0.
    9000005    1    3    3    0    0  0.50673979699E+02  0.11865712759E+02  0.10172024327E+03  0.11426572210E+03  0.10000000000E+01 0.  0.
    9000005    1    3    3    0    0 -0.50673979699E+02 -0.11865712759E+02  0.92277835697E+01  0.52865861833E+02  0.10000000000E+01 0.  0.
<mgrwt>
<rscale>  0 0.12499401E+03</rscale>
<asrwt>0</asrwt>
<pdfrwt beam="2">  1        4 0.43218122E-02 0.12499401E+03</pdfrwt>
<pdfrwt beam="1">  1       -4 0.21390739E-01 0.12499401E+03</pdfrwt>
<totfact> 0.95998142E+03</totfact>
</mgrwt>
</event>
<event>
 5    1  0.3486294E-002  0.1250024E+03  0.7818608E-02  0.1235066E+00
         -4   -1    0    0    0  501 -0.00000000000E+00  0.00000000000E+00  0.71344051045E+03  0.71344164082E+03  0.12700000000E+01 0.  1.
          4   -1    0    0  501    0  0.00000000000E+00 -0.00000000000E+00 -0.54006480954E+01  0.55479635769E+01  0.12700000000E+01 0.  1.
         25    2    1    2    0    0  0.00000000000E+00  0.00000000000E+00  0.70803986236E+03  0.71898960439E+03  0.12500241815E+03 0.  0.
    9000005    1    3    3    0    0 -0.51799021991E+02 -0.29265467835E+02  0.46402760705E+03  0.46782713302E+03  0.10000000000E+01 0.  0.
    9000005    1    3    3    0    0  0.51799021991E+02  0.29265467835E+02  0.24401225531E+03  0.25116247138E+03  0.10000000000E+01 0.  0.
<mgrwt>
<rscale>  0 0.12500242E+03</rscale>
<asrwt>0</asrwt>
<pdfrwt beam="2">  1        4 0.84228804E-03 0.12500242E+03</pdfrwt>
<pdfrwt beam="1">  1       -4 0.10977147E+00 0.12500242E+03</pdfrwt>
<totfact> 0.42100805E+03</totfact>
</mgrwt>
</event>
<event>
 5    1  0.3486294E-002  0.1249995E+03  0.7818608E-02  0.1235070E+00
         -4   -1    0    0    0  501 -0.00000000000E+00  0.00000000000E+00  0.11152852420E+04  0.11152859651E+04  0.12700000000E+01 0.  1.
          4   -1    0    0  501    0  0.00000000000E+00 -0.00000000000E+00 -0.33865629980E+01  0.36168645177E+01  0.12700000000E+01 0.  1.
         25    2    1    2    0    0  0.00000000000E+00  0.00000000000E+00  0.11118986790E+04  0.11189028296E+04  0.12499947894E+03 0.  0.
    9000005    1    3    3    0    0  0.54785019831E+02  0.23385578102E+02  0.72506272763E+03  0.72750618049E+03  0.10000000000E+01 0.  0.
    9000005    1    3    3    0    0 -0.54785019831E+02 -0.23385578102E+02  0.38683595138E+03  0.39139664912E+03  0.10000000000E+01 0.  0.
<mgrwt>
<rscale>  0 0.12499948E+03</rscale>
<asrwt>0</asrwt>
<pdfrwt beam="2">  1        4 0.53878098E-03 0.12499948E+03</pdfrwt>
<pdfrwt beam="1">  1       -4 0.17160006E+00 0.12499948E+03</pdfrwt>
<totfact> 0.26936963E+03</totfact>
</mgrwt>
</event>
<event>
 5    1  0.3486294E-002  0.1250036E+03  0.7818608E-02  0.1235064E+00
          4   -1    0    0  501    0  0.00000000000E+00  0.00000000000E+00  0.34195720191E+03  0.34195956024E+03  0.12700000000E+01 0.  1.
         -4   -1    0    0    0  501 -0.00000000000E+00 -0.00000000000E+00 -0.11386161618E+02  0.11456769893E+02  0.12700000000E+01 0.  1.
         25    2    1    2    0    0  0.00000000000E+00  0.00000000000E+00  0.33057104030E+03  0.35341633013E+03  0.12500355884E+03 0.  0.
    9000005    1    3    3    0    0 -0.58245122546E+02 -0.22383873793E+02  0.15551602097E+03  0.16757017898E+03  0.10000000000E+01 0.  0.
    9000005    1    3    3    0    0  0.58245122546E+02  0.22383873793E+02  0.17505501933E+03  0.18584615115E+03  0.10000000000E+01 0.  0.
<mgrwt>
<rscale>  0 0.12500356E+03</rscale>
<asrwt>0</asrwt>
<pdfrwt beam="1">  1        4 0.52614401E-01 0.12500356E+03</pdfrwt>
<pdfrwt beam="2">  1       -4 0.17573304E-02 0.12500356E+03</pdfrwt>
<totfact> 0.69344892E+03</totfact>
</mgrwt>
</event>
<event>
 5    1  0.3486294E-002  0.1249974E+03  0.7818608E-02  0.1235073E+00
          4   -1    0    0  501    0  0.00000000000E+00  0.00000000000E+00  0.37509485700E+03  0.37509700698E+03  0.12700000000E+01 0.  1.
         -4   -1    0    0    0  501 -0.00000000000E+00 -0.00000000000E+00 -0.10372697574E+02  0.10450155739E+02  0.12700000000E+01 0.  1.
         25    2    1    2    0    0  0.00000000000E+00  0.00000000000E+00  0.36472215942E+03  0.38554716272E+03  0.12499744440E+03 0.  0.
    9000005    1    3    3    0    0  0.57953524620E+02  0.47007993759E+01  0.11172929823E+03  0.12595691570E+03  0.10000000000E+01 0.  0.
    9000005    1    3    3    0    0 -0.57953524620E+02 -0.47007993759E+01  0.25299286119E+03  0.25959024702E+03  0.10000000000E+01 0.  0.
<mgrwt>
<rscale>  0 0.12499744E+03</rscale>
<asrwt>0</asrwt>
<pdfrwt beam="1">  1        4 0.57713031E-01 0.12499744E+03</pdfrwt>
<pdfrwt beam="2">  1       -4 0.16019232E-02 0.12499744E+03</pdfrwt>
<totfact> 0.65986873E+03</totfact>
</mgrwt>
</event>
<event>
 5    1  0.3486294E-002  0.1249987E+03  0.7818608E-02  0.1235071E+00
         -4   -1    0    0    0  501 -0.00000000000E+00  0.00000000000E+00  0.31329199697E+02  0.31354930293E+02  0.12700000000E+01 0. -1.
          4   -1    0    0  501    0  0.00000000000E+00 -0.00000000000E+00 -0.12460133717E+03  0.12460780924E+03  0.12700000000E+01 0. -1.
         25    2    1    2    0    0  0.00000000000E+00  0.00000000000E+00 -0.93272137468E+02  0.15596273953E+03  0.12499873797E+03 0.  0.
    9000005    1    3    3    0    0 -0.37570896321E+02 -0.49500044220E+02 -0.38421548507E+02  0.73068748571E+02  0.10000000000E+01 0.  0.
    9000005    1    3    3    0    0  0.37570896321E+02  0.49500044220E+02 -0.54850588960E+02  0.82893990961E+02  0.10000000000E+01 0.  0.
<mgrwt>
<rscale>  0 0.12499874E+03</rscale>
<asrwt>0</asrwt>
<pdfrwt beam="2">  1        4 0.19171913E-01 0.12499874E+03</pdfrwt>
<pdfrwt beam="1">  1       -4 0.48223541E-02 0.12499874E+03</pdfrwt>
<totfact> 0.98129617E+03</totfact>
</mgrwt>
</event>
<event>
 5    1  0.3486294E-002  0.1249909E+03  0.7818608E-02  0.1235083E+00
          4   -1    0    0  501    0  0.00000000000E+00  0.00000000000E+00  0.46494235614E+02  0.46511577541E+02  0.12700000000E+01 0. -1.
         -4   -1    0    0    0  501 -0.00000000000E+00 -0.00000000000E+00 -0.83965776198E+02  0.83975380157E+02  0.12700000000E+01 0. -1.
         25    2    1    2    0    0  0.00000000000E+00  0.00000000000E+00 -0.37471540584E+02  0.13048695770E+03  0.12499091877E+03 0.  0.
    9000005    1    3    3    0    0 -0.23973718682E+01 -0.76010131695E+00  0.46446497450E+02  0.46525286364E+02  0.10000000000E+01 0.  0.
    9000005    1    3    3    0    0  0.23973718682E+01  0.76010131695E+00 -0.83918038033E+02  0.83961671334E+02  0.10000000000E+01 0.  0.
<mgrwt>
<rscale>  0 0.12499092E+03</rscale>
<asrwt>0</asrwt>
<pdfrwt beam="1">  1        4 0.71550321E-02 0.12499092E+03</pdfrwt>
<pdfrwt beam="2">  1       -4 0.12919884E-01 0.12499092E+03</pdfrwt>
<totfact> 0.10336218E+04</totfact>
</mgrwt>
</event>
<event>
 5    1  0.3486294E-002  0.1249970E+03  0.7818608E-02  0.1235074E+00
          4   -1    0    0  501    0  0.00000000000E+00  0.00000000000E+00  0.23499036600E+01  0.26711321965E+01  0.12700000000E+01 0. -1.
         -4   -1    0    0    0  501 -0.00000000000E+00 -0.00000000000E+00 -0.15555580094E+04  0.15555585279E+04  0.12700000000E+01 0. -1.
         25    2    1    2    0    0  0.00000000000E+00  0.00000000000E+00 -0.15532081058E+04  0.15582296600E+04  0.12499701458E+03 0.  0.
    9000005    1    3    3    0    0  0.59103533577E+02  0.18823682254E+02 -0.87113708057E+03  0.87334321537E+03  0.10000000000E+01 0.  0.
    9000005    1    3    3    0    0 -0.59103533577E+02 -0.18823682254E+02 -0.68207102519E+03  0.68488644468E+03  0.10000000000E+01 0.  0.
<mgrwt>
<rscale>  0 0.12499701E+03</rscale>
<asrwt>0</asrwt>
<pdfrwt beam="1">  1        4 0.38627465E-03 0.12499701E+03</pdfrwt>
<pdfrwt beam="2">  1       -4 0.23934060E+00 0.12499701E+03</pdfrwt>
<totfact> 0.16814965E+03</totfact>
</mgrwt>
</event>
<event>
 5    1  0.3486294E-002  0.1250023E+03  0.7818608E-02  0.1235066E+00
          4   -1    0    0  501    0  0.00000000000E+00  0.00000000000E+00  0.96507485274E+02  0.96515841259E+02  0.12700000000E+01 0.  1.
         -4   -1    0    0    0  501 -0.00000000000E+00 -0.00000000000E+00 -0.40457525307E+02  0.40477453649E+02  0.12700000000E+01 0.  1.
         25    2    1    2    0    0  0.00000000000E+00  0.00000000000E+00  0.56049959967E+02  0.13699329491E+03  0.12500225933E+03 0.  0.
    9000005    1    3    3    0    0  0.33521647559E+01  0.63254438417E+01 -0.40012051788E+02  0.40659716386E+02  0.10000000000E+01 0.  0.
    9000005    1    3    3    0    0 -0.33521647559E+01 -0.63254438417E+01  0.96062011755E+02  0.96333578522E+02  0.10000000000E+01 0.  0.
<mgrwt>
<rscale>  0 0.12500226E+03</rscale>
<asrwt>0</asrwt>
<pdfrwt beam="1">  1        4 0.14849481E-01 0.12500226E+03</pdfrwt>
<pdfrwt beam="2">  1       -4 0.62264105E-02 0.12500226E+03</pdfrwt>
<totfact> 0.10195707E+04</totfact>
</mgrwt>
</event>
<event>
 5    1  0.3486294E-002  0.1249975E+03  0.7818608E-02  0.1235073E+00
         -4   -1    0    0    0  501 -0.00000000000E+00  0.00000000000E+00  0.13443126359E+03  0.13443726243E+03  0.12700000000E+01 0.  1.
          4   -1    0    0  501    0  0.00000000000E+00 -0.00000000000E+00 -0.29035930635E+02  0.29063691573E+02  0.12700000000E+01 0.  1.
         25    2    1    2    0    0  0.00000000000E+00  0.00000000000E+00  0.10539533295E+03  0.16350095400E+03  0.12499754298E+03 0.  0.
    9000005    1    3    3    0    0 -0.30208261731E+01  0.58334541266E+02  0.23653071283E+02  0.63027865874E+02  0.10000000000E+01 0.  0.
    9000005    1    3    3    0    0  0.30208261731E+01 -0.58334541266E+02  0.81742261667E+02  0.10047308813E+03  0.10000000000E+01 0.  0.
<mgrwt>
<rscale>  0 0.12499754E+03</rscale>
<asrwt>0</asrwt>
<pdfrwt beam="2">  1        4 0.44696631E-02 0.12499754E+03</pdfrwt>
<pdfrwt beam="1">  1       -4 0.20684330E-01 0.12499754E+03</pdfrwt>
<totfact> 0.96677380E+03</totfact>
</mgrwt>
</event>
<event>
 5    1  0.3486294E-002  0.1250168E+03  0.7818608E-02  0.1235043E+00
          4   -1    0    0  501    0  0.00000000000E+00  0.00000000000E+00  0.16002780683E+03  0.16003284619E+03  0.12700000000E+01 0. -1.
         -4   -1    0    0    0  501 -0.00000000000E+00 -0.00000000000E+00 -0.24394427086E+02  0.24427463496E+02  0.12700000000E+01 0. -1.
         25    2    1    2    0    0  0.00000000000E+00  0.00000000000E+00  0.13563337974E+03  0.18446030968E+03  0.12501676747E+03 0.  0.
    9000005    1    3    3    0    0 -0.48609237591E+02 -0.23342979116E+02  0.21191719126E+02  0.57946886135E+02  0.10000000000E+01 0.  0.
    9000005    1    3    3    0    0  0.48609237591E+02  0.23342979116E+02  0.11444166062E+03  0.12651342355E+03  0.10000000000E+01 0.  0.
<mgrwt>
<rscale>  0 0.12501677E+03</rscale>
<asrwt>0</asrwt>
<pdfrwt beam="1">  1        4 0.24622591E-01 0.12501677E+03</pdfrwt>
<pdfrwt beam="2">  1       -4 0.37559178E-02 0.12501677E+03</pdfrwt>
<totfact> 0.92785366E+03</totfact>
</mgrwt>
</event>
<event>
 5    1  0.3486294E-002  0.1249999E+03  0.7818608E-02  0.1235069E+00
         -4   -1    0    0    0  501 -0.00000000000E+00  0.00000000000E+00  0.38761432843E+02  0.38782232737E+02  0.12700000000E+01 0. -1.
          4   -1    0    0  501    0  0.00000000000E+00 -0.00000000000E+00 -0.10072468730E+03  0.10073269346E+03  0.12700000000E+01 0. -1.
         25    2    1    2    0    0  0.00000000000E+00  0.00000000000E+00 -0.61963254453E+02  0.13951492619E+03  0.12499987891E+03 0.  0.
    9000005    1    3    3    0    0 -0.57401109545E+02  0.17744591113E+02 -0.11795891240E+02  0.61236434751E+02  0.10000000000E+01 0.  0.
    9000005    1    3    3    0    0  0.57401109545E+02 -0.17744591113E+02 -0.50167363213E+02  0.78278491443E+02  0.10000000000E+01 0.  0.
<mgrwt>
<rscale>  0 0.12499988E+03</rscale>
<asrwt>0</asrwt>
<pdfrwt beam="2">  1        4 0.15498321E-01 0.12499988E+03</pdfrwt>
<pdfrwt beam="1">  1       -4 0.59655133E-02 0.12499988E+03</pdfrwt>
<totfact> 0.10143677E+04</totfact>
</mgrwt>
</event>
<event>
 5    1  0.3486294E-002  0.1250000E+03  0.7818608E-02  0.1235069E+00
          4   -1    0    0  501    0  0.00000000000E+00  0.00000000000E+00  0.18744972770E+04  0.18744977072E+04  0.12700000000E+01 0. -1.
         -4   -1    0    0    0  501 -0.00000000000E+00 -0.00000000000E+00 -0.18899245511E+01  0.22769968838E+01  0.12700000000E+01 0. -1.
         25    2    1    2    0    0  0.00000000000E+00  0.00000000000E+00  0.18726073524E+04  0.18767747041E+04  0.12499997410E+03 0.  0.
    9000005    1    3    3    0    0 -0.37946408503E+02 -0.37519269000E+02  0.44802512813E+03  0.45119301956E+03  0.10000000000E+01 0.  0.
    9000005    1    3    3    0    0  0.37946408503E+02  0.37519269000E+02  0.14245822243E+04  0.14255816845E+04  0.10000000000E+01 0.  0.
<mgrwt>
<rscale>  0 0.12499997E+03</rscale>
<asrwt>0</asrwt>
<pdfrwt beam="1">  1        4 0.28841551E+00 0.12499997E+03</pdfrwt>
<pdfrwt beam="2">  1       -4 0.32056384E-03 0.12499997E+03</pdfrwt>
<totfact> 0.11556465E+03</totfact>
</mgrwt>
</event>
<event>
 5    1  0.3486294E-002  0.1250020E+03  0.7818608E-02  0.1235066E+00
         -4   -1    0    0    0  501 -0.00000000000E+00  0.00000000000E+00  0.10439630915E+04  0.10439638640E+04  0.12700000000E+01 0.  1.
          4   -1    0    0  501    0  0.00000000000E+00 -0.00000000000E+00 -0.36333132215E+01  0.38488784036E+01  0.12700000000E+01 0.  1.
         25    2    1    2    0    0  0.00000000000E+00  0.00000000000E+00  0.10403297783E+04  0.10478127424E+04  0.12500198217E+03 0.  0.
    9000005    1    3    3    0    0 -0.12677714192E+02  0.60636239561E+02  0.58923474596E+03  0.59248296501E+03  0.10000000000E+01 0.  0.
    9000005    1    3    3    0    0  0.12677714192E+02 -0.60636239561E+02  0.45109503235E+03  0.45532977741E+03  0.10000000000E+01 0.  0.
<mgrwt>
<rscale>  0 0.12500198E+03</rscale>
<asrwt>0</asrwt>
<pdfrwt beam="2">  1        4 0.57561275E-03 0.12500198E+03</pdfrwt>
<pdfrwt beam="1">  1       -4 0.16062631E+00 0.12500198E+03</pdfrwt>
<totfact> 0.29061910E+03</totfact>
</mgrwt>
</event>
<event>
 5    1  0.3486294E-002  0.1250019E+03  0.7818608E-02  0.1235066E+00
         -4   -1    0    0    0  501 -0.00000000000E+00  0.00000000000E+00  0.75376927168E+01  0.76439329859E+01  0.12700000000E+01 0.  1.
          4   -1    0    0  501    0  0.00000000000E+00 -0.00000000000E+00 -0.51451102615E+03  0.51451259356E+03  0.12700000000E+01 0.  1.
         25    2    1    2    0    0  0.00000000000E+00  0.00000000000E+00 -0.50697333343E+03  0.52215652655E+03  0.12500190959E+03 0.  0.
    9000005    1    3    3    0    0 -0.36921801704E+02  0.27725287955E+02 -0.77575035493E+02  0.90281765407E+02  0.10000000000E+01 0.  0.
    9000005    1    3    3    0    0  0.36921801704E+02 -0.27725287955E+02 -0.42939829794E+03  0.43187476114E+03  0.10000000000E+01 0.  0.
<mgrwt>
<rscale>  0 0.12500191E+03</rscale>
<asrwt>0</asrwt>
<pdfrwt beam="2">  1        4 0.79163808E-01 0.12500191E+03</pdfrwt>
<pdfrwt beam="1">  1       -4 0.11679383E-02 0.12500191E+03</pdfrwt>
<totfact> 0.54183097E+03</totfact>
</mgrwt>
</event>
<event>
 5    1  0.3486294E-002  0.1250034E+03  0.7818608E-02  0.1235064E+00
         -4   -1    0    0    0  501 -0.00000000000E+00  0.00000000000E+00  0.31809032864E+03  0.31809286391E+03  0.12700000000E+01 0. -1.
          4   -1    0    0  501    0  0.00000000000E+00 -0.00000000000E+00 -0.12245556009E+02  0.12311236411E+02  0.12700000000E+01 0. -1.
         25    2    1    2    0    0  0.00000000000E+00  0.00000000000E+00  0.30584477263E+03  0.33040410032E+03  0.12500337822E+03 0.  0.
    9000005    1    3    3    0    0  0.30913171471E+00  0.52865458942E+02  0.64836923736E+02  0.83664084236E+02  0.10000000000E+01 0.  0.
    9000005    1    3    3    0    0 -0.30913171471E+00 -0.52865458942E+02  0.24100784889E+03  0.24674001609E+03  0.10000000000E+01 0.  0.
<mgrwt>
<rscale>  0 0.12500338E+03</rscale>
<asrwt>0</asrwt>
<pdfrwt beam="2">  1        4 0.18891790E-02 0.12500338E+03</pdfrwt>
<pdfrwt beam="1">  1       -4 0.48942222E-01 0.12500338E+03</pdfrwt>
<totfact> 0.71930161E+03</totfact>
</mgrwt>
</event>
<event>
 5    1  0.3486294E-002  0.1249979E+03  0.7818608E-02  0.1235073E+00
          4   -1    0    0  501    0  0.00000000000E+00  0.00000000000E+00  0.93172508225E+03  0.93172594779E+03  0.12700000000E+01 0. -1.
         -4   -1    0    0    0  501 -0.00000000000E+00 -0.00000000000E+00 -0.40952828032E+01  0.42876848343E+01  0.12700000000E+01 0. -1.
         25    2    1    2    0    0  0.00000000000E+00  0.00000000000E+00  0.92762979944E+03  0.93601363263E+03  0.12499790256E+03 0.  0.
    9000005    1    3    3    0    0  0.51774316615E+02 -0.34341271670E+02  0.51416798074E+03  0.51790888698E+03  0.10000000000E+01 0.  0.
    9000005    1    3    3    0    0 -0.51774316615E+02  0.34341271670E+02  0.41346181871E+03  0.41810474564E+03  0.10000000000E+01 0.  0.
<mgrwt>
<rscale>  0 0.12499790E+03</rscale>
<asrwt>0</asrwt>
<pdfrwt beam="1">  1        4 0.14335704E+00 0.12499790E+03</pdfrwt>
<pdfrwt beam="2">  1       -4 0.64491092E-03 0.12499790E+03</pdfrwt>
<totfact> 0.32819344E+03</totfact>
</mgrwt>
</event>
<event>
 5    1  0.3486294E-002  0.1250015E+03  0.7818608E-02  0.1235067E+00
          4   -1    0    0  501    0  0.00000000000E+00  0.00000000000E+00  0.27716075419E+02  0.27745156994E+02  0.12700000000E+01 0. -1.
         -4   -1    0    0    0  501 -0.00000000000E+00 -0.00000000000E+00 -0.14083566877E+03  0.14084139483E+03  0.12700000000E+01 0. -1.
         25    2    1    2    0    0  0.00000000000E+00  0.00000000000E+00 -0.11311959335E+03  0.16858655183E+03  0.12500153222E+03 0.  0.
    9000005    1    3    3    0    0 -0.39366779525E+02 -0.24581852870E+02 -0.11300047154E+03  0.12216430489E+03  0.10000000000E+01 0.  0.
    9000005    1    3    3    0    0  0.39366779525E+02  0.24581852870E+02 -0.11912181193E+00  0.46422246937E+02  0.10000000000E+01 0.  0.
<mgrwt>
<rscale>  0 0.12500153E+03</rscale>
<asrwt>0</asrwt>
<pdfrwt beam="1">  1        4 0.42666892E-02 0.12500153E+03</pdfrwt>
<pdfrwt beam="2">  1       -4 0.21669703E-01 0.12500153E+03</pdfrwt>
<totfact> 0.95709142E+03</totfact>
</mgrwt>
</event>
<event>
 5    1  0.3486294E-002  0.1250030E+03  0.7818608E-02  0.1235065E+00
          4   -1    0    0  501    0  0.00000000000E+00  0.00000000000E+00  0.11247393548E+02  0.11318867506E+02  0.12700000000E+01 0.  1.
         -4   -1    0    0    0  501 -0.00000000000E+00 -0.00000000000E+00 -0.34614690794E+03  0.34614923772E+03  0.12700000000E+01 0.  1.
         25    2    1    2    0    0  0.00000000000E+00  0.00000000000E+00 -0.33489951439E+03  0.35746810523E+03  0.12500304603E+03 0.  0.
    9000005    1    3    3    0    0 -0.46578694235E+02 -0.34615650583E+02 -0.23375614400E+03  0.24085421500E+03  0.10000000000E+01 0.  0.
    9000005    1    3    3    0    0  0.46578694235E+02  0.34615650583E+02 -0.10114337039E+03  0.11661389024E+03  0.10000000000E+01 0.  0.
<mgrwt>
<rscale>  0 0.12500305E+03</rscale>
<asrwt>0</asrwt>
<pdfrwt beam="1">  1        4 0.17360457E-02 0.12500305E+03</pdfrwt>
<pdfrwt beam="2">  1       -4 0.53259039E-01 0.12500305E+03</pdfrwt>
<totfact> 0.68906073E+03</totfact>
</mgrwt>
</event>
<event>
 5    1  0.3486294E-002  0.1250010E+03  0.7818608E-02  0.1235068E+00
         -4   -1    0    0    0  501 -0.00000000000E+00  0.00000000000E+00  0.20948801298E+02  0.20987262228E+02  0.12700000000E+01 0. -1.
          4   -1    0    0  501    0  0.00000000000E+00 -0.00000000000E+00 -0.18625788514E+03  0.18626221484E+03  0.12700000000E+01 0. -1.
         25    2    1    2    0    0  0.00000000000E+00  0.00000000000E+00 -0.16530908384E+03  0.20724947707E+03  0.12500101017E+03 0.  0.
    9000005    1    3    3    0    0 -0.42386743569E+02  0.39557976761E+02 -0.12131944482E+03  0.13446515254E+03  0.10000000000E+01 0.  0.
    9000005    1    3    3    0    0  0.42386743569E+02 -0.39557976761E+02 -0.43989639020E+02  0.72784324528E+02  0.10000000000E+01 0.  0.
<mgrwt>
<rscale>  0 0.12500101E+03</rscale>
<asrwt>0</asrwt>
<pdfrwt beam="2">  1        4 0.28658350E-01 0.12500101E+03</pdfrwt>
<pdfrwt beam="1">  1       -4 0.32261842E-02 0.12500101E+03</pdfrwt>
<totfact> 0.88925048E+03</totfact>
</mgrwt>
</event>
<event>
 5    1  0.3486294E-002  0.1249992E+03  0.7818608E-02  0.1235070E+00
          4   -1    0    0  501    0  0.00000000000E+00  0.00000000000E+00  0.58867906790E+02  0.58881604512E+02  0.12700000000E+01 0.  1.
         -4   -1    0    0    0  501 -0.00000000000E+00 -0.00000000000E+00 -0.66327884812E+02  0.66340042235E+02  0.12700000000E+01 0.  1.
         25    2    1    2    0    0  0.00000000000E+00  0.00000000000E+00 -0.74599780220E+01  0.12522164675E+03  0.12499923816E+03 0.  0.
    9000005    1    3    3    0    0  0.28856878525E+02  0.46577327747E+02 -0.33834006203E+02  0.64404245776E+02  0.10000000000E+01 0.  0.
    9000005    1    3    3    0    0 -0.28856878525E+02 -0.46577327747E+02  0.26374028181E+02  0.60817400970E+02  0.10000000000E+01 0.  0.
<mgrwt>
<rscale>  0 0.12499924E+03</rscale>
<asrwt>0</asrwt>
<pdfrwt beam="1">  1        4 0.90585899E-02 0.12499924E+03</pdfrwt>
<pdfrwt beam="2">  1       -4 0.10206279E-01 0.12499924E+03</pdfrwt>
<totfact> 0.10448230E+04</totfact>
</mgrwt>
</event>
<event>
 5    1  0.3486294E-002  0.1250049E+03  0.7818608E-02  0.1235062E+00
          4   -1    0    0  501    0  0.00000000000E+00  0.00000000000E+00  0.93573217260E+01  0.94431122986E+01  0.12700000000E+01 0. -1.
         -4   -1    0    0    0  501 -0.00000000000E+00 -0.00000000000E+00 -0.41549471098E+03  0.41549665191E+03  0.12700000000E+01 0. -1.
         25    2    1    2    0    0  0.00000000000E+00  0.00000000000E+00 -0.40613738925E+03  0.42493976421E+03  0.12500489694E+03 0.  0.
    9000005    1    3    3    0    0 -0.48860653752E+02 -0.58802341670E+01 -0.33400528161E+03  0.33761289783E+03  0.10000000000E+01 0.  0.
    9000005    1    3    3    0    0  0.48860653752E+02  0.58802341670E+01 -0.72132107646E+02  0.87326866383E+02  0.10000000000E+01 0.  0.
<mgrwt>
<rscale>  0 0.12500490E+03</rscale>
<asrwt>0</asrwt>
<pdfrwt beam="1">  1        4 0.14463369E-02 0.12500490E+03</pdfrwt>
<pdfrwt beam="2">  1       -4 0.63928997E-01 0.12500490E+03</pdfrwt>
<totfact> 0.62190654E+03</totfact>
</mgrwt>
</event>
<event>
 5    1  0.3486294E-002  0.1249931E+03  0.7818608E-02  0.1235080E+00
         -4   -1    0    0    0  501 -0.00000000000E+00  0.00000000000E+00  0.96033611054E+02  0.96042008268E+02  0.12700000000E+01 0. -1.
          4   -1    0    0  501    0  0.00000000000E+00 -0.00000000000E+00 -0.40651247775E+02  0.40671081197E+02  0.12700000000E+01 0. -1.
         25    2    1    2    0    0  0.00000000000E+00  0.00000000000E+00  0.55382363279E+02  0.13671308946E+03  0.12499305048E+03 0.  0.
    9000005    1    3    3    0    0 -0.13734613151E+02 -0.57865814941E+02  0.48665359220E+02  0.76853167307E+02  0.10000000000E+01 0.  0.
    9000005    1    3    3    0    0  0.13734613151E+02  0.57865814941E+02  0.67170040589E+01  0.59859922157E+02  0.10000000000E+01 0.  0.
<mgrwt>
<rscale>  0 0.12499305E+03</rscale>
<asrwt>0</asrwt>
<pdfrwt beam="2">  1        4 0.62562098E-02 0.12499305E+03</pdfrwt>
<pdfrwt beam="1">  1       -4 0.14776573E-01 0.12499305E+03</pdfrwt>
<totfact> 0.10203687E+04</totfact>
</mgrwt>
</event>
<event>
 5    1  0.3486294E-002  0.1250010E+03  0.7818608E-02  0.1235068E+00
         -4   -1    0    0    0  501 -0.00000000000E+00  0.00000000000E+00  0.57498149203E+02  0.57512173162E+02  0.12700000000E+01 0. -1.
          4   -1    0    0  501    0  0.00000000000E+00 -0.00000000000E+00 -0.67909856119E+02  0.67921730382E+02  0.12700000000E+01 0. -1.
         25    2    1    2    0    0  0.00000000000E+00  0.00000000000E+00 -0.10411706916E+02  0.12543390354E+03  0.12500104206E+03 0.  0.
    9000005    1    3    3    0    0  0.99202089391E+01 -0.47301749854E+02  0.34547604738E+02  0.59417195136E+02  0.10000000000E+01 0.  0.
    9000005    1    3    3    0    0 -0.99202089391E+01  0.47301749854E+02 -0.44959311654E+02  0.66016708408E+02  0.10000000000E+01 0.  0.
<mgrwt>
<rscale>  0 0.12500104E+03</rscale>
<asrwt>0</asrwt>
<pdfrwt beam="2">  1        4 0.10449662E-01 0.12500104E+03</pdfrwt>
<pdfrwt beam="1">  1       -4 0.88478613E-02 0.12500104E+03</pdfrwt>
<totfact> 0.10443171E+04</totfact>
</mgrwt>
</event>
<event>
 5    1  0.3486294E-002  0.1250017E+03  0.7818608E-02  0.1235067E+00
          4   -1    0    0  501    0  0.00000000000E+00  0.00000000000E+00  0.94033068501E+01  0.94886816638E+01  0.12700000000E+01 0.  1.
         -4   -1    0    0    0  501 -0.00000000000E+00 -0.00000000000E+00 -0.41346018021E+03  0.41346213070E+03  0.12700000000E+01 0.  1.
         25    2    1    2    0    0  0.00000000000E+00  0.00000000000E+00 -0.40405687336E+03  0.42295081236E+03  0.12500173105E+03 0.  0.
    9000005    1    3    3    0    0  0.50882075172E+02  0.34243346899E+01 -0.79814630105E+02  0.94721100187E+02  0.10000000000E+01 0.  0.
    9000005    1    3    3    0    0 -0.50882075172E+02 -0.34243346899E+01 -0.32424224326E+03  0.32822971217E+03  0.10000000000E+01 0.  0.
<mgrwt>
<rscale>  0 0.12500173E+03</rscale>
<asrwt>0</asrwt>
<pdfrwt beam="1">  1        4 0.14533802E-02 0.12500173E+03</pdfrwt>
<pdfrwt beam="2">  1       -4 0.63615962E-01 0.12500173E+03</pdfrwt>
<totfact> 0.62377821E+03</totfact>
</mgrwt>
</event>
<event>
 5    1  0.3486294E-002  0.1249996E+03  0.7818608E-02  0.1235070E+00
          4   -1    0    0  501    0  0.00000000000E+00  0.00000000000E+00  0.25199062092E+02  0.25231044971E+02  0.12700000000E+01 0.  1.
         -4   -1    0    0    0  501 -0.00000000000E+00 -0.00000000000E+00 -0.15488186365E+03  0.15488707044E+03  0.12700000000E+01 0.  1.
         25    2    1    2    0    0  0.00000000000E+00  0.00000000000E+00 -0.12968280156E+03  0.18011811541E+03  0.12499962591E+03 0.  0.
    9000005    1    3    3    0    0  0.18486336358E+02  0.15360497605E+02 -0.14796228111E+03  0.14990505712E+03  0.10000000000E+01 0.  0.
    9000005    1    3    3    0    0 -0.18486336358E+02 -0.15360497605E+02  0.18279479549E+02  0.30213058290E+02  0.10000000000E+01 0.  0.
<mgrwt>
<rscale>  0 0.12499963E+03</rscale>
<asrwt>0</asrwt>
<pdfrwt beam="1">  1        4 0.38796396E-02 0.12499963E+03</pdfrwt>
<pdfrwt beam="2">  1       -4 0.23830839E-01 0.12499963E+03</pdfrwt>
<totfact> 0.93596532E+03</totfact>
</mgrwt>
</event>
<event>
 5    1  0.3486294E-002  0.1249999E+03  0.7818608E-02  0.1235069E+00
         -4   -1    0    0    0  501 -0.00000000000E+00  0.00000000000E+00  0.23709960925E+02  0.23743949694E+02  0.12700000000E+01 0. -1.
          4   -1    0    0  501    0  0.00000000000E+00 -0.00000000000E+00 -0.16459676082E+03  0.16460166030E+03  0.12700000000E+01 0. -1.
         25    2    1    2    0    0  0.00000000000E+00  0.00000000000E+00 -0.14088679989E+03  0.18834560999E+03  0.12499991367E+03 0.  0.
    9000005    1    3    3    0    0  0.21160007489E+02 -0.60878519987E+01  0.17679051602E+02  0.28255207032E+02  0.10000000000E+01 0.  0.
    9000005    1    3    3    0    0 -0.21160007489E+02  0.60878519987E+01 -0.15856585149E+03  0.16009040296E+03  0.10000000000E+01 0.  0.
<mgrwt>
<rscale>  0 0.12499991E+03</rscale>
<asrwt>0</asrwt>
<pdfrwt beam="2">  1        4 0.25325569E-01 0.12499991E+03</pdfrwt>
<pdfrwt beam="1">  1       -4 0.36506778E-02 0.12499991E+03</pdfrwt>
<totfact> 0.92136151E+03</totfact>
</mgrwt>
</event>
<event>
 5    1  0.3486294E-002  0.1249933E+03  0.7818608E-02  0.1235080E+00
         -4   -1    0    0    0  501 -0.00000000000E+00  0.00000000000E+00  0.86972843733E+01  0.87895196382E+01  0.12700000000E+01 0.  1.
          4   -1    0    0  501    0  0.00000000000E+00 -0.00000000000E+00 -0.44662415125E+03  0.44662595690E+03  0.12700000000E+01 0.  1.
         25    2    1    2    0    0  0.00000000000E+00  0.00000000000E+00 -0.43792686688E+03  0.45541547654E+03  0.12499326198E+03 0.  0.
    9000005    1    3    3    0    0  0.43755727151E+02 -0.44608518920E+02 -0.21682252351E+03  0.22564904236E+03  0.10000000000E+01 0.  0.
    9000005    1    3    3    0    0 -0.43755727151E+02  0.44608518920E+02 -0.22110434337E+03  0.22976643418E+03  0.10000000000E+01 0.  0.
<mgrwt>
<rscale>  0 0.12499326E+03</rscale>
<asrwt>0</asrwt>
<pdfrwt beam="2">  1        4 0.68718624E-01 0.12499326E+03</pdfrwt>
<pdfrwt beam="1">  1       -4 0.13452780E-02 0.12499326E+03</pdfrwt>
<totfact> 0.59506345E+03</totfact>
</mgrwt>
</event>
<event>
 5    1  0.3486294E-002  0.1250013E+03  0.7818608E-02  0.1235067E+00
         -4   -1    0    0    0  501 -0.00000000000E+00  0.00000000000E+00  0.10830682627E+02  0.10904888177E+02  0.12700000000E+01 0.  1.
          4   -1    0    0  501    0  0.00000000000E+00 -0.00000000000E+00 -0.35936597216E+03  0.35936821624E+03  0.12700000000E+01 0.  1.
         25    2    1    2    0    0  0.00000000000E+00  0.00000000000E+00 -0.34853528953E+03  0.37027310442E+03  0.12500129523E+03 0.  0.
    9000005    1    3    3    0    0  0.16698380560E+02 -0.50736569010E+02 -0.78178012300E+02  0.94688103558E+02  0.10000000000E+01 0.  0.
    9000005    1    3    3    0    0 -0.16698380560E+02  0.50736569010E+02 -0.27035727723E+03  0.27558500086E+03  0.10000000000E+01 0.  0.
<mgrwt>
<rscale>  0 0.12500130E+03</rscale>
<asrwt>0</asrwt>
<pdfrwt beam="2">  1        4 0.55292944E-01 0.12500130E+03</pdfrwt>
<pdfrwt beam="1">  1       -4 0.16721399E-02 0.12500130E+03</pdfrwt>
<totfact> 0.67548445E+03</totfact>
</mgrwt>
</event>
<event>
 5    1  0.3486294E-002  0.1250040E+03  0.7818608E-02  0.1235063E+00
          4   -1    0    0  501    0  0.00000000000E+00  0.00000000000E+00  0.25902697228E+03  0.25903008564E+03  0.12700000000E+01 0.  1.
         -4   -1    0    0    0  501 -0.00000000000E+00 -0.00000000000E+00 -0.15051502677E+02  0.15104987019E+02  0.12700000000E+01 0.  1.
         25    2    1    2    0    0  0.00000000000E+00  0.00000000000E+00  0.24397546960E+03  0.27413507266E+03  0.12500403312E+03 0.  0.
    9000005    1    3    3    0    0 -0.53492167946E+01  0.59266452133E+02  0.16384927699E+03  0.17432358429E+03  0.10000000000E+01 0.  0.
    9000005    1    3    3    0    0  0.53492167946E+01 -0.59266452133E+02  0.80126192611E+02  0.99811488372E+02  0.10000000000E+01 0.  0.
<mgrwt>
<rscale>  0 0.12500403E+03</rscale>
<asrwt>0</asrwt>
<pdfrwt beam="1">  1        4 0.39854656E-01 0.12500403E+03</pdfrwt>
<pdfrwt beam="2">  1       -4 0.23199696E-02 0.12500403E+03</pdfrwt>
<totfact> 0.78955153E+03</totfact>
</mgrwt>
</event>
<event>
 5    1  0.3486294E-002  0.1249985E+03  0.7818608E-02  0.1235072E+00
         -4   -1    0    0    0  501 -0.00000000000E+00  0.00000000000E+00  0.20898673386E+02  0.20937226399E+02  0.12700000000E+01 0. -1.
          4   -1    0    0  501    0  0.00000000000E+00 -0.00000000000E+00 -0.18669634380E+03  0.18670066333E+03  0.12700000000E+01 0. -1.
         25    2    1    2    0    0  0.00000000000E+00  0.00000000000E+00 -0.16579767042E+03  0.20763788973E+03  0.12499850294E+03 0.  0.
    9000005    1    3    3    0    0 -0.18290762358E+02 -0.39658871820E+02 -0.86524278130E+01  0.44533612123E+02  0.10000000000E+01 0.  0.
    9000005    1    3    3    0    0  0.18290762358E+02  0.39658871820E+02 -0.15714524260E+03  0.16310427761E+03  0.10000000000E+01 0.  0.
<mgrwt>
<rscale>  0 0.12499850E+03</rscale>
<asrwt>0</asrwt>
<pdfrwt beam="2">  1        4 0.28725811E-01 0.12499850E+03</pdfrwt>
<pdfrwt beam="1">  1       -4 0.32184785E-02 0.12499850E+03</pdfrwt>
<totfact> 0.88866079E+03</totfact>
</mgrwt>
</event>
<event>
 5    1  0.3486294E-002  0.1250014E+03  0.7818608E-02  0.1235067E+00
         -4   -1    0    0    0  501 -0.00000000000E+00  0.00000000000E+00  0.24018860410E+03  0.24019196165E+03  0.12700000000E+01 0.  1.
          4   -1    0    0  501    0  0.00000000000E+00 -0.00000000000E+00 -0.16235344481E+02  0.16284941217E+02  0.12700000000E+01 0.  1.
         25    2    1    2    0    0  0.00000000000E+00  0.00000000000E+00  0.22395325962E+03  0.25647690287E+03  0.12500135683E+03 0.  0.
    9000005    1    3    3    0    0 -0.42682612553E+02  0.37510682381E+02  0.16534210768E+03  0.17483669317E+03  0.10000000000E+01 0.  0.
    9000005    1    3    3    0    0  0.42682612553E+02 -0.37510682381E+02  0.58611151940E+02  0.81640209693E+02  0.10000000000E+01 0.  0.
<mgrwt>
<rscale>  0 0.12500136E+03</rscale>
<asrwt>0</asrwt>
<pdfrwt beam="2">  1        4 0.25018187E-02 0.12500136E+03</pdfrwt>
<pdfrwt beam="1">  1       -4 0.36956167E-01 0.12500136E+03</pdfrwt>
<totfact> 0.81400573E+03</totfact>
</mgrwt>
</event>
<event>
 5    1  0.3486294E-002  0.1249989E+03  0.7818608E-02  0.1235071E+00
         -4   -1    0    0    0  501 -0.00000000000E+00  0.00000000000E+00  0.17458006966E+04  0.17458011586E+04  0.12700000000E+01 0.  1.
          4   -1    0    0  501    0  0.00000000000E+00 -0.00000000000E+00 -0.20567593394E+01  0.24172627040E+01  0.12700000000E+01 0.  1.
         25    2    1    2    0    0  0.00000000000E+00  0.00000000000E+00  0.17437439373E+04  0.17482184213E+04  0.12499891853E+03 0.  0.
    9000005    1    3    3    0    0 -0.24267078263E+02  0.50525912519E+02  0.12583031784E+04  0.12595513677E+04  0.10000000000E+01 0.  0.
    9000005    1    3    3    0    0  0.24267078263E+02 -0.50525912519E+02  0.48544075887E+03  0.48866705362E+03  0.10000000000E+01 0.  0.
<mgrwt>
<rscale>  0 0.12499892E+03</rscale>
<asrwt>0</asrwt>
<pdfrwt beam="2">  1        4 0.34419065E-03 0.12499892E+03</pdfrwt>
<pdfrwt beam="1">  1       -4 0.26861282E+00 0.12499892E+03</pdfrwt>
<totfact> 0.13518671E+03</totfact>
</mgrwt>
</event>
<event>
 5    1  0.3486294E-002  0.1250047E+03  0.7818608E-02  0.1235062E+00
          4   -1    0    0  501    0  0.00000000000E+00  0.00000000000E+00  0.11928701462E+02  0.11996116812E+02  0.12700000000E+01 0. -1.
         -4   -1    0    0    0  501 -0.00000000000E+00 -0.00000000000E+00 -0.32649969396E+03  0.32650216394E+03  0.12700000000E+01 0. -1.
         25    2    1    2    0    0  0.00000000000E+00  0.00000000000E+00 -0.31457099250E+03  0.33849828075E+03  0.12500470691E+03 0.  0.
    9000005    1    3    3    0    0 -0.58358410686E+02 -0.16517815429E+02 -0.11648693839E+03  0.13133449334E+03  0.10000000000E+01 0.  0.
    9000005    1    3    3    0    0  0.58358410686E+02  0.16517815429E+02 -0.19808405411E+03  0.20716378742E+03  0.10000000000E+01 0.  0.
<mgrwt>
<rscale>  0 0.12500471E+03</rscale>
<asrwt>0</asrwt>
<pdfrwt beam="1">  1        4 0.18405609E-02 0.12500471E+03</pdfrwt>
<pdfrwt beam="2">  1       -4 0.50236091E-01 0.12500471E+03</pdfrwt>
<totfact> 0.71001302E+03</totfact>
</mgrwt>
</event>
<event>
 5    1  0.3486294E-002  0.1250016E+03  0.7818608E-02  0.1235067E+00
          4   -1    0    0  501    0  0.00000000000E+00  0.00000000000E+00  0.33388381737E+03  0.33388623273E+03  0.12700000000E+01 0.  1.
         -4   -1    0    0    0  501 -0.00000000000E+00 -0.00000000000E+00 -0.11662797590E+02  0.11731741031E+02  0.12700000000E+01 0.  1.
         25    2    1    2    0    0  0.00000000000E+00  0.00000000000E+00  0.32222101978E+03  0.34561797376E+03  0.12500159277E+03 0.  0.
    9000005    1    3    3    0    0 -0.12060041747E+02  0.87769619004E+01  0.32890355687E+03  0.32924311593E+03  0.10000000000E+01 0.  0.
    9000005    1    3    3    0    0  0.12060041747E+02 -0.87769619004E+01 -0.66825370809E+01  0.16374857831E+02  0.10000000000E+01 0.  0.
<mgrwt>
<rscale>  0 0.12500159E+03</rscale>
<asrwt>0</asrwt>
<pdfrwt beam="1">  1        4 0.51372238E-01 0.12500159E+03</pdfrwt>
<pdfrwt beam="2">  1       -4 0.17997654E-02 0.12500159E+03</pdfrwt>
<totfact> 0.70206855E+03</totfact>
</mgrwt>
</event>
<event>
 5    1  0.3486294E-002  0.1250043E+03  0.7818608E-02  0.1235063E+00
         -4   -1    0    0    0  501 -0.00000000000E+00  0.00000000000E+00  0.17489349454E+03  0.17489810557E+03  0.12700000000E+01 0.  1.
          4   -1    0    0  501    0  0.00000000000E+00 -0.00000000000E+00 -0.22313597624E+02  0.22349710041E+02  0.12700000000E+01 0.  1.
         25    2    1    2    0    0  0.00000000000E+00  0.00000000000E+00  0.15257989692E+03  0.19724781561E+03  0.12500430321E+03 0.  0.
    9000005    1    3    3    0    0 -0.15437916220E+01 -0.33508538024E+02 -0.69121205752E+01  0.34263432751E+02  0.10000000000E+01 0.  0.
    9000005    1    3    3    0    0  0.15437916220E+01  0.33508538024E+02  0.15949201749E+03  0.16298438286E+03  0.10000000000E+01 0.  0.
<mgrwt>
<rscale>  0 0.12500430E+03</rscale>
<asrwt>0</asrwt>
<pdfrwt beam="2">  1        4 0.34359938E-02 0.12500430E+03</pdfrwt>
<pdfrwt beam="1">  1       -4 0.26909824E-01 0.12500430E+03</pdfrwt>
<totfact> 0.90592561E+03</totfact>
</mgrwt>
</event>
<event>
 5    1  0.3486294E-002  0.1249966E+03  0.7818608E-02  0.1235075E+00
         -4   -1    0    0    0  501 -0.00000000000E+00  0.00000000000E+00  0.92360183583E+02  0.92368914747E+02  0.12700000000E+01 0. -1.
          4   -1    0    0  501    0  0.00000000000E+00 -0.00000000000E+00 -0.42271098197E+02  0.42290171941E+02  0.12700000000E+01 0. -1.
         25    2    1    2    0    0  0.00000000000E+00  0.00000000000E+00  0.50089085386E+02  0.13465908669E+03  0.12499661256E+03 0.  0.
    9000005    1    3    3    0    0 -0.30346834687E+02  0.27615836665E+02  0.75820484454E+02  0.86216649628E+02  0.10000000000E+01 0.  0.
    9000005    1    3    3    0    0  0.30346834687E+02 -0.27615836665E+02 -0.25731399068E+02  0.48442437059E+02  0.10000000000E+01 0.  0.
<mgrwt>
<rscale>  0 0.12499661E+03</rscale>
<asrwt>0</asrwt>
<pdfrwt beam="2">  1        4 0.65053848E-02 0.12499661E+03</pdfrwt>
<pdfrwt beam="1">  1       -4 0.14211398E-01 0.12499661E+03</pdfrwt>
<totfact> 0.10246044E+04</totfact>
</mgrwt>
</event>
<event>
 5    1  0.3486294E-002  0.1249942E+03  0.7818608E-02  0.1235078E+00
          4   -1    0    0  501    0  0.00000000000E+00  0.00000000000E+00  0.49784913514E+02  0.49801109562E+02  0.12700000000E+01 0. -1.
         -4   -1    0    0    0  501 -0.00000000000E+00 -0.00000000000E+00 -0.78421133363E+02  0.78431416269E+02  0.12700000000E+01 0. -1.
         25    2    1    2    0    0  0.00000000000E+00  0.00000000000E+00 -0.28636219850E+02  0.12823252583E+03  0.12499419024E+03 0.  0.
    9000005    1    3    3    0    0  0.10486573905E+02 -0.57100403803E+02 -0.38035506192E+02  0.69412708333E+02  0.10000000000E+01 0.  0.
    9000005    1    3    3    0    0 -0.10486573905E+02  0.57100403803E+02  0.93992863429E+01  0.58819817498E+02  0.10000000000E+01 0.  0.
<mgrwt>
<rscale>  0 0.12499419E+03</rscale>
<asrwt>0</asrwt>
<pdfrwt beam="1">  1        4 0.76612543E-02 0.12499419E+03</pdfrwt>
<pdfrwt beam="2">  1       -4 0.12066827E-01 0.12499419E+03</pdfrwt>
<totfact> 0.10383831E+04</totfact>
</mgrwt>
</event>
<event>
 5    1  0.3486294E-002  0.1249995E+03  0.7818608E-02  0.1235070E+00
         -4   -1    0    0    0  501 -0.00000000000E+00  0.00000000000E+00  0.14902240261E+03  0.14902781411E+03  0.12700000000E+01 0. -1.
          4   -1    0    0  501    0  0.00000000000E+00 -0.00000000000E+00 -0.26191031943E+02  0.26221804939E+02  0.12700000000E+01 0. -1.
         25    2    1    2    0    0  0.00000000000E+00  0.00000000000E+00  0.12283137067E+03  0.17524961905E+03  0.12499953343E+03 0.  0.
    9000005    1    3    3    0    0 -0.33481918685E+02  0.83344056774E+01 -0.11632794626E+02  0.36425583148E+02  0.10000000000E+01 0.  0.
    9000005    1    3    3    0    0  0.33481918685E+02 -0.83344056774E+01  0.13446416529E+03  0.13882403590E+03  0.10000000000E+01 0.  0.
<mgrwt>
<rscale>  0 0.12499953E+03</rscale>
<asrwt>0</asrwt>
<pdfrwt beam="2">  1        4 0.40321730E-02 0.12499953E+03</pdfrwt>
<pdfrwt beam="1">  1       -4 0.22929307E-01 0.12499953E+03</pdfrwt>
<totfact> 0.94480132E+03</totfact>
</mgrwt>
</event>
<event>
 5    1  0.3486294E-002  0.1250004E+03  0.7818608E-02  0.1235069E+00
          4   -1    0    0  501    0  0.00000000000E+00  0.00000000000E+00  0.10276797981E+02  0.10354973527E+02  0.12700000000E+01 0.  1.
         -4   -1    0    0    0  501 -0.00000000000E+00 -0.00000000000E+00 -0.37858697484E+03  0.37858910499E+03  0.12700000000E+01 0.  1.
         25    2    1    2    0    0  0.00000000000E+00  0.00000000000E+00 -0.36831017685E+03  0.38894407851E+03  0.12500043935E+03 0.  0.
    9000005    1    3    3    0    0 -0.49266431198E+01  0.45787081912E+02 -0.52711370129E+02  0.70001551578E+02  0.10000000000E+01 0.  0.
    9000005    1    3    3    0    0  0.49266431198E+01 -0.45787081912E+02 -0.31559880673E+03  0.31894252694E+03  0.10000000000E+01 0.  0.
<mgrwt>
<rscale>  0 0.12500044E+03</rscale>
<asrwt>0</asrwt>
<pdfrwt beam="1">  1        4 0.15872235E-02 0.12500044E+03</pdfrwt>
<pdfrwt beam="2">  1       -4 0.58250317E-01 0.12500044E+03</pdfrwt>
<totfact> 0.65641836E+03</totfact>
</mgrwt>
</event>
<event>
 5    1  0.3486294E-002  0.1250001E+03  0.7818608E-02  0.1235069E+00
         -4   -1    0    0    0  501 -0.00000000000E+00  0.00000000000E+00  0.42163576916E+03  0.42163768183E+03  0.12700000000E+01 0.  1.
          4   -1    0    0  501    0  0.00000000000E+00 -0.00000000000E+00 -0.92190673240E+01  0.93061325117E+01  0.12700000000E+01 0.  1.
         25    2    1    2    0    0  0.00000000000E+00  0.00000000000E+00  0.41241670184E+03  0.43094381434E+03  0.12500014065E+03 0.  0.
    9000005    1    3    3    0    0 -0.24634777738E+02 -0.31291118874E+02  0.40179272741E+02  0.56580741888E+02  0.10000000000E+01 0.  0.
    9000005    1    3    3    0    0  0.24634777738E+02  0.31291118874E+02  0.37223742910E+03  0.37436307245E+03  0.10000000000E+01 0.  0.
<mgrwt>
<rscale>  0 0.12500014E+03</rscale>
<asrwt>0</asrwt>
<pdfrwt beam="2">  1        4 0.14251629E-02 0.12500014E+03</pdfrwt>
<pdfrwt beam="1">  1       -4 0.64873870E-01 0.12500014E+03</pdfrwt>
<totfact> 0.61650350E+03</totfact>
</mgrwt>
</event>
<event>
 5    1  0.3486294E-002  0.1250094E+03  0.7818608E-02  0.1235055E+00
          4   -1    0    0  501    0  0.00000000000E+00  0.00000000000E+00  0.81350979231E+02  0.81360891845E+02  0.12700000000E+01 0.  1.
         -4   -1    0    0    0  501 -0.00000000000E+00 -0.00000000000E+00 -0.48003234495E+02  0.48020031466E+02  0.12700000000E+01 0.  1.
         25    2    1    2    0    0  0.00000000000E+00  0.00000000000E+00  0.33347744736E+02  0.12938092331E+03  0.12500940460E+03 0.  0.
    9000005    1    3    3    0    0  0.94897958814E+01  0.25880134564E+02 -0.41376757140E+02  0.49727996363E+02  0.10000000000E+01 0.  0.
    9000005    1    3    3    0    0 -0.94897958814E+01 -0.25880134564E+02  0.74724501875E+02  0.79652926948E+02  0.10000000000E+01 0.  0.
<mgrwt>
<rscale>  0 0.12500940E+03</rscale>
<asrwt>0</asrwt>
<pdfrwt beam="1">  1        4 0.12517590E-01 0.12500940E+03</pdfrwt>
<pdfrwt beam="2">  1       -4 0.73871677E-02 0.12500940E+03</pdfrwt>
<totfact> 0.10355570E+04</totfact>
</mgrwt>
</event>
<event>
 5    1  0.3486294E-002  0.1250048E+03  0.7818608E-02  0.1235062E+00
         -4   -1    0    0    0  501 -0.00000000000E+00  0.00000000000E+00  0.47716953748E+03  0.47717122755E+03  0.12700000000E+01 0. -1.
          4   -1    0    0  501    0  0.00000000000E+00 -0.00000000000E+00 -0.81359612581E+01  0.82344863588E+01  0.12700000000E+01 0. -1.
         25    2    1    2    0    0  0.00000000000E+00  0.00000000000E+00  0.46903357622E+03  0.48540571390E+03  0.12500484578E+03 0.  0.
    9000005    1    3    3    0    0  0.72494052397E+00  0.52450950864E+02  0.36642348412E+03  0.37016050235E+03  0.10000000000E+01 0.  0.
    9000005    1    3    3    0    0 -0.72494052397E+00 -0.52450950864E+02  0.10261009210E+03  0.11524521155E+03  0.10000000000E+01 0.  0.
<mgrwt>
<rscale>  0 0.12500485E+03</rscale>
<asrwt>0</asrwt>
<pdfrwt beam="2">  1        4 0.12593950E-02 0.12500485E+03</pdfrwt>
<pdfrwt beam="1">  1       -4 0.73418421E-01 0.12500485E+03</pdfrwt>
<totfact> 0.57008667E+03</totfact>
</mgrwt>
</event>
<event>
 5    1  0.3486294E-002  0.1250011E+03  0.7818608E-02  0.1235068E+00
          4   -1    0    0  501    0  0.00000000000E+00  0.00000000000E+00  0.10173245453E+02  0.10252210642E+02  0.12700000000E+01 0. -1.
         -4   -1    0    0    0  501 -0.00000000000E+00 -0.00000000000E+00 -0.38241495265E+03  0.38241706148E+03  0.12700000000E+01 0. -1.
         25    2    1    2    0    0  0.00000000000E+00  0.00000000000E+00 -0.37224170720E+03  0.39266927213E+03  0.12500107476E+03 0.  0.
    9000005    1    3    3    0    0  0.35817262173E+00 -0.24321234603E+02 -0.36694963870E+03  0.36775628898E+03  0.10000000000E+01 0.  0.
    9000005    1    3    3    0    0 -0.35817262173E+00  0.24321234603E+02 -0.52920684990E+01  0.24912983146E+02  0.10000000000E+01 0.  0.
<mgrwt>
<rscale>  0 0.12500107E+03</rscale>
<asrwt>0</asrwt>
<pdfrwt beam="1">  1        4 0.15713514E-02 0.12500107E+03</pdfrwt>
<pdfrwt beam="2">  1       -4 0.58839295E-01 0.12500107E+03</pdfrwt>
<totfact> 0.65270522E+03</totfact>
</mgrwt>
</event>
<event>
 5    1  0.3486294E-002  0.1249401E+03  0.7818608E-02  0.1235163E+00
          4   -1    0    0  501    0  0.00000000000E+00  0.00000000000E+00  0.38843864796E+03  0.38844072409E+03  0.12700000000E+01 0. -1.
         -4   -1    0    0    0  501 -0.00000000000E+00 -0.00000000000E+00 -0.10004407334E+02  0.10084694646E+02  0.12700000000E+01 0. -1.
         25    2    1    2    0    0  0.00000000000E+00  0.00000000000E+00  0.37843424063E+03  0.39852541873E+03  0.12494012525E+03 0.  0.
    9000005    1    3    3    0    0 -0.11228874092E+02  0.50424817980E+02  0.30121070688E+03  0.30561027440E+03  0.10000000000E+01 0.  0.
    9000005    1    3    3    0    0  0.11228874092E+02 -0.50424817980E+02  0.77223533750E+02  0.92915144333E+02  0.10000000000E+01 0.  0.
<mgrwt>
<rscale>  0 0.12494013E+03</rscale>
<asrwt>0</asrwt>
<pdfrwt beam="1">  1        4 0.59766113E-01 0.12494013E+03</pdfrwt>
<pdfrwt beam="2">  1       -4 0.15454756E-02 0.12494013E+03</pdfrwt>
<totfact> 0.64782064E+03</totfact>
</mgrwt>
</event>
<event>
 5    1  0.3486294E-002  0.1249989E+03  0.7818608E-02  0.1235071E+00
         -4   -1    0    0    0  501 -0.00000000000E+00  0.00000000000E+00  0.17412586085E+02  0.17458838855E+02  0.12700000000E+01 0.  1.
          4   -1    0    0  501    0  0.00000000000E+00 -0.00000000000E+00 -0.22398532577E+03  0.22398892620E+03  0.12700000000E+01 0.  1.
         25    2    1    2    0    0  0.00000000000E+00  0.00000000000E+00 -0.20657273969E+03  0.24144776505E+03  0.12499890587E+03 0.  0.
    9000005    1    3    3    0    0 -0.57922173034E+02 -0.13841029983E+02 -0.66706689232E+02  0.89427817978E+02  0.10000000000E+01 0.  0.
    9000005    1    3    3    0    0  0.57922173034E+02  0.13841029983E+02 -0.13986605045E+03  0.15201994708E+03  0.10000000000E+01 0.  0.
<mgrwt>
<rscale>  0 0.12499891E+03</rscale>
<asrwt>0</asrwt>
<pdfrwt beam="2">  1        4 0.34463114E-01 0.12499891E+03</pdfrwt>
<pdfrwt beam="1">  1       -4 0.26826944E-02 0.12499891E+03</pdfrwt>
<totfact> 0.83584259E+03</totfact>
</mgrwt>
</event>
<event>
 5    1  0.3486294E-002  0.1250007E+03  0.7818608E-02  0.1235068E+00
          4   -1    0    0  501    0  0.00000000000E+00  0.00000000000E+00  0.11239374123E+03  0.11240091622E+03  0.12700000000E+01 0. -1.
         -4   -1    0    0    0  501 -0.00000000000E+00 -0.00000000000E+00 -0.34735563749E+02  0.34758772835E+02  0.12700000000E+01 0. -1.
         25    2    1    2    0    0  0.00000000000E+00  0.00000000000E+00  0.77658177478E+02  0.14715968905E+03  0.12500072621E+03 0.  0.
    9000005    1    3    3    0    0  0.47128220346E+02  0.22699016227E+02 -0.14222224952E+01  0.52338677931E+02  0.10000000000E+01 0.  0.
    9000005    1    3    3    0    0 -0.47128220346E+02 -0.22699016227E+02  0.79080399973E+02  0.94821011124E+02  0.10000000000E+01 0.  0.
<mgrwt>
<rscale>  0 0.12500073E+03</rscale>
<asrwt>0</asrwt>
<pdfrwt beam="1">  1        4 0.17293682E-01 0.12500073E+03</pdfrwt>
<pdfrwt beam="2">  1       -4 0.53462701E-02 0.12500073E+03</pdfrwt>
<totfact> 0.99871282E+03</totfact>
</mgrwt>
</event>
<event>
 5    1  0.3486294E-002  0.1249988E+03  0.7818608E-02  0.1235071E+00
          4   -1    0    0  501    0  0.00000000000E+00  0.00000000000E+00  0.83029597371E+01  0.83995262007E+01  0.12700000000E+01 0.  1.
         -4   -1    0    0    0  501 -0.00000000000E+00 -0.00000000000E+00 -0.46763836790E+03  0.46764009241E+03  0.12700000000E+01 0.  1.
         25    2    1    2    0    0  0.00000000000E+00  0.00000000000E+00 -0.45933540816E+03  0.47603961861E+03  0.12499880519E+03 0.  0.
    9000005    1    3    3    0    0 -0.59707458142E+02 -0.10707161994E+02 -0.28686296523E+03  0.29320809112E+03  0.10000000000E+01 0.  0.
    9000005    1    3    3    0    0  0.59707458142E+02  0.10707161994E+02 -0.17247244293E+03  0.18283152749E+03  0.10000000000E+01 0.  0.
<mgrwt>
<rscale>  0 0.12499881E+03</rscale>
<asrwt>0</asrwt>
<pdfrwt beam="1">  1        4 0.12849396E-02 0.12499881E+03</pdfrwt>
<pdfrwt beam="2">  1       -4 0.71951905E-01 0.12499881E+03</pdfrwt>
<totfact> 0.57774060E+03</totfact>
</mgrwt>
</event>
<event>
 5    1  0.3486294E-002  0.1249994E+03  0.7818608E-02  0.1235070E+00
          4   -1    0    0  501    0  0.00000000000E+00  0.00000000000E+00  0.20426931371E+02  0.20466373036E+02  0.12700000000E+01 0. -1.
         -4   -1    0    0    0  501 -0.00000000000E+00 -0.00000000000E+00 -0.19100250515E+03  0.19100672730E+03  0.12700000000E+01 0. -1.
         25    2    1    2    0    0  0.00000000000E+00  0.00000000000E+00 -0.17057557378E+03  0.21147310033E+03  0.12499938318E+03 0.  0.
    9000005    1    3    3    0    0  0.55611754276E+02  0.12230441238E+02 -0.12884811105E+03  0.14087259005E+03  0.10000000000E+01 0.  0.
    9000005    1    3    3    0    0 -0.55611754276E+02 -0.12230441238E+02 -0.41727462727E+02  0.70600510283E+02  0.10000000000E+01 0.  0.
<mgrwt>
<rscale>  0 0.12499938E+03</rscale>
<asrwt>0</asrwt>
<pdfrwt beam="1">  1        4 0.31459637E-02 0.12499938E+03</pdfrwt>
<pdfrwt beam="2">  1       -4 0.29388358E-01 0.12499938E+03</pdfrwt>
<totfact> 0.88237085E+03</totfact>
</mgrwt>
</event>
<event>
 5    1  0.3486294E-002  0.1249993E+03  0.7818608E-02  0.1235070E+00
         -4   -1    0    0    0  501 -0.00000000000E+00  0.00000000000E+00  0.21826188457E+03  0.21826557942E+03  0.12700000000E+01 0. -1.
          4   -1    0    0  501    0  0.00000000000E+00 -0.00000000000E+00 -0.17870496533E+02  0.17915567151E+02  0.12700000000E+01 0. -1.
         25    2    1    2    0    0  0.00000000000E+00  0.00000000000E+00  0.20039138804E+03  0.23618114657E+03  0.12499930237E+03 0.  0.
    9000005    1    3    3    0    0  0.49546513673E+02  0.42873287286E+01  0.17169541109E+03  0.17875556605E+03  0.10000000000E+01 0.  0.
    9000005    1    3    3    0    0 -0.49546513673E+02 -0.42873287286E+01  0.28695976956E+02  0.57425580521E+02  0.10000000000E+01 0.  0.
<mgrwt>
<rscale>  0 0.12499930E+03</rscale>
<asrwt>0</asrwt>
<pdfrwt beam="2">  1        4 0.27530583E-02 0.12499930E+03</pdfrwt>
<pdfrwt beam="1">  1       -4 0.33582503E-01 0.12499930E+03</pdfrwt>
<totfact> 0.84370736E+03</totfact>
</mgrwt>
</event>
<event>
 5    1  0.3486294E-002  0.1250006E+03  0.7818608E-02  0.1235068E+00
          4   -1    0    0  501    0  0.00000000000E+00  0.00000000000E+00  0.27919495917E+01  0.30672271717E+01  0.12700000000E+01 0.  1.
         -4   -1    0    0    0  501 -0.00000000000E+00 -0.00000000000E+00 -0.13331163863E+04  0.13331169912E+04  0.12700000000E+01 0.  1.
         25    2    1    2    0    0  0.00000000000E+00  0.00000000000E+00 -0.13303244367E+04  0.13361842184E+04  0.12500063447E+03 0.  0.
    9000005    1    3    3    0    0  0.12167897661E+02  0.27133999539E+02 -0.77635121406E+02  0.83141588511E+02  0.10000000000E+01 0.  0.
    9000005    1    3    3    0    0 -0.12167897661E+02 -0.27133999539E+02 -0.12526893153E+04  0.12530426299E+04  0.10000000000E+01 0.  0.
<mgrwt>
<rscale>  0 0.12500063E+03</rscale>
<asrwt>0</asrwt>
<pdfrwt beam="1">  1        4 0.45075350E-03 0.12500063E+03</pdfrwt>
<pdfrwt beam="2">  1       -4 0.20511557E+00 0.12500063E+03</pdfrwt>
<totfact> 0.21390048E+03</totfact>
</mgrwt>
</event>
<event>
 5    1  0.3486294E-002  0.1250052E+03  0.7818608E-02  0.1235061E+00
          4   -1    0    0  501    0  0.00000000000E+00  0.00000000000E+00  0.13889956150E+02  0.13947895248E+02  0.12700000000E+01 0.  1.
         -4   -1    0    0    0  501 -0.00000000000E+00 -0.00000000000E+00 -0.28060715166E+03  0.28061002559E+03  0.12700000000E+01 0.  1.
         25    2    1    2    0    0  0.00000000000E+00  0.00000000000E+00 -0.26671719551E+03  0.29455792084E+03  0.12500522528E+03 0.  0.
    9000005    1    3    3    0    0 -0.34062644419E+02 -0.33283895499E+02 -0.22871119977E+03  0.23361912239E+03  0.10000000000E+01 0.  0.
    9000005    1    3    3    0    0  0.34062644419E+02  0.33283895499E+02 -0.38005995733E+02  0.60938798446E+02  0.10000000000E+01 0.  0.
<mgrwt>
<rscale>  0 0.12500523E+03</rscale>
<asrwt>0</asrwt>
<pdfrwt beam="1">  1        4 0.21415945E-02 0.12500523E+03</pdfrwt>
<pdfrwt beam="2">  1       -4 0.43175005E-01 0.12500523E+03</pdfrwt>
<totfact> 0.76277744E+03</totfact>
</mgrwt>
</event>
<event>
 5    1  0.3486294E-002  0.1250014E+03  0.7818608E-02  0.1235067E+00
         -4   -1    0    0    0  501 -0.00000000000E+00  0.00000000000E+00  0.27412393808E+02  0.27441797214E+02  0.12700000000E+01 0.  1.
          4   -1    0    0  501    0  0.00000000000E+00 -0.00000000000E+00 -0.14239403982E+03  0.14239970322E+03  0.12700000000E+01 0.  1.
         25    2    1    2    0    0  0.00000000000E+00  0.00000000000E+00 -0.11498164602E+03  0.16984150043E+03  0.12500142539E+03 0.  0.
    9000005    1    3    3    0    0  0.16279007601E+02 -0.14487356232E+02  0.22089256427E+02  0.31045528319E+02  0.10000000000E+01 0.  0.
    9000005    1    3    3    0    0 -0.16279007601E+02  0.14487356232E+02 -0.13707090244E+03  0.13879597212E+03  0.10000000000E+01 0.  0.
<mgrwt>
<rscale>  0 0.12500143E+03</rscale>
<asrwt>0</asrwt>
<pdfrwt beam="2">  1        4 0.21909472E-01 0.12500143E+03</pdfrwt>
<pdfrwt beam="1">  1       -4 0.42199889E-02 0.12500143E+03</pdfrwt>
<totfact> 0.95475132E+03</totfact>
</mgrwt>
</event>
<event>
 5    1  0.3486294E-002  0.1250034E+03  0.7818608E-02  0.1235064E+00
         -4   -1    0    0    0  501 -0.00000000000E+00  0.00000000000E+00  0.19130417829E+01  0.22962205607E+01  0.12700000000E+01 0. -1.
          4   -1    0    0  501    0  0.00000000000E+00 -0.00000000000E+00 -0.18557436306E+04  0.18557440651E+04  0.12700000000E+01 0. -1.
         25    2    1    2    0    0  0.00000000000E+00  0.00000000000E+00 -0.18538305888E+04  0.18580402857E+04  0.12500340540E+03 0.  0.
    9000005    1    3    3    0    0 -0.29094668261E+02 -0.43108511053E+01 -0.10732427230E+03  0.11128603948E+03  0.10000000000E+01 0.  0.
    9000005    1    3    3    0    0  0.29094668261E+02  0.43108511053E+01 -0.17465063165E+04  0.17467542462E+04  0.10000000000E+01 0.  0.
<mgrwt>
<rscale>  0 0.12500341E+03</rscale>
<asrwt>0</asrwt>
<pdfrwt beam="2">  1        4 0.28552722E+00 0.12500341E+03</pdfrwt>
<pdfrwt beam="1">  1       -4 0.32382432E-03 0.12500341E+03</pdfrwt>
<totfact> 0.11829283E+03</totfact>
</mgrwt>
</event>
<event>
 5    1  0.3486294E-002  0.1250100E+03  0.7818608E-02  0.1235054E+00
         -4   -1    0    0    0  501 -0.00000000000E+00  0.00000000000E+00  0.21557877484E+03  0.21558251567E+03  0.12700000000E+01 0. -1.
          4   -1    0    0  501    0  0.00000000000E+00 -0.00000000000E+00 -0.18096559038E+02  0.18141068023E+02  0.12700000000E+01 0. -1.
         25    2    1    2    0    0  0.00000000000E+00  0.00000000000E+00  0.19748221580E+03  0.23372358369E+03  0.12500995166E+03 0.  0.
    9000005    1    3    3    0    0 -0.19265691418E+02 -0.34647875777E+02  0.84115763490E+01  0.40538830500E+02  0.10000000000E+01 0.  0.
    9000005    1    3    3    0    0  0.19265691418E+02  0.34647875777E+02  0.18907063945E+03  0.19318475319E+03  0.10000000000E+01 0.  0.
<mgrwt>
<rscale>  0 0.12500995E+03</rscale>
<asrwt>0</asrwt>
<pdfrwt beam="2">  1        4 0.27877975E-02 0.12500995E+03</pdfrwt>
<pdfrwt beam="1">  1       -4 0.33169677E-01 0.12500995E+03</pdfrwt>
<totfact> 0.84722290E+03</totfact>
</mgrwt>
</event>
<event>
 5    1  0.3486294E-002  0.1250004E+03  0.7818608E-02  0.1235069E+00
         -4   -1    0    0    0  501 -0.00000000000E+00  0.00000000000E+00  0.23090764931E+02  0.23125663777E+02  0.12700000000E+01 0.  1.
          4   -1    0    0  501    0  0.00000000000E+00 -0.00000000000E+00 -0.16900544719E+03  0.16901021886E+03  0.12700000000E+01 0.  1.
         25    2    1    2    0    0  0.00000000000E+00  0.00000000000E+00 -0.14591468226E+03  0.19213588264E+03  0.12500041160E+03 0.  0.
    9000005    1    3    3    0    0 -0.17577276061E+02 -0.28498786152E+02  0.81466311596E+01  0.34474759537E+02  0.10000000000E+01 0.  0.
    9000005    1    3    3    0    0  0.17577276061E+02  0.28498786152E+02 -0.15406131342E+03  0.15766112310E+03  0.10000000000E+01 0.  0.
<mgrwt>
<rscale>  0 0.12500041E+03</rscale>
<asrwt>0</asrwt>
<pdfrwt beam="2">  1        4 0.26003889E-01 0.12500041E+03</pdfrwt>
<pdfrwt beam="1">  1       -4 0.35554771E-02 0.12500041E+03</pdfrwt>
<totfact> 0.91476158E+03</totfact>
</mgrwt>
</event>
<event>
 5    1  0.3486294E-002  0.1249782E+03  0.7818608E-02  0.1235103E+00
          4   -1    0    0  501    0  0.00000000000E+00  0.00000000000E+00  0.10123131560E+02  0.10202484628E+02  0.12700000000E+01 0. -1.
         -4   -1    0    0    0  501 -0.00000000000E+00 -0.00000000000E+00 -0.38415303229E+03  0.38415513158E+03  0.12700000000E+01 0. -1.
         25    2    1    2    0    0  0.00000000000E+00  0.00000000000E+00 -0.37402990073E+03  0.39435761621E+03  0.12497824939E+03 0.  0.
    9000005    1    3    3    0    0  0.17231518063E+02 -0.37268299615E+02 -0.33562234404E+03  0.33812602561E+03  0.10000000000E+01 0.  0.
    9000005    1    3    3    0    0 -0.17231518063E+02  0.37268299615E+02 -0.38407556692E+02  0.56231590606E+02  0.10000000000E+01 0.  0.
<mgrwt>
<rscale>  0 0.12497825E+03</rscale>
<asrwt>0</asrwt>
<pdfrwt beam="1">  1        4 0.15636707E-02 0.12497825E+03</pdfrwt>
<pdfrwt beam="2">  1       -4 0.59106721E-01 0.12497825E+03</pdfrwt>
<totfact> 0.65136570E+03</totfact>
</mgrwt>
</event>
<event>
 5    1  0.3486294E-002  0.1250020E+03  0.7818608E-02  0.1235066E+00
         -4   -1    0    0    0  501 -0.00000000000E+00  0.00000000000E+00  0.50828231998E+02  0.50844095705E+02  0.12700000000E+01 0.  1.
          4   -1    0    0  501    0  0.00000000000E+00 -0.00000000000E+00 -0.76821386697E+02  0.76831883708E+02  0.12700000000E+01 0.  1.
         25    2    1    2    0    0  0.00000000000E+00  0.00000000000E+00 -0.25993154699E+02  0.12767597941E+03  0.12500204649E+03 0.  0.
    9000005    1    3    3    0    0 -0.24587297568E+02  0.55548818677E+02  0.19859264660E+01  0.60787748453E+02  0.10000000000E+01 0.  0.
    9000005    1    3    3    0    0  0.24587297568E+02 -0.55548818677E+02 -0.27979081165E+02  0.66888230959E+02  0.10000000000E+01 0.  0.
<mgrwt>
<rscale>  0 0.12500205E+03</rscale>
<asrwt>0</asrwt>
<pdfrwt beam="2">  1        4 0.11820703E-01 0.12500205E+03</pdfrwt>
<pdfrwt beam="1">  1       -4 0.78217557E-02 0.12500205E+03</pdfrwt>
<totfact> 0.10394011E+04</totfact>
</mgrwt>
</event>
<event>
 5    1  0.3486294E-002  0.1249999E+03  0.7818608E-02  0.1235069E+00
         -4   -1    0    0    0  501 -0.00000000000E+00  0.00000000000E+00  0.53915345290E+02  0.53930300924E+02  0.12700000000E+01 0.  1.
          4   -1    0    0  501    0  0.00000000000E+00 -0.00000000000E+00 -0.72420884751E+02  0.72432019495E+02  0.12700000000E+01 0.  1.
         25    2    1    2    0    0  0.00000000000E+00  0.00000000000E+00 -0.18505539461E+02  0.12636232042E+03  0.12499992412E+03 0.  0.
    9000005    1    3    3    0    0 -0.19583690341E+02  0.58797532232E+02 -0.17376181779E+02  0.64370819609E+02  0.10000000000E+01 0.  0.
    9000005    1    3    3    0    0  0.19583690341E+02 -0.58797532232E+02 -0.11293576824E+01  0.61991500810E+02  0.10000000000E+01 0.  0.
<mgrwt>
<rscale>  0 0.12499992E+03</rscale>
<asrwt>0</asrwt>
<pdfrwt beam="2">  1        4 0.11143682E-01 0.12499992E+03</pdfrwt>
<pdfrwt beam="1">  1       -4 0.82966754E-02 0.12499992E+03</pdfrwt>
<totfact> 0.10423050E+04</totfact>
</mgrwt>
</event>
<event>
 5    1  0.3486294E-002  0.1249915E+03  0.7818608E-02  0.1235083E+00
          4   -1    0    0  501    0  0.00000000000E+00  0.00000000000E+00  0.12974650048E+02  0.13036657695E+02  0.12700000000E+01 0. -1.
         -4   -1    0    0    0  501 -0.00000000000E+00 -0.00000000000E+00 -0.30024592977E+03  0.30024861572E+03  0.12700000000E+01 0. -1.
         25    2    1    2    0    0  0.00000000000E+00  0.00000000000E+00 -0.28727127972E+03  0.31328527342E+03  0.12499149726E+03 0.  0.
    9000005    1    3    3    0    0  0.53653004359E+02  0.30451909893E+02 -0.16854363920E+03  0.17948237241E+03  0.10000000000E+01 0.  0.
    9000005    1    3    3    0    0 -0.53653004359E+02 -0.30451909893E+02 -0.11872764052E+03  0.13380290100E+03  0.10000000000E+01 0.  0.
<mgrwt>
<rscale>  0 0.12499150E+03</rscale>
<asrwt>0</asrwt>
<pdfrwt beam="1">  1        4 0.20010767E-02 0.12499150E+03</pdfrwt>
<pdfrwt beam="2">  1       -4 0.46196653E-01 0.12499150E+03</pdfrwt>
<totfact> 0.73975885E+03</totfact>
</mgrwt>
</event>
<event>
 5    1  0.3486294E-002  0.1250025E+03  0.7818608E-02  0.1235065E+00
          4   -1    0    0  501    0  0.00000000000E+00  0.00000000000E+00  0.22032947747E+02  0.22069519397E+02  0.12700000000E+01 0.  1.
         -4   -1    0    0    0  501 -0.00000000000E+00 -0.00000000000E+00 -0.17711242383E+03  0.17711697709E+03  0.12700000000E+01 0.  1.
         25    2    1    2    0    0  0.00000000000E+00  0.00000000000E+00 -0.15507947608E+03  0.19918649649E+03  0.12500246590E+03 0.  0.
    9000005    1    3    3    0    0 -0.24588035464E+02 -0.54284760253E+02 -0.10752041060E+03  0.12293512671E+03  0.10000000000E+01 0.  0.
    9000005    1    3    3    0    0  0.24588035464E+02  0.54284760253E+02 -0.47559065478E+02  0.76251369777E+02  0.10000000000E+01 0.  0.
<mgrwt>
<rscale>  0 0.12500247E+03</rscale>
<asrwt>0</asrwt>
<pdfrwt beam="1">  1        4 0.33928478E-02 0.12500247E+03</pdfrwt>
<pdfrwt beam="2">  1       -4 0.27251228E-01 0.12500247E+03</pdfrwt>
<totfact> 0.90267911E+03</totfact>
</mgrwt>
</event>
<event>
 5    1  0.3486294E-002  0.1249991E+03  0.7818608E-02  0.1235071E+00
          4   -1    0    0  501    0  0.00000000000E+00  0.00000000000E+00  0.38436216929E+03  0.38436426744E+03  0.12700000000E+01 0.  1.
         -4   -1    0    0    0  501 -0.00000000000E+00 -0.00000000000E+00 -0.10120981826E+02  0.10200351618E+02  0.12700000000E+01 0.  1.
         25    2    1    2    0    0  0.00000000000E+00  0.00000000000E+00  0.37424118747E+03  0.39456461906E+03  0.12499908885E+03 0.  0.
    9000005    1    3    3    0    0 -0.50612652144E+02  0.36194177271E+02  0.20539966620E+03  0.21461985440E+03  0.10000000000E+01 0.  0.
    9000005    1    3    3    0    0  0.50612652144E+02 -0.36194177271E+02  0.16884152126E+03  0.17994476466E+03  0.10000000000E+01 0.  0.
<mgrwt>
<rscale>  0 0.12499909E+03</rscale>
<asrwt>0</asrwt>
<pdfrwt beam="1">  1        4 0.59138908E-01 0.12499909E+03</pdfrwt>
<pdfrwt beam="2">  1       -4 0.15633409E-02 0.12499909E+03</pdfrwt>
<totfact> 0.65086191E+03</totfact>
</mgrwt>
</event>
<event>
 5    1  0.3486294E-002  0.1250048E+03  0.7818608E-02  0.1235062E+00
          4   -1    0    0  501    0  0.00000000000E+00  0.00000000000E+00  0.65180872445E+02  0.65193243766E+02  0.12700000000E+01 0. -1.
         -4   -1    0    0    0  501 -0.00000000000E+00 -0.00000000000E+00 -0.59909222628E+02  0.59922682316E+02  0.12700000000E+01 0. -1.
         25    2    1    2    0    0  0.00000000000E+00  0.00000000000E+00  0.52716498169E+01  0.12511592608E+03  0.12500481858E+03 0.  0.
    9000005    1    3    3    0    0 -0.39219433967E+02 -0.79709521313E+01  0.50676935978E+02  0.64582133123E+02  0.10000000000E+01 0.  0.
    9000005    1    3    3    0    0  0.39219433967E+02  0.79709521313E+01 -0.45405286161E+02  0.60533792959E+02  0.10000000000E+01 0.  0.
<mgrwt>
<rscale>  0 0.12500482E+03</rscale>
<asrwt>0</asrwt>
<pdfrwt beam="1">  1        4 0.10029814E-01 0.12500482E+03</pdfrwt>
<pdfrwt beam="2">  1       -4 0.92187905E-02 0.12500482E+03</pdfrwt>
<totfact> 0.10449207E+04</totfact>
</mgrwt>
</event>
<event>
 5    1  0.3486294E-002  0.1249560E+03  0.7818608E-02  0.1235138E+00
          4   -1    0    0  501    0  0.00000000000E+00  0.00000000000E+00  0.34120659889E+03  0.34120896241E+03  0.12700000000E+01 0. -1.
         -4   -1    0    0    0  501 -0.00000000000E+00 -0.00000000000E+00 -0.11402618392E+02  0.11473125389E+02  0.12700000000E+01 0. -1.
         25    2    1    2    0    0  0.00000000000E+00  0.00000000000E+00  0.32980398050E+03  0.35268208780E+03  0.12495595024E+03 0.  0.
    9000005    1    3    3    0    0  0.41483540802E+02  0.45601915585E+02  0.19341831997E+03  0.20300755002E+03  0.10000000000E+01 0.  0.
    9000005    1    3    3    0    0 -0.41483540802E+02 -0.45601915585E+02  0.13638566053E+03  0.14967453778E+03  0.10000000000E+01 0.  0.
<mgrwt>
<rscale>  0 0.12495595E+03</rscale>
<asrwt>0</asrwt>
<pdfrwt beam="1">  1        4 0.52498923E-01 0.12495595E+03</pdfrwt>
<pdfrwt beam="2">  1       -4 0.17598546E-02 0.12495595E+03</pdfrwt>
<totfact> 0.69498217E+03</totfact>
</mgrwt>
</event>
<event>
 5    1  0.3486294E-002  0.1249992E+03  0.7818608E-02  0.1235070E+00
         -4   -1    0    0    0  501 -0.00000000000E+00  0.00000000000E+00  0.92867966970E+02  0.92876650398E+02  0.12700000000E+01 0. -1.
          4   -1    0    0  501    0  0.00000000000E+00 -0.00000000000E+00 -0.42041646168E+02  0.42060823964E+02  0.12700000000E+01 0. -1.
         25    2    1    2    0    0  0.00000000000E+00  0.00000000000E+00  0.50826320802E+02  0.13493747436E+03  0.12499922840E+03 0.  0.
    9000005    1    3    3    0    0  0.47675639512E+02  0.39265389774E+02  0.15145678398E+02  0.63601328690E+02  0.10000000000E+01 0.  0.
    9000005    1    3    3    0    0 -0.47675639512E+02 -0.39265389774E+02  0.35680642404E+02  0.71336145672E+02  0.10000000000E+01 0.  0.
<mgrwt>
<rscale>  0 0.12499923E+03</rscale>
<asrwt>0</asrwt>
<pdfrwt beam="2">  1        4 0.64700888E-02 0.12499923E+03</pdfrwt>
<pdfrwt beam="1">  1       -4 0.14289523E-01 0.12499923E+03</pdfrwt>
<totfact> 0.10239567E+04</totfact>
</mgrwt>
</event>
<event>
 5    1  0.3486294E-002  0.1249977E+03  0.7818608E-02  0.1235073E+00
          4   -1    0    0  501    0  0.00000000000E+00  0.00000000000E+00  0.16580337979E+03  0.16580824361E+03  0.12700000000E+01 0. -1.
         -4   -1    0    0    0  501 -0.00000000000E+00 -0.00000000000E+00 -0.23536346660E+02  0.23570585782E+02  0.12700000000E+01 0. -1.
         25    2    1    2    0    0  0.00000000000E+00  0.00000000000E+00  0.14226703313E+03  0.18937882940E+03  0.12499772921E+03 0.  0.
    9000005    1    3    3    0    0  0.94480782318E+00  0.12070916400E+02 -0.21749661456E+02  0.24912797073E+02  0.10000000000E+01 0.  0.
    9000005    1    3    3    0    0 -0.94480782318E+00 -0.12070916400E+02  0.16401669459E+03  0.16446603232E+03  0.10000000000E+01 0.  0.
<mgrwt>
<rscale>  0 0.12499773E+03</rscale>
<asrwt>0</asrwt>
<pdfrwt beam="1">  1        4 0.25511221E-01 0.12499773E+03</pdfrwt>
<pdfrwt beam="2">  1       -4 0.36239842E-02 0.12499773E+03</pdfrwt>
<totfact> 0.91960185E+03</totfact>
</mgrwt>
</event>
<event>
 5    1  0.3486294E-002  0.1250071E+03  0.7818608E-02  0.1235058E+00
          4   -1    0    0  501    0  0.00000000000E+00  0.00000000000E+00  0.11680497164E+02  0.11749336748E+02  0.12700000000E+01 0.  1.
         -4   -1    0    0    0  501 -0.00000000000E+00 -0.00000000000E+00 -0.33341024788E+03  0.33341266666E+03  0.12700000000E+01 0.  1.
         25    2    1    2    0    0  0.00000000000E+00  0.00000000000E+00 -0.32172975072E+03  0.34516200341E+03  0.12500710421E+03 0.  0.
    9000005    1    3    3    0    0  0.57471175194E+02 -0.23369800256E+02 -0.14009008171E+03  0.15321656091E+03  0.10000000000E+01 0.  0.
    9000005    1    3    3    0    0 -0.57471175194E+02  0.23369800256E+02 -0.18163966900E+03  0.19194544250E+03  0.10000000000E+01 0.  0.
<mgrwt>
<rscale>  0 0.12500710E+03</rscale>
<asrwt>0</asrwt>
<pdfrwt beam="1">  1        4 0.18024812E-02 0.12500710E+03</pdfrwt>
<pdfrwt beam="2">  1       -4 0.51299358E-01 0.12500710E+03</pdfrwt>
<totfact> 0.70249050E+03</totfact>
</mgrwt>
</event>
<event>
 5    1  0.3486294E-002  0.1250017E+03  0.7818608E-02  0.1235067E+00
         -4   -1    0    0    0  501 -0.00000000000E+00  0.00000000000E+00  0.91779736966E+01  0.92654250402E+01  0.12700000000E+01 0. -1.
          4   -1    0    0  501    0  0.00000000000E+00 -0.00000000000E+00 -0.42351638258E+03  0.42351828675E+03  0.12700000000E+01 0. -1.
         25    2    1    2    0    0  0.00000000000E+00  0.00000000000E+00 -0.41433840888E+03  0.43278371179E+03  0.12500169646E+03 0.  0.
    9000005    1    3    3    0    0  0.56670597322E+02 -0.25115516677E+02 -0.17968642813E+03  0.19008039939E+03  0.10000000000E+01 0.  0.
    9000005    1    3    3    0    0 -0.56670597322E+02  0.25115516677E+02 -0.23465198075E+03  0.24270331240E+03  0.10000000000E+01 0.  0.
<mgrwt>
<rscale>  0 0.12500170E+03</rscale>
<asrwt>0</asrwt>
<pdfrwt beam="2">  1        4 0.65163225E-01 0.12500170E+03</pdfrwt>
<pdfrwt beam="1">  1       -4 0.14188698E-02 0.12500170E+03</pdfrwt>
<totfact> 0.61482181E+03</totfact>
</mgrwt>
</event>
<event>
 5    1  0.3486294E-002  0.1250000E+03  0.7818608E-02  0.1235069E+00
          4   -1    0    0  501    0  0.00000000000E+00  0.00000000000E+00  0.62237786338E+02  0.62250742552E+02  0.12700000000E+01 0.  1.
         -4   -1    0    0    0  501 -0.00000000000E+00 -0.00000000000E+00 -0.62737364204E+02  0.62750217268E+02  0.12700000000E+01 0.  1.
         25    2    1    2    0    0  0.00000000000E+00  0.00000000000E+00 -0.49957786585E+00  0.12500095982E+03  0.12499996151E+03 0.  0.
    9000005    1    3    3    0    0  0.49811964490E+02  0.37248914931E+02 -0.62941837032E+01  0.62524636891E+02  0.10000000000E+01 0.  0.
    9000005    1    3    3    0    0 -0.49811964490E+02 -0.37248914931E+02  0.57946058373E+01  0.62476322929E+02  0.10000000000E+01 0.  0.
<mgrwt>
<rscale>  0 0.12499996E+03</rscale>
<asrwt>0</asrwt>
<pdfrwt beam="1">  1        4 0.95770294E-02 0.12499996E+03</pdfrwt>
<pdfrwt beam="2">  1       -4 0.96538875E-02 0.12499996E+03</pdfrwt>
<totfact> 0.10452851E+04</totfact>
</mgrwt>
</event>
<event>
 5    1  0.3486294E-002  0.1250006E+03  0.7818608E-02  0.1235068E+00
          4   -1    0    0  501    0  0.00000000000E+00  0.00000000000E+00  0.61217523742E+01  0.62520998177E+01  0.12700000000E+01 0. -1.
         -4   -1    0    0    0  501 -0.00000000000E+00 -0.00000000000E+00 -0.63124715109E+03  0.63124842864E+03  0.12700000000E+01 0. -1.
         25    2    1    2    0    0  0.00000000000E+00  0.00000000000E+00 -0.62512539871E+03  0.63750052845E+03  0.12500063865E+03 0.  0.
    9000005    1    3    3    0    0 -0.55604366230E+02  0.65875330282E+01 -0.17103956583E+03  0.17997437099E+03  0.10000000000E+01 0.  0.
    9000005    1    3    3    0    0  0.55604366230E+02 -0.65875330282E+01 -0.45408583288E+03  0.45752615746E+03  0.10000000000E+01 0.  0.
<mgrwt>
<rscale>  0 0.12500064E+03</rscale>
<asrwt>0</asrwt>
<pdfrwt beam="1">  1        4 0.95193356E-03 0.12500064E+03</pdfrwt>
<pdfrwt beam="2">  1       -4 0.97125020E-01 0.12500064E+03</pdfrwt>
<totfact> 0.46582262E+03</totfact>
</mgrwt>
</event>
<event>
 5    1  0.3486294E-002  0.1250126E+03  0.7818608E-02  0.1235050E+00
          4   -1    0    0  501    0  0.00000000000E+00  0.00000000000E+00  0.32816977712E+02  0.32841542688E+02  0.12700000000E+01 0. -1.
         -4   -1    0    0    0  501 -0.00000000000E+00 -0.00000000000E+00 -0.11898278371E+03  0.11898956139E+03  0.12700000000E+01 0. -1.
         25    2    1    2    0    0  0.00000000000E+00  0.00000000000E+00 -0.86165806000E+02  0.15183110408E+03  0.12501255154E+03 0.  0.
    9000005    1    3    3    0    0  0.22554679821E+02 -0.19682339554E+02  0.23549438001E+02  0.38100972459E+02  0.10000000000E+01 0.  0.
    9000005    1    3    3    0    0 -0.22554679821E+02  0.19682339554E+02 -0.10971524400E+03  0.11373013162E+03  0.10000000000E+01 0.  0.
<mgrwt>
<rscale>  0 0.12501255E+03</rscale>
<asrwt>0</asrwt>
<pdfrwt beam="1">  1        4 0.50511768E-02 0.12501255E+03</pdfrwt>
<pdfrwt beam="2">  1       -4 0.18307454E-01 0.12501255E+03</pdfrwt>
<totfact> 0.98912002E+03</totfact>
</mgrwt>
</event>
<event>
 5    1  0.3486294E-002  0.1249968E+03  0.7818608E-02  0.1235074E+00
          4   -1    0    0  501    0  0.00000000000E+00  0.00000000000E+00  0.55489019180E+02  0.55503550784E+02  0.12700000000E+01 0. -1.
         -4   -1    0    0    0  501 -0.00000000000E+00 -0.00000000000E+00 -0.70363717781E+02  0.70375178010E+02  0.12700000000E+01 0. -1.
         25    2    1    2    0    0  0.00000000000E+00  0.00000000000E+00 -0.14874698600E+02  0.12587872879E+03  0.12499679078E+03 0.  0.
    9000005    1    3    3    0    0  0.40891993761E+02  0.42091232820E+02 -0.29064966667E+02  0.65495032800E+02  0.10000000000E+01 0.  0.
    9000005    1    3    3    0    0 -0.40891993761E+02 -0.42091232820E+02  0.14190268067E+02  0.60383695994E+02  0.10000000000E+01 0.  0.
<mgrwt>
<rscale>  0 0.12499679E+03</rscale>
<asrwt>0</asrwt>
<pdfrwt beam="1">  1        4 0.85387715E-02 0.12499679E+03</pdfrwt>
<pdfrwt beam="2">  1       -4 0.10827187E-01 0.12499679E+03</pdfrwt>
<totfact> 0.10434372E+04</totfact>
</mgrwt>
</event>
<event>
 5    1  0.3486294E-002  0.1249989E+03  0.7818608E-02  0.1235071E+00
          4   -1    0    0  501    0  0.00000000000E+00  0.00000000000E+00  0.13219906513E+02  0.13280769113E+02  0.12700000000E+01 0. -1.
         -4   -1    0    0    0  501 -0.00000000000E+00 -0.00000000000E+00 -0.29473617935E+03  0.29473891552E+03  0.12700000000E+01 0. -1.
         25    2    1    2    0    0  0.00000000000E+00  0.00000000000E+00 -0.28151627284E+03  0.30801968463E+03  0.12499885698E+03 0.  0.
    9000005    1    3    3    0    0  0.55215765477E+02 -0.27937704968E+02 -0.16222373921E+03  0.17362844721E+03  0.10000000000E+01 0.  0.
    9000005    1    3    3    0    0 -0.55215765477E+02  0.27937704968E+02 -0.11929253363E+03  0.13439123742E+03  0.10000000000E+01 0.  0.
<mgrwt>
<rscale>  0 0.12499886E+03</rscale>
<asrwt>0</asrwt>
<pdfrwt beam="1">  1        4 0.20387242E-02 0.12499886E+03</pdfrwt>
<pdfrwt beam="2">  1       -4 0.45348915E-01 0.12499886E+03</pdfrwt>
<totfact> 0.74605645E+03</totfact>
</mgrwt>
</event>
<event>
 5    1  0.3486294E-002  0.1250024E+03  0.7818608E-02  0.1235066E+00
          4   -1    0    0  501    0  0.00000000000E+00  0.00000000000E+00  0.38198635864E+01  0.40254512565E+01  0.12700000000E+01 0.  1.
         -4   -1    0    0    0  501 -0.00000000000E+00 -0.00000000000E+00 -0.99564895150E+03  0.99564976147E+03  0.12700000000E+01 0.  1.
         25    2    1    2    0    0  0.00000000000E+00  0.00000000000E+00 -0.99182908791E+03  0.99967521273E+03  0.12500236524E+03 0.  0.
    9000005    1    3    3    0    0  0.11567205314E+02 -0.51058971497E+02 -0.22300094654E+03  0.22906601880E+03  0.10000000000E+01 0.  0.
    9000005    1    3    3    0    0 -0.11567205314E+02  0.51058971497E+02 -0.76882814137E+03  0.77060919393E+03  0.10000000000E+01 0.  0.
<mgrwt>
<rscale>  0 0.12500237E+03</rscale>
<asrwt>0</asrwt>
<pdfrwt beam="1">  1        4 0.60354886E-03 0.12500237E+03</pdfrwt>
<pdfrwt beam="2">  1       -4 0.15319244E+00 0.12500237E+03</pdfrwt>
<totfact> 0.30613671E+03</totfact>
</mgrwt>
</event>
<event>
 5    1  0.3486294E-002  0.1249897E+03  0.7818608E-02  0.1235085E+00
          4   -1    0    0  501    0  0.00000000000E+00  0.00000000000E+00  0.13680072406E+02  0.13738896645E+02  0.12700000000E+01 0.  1.
         -4   -1    0    0    0  501 -0.00000000000E+00 -0.00000000000E+00 -0.28482310104E+03  0.28482593244E+03  0.12700000000E+01 0.  1.
         25    2    1    2    0    0  0.00000000000E+00  0.00000000000E+00 -0.27114302864E+03  0.29856482908E+03  0.12498966031E+03 0.  0.
    9000005    1    3    3    0    0  0.18442011902E+02 -0.58868399650E+02 -0.15933984281E+03  0.17086773185E+03  0.10000000000E+01 0.  0.
    9000005    1    3    3    0    0 -0.18442011902E+02  0.58868399650E+02 -0.11180318582E+03  0.12769709723E+03  0.10000000000E+01 0.  0.
<mgrwt>
<rscale>  0 0.12498966E+03</rscale>
<asrwt>0</asrwt>
<pdfrwt beam="1">  1        4 0.21093695E-02 0.12498966E+03</pdfrwt>
<pdfrwt beam="2">  1       -4 0.43823677E-01 0.12498966E+03</pdfrwt>
<totfact> 0.75796617E+03</totfact>
</mgrwt>
</event>
<event>
 5    1  0.3486294E-002  0.1250066E+03  0.7818608E-02  0.1235059E+00
         -4   -1    0    0    0  501 -0.00000000000E+00  0.00000000000E+00  0.40786124708E+02  0.40805892574E+02  0.12700000000E+01 0. -1.
          4   -1    0    0  501    0  0.00000000000E+00 -0.00000000000E+00 -0.95736877171E+02  0.95745300409E+02  0.12700000000E+01 0. -1.
         25    2    1    2    0    0  0.00000000000E+00  0.00000000000E+00 -0.54950752463E+02  0.13655119298E+03  0.12500657226E+03 0.  0.
    9000005    1    3    3    0    0 -0.51083493088E+02  0.19500102989E+02 -0.60533847627E+02  0.81578943308E+02  0.10000000000E+01 0.  0.
    9000005    1    3    3    0    0  0.51083493088E+02 -0.19500102989E+02  0.55830951646E+01  0.54972249675E+02  0.10000000000E+01 0.  0.
<mgrwt>
<rscale>  0 0.12500657E+03</rscale>
<asrwt>0</asrwt>
<pdfrwt beam="2">  1        4 0.14730919E-01 0.12500657E+03</pdfrwt>
<pdfrwt beam="1">  1       -4 0.62769570E-02 0.12500657E+03</pdfrwt>
<totfact> 0.10203966E+04</totfact>
</mgrwt>
</event>
<event>
 5    1  0.3486294E-002  0.1250008E+03  0.7818608E-02  0.1235068E+00
          4   -1    0    0  501    0  0.00000000000E+00  0.00000000000E+00  0.40317299576E+02  0.40337297197E+02  0.12700000000E+01 0. -1.
         -4   -1    0    0    0  501 -0.00000000000E+00 -0.00000000000E+00 -0.96840781400E+02  0.96849108629E+02  0.12700000000E+01 0. -1.
         25    2    1    2    0    0  0.00000000000E+00  0.00000000000E+00 -0.56523481824E+02  0.13718640583E+03  0.12500082378E+03 0.  0.
    9000005    1    3    3    0    0  0.41347110673E+02 -0.13198804867E+02  0.21082456970E+02  0.48262428480E+02  0.10000000000E+01 0.  0.
    9000005    1    3    3    0    0 -0.41347110673E+02  0.13198804867E+02 -0.77605938794E+02  0.88923977346E+02  0.10000000000E+01 0.  0.
<mgrwt>
<rscale>  0 0.12500082E+03</rscale>
<asrwt>0</asrwt>
<pdfrwt beam="1">  1        4 0.62048404E-02 0.12500082E+03</pdfrwt>
<pdfrwt beam="2">  1       -4 0.14900760E-01 0.12500082E+03</pdfrwt>
<totfact> 0.10192000E+04</totfact>
</mgrwt>
</event>
<event>
 5    1  0.3486294E-002  0.1250086E+03  0.7818608E-02  0.1235056E+00
         -4   -1    0    0    0  501 -0.00000000000E+00  0.00000000000E+00  0.95181773352E+02  0.95190245711E+02  0.12700000000E+01 0. -1.
          4   -1    0    0  501    0  0.00000000000E+00 -0.00000000000E+00 -0.41025390982E+02  0.41045043613E+02  0.12700000000E+01 0. -1.
         25    2    1    2    0    0  0.00000000000E+00  0.00000000000E+00  0.54156382370E+02  0.13623528932E+03  0.12500856093E+03 0.  0.
    9000005    1    3    3    0    0  0.62275605982E+02 -0.38646697112E+01  0.30946364333E+02  0.69655324548E+02  0.10000000000E+01 0.  0.
    9000005    1    3    3    0    0 -0.62275605982E+02  0.38646697112E+01  0.23210018037E+02  0.66579964777E+02  0.10000000000E+01 0.  0.
<mgrwt>
<rscale>  0 0.12500856E+03</rscale>
<asrwt>0</asrwt>
<pdfrwt beam="2">  1        4 0.63137621E-02 0.12500856E+03</pdfrwt>
<pdfrwt beam="1">  1       -4 0.14645513E-01 0.12500856E+03</pdfrwt>
<totfact> 0.10210128E+04</totfact>
</mgrwt>
</event>
<event>
 5    1  0.3486294E-002  0.1249960E+03  0.7818608E-02  0.1235076E+00
          4   -1    0    0  501    0  0.00000000000E+00  0.00000000000E+00  0.61635790396E+02  0.61648873126E+02  0.12700000000E+01 0.  1.
         -4   -1    0    0    0  501 -0.00000000000E+00 -0.00000000000E+00 -0.63346056619E+02  0.63358786204E+02  0.12700000000E+01 0.  1.
         25    2    1    2    0    0  0.00000000000E+00  0.00000000000E+00 -0.17102662236E+01  0.12500765933E+03  0.12499595946E+03 0.  0.
    9000005    1    3    3    0    0 -0.35239926197E+02  0.30567856424E+02  0.40727012934E+02  0.61934932205E+02  0.10000000000E+01 0.  0.
    9000005    1    3    3    0    0  0.35239926197E+02 -0.30567856424E+02 -0.42437279157E+02  0.63072727125E+02  0.10000000000E+01 0.  0.
<mgrwt>
<rscale>  0 0.12499596E+03</rscale>
<asrwt>0</asrwt>
<pdfrwt beam="1">  1        4 0.94844148E-02 0.12499596E+03</pdfrwt>
<pdfrwt beam="2">  1       -4 0.97475328E-02 0.12499596E+03</pdfrwt>
<totfact> 0.10453651E+04</totfact>
</mgrwt>
</event>
<event>
 5    1  0.3486294E-002  0.1249951E+03  0.7818608E-02  0.1235077E+00
         -4   -1    0    0    0  501 -0.00000000000E+00  0.00000000000E+00  0.19709280380E+02  0.19750155268E+02  0.12700000000E+01 0. -1.
          4   -1    0    0  501    0  0.00000000000E+00 -0.00000000000E+00 -0.19792962839E+03  0.19793370278E+03  0.12700000000E+01 0. -1.
         25    2    1    2    0    0  0.00000000000E+00  0.00000000000E+00 -0.17822034801E+03  0.21768385805E+03  0.12499507833E+03 0.  0.
    9000005    1    3    3    0    0  0.19551183978E+02 -0.25466143389E+02  0.42559810784E+01  0.32401954092E+02  0.10000000000E+01 0.  0.
    9000005    1    3    3    0    0 -0.19551183978E+02  0.25466143389E+02 -0.18247632909E+03  0.18528190395E+03  0.10000000000E+01 0.  0.
<mgrwt>
<rscale>  0 0.12499508E+03</rscale>
<asrwt>0</asrwt>
<pdfrwt beam="2">  1        4 0.30454168E-01 0.12499508E+03</pdfrwt>
<pdfrwt beam="1">  1       -4 0.30356548E-02 0.12499508E+03</pdfrwt>
<totfact> 0.87245774E+03</totfact>
</mgrwt>
</event>
<event>
 5    1  0.3486294E-002  0.1249997E+03  0.7818608E-02  0.1235070E+00
          4   -1    0    0  501    0  0.00000000000E+00  0.00000000000E+00  0.19575477648E+03  0.19575889613E+03  0.12700000000E+01 0. -1.
         -4   -1    0    0    0  501 -0.00000000000E+00 -0.00000000000E+00 -0.19930160897E+02  0.19970583702E+02  0.12700000000E+01 0. -1.
         25    2    1    2    0    0  0.00000000000E+00  0.00000000000E+00  0.17582461558E+03  0.21572947983E+03  0.12499965210E+03 0.  0.
    9000005    1    3    3    0    0  0.10225918829E+02  0.22568939067E+02 -0.11098943166E+02  0.27168234501E+02  0.10000000000E+01 0.  0.
    9000005    1    3    3    0    0 -0.10225918829E+02 -0.22568939067E+02  0.18692355875E+03  0.18856124533E+03  0.10000000000E+01 0.  0.
<mgrwt>
<rscale>  0 0.12499965E+03</rscale>
<asrwt>0</asrwt>
<pdfrwt beam="1">  1        4 0.30119546E-01 0.12499965E+03</pdfrwt>
<pdfrwt beam="2">  1       -4 0.30696049E-02 0.12499965E+03</pdfrwt>
<totfact> 0.87549327E+03</totfact>
</mgrwt>
</event>
<event>
 5    1  0.3486294E-002  0.1250037E+03  0.7818608E-02  0.1235064E+00
          4   -1    0    0  501    0  0.00000000000E+00  0.00000000000E+00  0.24608066144E+03  0.24608393859E+03  0.12700000000E+01 0.  1.
         -4   -1    0    0    0  501 -0.00000000000E+00 -0.00000000000E+00 -0.15846010620E+02  0.15896822091E+02  0.12700000000E+01 0.  1.
         25    2    1    2    0    0  0.00000000000E+00  0.00000000000E+00  0.23023465082E+03  0.26198076068E+03  0.12500369807E+03 0.  0.
    9000005    1    3    3    0    0  0.49878856199E+02 -0.39082173316E+00  0.19402096857E+03  0.20033269649E+03  0.10000000000E+01 0.  0.
    9000005    1    3    3    0    0 -0.49878856199E+02  0.39082173316E+00  0.36213682251E+02  0.61648064200E+02  0.10000000000E+01 0.  0.
<mgrwt>
<rscale>  0 0.12500370E+03</rscale>
<asrwt>0</asrwt>
<pdfrwt beam="1">  1        4 0.37862726E-01 0.12500370E+03</pdfrwt>
<pdfrwt beam="2">  1       -4 0.24420083E-02 0.12500370E+03</pdfrwt>
<totfact> 0.80622251E+03</totfact>
</mgrwt>
</event>
<event>
 5    1  0.3486294E-002  0.1250014E+03  0.7818608E-02  0.1235067E+00
          4   -1    0    0  501    0  0.00000000000E+00  0.00000000000E+00  0.13853307952E+02  0.13911399685E+02  0.12700000000E+01 0.  1.
         -4   -1    0    0    0  501 -0.00000000000E+00 -0.00000000000E+00 -0.28132903534E+03  0.28133190190E+03  0.12700000000E+01 0.  1.
         25    2    1    2    0    0  0.00000000000E+00  0.00000000000E+00 -0.26747572739E+03  0.29524330159E+03  0.12500136954E+03 0.  0.
    9000005    1    3    3    0    0 -0.32647723268E+02 -0.41305435972E+02 -0.54224142275E+02  0.75586179166E+02  0.10000000000E+01 0.  0.
    9000005    1    3    3    0    0  0.32647723268E+02  0.41305435972E+02 -0.21325158512E+03  0.21965712242E+03  0.10000000000E+01 0.  0.
<mgrwt>
<rscale>  0 0.12500137E+03</rscale>
<asrwt>0</asrwt>
<pdfrwt beam="1">  1        4 0.21359675E-02 0.12500137E+03</pdfrwt>
<pdfrwt beam="2">  1       -4 0.43286075E-01 0.12500137E+03</pdfrwt>
<totfact> 0.76197095E+03</totfact>
</mgrwt>
</event>
<event>
 5    1  0.3486294E-002  0.1250003E+03  0.7818608E-02  0.1235069E+00
          4   -1    0    0  501    0  0.00000000000E+00  0.00000000000E+00  0.33588214024E+02  0.33612215358E+02  0.12700000000E+01 0. -1.
         -4   -1    0    0    0  501 -0.00000000000E+00 -0.00000000000E+00 -0.11622977432E+03  0.11623671252E+03  0.12700000000E+01 0. -1.
         25    2    1    2    0    0  0.00000000000E+00  0.00000000000E+00 -0.82641560292E+02  0.14984892788E+03  0.12500029480E+03 0.  0.
    9000005    1    3    3    0    0  0.48171193850E+02  0.16325689933E+02 -0.84846487150E+02  0.98928855499E+02  0.10000000000E+01 0.  0.
    9000005    1    3    3    0    0 -0.48171193850E+02 -0.16325689933E+02  0.22049268577E+01  0.50920072380E+02  0.10000000000E+01 0.  0.
<mgrwt>
<rscale>  0 0.12500029E+03</rscale>
<asrwt>0</asrwt>
<pdfrwt beam="1">  1        4 0.51697976E-02 0.12500029E+03</pdfrwt>
<pdfrwt beam="2">  1       -4 0.17883884E-01 0.12500029E+03</pdfrwt>
<totfact> 0.99333161E+03</totfact>
</mgrwt>
</event>
<event>
 5    1  0.3486294E-002  0.1249981E+03  0.7818608E-02  0.1235072E+00
         -4   -1    0    0    0  501 -0.00000000000E+00  0.00000000000E+00  0.10019198427E+02  0.10099368155E+02  0.12700000000E+01 0.  1.
          4   -1    0    0  501    0  0.00000000000E+00 -0.00000000000E+00 -0.38822985903E+03  0.38823193628E+03  0.12700000000E+01 0.  1.
         25    2    1    2    0    0  0.00000000000E+00  0.00000000000E+00 -0.37821066061E+03  0.39833130443E+03  0.12499809716E+03 0.  0.
    9000005    1    3    3    0    0 -0.25432129070E+02 -0.53346393702E+02 -0.12438315593E+03  0.13771274592E+03  0.10000000000E+01 0.  0.
    9000005    1    3    3    0    0  0.25432129070E+02  0.53346393702E+02 -0.25382750467E+03  0.26061855851E+03  0.10000000000E+01 0.  0.
<mgrwt>
<rscale>  0 0.12499810E+03</rscale>
<asrwt>0</asrwt>
<pdfrwt beam="2">  1        4 0.59733986E-01 0.12499810E+03</pdfrwt>
<pdfrwt beam="1">  1       -4 0.15477421E-02 0.12499810E+03</pdfrwt>
<totfact> 0.64718133E+03</totfact>
</mgrwt>
</event>
<event>
 5    1  0.3486294E-002  0.1249949E+03  0.7818608E-02  0.1235077E+00
         -4   -1    0    0    0  501 -0.00000000000E+00  0.00000000000E+00  0.63406449483E+01  0.64665816596E+01  0.12700000000E+01 0.  1.
          4   -1    0    0  501    0  0.00000000000E+00 -0.00000000000E+00 -0.60983088468E+03  0.60983220710E+03  0.12700000000E+01 0.  1.
         25    2    1    2    0    0  0.00000000000E+00  0.00000000000E+00 -0.60349023974E+03  0.61629878876E+03  0.12499491017E+03 0.  0.
    9000005    1    3    3    0    0  0.10175190751E+02 -0.36191249189E+02 -0.54785970453E+03  0.54914897512E+03  0.10000000000E+01 0.  0.
    9000005    1    3    3    0    0 -0.10175190751E+02  0.36191249189E+02 -0.55630535206E+02  0.67149813641E+02  0.10000000000E+01 0.  0.
<mgrwt>
<rscale>  0 0.12499491E+03</rscale>
<asrwt>0</asrwt>
<pdfrwt beam="2">  1        4 0.93829880E-01 0.12499491E+03</pdfrwt>
<pdfrwt beam="1">  1       -4 0.98527348E-03 0.12499491E+03</pdfrwt>
<totfact> 0.47860042E+03</totfact>
</mgrwt>
</event>
<event>
 5    1  0.3486294E-002  0.1250009E+03  0.7818608E-02  0.1235068E+00
         -4   -1    0    0    0  501 -0.00000000000E+00  0.00000000000E+00  0.15646945240E+02  0.15698401044E+02  0.12700000000E+01 0. -1.
          4   -1    0    0  501    0  0.00000000000E+00 -0.00000000000E+00 -0.24919010980E+03  0.24919334606E+03  0.12700000000E+01 0. -1.
         25    2    1    2    0    0  0.00000000000E+00  0.00000000000E+00 -0.23354316456E+03  0.26489174710E+03  0.12500091189E+03 0.  0.
    9000005    1    3    3    0    0  0.15397027300E+02  0.22246706528E+02  0.26031356394E+01  0.27198542537E+02  0.10000000000E+01 0.  0.
    9000005    1    3    3    0    0 -0.15397027300E+02 -0.22246706528E+02 -0.23614630020E+03  0.23769320457E+03  0.10000000000E+01 0.  0.
<mgrwt>
<rscale>  0 0.12500091E+03</rscale>
<asrwt>0</asrwt>
<pdfrwt beam="2">  1        4 0.38341144E-01 0.12500091E+03</pdfrwt>
<pdfrwt beam="1">  1       -4 0.24114296E-02 0.12500091E+03</pdfrwt>
<totfact> 0.80222811E+03</totfact>
</mgrwt>
</event>
<event>
 5    1  0.3486294E-002  0.1250002E+03  0.7818608E-02  0.1235069E+00
         -4   -1    0    0    0  501 -0.00000000000E+00  0.00000000000E+00  0.48321943914E+02  0.48338630138E+02  0.12700000000E+01 0. -1.
          4   -1    0    0  501    0  0.00000000000E+00 -0.00000000000E+00 -0.80802621854E+02  0.80812601731E+02  0.12700000000E+01 0. -1.
         25    2    1    2    0    0  0.00000000000E+00  0.00000000000E+00 -0.32480677940E+02  0.12915123187E+03  0.12500018501E+03 0.  0.
    9000005    1    3    3    0    0 -0.52877742148E+02 -0.21723149218E+02  0.98430197776E+01  0.58015824263E+02  0.10000000000E+01 0.  0.
    9000005    1    3    3    0    0  0.52877742148E+02  0.21723149218E+02 -0.42323697718E+02  0.71135407605E+02  0.10000000000E+01 0.  0.
<mgrwt>
<rscale>  0 0.12500019E+03</rscale>
<asrwt>0</asrwt>
<pdfrwt beam="2">  1        4 0.12433224E-01 0.12500019E+03</pdfrwt>
<pdfrwt beam="1">  1       -4 0.74361964E-02 0.12500019E+03</pdfrwt>
<totfact> 0.10362655E+04</totfact>
</mgrwt>
</event>
<event>
 5    1  0.3486294E-002  0.1249994E+03  0.7818608E-02  0.1235070E+00
         -4   -1    0    0    0  501 -0.00000000000E+00  0.00000000000E+00  0.25508749821E+02  0.25540344896E+02  0.12700000000E+01 0.  1.
          4   -1    0    0  501    0  0.00000000000E+00 -0.00000000000E+00 -0.15300314442E+03  0.15300841514E+03  0.12700000000E+01 0.  1.
         25    2    1    2    0    0  0.00000000000E+00  0.00000000000E+00 -0.12749439460E+03  0.17854876004E+03  0.12499935622E+03 0.  0.
    9000005    1    3    3    0    0 -0.41935692532E+02  0.26192245220E+02 -0.11833690981E+03  0.12825466947E+03  0.10000000000E+01 0.  0.
    9000005    1    3    3    0    0  0.41935692532E+02 -0.26192245220E+02 -0.91574847907E+01  0.50294090563E+02  0.10000000000E+01 0.  0.
<mgrwt>
<rscale>  0 0.12499936E+03</rscale>
<asrwt>0</asrwt>
<pdfrwt beam="2">  1        4 0.23541781E-01 0.12499936E+03</pdfrwt>
<pdfrwt beam="1">  1       -4 0.39272589E-02 0.12499936E+03</pdfrwt>
<totfact> 0.93880241E+03</totfact>
</mgrwt>
</event>
<event>
 5    1  0.3486294E-002  0.1249986E+03  0.7818608E-02  0.1235071E+00
          4   -1    0    0  501    0  0.00000000000E+00  0.00000000000E+00  0.12768811058E+04  0.12768817374E+04  0.12700000000E+01 0.  1.
         -4   -1    0    0    0  501 -0.00000000000E+00 -0.00000000000E+00 -0.29266763725E+01  0.31903502299E+01  0.12700000000E+01 0.  1.
         25    2    1    2    0    0  0.00000000000E+00  0.00000000000E+00  0.12739544295E+04  0.12800720877E+04  0.12499864485E+03 0.  0.
    9000005    1    3    3    0    0 -0.54258785726E+02 -0.96555803046E+01  0.93867267975E+03  0.94028966057E+03  0.10000000000E+01 0.  0.
    9000005    1    3    3    0    0  0.54258785726E+02  0.96555803046E+01  0.33528174972E+03  0.33978242709E+03  0.10000000000E+01 0.  0.
<mgrwt>
<rscale>  0 0.12499864E+03</rscale>
<asrwt>0</asrwt>
<pdfrwt beam="1">  1        4 0.19646299E+00 0.12499864E+03</pdfrwt>
<pdfrwt beam="2">  1       -4 0.47059049E-03 0.12499864E+03</pdfrwt>
<totfact> 0.22704554E+03</totfact>
</mgrwt>
</event>
<event>
 5    1  0.3486294E-002  0.1250015E+03  0.7818608E-02  0.1235067E+00
         -4   -1    0    0    0  501 -0.00000000000E+00  0.00000000000E+00  0.41194551579E+02  0.41214123548E+02  0.12700000000E+01 0. -1.
          4   -1    0    0  501    0  0.00000000000E+00 -0.00000000000E+00 -0.94780415717E+02  0.94788923950E+02  0.12700000000E+01 0. -1.
         25    2    1    2    0    0  0.00000000000E+00  0.00000000000E+00 -0.53585864138E+02  0.13600304750E+03  0.12500153636E+03 0.  0.
    9000005    1    3    3    0    0  0.30904205414E+02  0.43169619570E+02  0.90728364363E+01  0.53870236004E+02  0.10000000000E+01 0.  0.
    9000005    1    3    3    0    0 -0.30904205414E+02 -0.43169619570E+02 -0.62658700575E+02  0.82132811493E+02  0.10000000000E+01 0.  0.
<mgrwt>
<rscale>  0 0.12500154E+03</rscale>
<asrwt>0</asrwt>
<pdfrwt beam="2">  1        4 0.14583762E-01 0.12500154E+03</pdfrwt>
<pdfrwt beam="1">  1       -4 0.63397834E-02 0.12500154E+03</pdfrwt>
<totfact> 0.10216618E+04</totfact>
</mgrwt>
</event>
<event>
 5    1  0.3486294E-002  0.1250036E+03  0.7818608E-02  0.1235064E+00
          4   -1    0    0  501    0  0.00000000000E+00  0.00000000000E+00  0.17870486246E+03  0.17870937515E+03  0.12700000000E+01 0.  1.
         -4   -1    0    0    0  501 -0.00000000000E+00 -0.00000000000E+00 -0.21836670787E+02  0.21873570606E+02  0.12700000000E+01 0.  1.
         25    2    1    2    0    0  0.00000000000E+00  0.00000000000E+00  0.15686819167E+03  0.20058294575E+03  0.12500355423E+03 0.  0.
    9000005    1    3    3    0    0  0.35871136086E+02  0.51165794405E+02  0.79865016599E+02  0.10141054086E+03  0.10000000000E+01 0.  0.
    9000005    1    3    3    0    0 -0.35871136086E+02 -0.51165794405E+02  0.77003175070E+02  0.99172404892E+02  0.10000000000E+01 0.  0.
<mgrwt>
<rscale>  0 0.12500355E+03</rscale>
<asrwt>0</asrwt>
<pdfrwt beam="1">  1        4 0.27496241E-01 0.12500355E+03</pdfrwt>
<pdfrwt beam="2">  1       -4 0.33626734E-02 0.12500355E+03</pdfrwt>
<totfact> 0.90030120E+03</totfact>
</mgrwt>
</event>
<event>
 5    1  0.3486294E-002  0.1250001E+03  0.7818608E-02  0.1235069E+00
         -4   -1    0    0    0  501 -0.00000000000E+00  0.00000000000E+00  0.14374118815E+01  0.19180857429E+01  0.12700000000E+01 0. -1.
          4   -1    0    0  501    0  0.00000000000E+00 -0.00000000000E+00 -0.23277924298E+04  0.23277927762E+04  0.12700000000E+01 0. -1.
         25    2    1    2    0    0  0.00000000000E+00  0.00000000000E+00 -0.23263550179E+04  0.23297108619E+04  0.12500012426E+03 0.  0.
    9000005    1    3    3    0    0  0.59598255438E+02 -0.18735647065E+02 -0.11350275693E+04  0.11367460401E+04  0.10000000000E+01 0.  0.
    9000005    1    3    3    0    0 -0.59598255438E+02  0.18735647065E+02 -0.11913274485E+04  0.11929648219E+04  0.10000000000E+01 0.  0.
<mgrwt>
<rscale>  0 0.12500012E+03</rscale>
<asrwt>0</asrwt>
<pdfrwt beam="2">  1        4 0.35815633E+00 0.12500012E+03</pdfrwt>
<pdfrwt beam="1">  1       -4 0.25814371E-03 0.12500012E+03</pdfrwt>
<totfact> 0.61487092E+02</totfact>
</mgrwt>
</event>
<event>
 5    1  0.3486294E-002  0.1249955E+03  0.7818608E-02  0.1235076E+00
         -4   -1    0    0    0  501 -0.00000000000E+00  0.00000000000E+00  0.83792631649E+03  0.83792727893E+03  0.12700000000E+01 0.  1.
          4   -1    0    0  501    0  0.00000000000E+00 -0.00000000000E+00 -0.45739866349E+01  0.47470257779E+01  0.12700000000E+01 0.  1.
         25    2    1    2    0    0  0.00000000000E+00  0.00000000000E+00  0.83335232986E+03  0.84267430470E+03  0.12499551245E+03 0.  0.
    9000005    1    3    3    0    0 -0.58360387193E+02 -0.51645531657E+01  0.56319817442E+03  0.56623828118E+03  0.10000000000E+01 0.  0.
    9000005    1    3    3    0    0  0.58360387193E+02  0.51645531657E+01  0.27015415543E+03  0.27643602352E+03  0.10000000000E+01 0.  0.
<mgrwt>
<rscale>  0 0.12499551E+03</rscale>
<asrwt>0</asrwt>
<pdfrwt beam="2">  1        4 0.71707481E-03 0.12499551E+03</pdfrwt>
<pdfrwt beam="1">  1       -4 0.12892516E+00 0.12499551E+03</pdfrwt>
<totfact> 0.36432548E+03</totfact>
</mgrwt>
</event>
<event>
 5    1  0.3486294E-002  0.1250049E+03  0.7818608E-02  0.1235062E+00
         -4   -1    0    0    0  501 -0.00000000000E+00  0.00000000000E+00  0.37002550046E+03  0.37002767990E+03  0.12700000000E+01 0.  1.
          4   -1    0    0  501    0  0.00000000000E+00 -0.00000000000E+00 -0.10517118410E+02  0.10593520645E+02  0.12700000000E+01 0.  1.
         25    2    1    2    0    0  0.00000000000E+00  0.00000000000E+00  0.35950838205E+03  0.38062120054E+03  0.12500488606E+03 0.  0.
    9000005    1    3    3    0    0 -0.12522814709E+02 -0.22397079966E+00 -0.66713541423E+01  0.14225962788E+02  0.10000000000E+01 0.  0.
    9000005    1    3    3    0    0  0.12522814709E+02  0.22397079966E+00  0.36617973619E+03  0.36639523775E+03  0.10000000000E+01 0.  0.
<mgrwt>
<rscale>  0 0.12500489E+03</rscale>
<asrwt>0</asrwt>
<pdfrwt beam="2">  1        4 0.16240628E-02 0.12500489E+03</pdfrwt>
<pdfrwt beam="1">  1       -4 0.56933050E-01 0.12500489E+03</pdfrwt>
<totfact> 0.66475025E+03</totfact>
</mgrwt>
</event>
<event>
 5    1  0.3486294E-002  0.1250004E+03  0.7818608E-02  0.1235069E+00
          4   -1    0    0  501    0  0.00000000000E+00  0.00000000000E+00  0.12964654841E+03  0.12965276864E+03  0.12700000000E+01 0. -1.
         -4   -1    0    0    0  501 -0.00000000000E+00 -0.00000000000E+00 -0.30109880986E+02  0.30136652651E+02  0.12700000000E+01 0. -1.
         25    2    1    2    0    0  0.00000000000E+00  0.00000000000E+00  0.99536667428E+02  0.15978942129E+03  0.12500044397E+03 0.  0.
    9000005    1    3    3    0    0 -0.13274998175E+02 -0.57452411228E+02  0.23314012568E+02  0.63415678775E+02  0.10000000000E+01 0.  0.
    9000005    1    3    3    0    0  0.13274998175E+02  0.57452411228E+02  0.76222654860E+02  0.96373742515E+02  0.10000000000E+01 0.  0.
<mgrwt>
<rscale>  0 0.12500044E+03</rscale>
<asrwt>0</asrwt>
<pdfrwt beam="1">  1        4 0.19948161E-01 0.12500044E+03</pdfrwt>
<pdfrwt beam="2">  1       -4 0.46348272E-02 0.12500044E+03</pdfrwt>
<totfact> 0.97382426E+03</totfact>
</mgrwt>
</event>
<event>
 5    1  0.3486294E-002  0.1249997E+03  0.7818608E-02  0.1235070E+00
          4   -1    0    0  501    0  0.00000000000E+00  0.00000000000E+00  0.14450744320E+02  0.14506443789E+02  0.12700000000E+01 0. -1.
         -4   -1    0    0    0  501 -0.00000000000E+00 -0.00000000000E+00 -0.26973632901E+03  0.26973931877E+03  0.12700000000E+01 0. -1.
         25    2    1    2    0    0  0.00000000000E+00  0.00000000000E+00 -0.25528558469E+03  0.28424576256E+03  0.12499969512E+03 0.  0.
    9000005    1    3    3    0    0 -0.61432165834E+02  0.10067115910E+02 -0.11519331714E+03  0.13094181203E+03  0.10000000000E+01 0.  0.
    9000005    1    3    3    0    0  0.61432165834E+02 -0.10067115910E+02 -0.14009226755E+03  0.15330395053E+03  0.10000000000E+01 0.  0.
<mgrwt>
<rscale>  0 0.12499970E+03</rscale>
<asrwt>0</asrwt>
<pdfrwt beam="1">  1        4 0.22277062E-02 0.12499970E+03</pdfrwt>
<pdfrwt beam="2">  1       -4 0.41502408E-01 0.12499970E+03</pdfrwt>
<totfact> 0.77619023E+03</totfact>
</mgrwt>
</event>
<event>
 5    1  0.3486294E-002  0.1250050E+03  0.7818608E-02  0.1235061E+00
         -4   -1    0    0    0  501 -0.00000000000E+00  0.00000000000E+00  0.18576785911E+02  0.18620147013E+02  0.12700000000E+01 0.  1.
          4   -1    0    0  501    0  0.00000000000E+00 -0.00000000000E+00 -0.21000227637E+03  0.21000611653E+03  0.12700000000E+01 0.  1.
         25    2    1    2    0    0  0.00000000000E+00  0.00000000000E+00 -0.19142549046E+03  0.22862626354E+03  0.12500499984E+03 0.  0.
    9000005    1    3    3    0    0 -0.16689507844E+02 -0.59327397936E+02 -0.76769100591E+02  0.98451889893E+02  0.10000000000E+01 0.  0.
    9000005    1    3    3    0    0  0.16689507844E+02  0.59327397936E+02 -0.11465638987E+03  0.13017437365E+03  0.10000000000E+01 0.  0.
<mgrwt>
<rscale>  0 0.12500500E+03</rscale>
<asrwt>0</asrwt>
<pdfrwt beam="2">  1        4 0.32311672E-01 0.12500500E+03</pdfrwt>
<pdfrwt beam="1">  1       -4 0.28615981E-02 0.12500500E+03</pdfrwt>
<totfact> 0.85511443E+03</totfact>
</mgrwt>
</event>
<event>
 5    1  0.3486294E-002  0.1249984E+03  0.7818608E-02  0.1235072E+00
          4   -1    0    0  501    0  0.00000000000E+00  0.00000000000E+00  0.71966892758E+02  0.71978097733E+02  0.12700000000E+01 0. -1.
         -4   -1    0    0    0  501 -0.00000000000E+00 -0.00000000000E+00 -0.54254147313E+02  0.54269009579E+02  0.12700000000E+01 0. -1.
         25    2    1    2    0    0  0.00000000000E+00  0.00000000000E+00  0.17712745444E+02  0.12624710731E+03  0.12499836300E+03 0.  0.
    9000005    1    3    3    0    0 -0.39954050568E+02  0.44898948287E+02 -0.84290985801E+01  0.60698364203E+02  0.10000000000E+01 0.  0.
    9000005    1    3    3    0    0  0.39954050568E+02 -0.44898948287E+02  0.26141844025E+02  0.65548743108E+02  0.10000000000E+01 0.  0.
<mgrwt>
<rscale>  0 0.12499836E+03</rscale>
<asrwt>0</asrwt>
<pdfrwt beam="1">  1        4 0.11073835E-01 0.12499836E+03</pdfrwt>
<pdfrwt beam="2">  1       -4 0.83487971E-02 0.12499836E+03</pdfrwt>
<totfact> 0.10425934E+04</totfact>
</mgrwt>
</event>
