<event>
 6    4  0.6093247E-003  0.1351157E+03  0.7818608E-02  0.1220056E+00
         21   -1    0    0  501  502  0.00000000000E+00  0.00000000000E+00  0.24112357443E+02  0.24112357443E+02  0.00000000000E+00 0. -1.
          4   -1    0    0  502    0 -0.00000000000E+00 -0.00000000000E+00 -0.11685325017E+04  0.11685331918E+04  0.12700000000E+01 0.  1.
         25    2    1    2    0    0 -0.21630218634E+02  0.46516726412E+02 -0.11317526649E+04  0.11397896118E+04  0.12499837008E+03 0.  0.
    9000005    1    3    3    0    0 -0.44864789683E+02  0.74064880608E+02 -0.53632768415E+03  0.54327418555E+03  0.10000000000E+01 0.  0.
    9000005    1    3    3    0    0  0.23234571049E+02 -0.27548154196E+02 -0.59542498070E+03  0.59651542623E+03  0.10000000000E+01 0.  0.
          4    1    1    2  501    0  0.21630218634E+02 -0.46516726412E+02 -0.12667479397E+02  0.52855937495E+02  0.12700000000E+01 0. -1.
<mgrwt>
<rscale>  1 0.13511575E+03</rscale>
<asrwt>0</asrwt>
<pdfrwt beam="1">  1       21 0.37095936E-02 0.13511575E+03</pdfrwt>
<pdfrwt beam="2">  1        4 0.17977685E+00 0.13511575E+03</pdfrwt>
<totfact> 0.36063053E+03</totfact>
</mgrwt>
</event>
<event>
 6    4  0.6093247E-003  0.1274440E+03  0.7818608E-02  0.1231298E+00
          4   -1    0    0  502    0 -0.00000000000E+00  0.00000000000E+00  0.18398537559E+03  0.18398975876E+03  0.12700000000E+01 0. -1.
         21   -1    0    0  501  502  0.00000000000E+00 -0.00000000000E+00 -0.36058664392E+02  0.36058664392E+02  0.00000000000E+00 0. -1.
         25    2    1    2    0    0 -0.17586070430E+02  0.17550176895E+02  0.14781609476E+03  0.19517064757E+03  0.12499882087E+03 0.  0.
    9000005    1    3    3    0    0 -0.67365817232E+02  0.90343039886E+01  0.47728879611E+02  0.83059123092E+02  0.10000000000E+01 0.  0.
    9000005    1    3    3    0    0  0.49779746802E+02  0.85158729059E+01  0.10008721515E+03  0.11211152447E+03  0.10000000000E+01 0.  0.
          4    1    1    2  501    0  0.17586070430E+02 -0.17550176895E+02  0.11061642929E+00  0.24877775588E+02  0.12700000000E+01 0.  1.
<mgrwt>
<rscale>  1 0.12744404E+03</rscale>
<asrwt>0</asrwt>
<pdfrwt beam="2">  1       21 0.55474870E-02 0.12744404E+03</pdfrwt>
<pdfrwt beam="1">  1        4 0.28307499E-01 0.12744404E+03</pdfrwt>
<totfact> 0.10657327E+05</totfact>
</mgrwt>
</event>
<event>
 6    4  0.6093247E-003  0.1374004E+03  0.7818608E-02  0.1216870E+00
         -4   -1    0    0    0  501 -0.00000000000E+00  0.00000000000E+00  0.96990018528E+01  0.97817962021E+01  0.12700000000E+01 0. -1.
         21   -1    0    0  501  502  0.00000000000E+00 -0.00000000000E+00 -0.11563641370E+04  0.11563641370E+04  0.00000000000E+00 0.  1.
         25    2    1    2    0    0 -0.53919338038E+02  0.18608842110E+02 -0.55576262862E+03  0.57249538857E+03  0.12500114618E+03 0.  0.
    9000005    1    3    3    0    0 -0.65360619434E+02  0.30807135305E+02 -0.15115279071E+03  0.16753882028E+03  0.10000000000E+01 0.  0.
    9000005    1    3    3    0    0  0.11441281396E+02 -0.12198293195E+02 -0.40460983791E+03  0.40495656830E+03  0.10000000000E+01 0.  0.
         -4    1    1    2    0  502  0.53919338038E+02 -0.18608842110E+02 -0.59090250656E+03  0.59365054466E+03  0.12700000000E+01 0.  1.
<mgrwt>
<rscale>  1 0.13740040E+03</rscale>
<asrwt>0</asrwt>
<pdfrwt beam="2">  1       21 0.17790203E+00 0.13740040E+03</pdfrwt>
<pdfrwt beam="1">  1       -4 0.14985778E-02 0.13740040E+03</pdfrwt>
<totfact> 0.12474848E+04</totfact>
</mgrwt>
</event>
<event>
 6    4  0.6093247E-003  0.1282676E+03  0.7818608E-02  0.1230049E+00
          4   -1    0    0  502    0 -0.00000000000E+00  0.00000000000E+00  0.15908713315E+03  0.15909220231E+03  0.12700000000E+01 0. -1.
         21   -1    0    0  501  502  0.00000000000E+00 -0.00000000000E+00 -0.90020187153E+02  0.90020187153E+02  0.00000000000E+00 0.  1.
         25    2    1    2    0    0 -0.27958383249E+02  0.67415492814E+01  0.12943902438E+03  0.18222800841E+03  0.12500186532E+03 0.  0.
    9000005    1    3    3    0    0 -0.77312093757E+02 -0.38169359705E+01  0.71466425996E+02  0.10535738648E+03  0.10000000000E+01 0.  0.
    9000005    1    3    3    0    0  0.49353710508E+02  0.10558485252E+02  0.57972598387E+02  0.76870621927E+02  0.10000000000E+01 0.  0.
          4    1    1    2  501    0  0.27958383249E+02 -0.67415492814E+01 -0.60372078383E+02  0.66884381053E+02  0.12700000000E+01 0.  1.
<mgrwt>
<rscale>  1 0.12826763E+03</rscale>
<asrwt>0</asrwt>
<pdfrwt beam="2">  1       21 0.13849260E-01 0.12826763E+03</pdfrwt>
<pdfrwt beam="1">  1        4 0.24476023E-01 0.12826763E+03</pdfrwt>
<totfact> 0.28550425E+04</totfact>
</mgrwt>
</event>
<event>
 6    4  0.6093247E-003  0.1299016E+03  0.7818608E-02  0.1227602E+00
          4   -1    0    0  502    0 -0.00000000000E+00  0.00000000000E+00  0.18011130250E+03  0.18011577995E+03  0.12700000000E+01 0. -1.
         21   -1    0    0  501  502  0.00000000000E+00 -0.00000000000E+00 -0.37917025128E+02  0.37917025128E+02  0.00000000000E+00 0. -1.
         25    2    1    2    0    0 -0.15420745655E+02  0.31769184291E+02  0.10964297943E+03  0.16998823864E+03  0.12500935113E+03 0.  0.
    9000005    1    3    3    0    0 -0.57950473068E+01  0.11052044119E+02 -0.27888127956E+02  0.30569231809E+02  0.10000000000E+01 0.  0.
    9000005    1    3    3    0    0 -0.96256983481E+01  0.20717140172E+02  0.13753110739E+03  0.13941900683E+03  0.10000000000E+01 0.  0.
          4    1    1    2  501    0  0.15420745655E+02 -0.31769184291E+02  0.32551297935E+02  0.48044566439E+02  0.12700000000E+01 0.  1.
<mgrwt>
<rscale>  1 0.12990157E+03</rscale>
<asrwt>0</asrwt>
<pdfrwt beam="2">  1       21 0.58333886E-02 0.12990157E+03</pdfrwt>
<pdfrwt beam="1">  1        4 0.27711411E-01 0.12990157E+03</pdfrwt>
<totfact> 0.10215812E+05</totfact>
</mgrwt>
</event>
<event>
 6    4  0.6093247E-003  0.1279493E+03  0.7818608E-02  0.1230531E+00
         21   -1    0    0  501  502  0.00000000000E+00  0.00000000000E+00  0.45823235872E+02  0.45823235872E+02  0.00000000000E+00 0. -1.
         -4   -1    0    0    0  501 -0.00000000000E+00 -0.00000000000E+00 -0.34384488931E+03  0.34384723469E+03  0.12700000000E+01 0. -1.
         25    2    1    2    0    0 -0.19053306175E+02 -0.19238050347E+02 -0.32630587331E+03  0.35049469933E+03  0.12505151038E+03 0.  0.
    9000005    1    3    3    0    0 -0.49424552911E+02 -0.16424337959E+02 -0.49004583642E+02  0.71519189912E+02  0.10000000000E+01 0.  0.
    9000005    1    3    3    0    0  0.30371246736E+02 -0.28137123875E+01 -0.27730128967E+03  0.27897550942E+03  0.10000000000E+01 0.  0.
         -4    1    1    2    0  502  0.19053306175E+02  0.19238050347E+02  0.28284219874E+02  0.39175771226E+02  0.12700000000E+01 0.  1.
<mgrwt>
<rscale>  1 0.12794925E+03</rscale>
<asrwt>0</asrwt>
<pdfrwt beam="1">  1       21 0.70497286E-02 0.12794925E+03</pdfrwt>
<pdfrwt beam="2">  1       -4 0.52900748E-01 0.12794925E+03</pdfrwt>
<totfact> 0.20857550E+04</totfact>
</mgrwt>
</event>
<event>
 6    4  0.6093247E-003  0.1274630E+03  0.7818608E-02  0.1231270E+00
         21   -1    0    0  501  502  0.00000000000E+00  0.00000000000E+00  0.24398157563E+03  0.24398157563E+03  0.00000000000E+00 0.  1.
          4   -1    0    0  502    0 -0.00000000000E+00 -0.00000000000E+00 -0.29824544072E+02  0.29851571636E+02  0.12700000000E+01 0.  1.
         25    2    1    2    0    0 -0.42388054121E+01 -0.24572853899E+02  0.11530957415E+03  0.17188107344E+03  0.12500005159E+03 0.  0.
    9000005    1    3    3    0    0 -0.31156910534E+02  0.27975405737E+02 -0.49731533381E+00  0.41888228928E+02  0.10000000000E+01 0.  0.
    9000005    1    3    3    0    0  0.26918105122E+02 -0.52548259636E+02  0.11580688948E+03  0.12999284452E+03  0.10000000000E+01 0.  0.
          4    1    1    2  501    0  0.42388054121E+01  0.24572853899E+02  0.98847457414E+02  0.10195207383E+03  0.12700000000E+01 0. -1.
<mgrwt>
<rscale>  1 0.12746296E+03</rscale>
<asrwt>0</asrwt>
<pdfrwt beam="1">  1       21 0.37535626E-01 0.12746296E+03</pdfrwt>
<pdfrwt beam="2">  1        4 0.45907249E-02 0.12746296E+03</pdfrwt>
<totfact> 0.75556124E+04</totfact>
</mgrwt>
</event>
<event>
 6    4  0.6093247E-003  0.1279595E+03  0.7818608E-02  0.1230515E+00
         -4   -1    0    0    0  501 -0.00000000000E+00  0.00000000000E+00  0.66754140613E+03  0.66754261422E+03  0.12700000000E+01 0.  1.
         21   -1    0    0  501  502  0.00000000000E+00 -0.00000000000E+00 -0.11224407911E+02  0.11224407911E+02  0.00000000000E+00 0.  1.
         25    2    1    2    0    0  0.27274709383E+02 -0.20972844314E+01  0.62116124665E+03  0.63420416605E+03  0.12500128607E+03 0.  0.
    9000005    1    3    3    0    0 -0.14257766430E+02  0.15650673143E+02  0.14082725195E+02  0.25447015981E+02  0.10000000000E+01 0.  0.
    9000005    1    3    3    0    0  0.41532475814E+02 -0.17747957575E+02  0.60707852145E+03  0.60875715007E+03  0.10000000000E+01 0.  0.
         -4    1    1    2    0  502 -0.27274709383E+02  0.20972844314E+01  0.35155751573E+02  0.44562856087E+02  0.12700000000E+01 0. -1.
<mgrwt>
<rscale>  1 0.12795949E+03</rscale>
<asrwt>0</asrwt>
<pdfrwt beam="2">  1       21 0.17268325E-02 0.12795949E+03</pdfrwt>
<pdfrwt beam="1">  1       -4 0.10270427E+00 0.12795949E+03</pdfrwt>
<totfact> 0.50277411E+04</totfact>
</mgrwt>
</event>
<event>
 6    4  0.6093247E-003  0.1344353E+03  0.7818608E-02  0.1221019E+00
          4   -1    0    0  502    0 -0.00000000000E+00  0.00000000000E+00  0.57764267353E+03  0.57764406963E+03  0.12700000000E+01 0. -1.
         21   -1    0    0  501  502  0.00000000000E+00 -0.00000000000E+00 -0.14737531122E+02  0.14737531122E+02  0.00000000000E+00 0. -1.
         25    2    1    2    0    0  0.62060939343E+01  0.49084666792E+02  0.38922523190E+03  0.41178773505E+03  0.12500014990E+03 0.  0.
    9000005    1    3    3    0    0 -0.25895820307E+02  0.24629607112E+02  0.21220368719E+02  0.41575414664E+02  0.10000000000E+01 0.  0.
    9000005    1    3    3    0    0  0.32101914241E+02  0.24455059679E+02  0.36800486318E+03  0.37021232039E+03  0.10000000000E+01 0.  0.
          4    1    1    2  501    0 -0.62060939343E+01 -0.49084666792E+02  0.17367991050E+03  0.18059386570E+03  0.12700000000E+01 0.  1.
<mgrwt>
<rscale>  1 0.13443533E+03</rscale>
<asrwt>0</asrwt>
<pdfrwt beam="2">  1       21 0.22673129E-02 0.13443533E+03</pdfrwt>
<pdfrwt beam="1">  1        4 0.88872403E-01 0.13443533E+03</pdfrwt>
<totfact> 0.45399463E+04</totfact>
</mgrwt>
</event>
<event>
 6    4  0.6093247E-003  0.1299412E+03  0.7818608E-02  0.1227543E+00
          4   -1    0    0  502    0 -0.00000000000E+00  0.00000000000E+00  0.23105137723E+03  0.23105486756E+03  0.12700000000E+01 0.  1.
         21   -1    0    0  501  502  0.00000000000E+00 -0.00000000000E+00 -0.33386605572E+02  0.33386605572E+02  0.00000000000E+00 0.  1.
         25    2    1    2    0    0  0.11802977820E+02 -0.33446433009E+02  0.18636967942E+03  0.22719679331E+03  0.12500700506E+03 0.  0.
    9000005    1    3    3    0    0 -0.41824247864E+01  0.19950855566E+02 -0.10241774861E+02  0.22834694375E+02  0.10000000000E+01 0.  0.
    9000005    1    3    3    0    0  0.15985402606E+02 -0.53397288574E+02  0.19661145429E+03  0.20436209893E+03  0.10000000000E+01 0.  0.
          4    1    1    2  501    0 -0.11802977820E+02  0.33446433009E+02  0.11295092237E+02  0.37244679822E+02  0.12700000000E+01 0. -1.
<mgrwt>
<rscale>  1 0.12994124E+03</rscale>
<asrwt>0</asrwt>
<pdfrwt beam="2">  1       21 0.51364010E-02 0.12994124E+03</pdfrwt>
<pdfrwt beam="1">  1        4 0.35548491E-01 0.12994124E+03</pdfrwt>
<totfact> 0.78895496E+04</totfact>
</mgrwt>
</event>
<event>
 6    4  0.6093247E-003  0.1299719E+03  0.7818608E-02  0.1227497E+00
         -4   -1    0    0    0  501 -0.00000000000E+00  0.00000000000E+00  0.26814908555E+02  0.26844966396E+02  0.12700000000E+01 0. -1.
         21   -1    0    0  501  502  0.00000000000E+00 -0.00000000000E+00 -0.25930134122E+03  0.25930134122E+03  0.00000000000E+00 0. -1.
         25    2    1    2    0    0 -0.13331798817E+02 -0.33001482654E+02 -0.16717233181E+03  0.21175289805E+03  0.12500346632E+03 0.  0.
    9000005    1    3    3    0    0  0.31334752134E+02 -0.56632575001E+02 -0.43062734248E+02  0.77746474669E+02  0.10000000000E+01 0.  0.
    9000005    1    3    3    0    0 -0.44666550951E+02  0.23631092347E+02 -0.12410959756E+03  0.13400642338E+03  0.10000000000E+01 0.  0.
         -4    1    1    2    0  502  0.13331798817E+02  0.33001482654E+02 -0.65314100857E+02  0.74393409572E+02  0.12700000000E+01 0.  1.
<mgrwt>
<rscale>  1 0.12997193E+03</rscale>
<asrwt>0</asrwt>
<pdfrwt beam="2">  1       21 0.39892515E-01 0.12997193E+03</pdfrwt>
<pdfrwt beam="1">  1       -4 0.41279218E-02 0.12997193E+03</pdfrwt>
<totfact> 0.79478415E+04</totfact>
</mgrwt>
</event>
<event>
 6    4  0.6093247E-003  0.1291312E+03  0.7818608E-02  0.1228751E+00
         21   -1    0    0  501  502  0.00000000000E+00  0.00000000000E+00  0.32814748031E+02  0.32814748031E+02  0.00000000000E+00 0.  1.
          4   -1    0    0  502    0 -0.00000000000E+00 -0.00000000000E+00 -0.20006283239E+03  0.20006686334E+03  0.12700000000E+01 0.  1.
         25    2    1    2    0    0 -0.11750975580E+02  0.30191676943E+02 -0.12602955897E+03  0.18043923805E+03  0.12500098444E+03 0.  0.
    9000005    1    3    3    0    0 -0.45963798535E+02  0.64754858054E+02 -0.66637222197E+02  0.10366957991E+03  0.10000000000E+01 0.  0.
    9000005    1    3    3    0    0  0.34212822955E+02 -0.34563181111E+02 -0.59392336772E+02  0.76769658136E+02  0.10000000000E+01 0.  0.
          4    1    1    2  501    0  0.11750975580E+02 -0.30191676943E+02 -0.41218525393E+02  0.52442373319E+02  0.12700000000E+01 0. -1.
<mgrwt>
<rscale>  1 0.12913121E+03</rscale>
<asrwt>0</asrwt>
<pdfrwt beam="1">  1       21 0.50484228E-02 0.12913121E+03</pdfrwt>
<pdfrwt beam="2">  1        4 0.30781098E-01 0.12913121E+03</pdfrwt>
<totfact> 0.10688462E+05</totfact>
</mgrwt>
</event>
<event>
 6    4  0.6093247E-003  0.1388935E+03  0.7818608E-02  0.1214826E+00
         21   -1    0    0  501  502  0.00000000000E+00  0.00000000000E+00  0.83924974147E+02  0.83924974147E+02  0.00000000000E+00 0. -1.
          4   -1    0    0  502    0 -0.00000000000E+00 -0.00000000000E+00 -0.15435524905E+03  0.15436047360E+03  0.12700000000E+01 0.  1.
         25    2    1    2    0    0  0.59023244767E+02 -0.13542011570E+02 -0.99740977087E+02  0.17099607516E+03  0.12499706280E+03 0.  0.
    9000005    1    3    3    0    0 -0.21400062488E+02 -0.16159754171E+02  0.15081313539E+02  0.30782240780E+02  0.10000000000E+01 0.  0.
    9000005    1    3    3    0    0  0.80423307255E+02  0.26177426008E+01 -0.11482229063E+03  0.14021383438E+03  0.10000000000E+01 0.  0.
          4    1    1    2  501    0 -0.59023244767E+02  0.13542011570E+02  0.29310702187E+02  0.67289372585E+02  0.12700000000E+01 0. -1.
<mgrwt>
<rscale>  1 0.13889347E+03</rscale>
<asrwt>0</asrwt>
<pdfrwt beam="1">  1       21 0.12911535E-01 0.13889347E+03</pdfrwt>
<pdfrwt beam="2">  1        4 0.23748102E-01 0.13889347E+03</pdfrwt>
<totfact> 0.34512956E+04</totfact>
</mgrwt>
</event>
<event>
 6    4  0.6093247E-003  0.1270298E+03  0.7818608E-02  0.1231931E+00
          4   -1    0    0  502    0 -0.00000000000E+00  0.00000000000E+00  0.13891253928E+03  0.13891834461E+03  0.12700000000E+01 0.  1.
         21   -1    0    0  501  502  0.00000000000E+00 -0.00000000000E+00 -0.54275559396E+02  0.54275559396E+02  0.00000000000E+00 0. -1.
         25    2    1    2    0    0 -0.62563585739E+01 -0.21721494648E+02  0.10339715635E+03  0.16379114098E+03  0.12500240226E+03 0.  0.
    9000005    1    3    3    0    0 -0.50195486075E+02  0.71816905118E+01  0.98714195615E+02  0.11098043033E+03  0.10000000000E+01 0.  0.
    9000005    1    3    3    0    0  0.43939127501E+02 -0.28903185160E+02  0.46829607301E+01  0.52810710648E+02  0.10000000000E+01 0.  0.
          4    1    1    2  501    0  0.62563585739E+01  0.21721494648E+02 -0.18760176464E+02  0.29402763022E+02  0.12700000000E+01 0. -1.
<mgrwt>
<rscale>  1 0.12702978E+03</rscale>
<asrwt>0</asrwt>
<pdfrwt beam="2">  1       21 0.83500862E-02 0.12702978E+03</pdfrwt>
<pdfrwt beam="1">  1        4 0.21372749E-01 0.12702978E+03</pdfrwt>
<totfact> 0.88883030E+04</totfact>
</mgrwt>
</event>
<event>
 6    4  0.6093247E-003  0.1301691E+03  0.7818608E-02  0.1227205E+00
         -4   -1    0    0    0  501 -0.00000000000E+00  0.00000000000E+00  0.13296362968E+03  0.13296969473E+03  0.12700000000E+01 0. -1.
         21   -1    0    0  501  502  0.00000000000E+00 -0.00000000000E+00 -0.73868897223E+02  0.73868897223E+02  0.00000000000E+00 0.  1.
         25    2    1    2    0    0 -0.25734442466E+02 -0.25635520309E+02  0.90716833736E+02  0.15866171347E+03  0.12499821586E+03 0.  0.
    9000005    1    3    3    0    0 -0.14368334339E+02 -0.48682360319E+02  0.11347942405E+03  0.12431814397E+03  0.10000000000E+01 0.  0.
    9000005    1    3    3    0    0 -0.11366108127E+02  0.23046840010E+02 -0.22762590313E+02  0.34343569503E+02  0.10000000000E+01 0.  0.
         -4    1    1    2    0  502  0.25734442466E+02  0.25635520309E+02 -0.31622101283E+02  0.48176878480E+02  0.12700000000E+01 0.  1.
<mgrwt>
<rscale>  1 0.13016910E+03</rscale>
<asrwt>0</asrwt>
<pdfrwt beam="2">  1       21 0.11364446E-01 0.13016910E+03</pdfrwt>
<pdfrwt beam="1">  1       -4 0.20457249E-01 0.13016910E+03</pdfrwt>
<totfact> 0.56344018E+04</totfact>
</mgrwt>
</event>
<event>
 6    4  0.6093247E-003  0.1371307E+03  0.7818608E-02  0.1217243E+00
         21   -1    0    0  501  502  0.00000000000E+00  0.00000000000E+00  0.29668313867E+03  0.29668313867E+03  0.00000000000E+00 0.  1.
          4   -1    0    0  502    0 -0.00000000000E+00 -0.00000000000E+00 -0.60450318715E+02  0.60463657951E+02  0.12700000000E+01 0. -1.
         25    2    1    2    0    0  0.24886766678E+02  0.50601023952E+02  0.26121637801E+02  0.13959648854E+03  0.12500009948E+03 0.  0.
    9000005    1    3    3    0    0  0.44459248277E+02  0.29713743584E+02  0.69449722481E+02  0.87657260212E+02  0.10000000000E+01 0.  0.
    9000005    1    3    3    0    0 -0.19572481599E+02  0.20887280369E+02 -0.43328084680E+02  0.51939228327E+02  0.10000000000E+01 0.  0.
          4    1    1    2  501    0 -0.24886766678E+02 -0.50601023952E+02  0.21011118216E+03  0.21755030809E+03  0.12700000000E+01 0.  1.
<mgrwt>
<rscale>  1 0.13713074E+03</rscale>
<asrwt>0</asrwt>
<pdfrwt beam="1">  1       21 0.45643559E-01 0.13713074E+03</pdfrwt>
<pdfrwt beam="2">  1        4 0.93012844E-02 0.13713074E+03</pdfrwt>
<totfact> 0.16204245E+04</totfact>
</mgrwt>
</event>
<event>
 6    4  0.6093247E-003  0.1286652E+03  0.7818608E-02  0.1229450E+00
          4   -1    0    0  502    0 -0.00000000000E+00  0.00000000000E+00  0.20763869371E+03  0.20764257758E+03  0.12700000000E+01 0. -1.
         21   -1    0    0  501  502  0.00000000000E+00 -0.00000000000E+00 -0.31118808202E+02  0.31118808202E+02  0.00000000000E+00 0. -1.
         25    2    1    2    0    0 -0.32290957184E+00 -0.30506692221E+02  0.15479696018E+03  0.20128791616E+03  0.12499585502E+03 0.  0.
    9000005    1    3    3    0    0  0.58405937605E+02 -0.31084080452E+02  0.10583409299E+03  0.12481718169E+03  0.10000000000E+01 0.  0.
    9000005    1    3    3    0    0 -0.58728847177E+02  0.57738823007E+00  0.48962867188E+02  0.76470734475E+02  0.10000000000E+01 0.  0.
          4    1    1    2  501    0  0.32290957184E+00  0.30506692221E+02  0.21722925331E+02  0.37473469626E+02  0.12700000000E+01 0.  1.
<mgrwt>
<rscale>  1 0.12866517E+03</rscale>
<asrwt>0</asrwt>
<pdfrwt beam="2">  1       21 0.47875091E-02 0.12866517E+03</pdfrwt>
<pdfrwt beam="1">  1        4 0.31946706E-01 0.12866517E+03</pdfrwt>
<totfact> 0.10881796E+05</totfact>
</mgrwt>
</event>
<event>
 6    4  0.6093247E-003  0.1303921E+03  0.7818608E-02  0.1226875E+00
          4   -1    0    0  502    0 -0.00000000000E+00  0.00000000000E+00  0.11582337120E+03  0.11583033375E+03  0.12700000000E+01 0.  1.
         21   -1    0    0  501  502  0.00000000000E+00 -0.00000000000E+00 -0.61937640651E+02  0.61937640651E+02  0.00000000000E+00 0.  1.
         25    2    1    2    0    0  0.37107963473E+02  0.33393006058E+00  0.52637397608E+02  0.14061580491E+03  0.12499998601E+03 0.  0.
    9000005    1    3    3    0    0  0.82104699153E+02  0.74171344884E+01  0.46466811986E+02  0.94638047967E+02  0.10000000000E+01 0.  0.
    9000005    1    3    3    0    0 -0.44996735680E+02 -0.70832044278E+01  0.61705856226E+01  0.45977756945E+02  0.10000000000E+01 0.  0.
          4    1    1    2  501    0 -0.37107963473E+02 -0.33393006058E+00  0.12483329413E+01  0.37152169486E+02  0.12700000000E+01 0. -1.
<mgrwt>
<rscale>  1 0.13039214E+03</rscale>
<asrwt>0</asrwt>
<pdfrwt beam="2">  1       21 0.95288678E-02 0.13039214E+03</pdfrwt>
<pdfrwt beam="1">  1        4 0.17820517E-01 0.13039214E+03</pdfrwt>
<totfact> 0.98254399E+04</totfact>
</mgrwt>
</event>
<event>
 6    4  0.6093247E-003  0.1385253E+03  0.7818608E-02  0.1215327E+00
         21   -1    0    0  501  502  0.00000000000E+00  0.00000000000E+00  0.55449771723E+02  0.55449771723E+02  0.00000000000E+00 0.  1.
         -4   -1    0    0    0  501 -0.00000000000E+00 -0.00000000000E+00 -0.38344900875E+03  0.38345111189E+03  0.12700000000E+01 0. -1.
         25    2    1    2    0    0 -0.32374671609E+02  0.50159835490E+02 -0.34909121815E+03  0.37557148266E+03  0.12500052615E+03 0.  0.
    9000005    1    3    3    0    0  0.60593648857E+01  0.49263357622E+02 -0.39071995618E+02  0.63176064681E+02  0.10000000000E+01 0.  0.
    9000005    1    3    3    0    0 -0.38434036494E+02  0.89647786785E+00 -0.31001922253E+03  0.31239541798E+03  0.10000000000E+01 0.  0.
         -4    1    1    2    0  502  0.32374671609E+02 -0.50159835490E+02  0.21091981122E+02  0.63329400958E+02  0.12700000000E+01 0.  1.
<mgrwt>
<rscale>  1 0.13852530E+03</rscale>
<asrwt>0</asrwt>
<pdfrwt beam="1">  1       21 0.85307340E-02 0.13852530E+03</pdfrwt>
<pdfrwt beam="2">  1       -4 0.58993437E-01 0.13852530E+03</pdfrwt>
<totfact> 0.12076095E+04</totfact>
</mgrwt>
</event>
<event>
 6    4  0.6093247E-003  0.1271125E+03  0.7818608E-02  0.1231804E+00
         21   -1    0    0  501  502  0.00000000000E+00  0.00000000000E+00  0.89644919715E+02  0.89644919715E+02  0.00000000000E+00 0.  1.
         -4   -1    0    0    0  501 -0.00000000000E+00 -0.00000000000E+00 -0.96739270498E+02  0.96747606464E+02  0.12700000000E+01 0.  1.
         25    2    1    2    0    0 -0.26030102901E+01 -0.22925819543E+02 -0.50852904506E+02  0.13690724768E+03  0.12500083082E+03 0.  0.
    9000005    1    3    3    0    0 -0.18938583611E+00 -0.74931451727E+02 -0.27288271973E+02  0.79752166818E+02  0.10000000000E+01 0.  0.
    9000005    1    3    3    0    0 -0.24136244539E+01  0.52005632184E+02 -0.23564632533E+02  0.57155080861E+02  0.10000000000E+01 0.  0.
         -4    1    1    2    0  502  0.26030102901E+01  0.22925819543E+02  0.43758553723E+02  0.49485278500E+02  0.12700000000E+01 0. -1.
<mgrwt>
<rscale>  1 0.12711246E+03</rscale>
<asrwt>0</asrwt>
<pdfrwt beam="1">  1       21 0.13791526E-01 0.12711246E+03</pdfrwt>
<pdfrwt beam="2">  1       -4 0.14884298E-01 0.12711246E+03</pdfrwt>
<totfact> 0.69937386E+04</totfact>
</mgrwt>
</event>
<event>
 6    4  0.6093247E-003  0.1312811E+03  0.7818608E-02  0.1225567E+00
         -4   -1    0    0    0  501 -0.00000000000E+00  0.00000000000E+00  0.12882173678E+03  0.12882799683E+03  0.12700000000E+01 0.  1.
         21   -1    0    0  501  502  0.00000000000E+00 -0.00000000000E+00 -0.86361013869E+02  0.86361013869E+02  0.00000000000E+00 0. -1.
         25    2    1    2    0    0 -0.39232145255E+02  0.84608432837E+01  0.85232279831E+02  0.15652244380E+03  0.12499594712E+03 0.  0.
    9000005    1    3    3    0    0  0.35143961640E+02 -0.17329392401E+02 -0.17078710688E+01  0.39234203246E+02  0.10000000000E+01 0.  0.
    9000005    1    3    3    0    0 -0.74376106895E+02  0.25790235685E+02  0.86940150899E+02  0.11728824055E+03  0.10000000000E+01 0.  0.
         -4    1    1    2    0  502  0.39232145255E+02 -0.84608432837E+01 -0.42771556919E+02  0.58666566899E+02  0.12700000000E+01 0. -1.
<mgrwt>
<rscale>  1 0.13128113E+03</rscale>
<asrwt>0</asrwt>
<pdfrwt beam="2">  1       21 0.13286310E-01 0.13128113E+03</pdfrwt>
<pdfrwt beam="1">  1       -4 0.19819929E-01 0.13128113E+03</pdfrwt>
<totfact> 0.45245217E+04</totfact>
</mgrwt>
</event>
<event>
 6    4  0.6093247E-003  0.2147003E+03  0.7818608E-02  0.1137897E+00
         21   -1    0    0  501  502  0.00000000000E+00  0.00000000000E+00  0.31262246748E+03  0.31262246748E+03  0.00000000000E+00 0. -1.
          4   -1    0    0  502    0 -0.00000000000E+00 -0.00000000000E+00 -0.16377875423E+03  0.16378367818E+03  0.12700000000E+01 0.  1.
         25    2    1    2    0    0 -0.35821637876E+01 -0.17451937258E+03 -0.40920712392E+02  0.21856512207E+03  0.12500545820E+03 0.  0.
    9000005    1    3    3    0    0  0.37723506372E+02 -0.26227406891E+02  0.23586735008E+02  0.51655337319E+02  0.10000000000E+01 0.  0.
    9000005    1    3    3    0    0 -0.41305670159E+02 -0.14829196569E+03 -0.64507447401E+02  0.16690978475E+03  0.10000000000E+01 0.  0.
          4    1    1    2  501    0  0.35821637876E+01  0.17451937258E+03  0.18976442565E+03  0.25784102359E+03  0.12700000000E+01 0. -1.
<mgrwt>
<rscale>  1 0.21470027E+03</rscale>
<asrwt>0</asrwt>
<pdfrwt beam="1">  1       21 0.48095764E-01 0.21470027E+03</pdfrwt>
<pdfrwt beam="2">  1        4 0.25197309E-01 0.21470027E+03</pdfrwt>
<totfact> 0.25693485E+03</totfact>
</mgrwt>
</event>
<event>
 6    4  0.6093247E-003  0.1361696E+03  0.7818608E-02  0.1218578E+00
         21   -1    0    0  501  502  0.00000000000E+00  0.00000000000E+00  0.39033165543E+02  0.39033165543E+02  0.00000000000E+00 0. -1.
         -4   -1    0    0    0  501 -0.00000000000E+00 -0.00000000000E+00 -0.73471430432E+03  0.73471540196E+03  0.12700000000E+01 0.  1.
         25    2    1    2    0    0  0.49955192135E+02 -0.20514336446E+02 -0.70577870824E+03  0.71879465017E+03  0.12500321955E+03 0.  0.
    9000005    1    3    3    0    0 -0.34975163542E+02  0.82928652761E+01 -0.35169829633E+03  0.35353178828E+03  0.10000000000E+01 0.  0.
    9000005    1    3    3    0    0  0.84930355677E+02 -0.28807201722E+02 -0.35408041191E+03  0.36526286190E+03  0.10000000000E+01 0.  0.
         -4    1    1    2    0  502 -0.49955192135E+02  0.20514336446E+02  0.10097569455E+02  0.54953917331E+02  0.12700000000E+01 0. -1.
<mgrwt>
<rscale>  1 0.13616962E+03</rscale>
<asrwt>0</asrwt>
<pdfrwt beam="1">  1       21 0.60051029E-02 0.13616962E+03</pdfrwt>
<pdfrwt beam="2">  1       -4 0.11303463E+00 0.13616962E+03</pdfrwt>
<totfact> 0.51840265E+03</totfact>
</mgrwt>
</event>
<event>
 6    4  0.6093247E-003  0.1269712E+03  0.7818608E-02  0.1232020E+00
         -4   -1    0    0    0  501 -0.00000000000E+00  0.00000000000E+00  0.19009421598E+04  0.19009425840E+04  0.12700000000E+01 0. -1.
         21   -1    0    0  501  502  0.00000000000E+00 -0.00000000000E+00 -0.12531028110E+02  0.12531028110E+02  0.00000000000E+00 0.  1.
         25    2    1    2    0    0  0.22096514233E+02 -0.28102820027E+01  0.18868403965E+04  0.18911077065E+04  0.12500208783E+03 0.  0.
    9000005    1    3    3    0    0  0.88982911829E+01 -0.24730544832E+02  0.18084463951E+04  0.18086376484E+04  0.10000000000E+01 0.  0.
    9000005    1    3    3    0    0  0.13198223050E+02  0.21920262829E+02  0.78394001445E+02  0.82470058062E+02  0.10000000000E+01 0.  0.
         -4    1    1    2    0  502 -0.22096514233E+02  0.28102820027E+01  0.15707351478E+01  0.22365905640E+02  0.12700000000E+01 0.  1.
<mgrwt>
<rscale>  1 0.12697116E+03</rscale>
<asrwt>0</asrwt>
<pdfrwt beam="2">  1       21 0.19278520E-02 0.12697116E+03</pdfrwt>
<pdfrwt beam="1">  1       -4 0.29245739E+00 0.12697116E+03</pdfrwt>
<totfact> 0.22439906E+03</totfact>
</mgrwt>
</event>
<event>
 6    4  0.6093247E-003  0.1282326E+03  0.7818608E-02  0.1230102E+00
          4   -1    0    0  502    0 -0.00000000000E+00  0.00000000000E+00  0.14722667512E+03  0.14723215263E+03  0.12700000000E+01 0. -1.
         21   -1    0    0  501  502  0.00000000000E+00 -0.00000000000E+00 -0.48235083097E+02  0.48235083097E+02  0.00000000000E+00 0.  1.
         25    2    1    2    0    0  0.60324942499E+01  0.28038277838E+02  0.47946437389E+02  0.13690311084E+03  0.12498425857E+03 0.  0.
    9000005    1    3    3    0    0 -0.25732122590E+02 -0.40763058609E+02  0.19600030584E+01  0.48255680413E+02  0.10000000000E+01 0.  0.
    9000005    1    3    3    0    0  0.31764616840E+02  0.68801336447E+02  0.45986434330E+02  0.88647430432E+02  0.10000000000E+01 0.  0.
          4    1    1    2  501    0 -0.60324942499E+01 -0.28038277838E+02  0.51045154635E+02  0.58564124878E+02  0.12700000000E+01 0.  1.
<mgrwt>
<rscale>  1 0.12823260E+03</rscale>
<asrwt>0</asrwt>
<pdfrwt beam="2">  1       21 0.74207821E-02 0.12823260E+03</pdfrwt>
<pdfrwt beam="1">  1        4 0.22651965E-01 0.12823260E+03</pdfrwt>
<totfact> 0.98127926E+04</totfact>
</mgrwt>
</event>
<event>
 6    4  0.6093247E-003  0.1347649E+03  0.7818608E-02  0.1220552E+00
         -4   -1    0    0    0  501 -0.00000000000E+00  0.00000000000E+00  0.20674299124E+03  0.20674689194E+03  0.12700000000E+01 0. -1.
         21   -1    0    0  501  502  0.00000000000E+00 -0.00000000000E+00 -0.86864423701E+02  0.86864423701E+02  0.00000000000E+00 0.  1.
         25    2    1    2    0    0  0.19877571327E+02 -0.46206682991E+02  0.17375552223E+03  0.21989215570E+03  0.12502561033E+03 0.  0.
    9000005    1    3    3    0    0 -0.18266475072E+02  0.36229286200E+02  0.77857157650E+02  0.87800696395E+02  0.10000000000E+01 0.  0.
    9000005    1    3    3    0    0  0.38144046398E+02 -0.82435969191E+02  0.95898364584E+02  0.13209145931E+03  0.10000000000E+01 0.  0.
         -4    1    1    2    0  502 -0.19877571327E+02  0.46206682991E+02 -0.53876954694E+02  0.73719159939E+02  0.12700000000E+01 0.  1.
<mgrwt>
<rscale>  1 0.13476490E+03</rscale>
<asrwt>0</asrwt>
<pdfrwt beam="2">  1       21 0.13363758E-01 0.13476490E+03</pdfrwt>
<pdfrwt beam="1">  1       -4 0.31807628E-01 0.13476490E+03</pdfrwt>
<totfact> 0.18738083E+04</totfact>
</mgrwt>
</event>
<event>
 6    4  0.6093247E-003  0.1287619E+03  0.7818608E-02  0.1229304E+00
          4   -1    0    0  502    0 -0.00000000000E+00  0.00000000000E+00  0.10523787423E+04  0.10523795086E+04  0.12700000000E+01 0. -1.
         21   -1    0    0  501  502  0.00000000000E+00 -0.00000000000E+00 -0.18325728085E+02  0.18325728085E+02  0.00000000000E+00 0.  1.
         25    2    1    2    0    0 -0.30727735773E+02 -0.32619126640E+01  0.10316839781E+04  0.10396881599E+04  0.12499922175E+03 0.  0.
    9000005    1    3    3    0    0 -0.40342220968E+02  0.28579387372E+02  0.95267643219E+03  0.95395894074E+03  0.10000000000E+01 0.  0.
    9000005    1    3    3    0    0  0.96144851950E+01 -0.31841300036E+02  0.79007545888E+02  0.85729219177E+02  0.10000000000E+01 0.  0.
          4    1    1    2  501    0  0.30727735773E+02  0.32619126640E+01  0.23690361469E+01  0.31017076784E+02  0.12700000000E+01 0.  1.
<mgrwt>
<rscale>  1 0.12876195E+03</rscale>
<asrwt>0</asrwt>
<pdfrwt beam="2">  1       21 0.28193436E-02 0.12876195E+03</pdfrwt>
<pdfrwt beam="1">  1        4 0.16190782E+00 0.12876195E+03</pdfrwt>
<totfact> 0.74621039E+03</totfact>
</mgrwt>
</event>
<event>
 6    4  0.6093247E-003  0.1280420E+03  0.7818608E-02  0.1230390E+00
         21   -1    0    0  501  502  0.00000000000E+00  0.00000000000E+00  0.78519294240E+02  0.78519294240E+02  0.00000000000E+00 0.  1.
          4   -1    0    0  502    0 -0.00000000000E+00 -0.00000000000E+00 -0.11583814639E+03  0.11584510805E+03  0.12700000000E+01 0.  1.
         25    2    1    2    0    0 -0.21521287301E+02  0.17520957780E+02  0.21013314193E+02  0.12975477221E+03  0.12499836707E+03 0.  0.
    9000005    1    3    3    0    0 -0.25400084764E+02 -0.17686137756E+02 -0.45121296460E+02  0.54725635391E+02  0.10000000000E+01 0.  0.
    9000005    1    3    3    0    0  0.38787974627E+01  0.35207095535E+02  0.66134610653E+02  0.75029136820E+02  0.10000000000E+01 0.  0.
          4    1    1    2  501    0  0.21521287301E+02 -0.17520957780E+02 -0.58332166344E+02  0.64609630079E+02  0.12700000000E+01 0. -1.
<mgrwt>
<rscale>  1 0.12804195E+03</rscale>
<asrwt>0</asrwt>
<pdfrwt beam="1">  1       21 0.12079892E-01 0.12804195E+03</pdfrwt>
<pdfrwt beam="2">  1        4 0.17822579E-01 0.12804195E+03</pdfrwt>
<totfact> 0.64576636E+04</totfact>
</mgrwt>
</event>
<event>
 6    4  0.6093247E-003  0.1275285E+03  0.7818608E-02  0.1231170E+00
         21   -1    0    0  501  502  0.00000000000E+00  0.00000000000E+00  0.12606405051E+02  0.12606405051E+02  0.00000000000E+00 0. -1.
         -4   -1    0    0    0  501 -0.00000000000E+00 -0.00000000000E+00 -0.51407794964E+03  0.51407951837E+03  0.12700000000E+01 0. -1.
         25    2    1    2    0    0 -0.23439251315E+02  0.92657350157E+01 -0.46612074583E+03  0.48325155660E+03  0.12501305901E+03 0.  0.
    9000005    1    3    3    0    0  0.47053683839E+02  0.32835971981E+01 -0.28359067364E+03  0.28748826298E+03  0.10000000000E+01 0.  0.
    9000005    1    3    3    0    0 -0.70492935153E+02  0.59821378176E+01 -0.18253007219E+03  0.19576329363E+03  0.10000000000E+01 0.  0.
         -4    1    1    2    0  502  0.23439251315E+02 -0.92657350157E+01 -0.35350798764E+02  0.43434366818E+02  0.12700000000E+01 0.  1.
<mgrwt>
<rscale>  1 0.12752850E+03</rscale>
<asrwt>0</asrwt>
<pdfrwt beam="1">  1       21 0.19394473E-02 0.12752850E+03</pdfrwt>
<pdfrwt beam="2">  1       -4 0.79093943E-01 0.12752850E+03</pdfrwt>
<totfact> 0.75232837E+04</totfact>
</mgrwt>
</event>
<event>
 6    4  0.6093247E-003  0.1291207E+03  0.7818608E-02  0.1228766E+00
          4   -1    0    0  502    0 -0.00000000000E+00  0.00000000000E+00  0.76804893253E+03  0.76804998253E+03  0.12700000000E+01 0.  1.
         21   -1    0    0  501  502  0.00000000000E+00 -0.00000000000E+00 -0.86898740677E+01  0.86898740677E+01  0.00000000000E+00 0.  1.
         25    2    1    2    0    0 -0.26604571412E+02  0.18431206864E+02  0.64927572390E+03  0.66199027683E+03  0.12499859349E+03 0.  0.
    9000005    1    3    3    0    0  0.31102881800E+02 -0.17740787667E+02  0.69127638779E+02  0.77857274846E+02  0.10000000000E+01 0.  0.
    9000005    1    3    3    0    0 -0.57707453212E+02  0.36171994531E+02  0.58014808512E+03  0.58413300199E+03  0.10000000000E+01 0.  0.
          4    1    1    2  501    0  0.26604571412E+02 -0.18431206864E+02  0.11008333457E+03  0.11474957976E+03  0.12700000000E+01 0. -1.
<mgrwt>
<rscale>  1 0.12912072E+03</rscale>
<asrwt>0</asrwt>
<pdfrwt beam="2">  1       21 0.13369043E-02 0.12912072E+03</pdfrwt>
<pdfrwt beam="1">  1        4 0.11816854E+00 0.12912072E+03</pdfrwt>
<totfact> 0.54464819E+04</totfact>
</mgrwt>
</event>
<event>
 6    4  0.6093247E-003  0.1266530E+03  0.7818608E-02  0.1232508E+00
         21   -1    0    0  501  502  0.00000000000E+00  0.00000000000E+00  0.12701866356E+03  0.12701866356E+03  0.00000000000E+00 0.  1.
          4   -1    0    0  502    0 -0.00000000000E+00 -0.00000000000E+00 -0.52167819000E+02  0.52183275474E+02  0.12700000000E+01 0.  1.
         25    2    1    2    0    0  0.14100958511E+02  0.14754655043E+02  0.30366234577E+02  0.13024246292E+03  0.12499781625E+03 0.  0.
    9000005    1    3    3    0    0  0.18975800753E+02  0.22519556338E+02 -0.45287125419E+02  0.54029021466E+02  0.10000000000E+01 0.  0.
    9000005    1    3    3    0    0 -0.48748422421E+01 -0.77649012950E+01  0.75653359996E+02  0.76213441450E+02  0.10000000000E+01 0.  0.
          4    1    1    2  501    0 -0.14100958511E+02 -0.14754655043E+02  0.44484609983E+02  0.48959476117E+02  0.12700000000E+01 0. -1.
<mgrwt>
<rscale>  1 0.12665303E+03</rscale>
<asrwt>0</asrwt>
<pdfrwt beam="1">  1       21 0.19541333E-01 0.12665303E+03</pdfrwt>
<pdfrwt beam="2">  1        4 0.80274957E-02 0.12665303E+03</pdfrwt>
<totfact> 0.10578935E+05</totfact>
</mgrwt>
</event>
<event>
 6    4  0.6093247E-003  0.1348618E+03  0.7818608E-02  0.1220415E+00
         21   -1    0    0  501  502  0.00000000000E+00  0.00000000000E+00  0.16944788350E+02  0.16944788350E+02  0.00000000000E+00 0.  1.
         -4   -1    0    0    0  501 -0.00000000000E+00 -0.00000000000E+00 -0.99063337498E+03  0.99063418906E+03  0.12700000000E+01 0. -1.
         25    2    1    2    0    0  0.44795847626E+02  0.23625825412E+02 -0.93273882778E+03  0.94243802837E+03  0.12499147526E+03 0.  0.
    9000005    1    3    3    0    0  0.65508405183E+02  0.40694426215E+02 -0.87884433819E+03  0.88222205722E+03  0.10000000000E+01 0.  0.
    9000005    1    3    3    0    0 -0.20712557558E+02 -0.17068600803E+02 -0.53894489585E+02  0.60215971150E+02  0.10000000000E+01 0.  0.
         -4    1    1    2    0  502 -0.44795847626E+02 -0.23625825412E+02 -0.40949758852E+02  0.65140949033E+02  0.12700000000E+01 0.  1.
<mgrwt>
<rscale>  1 0.13486184E+03</rscale>
<asrwt>0</asrwt>
<pdfrwt beam="1">  1       21 0.26068905E-02 0.13486184E+03</pdfrwt>
<pdfrwt beam="2">  1       -4 0.15240886E+00 0.13486184E+03</pdfrwt>
<totfact> 0.99550718E+03</totfact>
</mgrwt>
</event>
<event>
 6    4  0.6093247E-003  0.1273045E+03  0.7818608E-02  0.1231511E+00
         -4   -1    0    0    0  501 -0.00000000000E+00  0.00000000000E+00  0.10769677334E+03  0.10770426123E+03  0.12700000000E+01 0. -1.
         21   -1    0    0  501  502  0.00000000000E+00 -0.00000000000E+00 -0.77518571768E+02  0.77518571768E+02  0.00000000000E+00 0.  1.
         25    2    1    2    0    0 -0.21551668518E+02 -0.10802126630E+02  0.64931732698E+02  0.14290757356E+03  0.12500113725E+03 0.  0.
    9000005    1    3    3    0    0  0.45710785707E+02  0.86378883080E+01  0.55227045577E+02  0.72215757335E+02  0.10000000000E+01 0.  0.
    9000005    1    3    3    0    0 -0.67262454225E+02 -0.19440014938E+02  0.97046871207E+01  0.70691816225E+02  0.10000000000E+01 0.  0.
         -4    1    1    2    0  502  0.21551668518E+02  0.10802126630E+02 -0.34753531127E+02  0.42315259439E+02  0.12700000000E+01 0.  1.
<mgrwt>
<rscale>  1 0.12730454E+03</rscale>
<asrwt>0</asrwt>
<pdfrwt beam="2">  1       21 0.11925934E-01 0.12730454E+03</pdfrwt>
<pdfrwt beam="1">  1       -4 0.16570111E-01 0.12730454E+03</pdfrwt>
<totfact> 0.75081885E+04</totfact>
</mgrwt>
</event>
<event>
 6    4  0.6093247E-003  0.1278728E+03  0.7818608E-02  0.1230647E+00
         21   -1    0    0  501  502  0.00000000000E+00  0.00000000000E+00  0.30532469365E+03  0.30532469365E+03  0.00000000000E+00 0.  1.
         -4   -1    0    0    0  501 -0.00000000000E+00 -0.00000000000E+00 -0.22202943160E+02  0.22239235260E+02  0.12700000000E+01 0.  1.
         25    2    1    2    0    0  0.48306250485E+01 -0.26527469054E+02  0.17888892916E+03  0.21989250515E+03  0.12499769314E+03 0.  0.
    9000005    1    3    3    0    0 -0.40852494133E+01  0.50041787857E+02  0.60666023511E+02  0.78754277365E+02  0.10000000000E+01 0.  0.
    9000005    1    3    3    0    0  0.89158744618E+01 -0.76569256911E+02  0.11822290565E+03  0.14113822779E+03  0.10000000000E+01 0.  0.
         -4    1    1    2    0  502 -0.48306250485E+01  0.26527469054E+02  0.10423282132E+03  0.10767142376E+03  0.12700000000E+01 0. -1.
<mgrwt>
<rscale>  1 0.12787285E+03</rscale>
<asrwt>0</asrwt>
<pdfrwt beam="1">  1       21 0.46973027E-01 0.12787285E+03</pdfrwt>
<pdfrwt beam="2">  1       -4 0.34188325E-02 0.12787285E+03</pdfrwt>
<totfact> 0.76810806E+04</totfact>
</mgrwt>
</event>
<event>
 6    4  0.6093247E-003  0.1345811E+03  0.7818608E-02  0.1220812E+00
         -4   -1    0    0    0  501 -0.00000000000E+00  0.00000000000E+00  0.78499548888E+03  0.78499651621E+03  0.12700000000E+01 0.  1.
         21   -1    0    0  501  502  0.00000000000E+00 -0.00000000000E+00 -0.15930778278E+02  0.15930778278E+02  0.00000000000E+00 0. -1.
         25    2    1    2    0    0  0.44759980066E+01 -0.49664520181E+02  0.71422913563E+03  0.72679799997E+03  0.12500190181E+03 0.  0.
    9000005    1    3    3    0    0  0.94710699937E+01 -0.89715865111E+02  0.56701976237E+03  0.57415246106E+03  0.10000000000E+01 0.  0.
    9000005    1    3    3    0    0 -0.49950719871E+01  0.40051344930E+02  0.14720937326E+03  0.15264553891E+03  0.10000000000E+01 0.  0.
         -4    1    1    2    0  502 -0.44759980066E+01  0.49664520181E+02  0.54835574970E+02  0.74129294514E+02  0.12700000000E+01 0. -1.
<mgrwt>
<rscale>  1 0.13458111E+03</rscale>
<asrwt>0</asrwt>
<pdfrwt beam="2">  1       21 0.24508896E-02 0.13458111E+03</pdfrwt>
<pdfrwt beam="1">  1       -4 0.12077248E+00 0.13458111E+03</pdfrwt>
<totfact> 0.19591675E+04</totfact>
</mgrwt>
</event>
<event>
 6    4  0.6093247E-003  0.1268843E+03  0.7818608E-02  0.1232154E+00
          4   -1    0    0  502    0 -0.00000000000E+00  0.00000000000E+00  0.30398926766E+03  0.30399192054E+03  0.12700000000E+01 0. -1.
         21   -1    0    0  501  502  0.00000000000E+00 -0.00000000000E+00 -0.24122820704E+02  0.24122820704E+02  0.00000000000E+00 0.  1.
         25    2    1    2    0    0  0.12110411151E+02  0.18106652725E+02  0.27874546668E+03  0.30626565825E+03  0.12500042118E+03 0.  0.
    9000005    1    3    3    0    0  0.22234786346E+01  0.71782579239E+02  0.17131171956E+03  0.18575895079E+03  0.10000000000E+01 0.  0.
    9000005    1    3    3    0    0  0.98869325165E+01 -0.53675926514E+02  0.10743374712E+03  0.12050670745E+03  0.10000000000E+01 0.  0.
          4    1    1    2  501    0 -0.12110411151E+02 -0.18106652725E+02  0.11209802788E+01  0.21849083000E+02  0.12700000000E+01 0.  1.
<mgrwt>
<rscale>  1 0.12688427E+03</rscale>
<asrwt>0</asrwt>
<pdfrwt beam="2">  1       21 0.37112034E-02 0.12688427E+03</pdfrwt>
<pdfrwt beam="1">  1        4 0.46770352E-01 0.12688427E+03</pdfrwt>
<totfact> 0.78725120E+04</totfact>
</mgrwt>
</event>
<event>
 6    4  0.6093247E-003  0.1267355E+03  0.7818608E-02  0.1232382E+00
          4   -1    0    0  502    0 -0.00000000000E+00  0.00000000000E+00  0.31912598156E+02  0.31937858743E+02  0.12700000000E+01 0. -1.
         21   -1    0    0  501  502  0.00000000000E+00 -0.00000000000E+00 -0.18315611648E+03  0.18315611648E+03  0.00000000000E+00 0. -1.
         25    2    1    2    0    0 -0.13039397301E+02 -0.16346261476E+02 -0.10594261646E+03  0.16518394861E+03  0.12499869100E+03 0.  0.
    9000005    1    3    3    0    0 -0.35454596370E+02  0.39728665842E+02 -0.13809874758E+02  0.55019159701E+02  0.10000000000E+01 0.  0.
    9000005    1    3    3    0    0  0.22415199069E+02 -0.56074927318E+02 -0.92132741698E+02  0.11016478891E+03  0.10000000000E+01 0.  0.
          4    1    1    2  501    0  0.13039397301E+02  0.16346261476E+02 -0.45300901868E+02  0.49910026611E+02  0.12700000000E+01 0.  1.
<mgrwt>
<rscale>  1 0.12673555E+03</rscale>
<asrwt>0</asrwt>
<pdfrwt beam="2">  1       21 0.28177865E-01 0.12673555E+03</pdfrwt>
<pdfrwt beam="1">  1        4 0.49119122E-02 0.12673555E+03</pdfrwt>
<totfact> 0.11840443E+05</totfact>
</mgrwt>
</event>
<event>
 6    4  0.6093247E-003  0.1275291E+03  0.7818608E-02  0.1231169E+00
         21   -1    0    0  501  502  0.00000000000E+00  0.00000000000E+00  0.10106766146E+03  0.10106766146E+03  0.00000000000E+00 0. -1.
          4   -1    0    0  502    0 -0.00000000000E+00 -0.00000000000E+00 -0.17323858403E+03  0.17324323911E+03  0.12700000000E+01 0.  1.
         25    2    1    2    0    0 -0.20513368601E+02 -0.14751603122E+02 -0.14741794005E+03  0.19492491550E+03  0.12500106219E+03 0.  0.
    9000005    1    3    3    0    0 -0.41413706066E+02 -0.30098912890E+02 -0.64755996271E+01  0.51613690023E+02  0.10000000000E+01 0.  0.
    9000005    1    3    3    0    0  0.20900337464E+02  0.15347309768E+02 -0.14094234043E+03  0.14331122548E+03  0.10000000000E+01 0.  0.
          4    1    1    2  501    0  0.20513368601E+02  0.14751603122E+02  0.75247017481E+02  0.79385985072E+02  0.12700000000E+01 0. -1.
<mgrwt>
<rscale>  1 0.12752911E+03</rscale>
<asrwt>0</asrwt>
<pdfrwt beam="1">  1       21 0.15548871E-01 0.12752911E+03</pdfrwt>
<pdfrwt beam="2">  1        4 0.26653061E-01 0.12752911E+03</pdfrwt>
<totfact> 0.19791277E+04</totfact>
</mgrwt>
</event>
<event>
 6    4  0.6093247E-003  0.1355290E+03  0.7818608E-02  0.1219475E+00
         21   -1    0    0  501  502  0.00000000000E+00  0.00000000000E+00  0.11889125029E+04  0.11889125029E+04  0.00000000000E+00 0. -1.
          4   -1    0    0  502    0 -0.00000000000E+00 -0.00000000000E+00 -0.81462203738E+01  0.82446228766E+01  0.12700000000E+01 0.  1.
         25    2    1    2    0    0  0.52304902170E+02  0.29500706345E+01  0.66069433696E+03  0.67445171432E+03  0.12499440924E+03 0.  0.
    9000005    1    3    3    0    0 -0.54436752127E+01  0.54779078203E+02  0.20850592351E+03  0.21565273276E+03  0.10000000000E+01 0.  0.
    9000005    1    3    3    0    0  0.57748577382E+02 -0.51829007568E+02  0.45218841346E+03  0.45879898156E+03  0.10000000000E+01 0.  0.
          4    1    1    2  501    0 -0.52304902170E+02 -0.29500706345E+01  0.52007194559E+03  0.52270541149E+03  0.12700000000E+01 0. -1.
<mgrwt>
<rscale>  1 0.13552899E+03</rscale>
<asrwt>0</asrwt>
<pdfrwt beam="1">  1       21 0.18290948E+00 0.13552899E+03</pdfrwt>
<pdfrwt beam="2">  1        4 0.12608872E-02 0.13552899E+03</pdfrwt>
<totfact> 0.15009461E+04</totfact>
</mgrwt>
</event>
<event>
 6    4  0.6093247E-003  0.1461923E+03  0.7818608E-02  0.1205232E+00
          4   -1    0    0  502    0 -0.00000000000E+00  0.00000000000E+00  0.10260381561E+04  0.10260389421E+04  0.12700000000E+01 0. -1.
         21   -1    0    0  501  502  0.00000000000E+00 -0.00000000000E+00 -0.18145697551E+02  0.18145697551E+02  0.00000000000E+00 0.  1.
         25    2    1    2    0    0  0.30535346795E+00 -0.75823939518E+02  0.90295618570E+03  0.91471419009E+03  0.12499125255E+03 0.  0.
    9000005    1    3    3    0    0  0.70700779807E+01 -0.68643838797E+02  0.19790526655E+03  0.20959355223E+03  0.10000000000E+01 0.  0.
    9000005    1    3    3    0    0 -0.67647245128E+01 -0.71801007209E+01  0.70505091915E+03  0.70512063786E+03  0.10000000000E+01 0.  0.
          4    1    1    2  501    0 -0.30535346795E+00  0.75823939518E+02  0.10493627283E+03  0.12947044952E+03  0.12700000000E+01 0.  1.
<mgrwt>
<rscale>  1 0.14619226E+03</rscale>
<asrwt>0</asrwt>
<pdfrwt beam="2">  1       21 0.27916466E-02 0.14619226E+03</pdfrwt>
<pdfrwt beam="1">  1        4 0.15785546E+00 0.14619226E+03</pdfrwt>
<totfact> 0.81830251E+03</totfact>
</mgrwt>
</event>
<event>
 6    4  0.6093247E-003  0.1370095E+03  0.7818608E-02  0.1217410E+00
         21   -1    0    0  501  502  0.00000000000E+00  0.00000000000E+00  0.54437718551E+02  0.54437718551E+02  0.00000000000E+00 0.  1.
          4   -1    0    0  502    0 -0.00000000000E+00 -0.00000000000E+00 -0.54227986233E+03  0.54228134947E+03  0.12700000000E+01 0. -1.
         25    2    1    2    0    0 -0.46816603195E+02  0.30898632729E+02 -0.51604375585E+03  0.53392206441E+03  0.12500037228E+03 0.  0.
    9000005    1    3    3    0    0 -0.82044210953E+02  0.36798837054E+02 -0.44934732567E+03  0.45825694326E+03  0.10000000000E+01 0.  0.
    9000005    1    3    3    0    0  0.35227607758E+02 -0.59002043248E+01 -0.66696430179E+02  0.75665121146E+02  0.10000000000E+01 0.  0.
          4    1    1    2  501    0  0.46816603195E+02 -0.30898632729E+02  0.28201612076E+02  0.62797003614E+02  0.12700000000E+01 0.  1.
<mgrwt>
<rscale>  1 0.13700954E+03</rscale>
<asrwt>0</asrwt>
<pdfrwt beam="1">  1       21 0.83750332E-02 0.13700954E+03</pdfrwt>
<pdfrwt beam="2">  1        4 0.83428929E-01 0.13700954E+03</pdfrwt>
<totfact> 0.58922747E+03</totfact>
</mgrwt>
</event>
<event>
 6    4  0.6093247E-003  0.1341197E+03  0.7818608E-02  0.1221468E+00
          4   -1    0    0  502    0 -0.00000000000E+00  0.00000000000E+00  0.34169671230E+03  0.34169907243E+03  0.12700000000E+01 0.  1.
         21   -1    0    0  501  502  0.00000000000E+00 -0.00000000000E+00 -0.67699515451E+02  0.67699515451E+02  0.00000000000E+00 0. -1.
         25    2    1    2    0    0 -0.36721966639E+02  0.31867881954E+02  0.31717118850E+03  0.34436266558E+03  0.12499607154E+03 0.  0.
    9000005    1    3    3    0    0  0.26054145762E+02  0.20037495324E+02  0.16148179060E+02  0.36634456693E+02  0.10000000000E+01 0.  0.
    9000005    1    3    3    0    0 -0.62776112401E+02  0.11830386630E+02  0.30102300944E+03  0.30772820889E+03  0.10000000000E+01 0.  0.
          4    1    1    2  501    0  0.36721966639E+02 -0.31867881954E+02 -0.43173991647E+02  0.65035922295E+02  0.12700000000E+01 0. -1.
<mgrwt>
<rscale>  1 0.13411966E+03</rscale>
<asrwt>0</asrwt>
<pdfrwt beam="2">  1       21 0.10415310E-01 0.13411966E+03</pdfrwt>
<pdfrwt beam="1">  1        4 0.52569822E-01 0.13411966E+03</pdfrwt>
<totfact> 0.10795707E+04</totfact>
</mgrwt>
</event>
<event>
 6    4  0.6093247E-003  0.1291599E+03  0.7818608E-02  0.1228708E+00
         -4   -1    0    0    0  501 -0.00000000000E+00  0.00000000000E+00  0.20072080230E+04  0.20072084248E+04  0.12700000000E+01 0.  1.
         21   -1    0    0  501  502  0.00000000000E+00 -0.00000000000E+00 -0.38019297509E+01  0.38019297509E+01  0.00000000000E+00 0.  1.
         25    2    1    2    0    0  0.25263263253E+02 -0.20437100718E+02  0.18319542509E+04  0.18365017452E+04  0.12500550181E+03 0.  0.
    9000005    1    3    3    0    0 -0.33462432480E+02 -0.47871283889E+02  0.59815640194E+03  0.60100205939E+03  0.10000000000E+01 0.  0.
    9000005    1    3    3    0    0  0.58725695733E+02  0.27434183171E+02  0.12337978489E+04  0.12354996859E+04  0.10000000000E+01 0.  0.
         -4    1    1    2    0  502 -0.25263263253E+02  0.20437100718E+02  0.17145184243E+03  0.17450860932E+03  0.12700000000E+01 0. -1.
<mgrwt>
<rscale>  1 0.12915991E+03</rscale>
<asrwt>0</asrwt>
<pdfrwt beam="2">  1       21 0.58491387E-03 0.12915991E+03</pdfrwt>
<pdfrwt beam="1">  1       -4 0.30881673E+00 0.12915991E+03</pdfrwt>
<totfact> 0.11882440E+04</totfact>
</mgrwt>
</event>
<event>
 6    4  0.6093247E-003  0.1298143E+03  0.7818608E-02  0.1227732E+00
         -4   -1    0    0    0  501 -0.00000000000E+00  0.00000000000E+00  0.11865035155E+04  0.11865041952E+04  0.12700000000E+01 0.  1.
         21   -1    0    0  501  502  0.00000000000E+00 -0.00000000000E+00 -0.16274166474E+02  0.16274166474E+02  0.00000000000E+00 0. -1.
         25    2    1    2    0    0 -0.34152092952E+02  0.78113966104E+01  0.11585896718E+04  0.11658395155E+04  0.12499745955E+03 0.  0.
    9000005    1    3    3    0    0 -0.48622369394E+02  0.55668671006E+02  0.85175325492E+03  0.85495481928E+03  0.10000000000E+01 0.  0.
    9000005    1    3    3    0    0  0.14470276442E+02 -0.47857274396E+02  0.30683641689E+03  0.31088469622E+03  0.10000000000E+01 0.  0.
         -4    1    1    2    0  502  0.34152092952E+02 -0.78113966104E+01  0.11639677208E+02  0.36938846158E+02  0.12700000000E+01 0. -1.
<mgrwt>
<rscale>  1 0.12981428E+03</rscale>
<asrwt>0</asrwt>
<pdfrwt beam="2">  1       21 0.25037189E-02 0.12981428E+03</pdfrwt>
<pdfrwt beam="1">  1       -4 0.18254280E+00 0.12981428E+03</pdfrwt>
<totfact> 0.65797728E+03</totfact>
</mgrwt>
</event>
<event>
 6    4  0.6093247E-003  0.1274659E+03  0.7818608E-02  0.1231265E+00
         21   -1    0    0  501  502  0.00000000000E+00  0.00000000000E+00  0.25851693101E+02  0.25851693101E+02  0.00000000000E+00 0. -1.
         -4   -1    0    0    0  501 -0.00000000000E+00 -0.00000000000E+00 -0.36807115789E+03  0.36807334890E+03  0.12700000000E+01 0.  1.
         25    2    1    2    0    0 -0.19391733276E+02  0.15731991760E+02 -0.34591301551E+03  0.36865074476E+03  0.12499608965E+03 0.  0.
    9000005    1    3    3    0    0  0.37753856553E+02  0.59201854144E+01 -0.27214993223E+03  0.27482173840E+03  0.10000000000E+01 0.  0.
    9000005    1    3    3    0    0 -0.57145589830E+02  0.98118063456E+01 -0.73763083274E+02  0.93829006362E+02  0.10000000000E+01 0.  0.
         -4    1    1    2    0  502  0.19391733276E+02 -0.15731991760E+02  0.36935507197E+01  0.25274297243E+02  0.12700000000E+01 0. -1.
<mgrwt>
<rscale>  1 0.12746591E+03</rscale>
<asrwt>0</asrwt>
<pdfrwt beam="1">  1       21 0.39771837E-02 0.12746591E+03</pdfrwt>
<pdfrwt beam="2">  1       -4 0.56628898E-01 0.12746591E+03</pdfrwt>
<totfact> 0.47509156E+04</totfact>
</mgrwt>
</event>
<event>
 6    4  0.6093247E-003  0.1354192E+03  0.7818608E-02  0.1219629E+00
         21   -1    0    0  501  502  0.00000000000E+00  0.00000000000E+00  0.59411296001E+02  0.59411296001E+02  0.00000000000E+00 0.  1.
          4   -1    0    0  502    0 -0.00000000000E+00 -0.00000000000E+00 -0.84525024724E+03  0.84525120134E+03  0.12700000000E+01 0. -1.
         25    2    1    2    0    0  0.34520880673E+02  0.39020471373E+02 -0.82714914444E+03  0.83816111877E+03  0.12499626185E+03 0.  0.
    9000005    1    3    3    0    0  0.79705752067E+02  0.37931919406E+02 -0.47633407796E+03  0.48444503429E+03  0.10000000000E+01 0.  0.
    9000005    1    3    3    0    0 -0.45184871394E+02  0.10885519671E+01 -0.35081506648E+03  0.35371608448E+03  0.10000000000E+01 0.  0.
          4    1    1    2  501    0 -0.34520880673E+02 -0.39020471373E+02  0.41310193205E+02  0.66501378566E+02  0.12700000000E+01 0.  1.
<mgrwt>
<rscale>  1 0.13541918E+03</rscale>
<asrwt>0</asrwt>
<pdfrwt beam="1">  1       21 0.91401994E-02 0.13541918E+03</pdfrwt>
<pdfrwt beam="2">  1        4 0.13003962E+00 0.13541918E+03</pdfrwt>
<totfact> 0.17961767E+03</totfact>
</mgrwt>
</event>
<event>
 6    4  0.6093247E-003  0.1331895E+03  0.7818608E-02  0.1222798E+00
          4   -1    0    0  502    0 -0.00000000000E+00  0.00000000000E+00  0.25424159732E+03  0.25424476928E+03  0.12700000000E+01 0.  1.
         21   -1    0    0  501  502  0.00000000000E+00 -0.00000000000E+00 -0.31783900938E+02  0.31783900938E+02  0.00000000000E+00 0.  1.
         25    2    1    2    0    0 -0.52186740195E+00  0.45979522440E+02  0.17521473895E+03  0.22009007184E+03  0.12500018459E+03 0.  0.
    9000005    1    3    3    0    0  0.36821866412E+02 -0.17967346595E+02  0.15099670457E+02  0.43676944005E+02  0.10000000000E+01 0.  0.
    9000005    1    3    3    0    0 -0.37343733814E+02  0.63946869035E+02  0.16011506849E+03  0.17641312783E+03  0.10000000000E+01 0.  0.
          4    1    1    2  501    0  0.52186740195E+00 -0.45979522440E+02  0.47242957434E+02  0.65938598381E+02  0.12700000000E+01 0. -1.
<mgrwt>
<rscale>  1 0.13318947E+03</rscale>
<asrwt>0</asrwt>
<pdfrwt beam="2">  1       21 0.48898311E-02 0.13318947E+03</pdfrwt>
<pdfrwt beam="1">  1        4 0.39116286E-01 0.13318947E+03</pdfrwt>
<totfact> 0.71386077E+04</totfact>
</mgrwt>
</event>
<event>
 6    4  0.6093247E-003  0.1358102E+03  0.7818608E-02  0.1219081E+00
          4   -1    0    0  502    0 -0.00000000000E+00  0.00000000000E+00  0.15053164429E+04  0.15053169787E+04  0.12700000000E+01 0. -1.
         21   -1    0    0  501  502  0.00000000000E+00 -0.00000000000E+00 -0.10042149308E+02  0.10042149308E+02  0.00000000000E+00 0.  1.
         25    2    1    2    0    0 -0.42918068011E+01  0.52928264248E+02  0.13975387331E+04  0.14041221132E+04  0.12499831018E+03 0.  0.
    9000005    1    3    3    0    0  0.60875510354E+01 -0.40920980874E+02  0.42558468751E+03  0.42759199150E+03  0.10000000000E+01 0.  0.
    9000005    1    3    3    0    0 -0.10379357837E+02  0.93849245122E+02  0.97195404557E+03  0.97653012169E+03  0.10000000000E+01 0.  0.
          4    1    1    2  501    0  0.42918068011E+01 -0.52928264248E+02  0.97735560552E+02  0.11123701479E+03  0.12700000000E+01 0.  1.
<mgrwt>
<rscale>  1 0.13581016E+03</rscale>
<asrwt>0</asrwt>
<pdfrwt beam="2">  1       21 0.15449472E-02 0.13581016E+03</pdfrwt>
<pdfrwt beam="1">  1        4 0.23159318E+00 0.13581016E+03</pdfrwt>
<totfact> 0.71975876E+03</totfact>
</mgrwt>
</event>
<event>
 6    4  0.6093247E-003  0.1665125E+03  0.7818608E-02  0.1181534E+00
         -4   -1    0    0    0  501 -0.00000000000E+00  0.00000000000E+00  0.85215715555E+02  0.85225178659E+02  0.12700000000E+01 0. -1.
         21   -1    0    0  501  502  0.00000000000E+00 -0.00000000000E+00 -0.56960929072E+03  0.56960929072E+03  0.00000000000E+00 0.  1.
         25    2    1    2    0    0  0.93427789327E+02  0.58074089942E+02 -0.88675413535E+01  0.16674843857E+03  0.12500022694E+03 0.  0.
    9000005    1    3    3    0    0  0.43683709709E+02 -0.31305020404E+02  0.24606768399E+02  0.59116527702E+02  0.10000000000E+01 0.  0.
    9000005    1    3    3    0    0  0.49744079617E+02  0.89379110346E+02 -0.33474309753E+02  0.10763191087E+03  0.10000000000E+01 0.  0.
         -4    1    1    2    0  502 -0.93427789327E+02 -0.58074089942E+02 -0.47552603381E+03  0.48808603081E+03  0.12700000000E+01 0.  1.
<mgrwt>
<rscale>  1 0.16651249E+03</rscale>
<asrwt>0</asrwt>
<pdfrwt beam="2">  1       21 0.87632196E-01 0.16651249E+03</pdfrwt>
<pdfrwt beam="1">  1       -4 0.13110947E-01 0.16651249E+03</pdfrwt>
<totfact> 0.22357203E+03</totfact>
</mgrwt>
</event>
<event>
 6    4  0.6093247E-003  0.1297653E+03  0.7818608E-02  0.1227804E+00
         -4   -1    0    0    0  501 -0.00000000000E+00  0.00000000000E+00  0.14274618737E+03  0.14275183680E+03  0.12700000000E+01 0.  1.
         21   -1    0    0  501  502  0.00000000000E+00 -0.00000000000E+00 -0.19421712166E+03  0.19421712166E+03  0.00000000000E+00 0. -1.
         25    2    1    2    0    0 -0.63121551245E+01  0.34224581683E+02  0.11102737972E+03  0.17078087149E+03  0.12501144638E+03 0.  0.
    9000005    1    3    3    0    0  0.41472943320E+02  0.23545560312E+02 -0.18501484230E+01  0.47737003333E+02  0.10000000000E+01 0.  0.
    9000005    1    3    3    0    0 -0.47785098444E+02  0.10679021371E+02  0.11287752815E+03  0.12304386816E+03  0.10000000000E+01 0.  0.
         -4    1    1    2    0  502  0.63121551245E+01 -0.34224581683E+02 -0.16249831402E+03  0.16618808697E+03  0.12700000000E+01 0. -1.
<mgrwt>
<rscale>  1 0.12976528E+03</rscale>
<asrwt>0</asrwt>
<pdfrwt beam="2">  1       21 0.29879557E-01 0.12976528E+03</pdfrwt>
<pdfrwt beam="1">  1       -4 0.21961706E-01 0.12976528E+03</pdfrwt>
<totfact> 0.83740658E+03</totfact>
</mgrwt>
</event>
<event>
 6    4  0.6093247E-003  0.1386823E+03  0.7818608E-02  0.1215113E+00
         -4   -1    0    0    0  501 -0.00000000000E+00  0.00000000000E+00  0.17096194557E+02  0.17143300975E+02  0.12700000000E+01 0.  1.
         21   -1    0    0  501  502  0.00000000000E+00 -0.00000000000E+00 -0.70418711680E+03  0.70418711680E+03  0.00000000000E+00 0.  1.
         25    2    1    2    0    0  0.58513389125E+02  0.13560048177E+02 -0.31165690692E+03  0.34111994399E+03  0.12500038777E+03 0.  0.
    9000005    1    3    3    0    0  0.21240108962E+02 -0.23359279990E+02 -0.74947783744E+01  0.32464902483E+02  0.10000000000E+01 0.  0.
    9000005    1    3    3    0    0  0.37273280163E+02  0.36919328167E+02 -0.30416212854E+03  0.30865504151E+03  0.10000000000E+01 0.  0.
         -4    1    1    2    0  502 -0.58513389125E+02 -0.13560048177E+02 -0.37543401532E+03  0.38021047378E+03  0.12700000000E+01 0. -1.
<mgrwt>
<rscale>  1 0.13868233E+03</rscale>
<asrwt>0</asrwt>
<pdfrwt beam="2">  1       21 0.10833651E+00 0.13868233E+03</pdfrwt>
<pdfrwt beam="1">  1       -4 0.26338948E-02 0.13868233E+03</pdfrwt>
<totfact> 0.18549714E+04</totfact>
</mgrwt>
</event>
<event>
 6    4  0.6093247E-003  0.1284999E+03  0.7818608E-02  0.1229699E+00
         21   -1    0    0  501  502  0.00000000000E+00  0.00000000000E+00  0.10528897773E+02  0.10528897773E+02  0.00000000000E+00 0.  1.
         -4   -1    0    0    0  501 -0.00000000000E+00 -0.00000000000E+00 -0.70708565495E+03  0.70708679548E+03  0.12700000000E+01 0.  1.
         25    2    1    2    0    0 -0.29631566246E+02 -0.25317336621E+01 -0.64833418519E+03  0.66094587110E+03  0.12501115728E+03 0.  0.
    9000005    1    3    3    0    0 -0.26302206813E+02  0.59987346872E+02 -0.35670957315E+03  0.36267479571E+03  0.10000000000E+01 0.  0.
    9000005    1    3    3    0    0 -0.33293594330E+01 -0.62519080534E+02 -0.29162461204E+03  0.29827107539E+03  0.10000000000E+01 0.  0.
         -4    1    1    2    0  502  0.29631566246E+02  0.25317336621E+01 -0.48222571994E+02  0.56669822156E+02  0.12700000000E+01 0. -1.
<mgrwt>
<rscale>  1 0.12849992E+03</rscale>
<asrwt>0</asrwt>
<pdfrwt beam="1">  1       21 0.16198297E-02 0.12849992E+03</pdfrwt>
<pdfrwt beam="2">  1       -4 0.10878844E+00 0.12849992E+03</pdfrwt>
<totfact> 0.48719715E+04</totfact>
</mgrwt>
</event>
<event>
 6    4  0.6093247E-003  0.1266318E+03  0.7818608E-02  0.1232541E+00
         21   -1    0    0  501  502  0.00000000000E+00  0.00000000000E+00  0.21967947976E+04  0.21967947976E+04  0.00000000000E+00 0. -1.
          4   -1    0    0  502    0 -0.00000000000E+00 -0.00000000000E+00 -0.23030322888E+01  0.26299919625E+01  0.12700000000E+01 0. -1.
         25    2    1    2    0    0 -0.16034362276E+02 -0.12380026593E+02  0.19363735969E+04  0.19405098082E+04  0.12500097180E+03 0.  0.
    9000005    1    3    3    0    0 -0.12628270325E+02  0.29277013670E+02  0.17106292121E+04  0.17109266255E+04  0.10000000000E+01 0.  0.
    9000005    1    3    3    0    0 -0.34060919506E+01 -0.41657040263E+02  0.22574438487E+03  0.22958318267E+03  0.10000000000E+01 0.  0.
          4    1    1    2  501    0  0.16034362276E+02  0.12380026593E+02  0.25811816835E+03  0.25891498135E+03  0.12700000000E+01 0.  1.
<mgrwt>
<rscale>  1 0.12663178E+03</rscale>
<asrwt>0</asrwt>
<pdfrwt beam="1">  1       21 0.33796687E+00 0.12663178E+03</pdfrwt>
<pdfrwt beam="2">  1        4 0.37949340E-03 0.12663178E+03</pdfrwt>
<totfact> 0.11149613E+04</totfact>
</mgrwt>
</event>
<event>
 6    4  0.6093247E-003  0.1300675E+03  0.7818608E-02  0.1227356E+00
         21   -1    0    0  501  502  0.00000000000E+00  0.00000000000E+00  0.31510568863E+02  0.31510568863E+02  0.00000000000E+00 0.  1.
          4   -1    0    0  502    0 -0.00000000000E+00 -0.00000000000E+00 -0.36534442616E+03  0.36534663352E+03  0.12700000000E+01 0. -1.
         25    2    1    2    0    0  0.28229898808E+02  0.22231651023E+02 -0.33654006105E+03  0.36080016517E+03  0.12500549188E+03 0.  0.
    9000005    1    3    3    0    0  0.20647372586E+02  0.53514506861E+02 -0.62355811051E+02  0.84731125397E+02  0.10000000000E+01 0.  0.
    9000005    1    3    3    0    0  0.75825262221E+01 -0.31282855838E+02 -0.27418425000E+03  0.27606903978E+03  0.10000000000E+01 0.  0.
          4    1    1    2  501    0 -0.28229898808E+02 -0.22231651023E+02  0.27062037546E+01  0.36057037215E+02  0.12700000000E+01 0.  1.
<mgrwt>
<rscale>  1 0.13006747E+03</rscale>
<asrwt>0</asrwt>
<pdfrwt beam="1">  1       21 0.48477800E-02 0.13006747E+03</pdfrwt>
<pdfrwt beam="2">  1        4 0.56208971E-01 0.13006747E+03</pdfrwt>
<totfact> 0.34766885E+04</totfact>
</mgrwt>
</event>
<event>
 6    4  0.6093247E-003  0.1278326E+03  0.7818608E-02  0.1230708E+00
         -4   -1    0    0    0  501 -0.00000000000E+00  0.00000000000E+00  0.43267126326E+03  0.43267312715E+03  0.12700000000E+01 0.  1.
         21   -1    0    0  501  502  0.00000000000E+00 -0.00000000000E+00 -0.10565842943E+03  0.10565842943E+03  0.00000000000E+00 0. -1.
         25    2    1    2    0    0  0.25405338936E+02 -0.84204457593E+01  0.42132305371E+03  0.44028888410E+03  0.12499940292E+03 0.  0.
    9000005    1    3    3    0    0 -0.55382809991E+01 -0.16708927546E+02  0.40297085443E+03  0.40335638130E+03  0.10000000000E+01 0.  0.
    9000005    1    3    3    0    0  0.30943619935E+02  0.82884817862E+01  0.18352199273E+02  0.36932502801E+02  0.10000000000E+01 0.  0.
         -4    1    1    2    0  502 -0.25405338936E+02  0.84204457593E+01 -0.94310219868E+02  0.98042672469E+02  0.12700000000E+01 0. -1.
<mgrwt>
<rscale>  1 0.12783265E+03</rscale>
<asrwt>0</asrwt>
<pdfrwt beam="2">  1       21 0.16255143E-01 0.12783265E+03</pdfrwt>
<pdfrwt beam="1">  1       -4 0.66565539E-01 0.12783265E+03</pdfrwt>
<totfact> 0.29659986E+03</totfact>
</mgrwt>
</event>
<event>
 6    4  0.6093247E-003  0.1277623E+03  0.7818608E-02  0.1230814E+00
         21   -1    0    0  501  502  0.00000000000E+00  0.00000000000E+00  0.19184028351E+03  0.19184028351E+03  0.00000000000E+00 0.  1.
          4   -1    0    0  502    0 -0.00000000000E+00 -0.00000000000E+00 -0.41388261580E+02  0.41407741989E+02  0.12700000000E+01 0.  1.
         25    2    1    2    0    0  0.12010871601E+02  0.23553886036E+02  0.16031713107E+03  0.20499948815E+03  0.12499664413E+03 0.  0.
    9000005    1    3    3    0    0  0.21296372076E+02  0.26643426417E+01 -0.16260701103E+02  0.26945214522E+02  0.10000000000E+01 0.  0.
    9000005    1    3    3    0    0 -0.92855004747E+01  0.20889543394E+02  0.17657783217E+03  0.17805427363E+03  0.10000000000E+01 0.  0.
          4    1    1    2  501    0 -0.12010871601E+02 -0.23553886036E+02 -0.98651091401E+01  0.28248537349E+02  0.12700000000E+01 0. -1.
<mgrwt>
<rscale>  1 0.12776231E+03</rscale>
<asrwt>0</asrwt>
<pdfrwt beam="1">  1       21 0.29513889E-01 0.12776231E+03</pdfrwt>
<pdfrwt beam="2">  1        4 0.63692468E-02 0.12776231E+03</pdfrwt>
<totfact> 0.71259761E+04</totfact>
</mgrwt>
</event>
<event>
 6    4  0.6093247E-003  0.1421912E+03  0.7818608E-02  0.1210411E+00
          4   -1    0    0  502    0 -0.00000000000E+00  0.00000000000E+00  0.20817422702E+03  0.20817810090E+03  0.12700000000E+01 0. -1.
         21   -1    0    0  501  502  0.00000000000E+00 -0.00000000000E+00 -0.82839772275E+02  0.82839772275E+02  0.00000000000E+00 0.  1.
         25    2    1    2    0    0  0.15835436817E+02  0.65892152069E+02  0.16069188567E+03  0.21456986741E+03  0.12500323642E+03 0.  0.
    9000005    1    3    3    0    0  0.56478264709E+01 -0.16992525241E+02 -0.12793139111E+02  0.22029713258E+02  0.10000000000E+01 0.  0.
    9000005    1    3    3    0    0  0.10187610346E+02  0.82884677310E+02  0.17348502478E+03  0.19254015415E+03  0.10000000000E+01 0.  0.
          4    1    1    2  501    0 -0.15835436817E+02 -0.65892152069E+02 -0.35357430929E+02  0.76448005765E+02  0.12700000000E+01 0.  1.
<mgrwt>
<rscale>  1 0.14219123E+03</rscale>
<asrwt>0</asrwt>
<pdfrwt beam="2">  1       21 0.12744580E-01 0.14219123E+03</pdfrwt>
<pdfrwt beam="1">  1        4 0.32027851E-01 0.14219123E+03</pdfrwt>
<totfact> 0.20233848E+04</totfact>
</mgrwt>
</event>
<event>
 6    4  0.6093247E-003  0.1391791E+03  0.7818608E-02  0.1214438E+00
         -4   -1    0    0    0  501 -0.00000000000E+00  0.00000000000E+00  0.26608603508E+02  0.26638894133E+02  0.12700000000E+01 0. -1.
         21   -1    0    0  501  502  0.00000000000E+00 -0.00000000000E+00 -0.12497998801E+04  0.12497998801E+04  0.00000000000E+00 0.  1.
         25    2    1    2    0    0  0.48234225882E+02 -0.37671682718E+02 -0.16238801999E+03  0.21387072542E+03  0.12500048773E+03 0.  0.
    9000005    1    3    3    0    0  0.29006327831E+01 -0.73189366561E+02 -0.53579244569E+02  0.90756996958E+02  0.10000000000E+01 0.  0.
    9000005    1    3    3    0    0  0.45333593099E+02  0.35517683844E+02 -0.10880877542E+03  0.12311372847E+03  0.10000000000E+01 0.  0.
         -4    1    1    2    0  502 -0.48234225882E+02  0.37671682718E+02 -0.10608032566E+04  0.10625680489E+04  0.12700000000E+01 0.  1.
<mgrwt>
<rscale>  1 0.13917909E+03</rscale>
<asrwt>0</asrwt>
<pdfrwt beam="2">  1       21 0.19227687E+00 0.13917909E+03</pdfrwt>
<pdfrwt beam="1">  1       -4 0.40960118E-02 0.13917909E+03</pdfrwt>
<totfact> 0.20998767E+03</totfact>
</mgrwt>
</event>
<event>
 6    4  0.6093247E-003  0.1320353E+03  0.7818608E-02  0.1224467E+00
          4   -1    0    0  502    0 -0.00000000000E+00  0.00000000000E+00  0.31909559917E+02  0.31934822907E+02  0.12700000000E+01 0.  1.
         21   -1    0    0  501  502  0.00000000000E+00 -0.00000000000E+00 -0.39341467325E+03  0.39341467325E+03  0.00000000000E+00 0. -1.
         25    2    1    2    0    0  0.25343462259E+02  0.34149392161E+02 -0.11468209487E+03  0.17488654998E+03  0.12499940167E+03 0.  0.
    9000005    1    3    3    0    0  0.34860088326E+02  0.76289578850E+02 -0.51800632878E+02  0.98588189789E+02  0.10000000000E+01 0.  0.
    9000005    1    3    3    0    0 -0.95166260672E+01 -0.42140186689E+02 -0.62881461995E+02  0.76298360196E+02  0.10000000000E+01 0.  0.
          4    1    1    2  501    0 -0.25343462259E+02 -0.34149392161E+02 -0.24682301846E+03  0.25046294618E+03  0.12700000000E+01 0. -1.
<mgrwt>
<rscale>  1 0.13203531E+03</rscale>
<asrwt>0</asrwt>
<pdfrwt beam="2">  1       21 0.60525332E-01 0.13203531E+03</pdfrwt>
<pdfrwt beam="1">  1        4 0.49112642E-02 0.13203531E+03</pdfrwt>
<totfact> 0.25553623E+04</totfact>
</mgrwt>
</event>
<event>
 6    4  0.6093247E-003  0.1276634E+03  0.7818608E-02  0.1230965E+00
         21   -1    0    0  501  502  0.00000000000E+00  0.00000000000E+00  0.18707993882E+02  0.18707993882E+02  0.00000000000E+00 0.  1.
          4   -1    0    0  502    0 -0.00000000000E+00 -0.00000000000E+00 -0.45654140394E+03  0.45654317037E+03  0.12700000000E+01 0.  1.
         25    2    1    2    0    0  0.21505197795E+02 -0.14477264314E+02 -0.42937591631E+03  0.44795268783E+03  0.12500347322E+03 0.  0.
    9000005    1    3    3    0    0 -0.36999731039E+02  0.27277994417E+02 -0.25873817005E+03  0.26279176113E+03  0.10000000000E+01 0.  0.
    9000005    1    3    3    0    0  0.58504928834E+02 -0.41755258732E+02 -0.17063774626E+03  0.18516092670E+03  0.10000000000E+01 0.  0.
          4    1    1    2  501    0 -0.21505197795E+02  0.14477264314E+02 -0.84574937492E+01  0.27298476418E+02  0.12700000000E+01 0. -1.
<mgrwt>
<rscale>  1 0.12766336E+03</rscale>
<asrwt>0</asrwt>
<pdfrwt beam="1">  1       21 0.28781529E-02 0.12766336E+03</pdfrwt>
<pdfrwt beam="2">  1        4 0.70240591E-01 0.12766336E+03</pdfrwt>
<totfact> 0.51342455E+04</totfact>
</mgrwt>
</event>
<event>
 6    4  0.6093247E-003  0.1267460E+03  0.7818608E-02  0.1232365E+00
          4   -1    0    0  502    0 -0.00000000000E+00  0.00000000000E+00  0.58464435237E+02  0.58478227466E+02  0.12700000000E+01 0. -1.
         21   -1    0    0  501  502  0.00000000000E+00 -0.00000000000E+00 -0.16958710730E+03  0.16958710730E+03  0.00000000000E+00 0.  1.
         25    2    1    2    0    0  0.13798236166E+02  0.15786530383E+02 -0.12648263026E+02  0.12737557363E+03  0.12499980935E+03 0.  0.
    9000005    1    3    3    0    0 -0.48652284070E+02  0.25373288104E+02  0.17169985494E+02  0.57503538119E+02  0.10000000000E+01 0.  0.
    9000005    1    3    3    0    0  0.62450520236E+02 -0.95867577203E+01 -0.29818248520E+02  0.69872035508E+02  0.10000000000E+01 0.  0.
          4    1    1    2  501    0 -0.13798236166E+02 -0.15786530383E+02 -0.98474409037E+02  0.10068976114E+03  0.12700000000E+01 0.  1.
<mgrwt>
<rscale>  1 0.12674604E+03</rscale>
<asrwt>0</asrwt>
<pdfrwt beam="2">  1       21 0.26090324E-01 0.12674604E+03</pdfrwt>
<pdfrwt beam="1">  1        4 0.89959552E-02 0.12674604E+03</pdfrwt>
<totfact> 0.50999869E+04</totfact>
</mgrwt>
</event>
<event>
 6    4  0.6093247E-003  0.1299204E+03  0.7818608E-02  0.1227574E+00
         -4   -1    0    0    0  501 -0.00000000000E+00  0.00000000000E+00  0.23744289384E+03  0.23744629021E+03  0.12700000000E+01 0. -1.
         21   -1    0    0  501  502  0.00000000000E+00 -0.00000000000E+00 -0.34444841846E+02  0.34444841846E+02  0.00000000000E+00 0.  1.
         25    2    1    2    0    0  0.19683863824E+01 -0.35354424696E+02  0.19695714331E+03  0.23594790782E+03  0.12500195604E+03 0.  0.
    9000005    1    3    3    0    0  0.45254141433E+02 -0.57989815437E+02  0.77346882532E+02  0.10674406892E+03  0.10000000000E+01 0.  0.
    9000005    1    3    3    0    0 -0.43285755050E+02  0.22635390741E+02  0.11961026078E+03  0.12920383891E+03  0.10000000000E+01 0.  0.
         -4    1    1    2    0  502 -0.19683863824E+01  0.35354424696E+02  0.60409086787E+01  0.35943224232E+02  0.12700000000E+01 0.  1.
<mgrwt>
<rscale>  1 0.12992036E+03</rscale>
<asrwt>0</asrwt>
<pdfrwt beam="2">  1       21 0.52992066E-02 0.12992036E+03</pdfrwt>
<pdfrwt beam="1">  1       -4 0.36531737E-01 0.12992036E+03</pdfrwt>
<totfact> 0.71004539E+04</totfact>
</mgrwt>
</event>
<event>
 6    4  0.6093247E-003  0.1288684E+03  0.7818608E-02  0.1229145E+00
         21   -1    0    0  501  502  0.00000000000E+00  0.00000000000E+00  0.56058822054E+02  0.56058822054E+02  0.00000000000E+00 0. -1.
         -4   -1    0    0    0  501 -0.00000000000E+00 -0.00000000000E+00 -0.11450701555E+03  0.11451405813E+03  0.12700000000E+01 0. -1.
         25    2    1    2    0    0 -0.23468551813E+00  0.31306762621E+02 -0.48603898468E+02  0.13772944085E+03  0.12500756564E+03 0.  0.
    9000005    1    3    3    0    0  0.31167475677E+02  0.27762189817E+02  0.31049132026E+02  0.52030753628E+02  0.10000000000E+01 0.  0.
    9000005    1    3    3    0    0 -0.31402161195E+02  0.35445728040E+01 -0.79653030493E+02  0.85698687218E+02  0.10000000000E+01 0.  0.
         -4    1    1    2    0  502  0.23468551813E+00 -0.31306762621E+02 -0.98442950263E+01  0.32843439339E+02  0.12700000000E+01 0.  1.
<mgrwt>
<rscale>  1 0.12886838E+03</rscale>
<asrwt>0</asrwt>
<pdfrwt beam="1">  1       21 0.86244343E-02 0.12886838E+03</pdfrwt>
<pdfrwt beam="2">  1       -4 0.17618112E-01 0.12886838E+03</pdfrwt>
<totfact> 0.11903954E+05</totfact>
</mgrwt>
</event>
<event>
 6    4  0.6093247E-003  0.1268776E+03  0.7818608E-02  0.1232164E+00
         21   -1    0    0  501  502  0.00000000000E+00  0.00000000000E+00  0.11854362595E+02  0.11854362595E+02  0.00000000000E+00 0. -1.
         -4   -1    0    0    0  501 -0.00000000000E+00 -0.00000000000E+00 -0.21137689235E+04  0.21137693050E+04  0.12700000000E+01 0.  1.
         25    2    1    2    0    0  0.92043505377E+01 -0.19722798078E+02 -0.20998993234E+04  0.21037288528E+04  0.12499683516E+03 0.  0.
    9000005    1    3    3    0    0  0.54067563773E+02 -0.40264611601E+02 -0.78040080761E+03  0.78330770513E+03  0.10000000000E+01 0.  0.
    9000005    1    3    3    0    0 -0.44863213235E+02  0.20541813523E+02 -0.13194985158E+04  0.13204211477E+04  0.10000000000E+01 0.  0.
         -4    1    1    2    0  502 -0.92043505377E+01  0.19722798078E+02 -0.20152374686E+01  0.21894814795E+02  0.12700000000E+01 0. -1.
<mgrwt>
<rscale>  1 0.12687757E+03</rscale>
<asrwt>0</asrwt>
<pdfrwt beam="1">  1       21 0.18237493E-02 0.12687757E+03</pdfrwt>
<pdfrwt beam="2">  1       -4 0.32520026E+00 0.12687757E+03</pdfrwt>
<totfact> 0.15834543E+03</totfact>
</mgrwt>
</event>
<event>
 6    4  0.6093247E-003  0.1329493E+03  0.7818608E-02  0.1223144E+00
          4   -1    0    0  502    0 -0.00000000000E+00  0.00000000000E+00  0.13621029150E+03  0.13621621200E+03  0.12700000000E+01 0.  1.
         21   -1    0    0  501  502  0.00000000000E+00 -0.00000000000E+00 -0.68023032707E+02  0.68023032707E+02  0.00000000000E+00 0.  1.
         25    2    1    2    0    0  0.35178823558E+02 -0.28528506630E+02  0.82806969395E+02  0.15662859300E+03  0.12499638654E+03 0.  0.
    9000005    1    3    3    0    0 -0.18498594084E+02  0.16591934280E+02  0.82847055825E+02  0.86499277021E+02  0.10000000000E+01 0.  0.
    9000005    1    3    3    0    0  0.53677417642E+02 -0.45120440910E+02 -0.40086429858E-01  0.70129315978E+02  0.10000000000E+01 0.  0.
          4    1    1    2  501    0 -0.35178823558E+02  0.28528506630E+02 -0.14619710603E+02  0.47610651703E+02  0.12700000000E+01 0. -1.
<mgrwt>
<rscale>  1 0.13294932E+03</rscale>
<asrwt>0</asrwt>
<pdfrwt beam="2">  1       21 0.10465082E-01 0.13294932E+03</pdfrwt>
<pdfrwt beam="1">  1        4 0.20956797E-01 0.13294932E+03</pdfrwt>
<totfact> 0.62541301E+04</totfact>
</mgrwt>
</event>
<event>
 6    4  0.6093247E-003  0.1285023E+03  0.7818608E-02  0.1229695E+00
         21   -1    0    0  501  502  0.00000000000E+00  0.00000000000E+00  0.45591885986E+02  0.45591885986E+02  0.00000000000E+00 0.  1.
          4   -1    0    0  502    0 -0.00000000000E+00 -0.00000000000E+00 -0.14353660331E+03  0.14354222163E+03  0.12700000000E+01 0.  1.
         25    2    1    2    0    0 -0.25008412728E+02 -0.16280703574E+02 -0.93542476481E+02  0.15894346932E+03  0.12498939762E+03 0.  0.
    9000005    1    3    3    0    0 -0.75065304885E+02 -0.40636058376E+01 -0.68231060508E+02  0.10152728947E+03  0.10000000000E+01 0.  0.
    9000005    1    3    3    0    0  0.50056892157E+02 -0.12217097737E+02 -0.25311415973E+02  0.57416179846E+02  0.10000000000E+01 0.  0.
          4    1    1    2  501    0  0.25008412728E+02  0.16280703574E+02 -0.44022408426E+01  0.30190638292E+02  0.12700000000E+01 0. -1.
<mgrwt>
<rscale>  1 0.12850226E+03</rscale>
<asrwt>0</asrwt>
<pdfrwt beam="1">  1       21 0.70141364E-02 0.12850226E+03</pdfrwt>
<pdfrwt beam="2">  1        4 0.22084347E-01 0.12850226E+03</pdfrwt>
<totfact> 0.11321904E+05</totfact>
</mgrwt>
</event>
<event>
 6    4  0.6093247E-003  0.1279269E+03  0.7818608E-02  0.1230565E+00
         -4   -1    0    0    0  501 -0.00000000000E+00  0.00000000000E+00  0.16059018174E+02  0.16109157790E+02  0.12700000000E+01 0. -1.
         21   -1    0    0  501  502  0.00000000000E+00 -0.00000000000E+00 -0.87646473007E+03  0.87646473007E+03  0.00000000000E+00 0.  1.
         25    2    1    2    0    0  0.14632553284E+02  0.22942584490E+02 -0.24343101236E+03  0.27499808963E+03  0.12499927088E+03 0.  0.
    9000005    1    3    3    0    0 -0.55129178927E+02  0.29149682041E+01 -0.11122735493E+03  0.12417829075E+03  0.10000000000E+01 0.  0.
    9000005    1    3    3    0    0  0.69761732211E+02  0.20027616285E+02 -0.13220365743E+03  0.15081979888E+03  0.10000000000E+01 0.  0.
         -4    1    1    2    0  502 -0.14632553284E+02 -0.22942584490E+02 -0.61697469953E+03  0.61757579823E+03  0.12700000000E+01 0.  1.
<mgrwt>
<rscale>  1 0.12792690E+03</rscale>
<asrwt>0</asrwt>
<pdfrwt beam="2">  1       21 0.13484071E+00 0.12792690E+03</pdfrwt>
<pdfrwt beam="1">  1       -4 0.24745462E-02 0.12792690E+03</pdfrwt>
<totfact> 0.11907255E+04</totfact>
</mgrwt>
</event>
<event>
 6    4  0.6093247E-003  0.1427630E+03  0.7818608E-02  0.1209659E+00
         21   -1    0    0  501  502  0.00000000000E+00  0.00000000000E+00  0.31976815098E+02  0.31976815098E+02  0.00000000000E+00 0.  1.
          4   -1    0    0  502    0 -0.00000000000E+00 -0.00000000000E+00 -0.45258249406E+03  0.45258427594E+03  0.12700000000E+01 0. -1.
         25    2    1    2    0    0  0.11153947776E+02  0.68008279840E+02 -0.37667921945E+03  0.40282564326E+03  0.12502690842E+03 0.  0.
    9000005    1    3    3    0    0  0.10980320437E+02  0.68860946131E+02 -0.79941909075E+02  0.10608537206E+03  0.10000000000E+01 0.  0.
    9000005    1    3    3    0    0  0.17362733916E+00 -0.85266629081E+00 -0.29673731037E+03  0.29674027120E+03  0.10000000000E+01 0.  0.
          4    1    1    2  501    0 -0.11153947776E+02 -0.68008279840E+02 -0.43926459516E+02  0.81735447777E+02  0.12700000000E+01 0.  1.
<mgrwt>
<rscale>  1 0.14276297E+03</rscale>
<asrwt>0</asrwt>
<pdfrwt beam="1">  1       21 0.49195104E-02 0.14276297E+03</pdfrwt>
<pdfrwt beam="2">  1        4 0.69630147E-01 0.14276297E+03</pdfrwt>
<totfact> 0.21790154E+04</totfact>
</mgrwt>
</event>
<event>
 6    4  0.6093247E-003  0.1270941E+03  0.7818608E-02  0.1231832E+00
         21   -1    0    0  501  502  0.00000000000E+00  0.00000000000E+00  0.53542566306E+03  0.53542566306E+03  0.00000000000E+00 0.  1.
          4   -1    0    0  502    0 -0.00000000000E+00 -0.00000000000E+00 -0.15320978129E+02  0.15373524997E+02  0.12700000000E+01 0. -1.
         25    2    1    2    0    0 -0.13663242721E+02 -0.18456692720E+02  0.25717581006E+03  0.28686635598E+03  0.12500230080E+03 0.  0.
    9000005    1    3    3    0    0  0.10078500710E+02  0.33129560269E+02  0.21055620302E+03  0.21338710966E+03  0.10000000000E+01 0.  0.
    9000005    1    3    3    0    0 -0.23741743431E+02 -0.51586252989E+02  0.46619607039E+02  0.73479246316E+02  0.10000000000E+01 0.  0.
          4    1    1    2  501    0  0.13663242721E+02  0.18456692720E+02  0.26292887487E+03  0.26393283208E+03  0.12700000000E+01 0.  1.
<mgrwt>
<rscale>  1 0.12709409E+03</rscale>
<asrwt>0</asrwt>
<pdfrwt beam="1">  1       21 0.82373165E-01 0.12709409E+03</pdfrwt>
<pdfrwt beam="2">  1        4 0.23612319E-02 0.12709409E+03</pdfrwt>
<totfact> 0.41148440E+04</totfact>
</mgrwt>
</event>
<event>
 6    4  0.6093247E-003  0.1267429E+03  0.7818608E-02  0.1232370E+00
         21   -1    0    0  501  502  0.00000000000E+00  0.00000000000E+00  0.50946984217E+03  0.50946984217E+03  0.00000000000E+00 0. -1.
          4   -1    0    0  502    0 -0.00000000000E+00 -0.00000000000E+00 -0.11141811206E+02  0.11213958131E+02  0.12700000000E+01 0. -1.
         25    2    1    2    0    0 -0.10337984692E+02  0.18218424383E+02  0.38197236994E+03  0.40245081985E+03  0.12499994434E+03 0.  0.
    9000005    1    3    3    0    0  0.21531306638E+02  0.39161120988E+02  0.45362837831E+02  0.63686557598E+02  0.10000000000E+01 0.  0.
    9000005    1    3    3    0    0 -0.31869291330E+02 -0.20942696605E+02  0.33660953211E+03  0.33876426225E+03  0.10000000000E+01 0.  0.
          4    1    1    2  501    0  0.10337984692E+02 -0.18218424383E+02  0.11635566103E+03  0.11823298046E+03  0.12700000000E+01 0.  1.
<mgrwt>
<rscale>  1 0.12674293E+03</rscale>
<asrwt>0</asrwt>
<pdfrwt beam="1">  1       21 0.78379958E-01 0.12674293E+03</pdfrwt>
<pdfrwt beam="2">  1        4 0.17197967E-02 0.12674293E+03</pdfrwt>
<totfact> 0.74868908E+04</totfact>
</mgrwt>
</event>
<event>
 6    4  0.6093247E-003  0.1267374E+03  0.7818608E-02  0.1232379E+00
          4   -1    0    0  502    0 -0.00000000000E+00  0.00000000000E+00  0.18268456063E+03  0.18268897501E+03  0.12700000000E+01 0.  1.
         21   -1    0    0  501  502  0.00000000000E+00 -0.00000000000E+00 -0.36049601447E+02  0.36049601447E+02  0.00000000000E+00 0.  1.
         25    2    1    2    0    0  0.18061708469E+02 -0.10537312283E+02  0.15120661138E+03  0.19729625460E+03  0.12500044996E+03 0.  0.
    9000005    1    3    3    0    0 -0.34837444861E+02  0.18553928974E+01 -0.17788752858E+01  0.34946451100E+02  0.10000000000E+01 0.  0.
    9000005    1    3    3    0    0  0.52899153329E+02 -0.12392705180E+02  0.15298548667E+03  0.16234980350E+03  0.10000000000E+01 0.  0.
          4    1    1    2  501    0 -0.18061708469E+02  0.10537312283E+02 -0.45716522036E+01  0.21442321862E+02  0.12700000000E+01 0. -1.
<mgrwt>
<rscale>  1 0.12673742E+03</rscale>
<asrwt>0</asrwt>
<pdfrwt beam="2">  1       21 0.55460927E-02 0.12673742E+03</pdfrwt>
<pdfrwt beam="1">  1        4 0.28107377E-01 0.12673742E+03</pdfrwt>
<totfact> 0.10795471E+05</totfact>
</mgrwt>
</event>
<event>
 6    4  0.6093247E-003  0.1432033E+03  0.7818608E-02  0.1209083E+00
         21   -1    0    0  501  502  0.00000000000E+00  0.00000000000E+00  0.11840711063E+02  0.11840711063E+02  0.00000000000E+00 0.  1.
         -4   -1    0    0    0  501 -0.00000000000E+00 -0.00000000000E+00 -0.10985898421E+04  0.10985905761E+04  0.12700000000E+01 0. -1.
         25    2    1    2    0    0 -0.49557304200E+01 -0.69706709904E+02 -0.89409042313E+03  0.90548598892E+03  0.12499442680E+03 0.  0.
    9000005    1    3    3    0    0 -0.11720450569E+02  0.34670286951E+02 -0.17153505446E+03  0.17539861079E+03  0.10000000000E+01 0.  0.
    9000005    1    3    3    0    0  0.67647201490E+01 -0.10437699686E+03 -0.72255536867E+03  0.73008737813E+03  0.10000000000E+01 0.  0.
         -4    1    1    2    0  502  0.49557304200E+01  0.69706709904E+02 -0.19265870787E+03  0.20494529828E+03  0.12700000000E+01 0.  1.
<mgrwt>
<rscale>  1 0.14320332E+03</rscale>
<asrwt>0</asrwt>
<pdfrwt beam="1">  1       21 0.18216479E-02 0.14320332E+03</pdfrwt>
<pdfrwt beam="2">  1       -4 0.16901911E+00 0.14320332E+03</pdfrwt>
<totfact> 0.13661562E+04</totfact>
</mgrwt>
</event>
<event>
 6    4  0.6093247E-003  0.1886611E+03  0.7818608E-02  0.1159674E+00
         21   -1    0    0  501  502  0.00000000000E+00  0.00000000000E+00  0.59608922141E+03  0.59608922141E+03  0.00000000000E+00 0.  1.
          4   -1    0    0  502    0 -0.00000000000E+00 -0.00000000000E+00 -0.11671139535E+03  0.11671830492E+03  0.12700000000E+01 0. -1.
         25    2    1    2    0    0  0.13672685635E+03  0.35702092528E+02 -0.23805098413E+02  0.19015703026E+03  0.12499656311E+03 0.  0.
    9000005    1    3    3    0    0  0.83620823459E+02  0.30272820225E+01 -0.72748920440E+02  0.11088287504E+03  0.10000000000E+01 0.  0.
    9000005    1    3    3    0    0  0.53106032891E+02  0.32674810506E+02  0.48943822027E+02  0.79274155219E+02  0.10000000000E+01 0.  0.
          4    1    1    2  501    0 -0.13672685635E+03 -0.35702092528E+02  0.50318292447E+03  0.52265049607E+03  0.12700000000E+01 0.  1.
<mgrwt>
<rscale>  1 0.18866111E+03</rscale>
<asrwt>0</asrwt>
<pdfrwt beam="1">  1       21 0.91706033E-01 0.18866111E+03</pdfrwt>
<pdfrwt beam="2">  1        4 0.17956235E-01 0.18866111E+03</pdfrwt>
<totfact> 0.11588120E+03</totfact>
</mgrwt>
</event>
<event>
 6    4  0.6093247E-003  0.1269081E+03  0.7818608E-02  0.1232117E+00
         21   -1    0    0  501  502  0.00000000000E+00  0.00000000000E+00  0.25090634974E+02  0.25090634974E+02  0.00000000000E+00 0. -1.
          4   -1    0    0  502    0 -0.00000000000E+00 -0.00000000000E+00 -0.22791202770E+03  0.22791556610E+03  0.12700000000E+01 0. -1.
         25    2    1    2    0    0 -0.80755119026E+01  0.20369835949E+02 -0.18680135033E+03  0.22583270723E+03  0.12500209223E+03 0.  0.
    9000005    1    3    3    0    0 -0.41110346815E+02  0.20400112045E+02 -0.11338162313E+02  0.47284025964E+02  0.10000000000E+01 0.  0.
    9000005    1    3    3    0    0  0.33034834912E+02 -0.30276096308E-01 -0.17546318802E+03  0.17854868127E+03  0.10000000000E+01 0.  0.
          4    1    1    2  501    0  0.80755119026E+01 -0.20369835949E+02 -0.16020042396E+02  0.27173493839E+02  0.12700000000E+01 0.  1.
<mgrwt>
<rscale>  1 0.12690811E+03</rscale>
<asrwt>0</asrwt>
<pdfrwt beam="1">  1       21 0.38600977E-02 0.12690811E+03</pdfrwt>
<pdfrwt beam="2">  1        4 0.35066133E-01 0.12690811E+03</pdfrwt>
<totfact> 0.13005634E+05</totfact>
</mgrwt>
</event>
<event>
 6    4  0.6093247E-003  0.1717449E+03  0.7818608E-02  0.1176040E+00
          4   -1    0    0  502    0 -0.00000000000E+00  0.00000000000E+00  0.96115112627E+02  0.96123502721E+02  0.12700000000E+01 0.  1.
         21   -1    0    0  501  502  0.00000000000E+00 -0.00000000000E+00 -0.42974445049E+03  0.42974445049E+03  0.00000000000E+00 0. -1.
         25    2    1    2    0    0  0.64586208948E+02 -0.98488076773E+02  0.33173049622E+00  0.17174525169E+03  0.12500016712E+03 0.  0.
    9000005    1    3    3    0    0  0.10226327529E+03 -0.79183621586E+02  0.21823950469E+01  0.12935836366E+03  0.10000000000E+01 0.  0.
    9000005    1    3    3    0    0 -0.37677066338E+02 -0.19304455187E+02 -0.18506645507E+01  0.42386888034E+02  0.10000000000E+01 0.  0.
          4    1    1    2  501    0 -0.64586208948E+02  0.98488076773E+02 -0.33396106836E+03  0.35412270152E+03  0.12700000000E+01 0. -1.
<mgrwt>
<rscale>  1 0.17174493E+03</rscale>
<asrwt>0</asrwt>
<pdfrwt beam="2">  1       21 0.66114529E-01 0.17174493E+03</pdfrwt>
<pdfrwt beam="1">  1        4 0.14787731E-01 0.17174493E+03</pdfrwt>
<totfact> 0.34025278E+03</totfact>
</mgrwt>
</event>
<event>
 6    4  0.6093247E-003  0.1271308E+03  0.7818608E-02  0.1231776E+00
         -4   -1    0    0    0  501 -0.00000000000E+00  0.00000000000E+00  0.46368643050E+03  0.46368816971E+03  0.12700000000E+01 0.  1.
         21   -1    0    0  501  502  0.00000000000E+00 -0.00000000000E+00 -0.22975024532E+02  0.22975024532E+02  0.00000000000E+00 0. -1.
         25    2    1    2    0    0  0.14686452790E+02  0.17959718206E+02  0.44520245371E+03  0.46299833035E+03  0.12499594290E+03 0.  0.
    9000005    1    3    3    0    0 -0.33292328608E+02 -0.20013226293E+02  0.33241784071E+03  0.33468123519E+03  0.10000000000E+01 0.  0.
    9000005    1    3    3    0    0  0.47978781398E+02  0.37972944498E+02  0.11278461300E+03  0.12831709515E+03  0.10000000000E+01 0.  0.
         -4    1    1    2    0  502 -0.14686452790E+02 -0.17959718206E+02 -0.44910477383E+01  0.23664863899E+02  0.12700000000E+01 0. -1.
<mgrwt>
<rscale>  1 0.12713076E+03</rscale>
<asrwt>0</asrwt>
<pdfrwt beam="2">  1       21 0.35346195E-02 0.12713076E+03</pdfrwt>
<pdfrwt beam="1">  1       -4 0.71339201E-01 0.12713076E+03</pdfrwt>
<totfact> 0.35399455E+04</totfact>
</mgrwt>
</event>
<event>
 6    4  0.6093247E-003  0.1305049E+03  0.7818608E-02  0.1226708E+00
          4   -1    0    0  502    0 -0.00000000000E+00  0.00000000000E+00  0.20997648365E+03  0.20998032428E+03  0.12700000000E+01 0. -1.
         21   -1    0    0  501  502  0.00000000000E+00 -0.00000000000E+00 -0.36025734937E+02  0.36025734937E+02  0.00000000000E+00 0.  1.
         25    2    1    2    0    0 -0.29321044337E+02  0.23394776835E+02  0.15876448738E+03  0.20551810228E+03  0.12499795473E+03 0.  0.
    9000005    1    3    3    0    0 -0.40748569799E+02  0.40562151059E+02  0.13861225914E+02  0.59151226725E+02  0.10000000000E+01 0.  0.
    9000005    1    3    3    0    0  0.11427525462E+02 -0.17167374224E+02  0.14490326146E+03  0.14636687555E+03  0.10000000000E+01 0.  0.
          4    1    1    2  501    0  0.29321044337E+02 -0.23394776835E+02  0.15186261335E+02  0.40487956944E+02  0.12700000000E+01 0.  1.
<mgrwt>
<rscale>  1 0.13050490E+03</rscale>
<asrwt>0</asrwt>
<pdfrwt beam="2">  1       21 0.55424209E-02 0.13050490E+03</pdfrwt>
<pdfrwt beam="1">  1        4 0.32306091E-01 0.13050490E+03</pdfrwt>
<totfact> 0.83439275E+04</totfact>
</mgrwt>
</event>
<event>
 6    4  0.6093247E-003  0.1386196E+03  0.7818608E-02  0.1215199E+00
         21   -1    0    0  501  502  0.00000000000E+00  0.00000000000E+00  0.75823930837E+01  0.75823930837E+01  0.00000000000E+00 0. -1.
         -4   -1    0    0    0  501 -0.00000000000E+00 -0.00000000000E+00 -0.15395530374E+04  0.15395535613E+04  0.12700000000E+01 0.  1.
         25    2    1    2    0    0  0.57354105264E+02 -0.17338948262E+02 -0.13066089288E+04  0.13139415113E+04  0.12500107936E+03 0.  0.
    9000005    1    3    3    0    0  0.51798736296E+02  0.44746291801E+02 -0.46315226088E+03  0.46818410531E+03  0.10000000000E+01 0.  0.
    9000005    1    3    3    0    0  0.55553689679E+01 -0.62085240063E+02 -0.84345666793E+03  0.84575740602E+03  0.10000000000E+01 0.  0.
         -4    1    1    2    0  502 -0.57354105264E+02  0.17338948262E+02 -0.22536171555E+03  0.23319444301E+03  0.12700000000E+01 0. -1.
<mgrwt>
<rscale>  1 0.13861963E+03</rscale>
<asrwt>0</asrwt>
<pdfrwt beam="1">  1       21 0.11665222E-02 0.13861963E+03</pdfrwt>
<pdfrwt beam="2">  1       -4 0.23686250E+00 0.13861963E+03</pdfrwt>
<totfact> 0.10502573E+04</totfact>
</mgrwt>
</event>
<event>
 6    4  0.6093247E-003  0.1305925E+03  0.7818608E-02  0.1226579E+00
          4   -1    0    0  502    0 -0.00000000000E+00  0.00000000000E+00  0.12999641243E+03  0.13000261591E+03  0.12700000000E+01 0.  1.
         21   -1    0    0  501  502  0.00000000000E+00 -0.00000000000E+00 -0.10567827015E+03  0.10567827015E+03  0.00000000000E+00 0. -1.
         25    2    1    2    0    0 -0.37104263033E+02  0.73774146468E+01  0.90884594976E+02  0.15910505367E+03  0.12499302347E+03 0.  0.
    9000005    1    3    3    0    0 -0.52524212076E+02 -0.44487033264E+02  0.76897953759E+02  0.10320941951E+03  0.10000000000E+01 0.  0.
    9000005    1    3    3    0    0  0.15419949044E+02  0.51864447911E+02  0.13986641217E+02  0.55895634160E+02  0.10000000000E+01 0.  0.
          4    1    1    2  501    0  0.37104263033E+02 -0.73774146468E+01 -0.66566452701E+02  0.76575832397E+02  0.12700000000E+01 0. -1.
<mgrwt>
<rscale>  1 0.13059253E+03</rscale>
<asrwt>0</asrwt>
<pdfrwt beam="2">  1       21 0.16258195E-01 0.13059253E+03</pdfrwt>
<pdfrwt beam="1">  1        4 0.20000512E-01 0.13059253E+03</pdfrwt>
<totfact> 0.30928882E+04</totfact>
</mgrwt>
</event>
<event>
 6    4  0.6093247E-003  0.1304845E+03  0.7818608E-02  0.1226739E+00
          4   -1    0    0  502    0 -0.00000000000E+00  0.00000000000E+00  0.70464672892E+02  0.70476116705E+02  0.12700000000E+01 0.  1.
         21   -1    0    0  501  502  0.00000000000E+00 -0.00000000000E+00 -0.10064497943E+03  0.10064497943E+03  0.00000000000E+00 0.  1.
         25    2    1    2    0    0 -0.12912665250E+02  0.35139577135E+02 -0.17931817280E+02  0.13171087926E+03  0.12499871535E+03 0.  0.
    9000005    1    3    3    0    0  0.17182601453E+02 -0.95447874698E+01 -0.60130894116E+02  0.63269812611E+02  0.10000000000E+01 0.  0.
    9000005    1    3    3    0    0 -0.30095266704E+02  0.44684364605E+02  0.42199076836E+02  0.68441066648E+02  0.10000000000E+01 0.  0.
          4    1    1    2  501    0  0.12912665250E+02 -0.35139577135E+02 -0.12248489258E+02  0.39410216876E+02  0.12700000000E+01 0. -1.
<mgrwt>
<rscale>  1 0.13048450E+03</rscale>
<asrwt>0</asrwt>
<pdfrwt beam="2">  1       21 0.15483843E-01 0.13048450E+03</pdfrwt>
<pdfrwt beam="1">  1        4 0.10842216E-01 0.13048450E+03</pdfrwt>
<totfact> 0.98218274E+04</totfact>
</mgrwt>
</event>
<event>
 6    4  0.6093247E-003  0.1307495E+03  0.7818608E-02  0.1226348E+00
         -4   -1    0    0    0  501 -0.00000000000E+00  0.00000000000E+00  0.67516584365E+02  0.67528527781E+02  0.12700000000E+01 0.  1.
         21   -1    0    0  501  502  0.00000000000E+00 -0.00000000000E+00 -0.39926047359E+03  0.39926047359E+03  0.00000000000E+00 0. -1.
         25    2    1    2    0    0 -0.20302355233E+02  0.32531283909E+02  0.20814029409E+01  0.13076607261E+03  0.12499985379E+03 0.  0.
    9000005    1    3    3    0    0  0.12033400772E+02  0.50454766935E+02 -0.46527280844E+02  0.69686972265E+02  0.10000000000E+01 0.  0.
    9000005    1    3    3    0    0 -0.32335756005E+02 -0.17923483027E+02  0.48608683785E+02  0.61079100350E+02  0.10000000000E+01 0.  0.
         -4    1    1    2    0  502  0.20302355233E+02 -0.32531283909E+02 -0.33382529217E+03  0.33602292876E+03  0.12700000000E+01 0. -1.
<mgrwt>
<rscale>  1 0.13074951E+03</rscale>
<asrwt>0</asrwt>
<pdfrwt beam="2">  1       21 0.61424687E-01 0.13074951E+03</pdfrwt>
<pdfrwt beam="1">  1       -4 0.10388241E-01 0.13074951E+03</pdfrwt>
<totfact> 0.72207427E+03</totfact>
</mgrwt>
</event>
<event>
 6    4  0.6093247E-003  0.1480774E+03  0.7818608E-02  0.1202856E+00
         21   -1    0    0  501  502  0.00000000000E+00  0.00000000000E+00  0.13243257032E+03  0.13243257032E+03  0.00000000000E+00 0. -1.
          4   -1    0    0  502    0 -0.00000000000E+00 -0.00000000000E+00 -0.17946543118E+03  0.17946992475E+03  0.12700000000E+01 0.  1.
         25    2    1    2    0    0  0.97044469423E+00  0.79376044992E+02 -0.13001727027E+03  0.19705684480E+03  0.12500164491E+03 0.  0.
    9000005    1    3    3    0    0 -0.24725023636E+01  0.63655907743E+01 -0.12347334607E+03  0.12366608752E+03  0.10000000000E+01 0.  0.
    9000005    1    3    3    0    0  0.34429470579E+01  0.73010454218E+02 -0.65439242044E+01  0.73390757276E+02  0.10000000000E+01 0.  0.
          4    1    1    2  501    0 -0.97044469423E+00 -0.79376044992E+02  0.82984409407E+02  0.11484565027E+03  0.12700000000E+01 0. -1.
<mgrwt>
<rscale>  1 0.14807738E+03</rscale>
<asrwt>0</asrwt>
<pdfrwt beam="1">  1       21 0.20374242E-01 0.14807738E+03</pdfrwt>
<pdfrwt beam="2">  1        4 0.27610880E-01 0.14807738E+03</pdfrwt>
<totfact> 0.11447720E+04</totfact>
</mgrwt>
</event>
<event>
 6    4  0.6093247E-003  0.1267998E+03  0.7818608E-02  0.1232283E+00
         21   -1    0    0  501  502  0.00000000000E+00  0.00000000000E+00  0.50063168480E+03  0.50063168480E+03  0.00000000000E+00 0. -1.
          4   -1    0    0  502    0 -0.00000000000E+00 -0.00000000000E+00 -0.24537138727E+02  0.24569983250E+02  0.12700000000E+01 0.  1.
         25    2    1    2    0    0  0.16173316167E+02 -0.13850275887E+02  0.14178990491E+03  0.19021717243E+03  0.12499915703E+03 0.  0.
    9000005    1    3    3    0    0  0.59370570526E+02 -0.22934409526E+02  0.12963726768E+03  0.14442185761E+03  0.10000000000E+01 0.  0.
    9000005    1    3    3    0    0 -0.43197254359E+02  0.90841336387E+01  0.12152637231E+02  0.45795314824E+02  0.10000000000E+01 0.  0.
          4    1    1    2  501    0 -0.16173316167E+02  0.13850275887E+02  0.33430464116E+03  0.33498449561E+03  0.12700000000E+01 0. -1.
<mgrwt>
<rscale>  1 0.12679982E+03</rscale>
<asrwt>0</asrwt>
<pdfrwt beam="1">  1       21 0.77020252E-01 0.12679982E+03</pdfrwt>
<pdfrwt beam="2">  1        4 0.37775952E-02 0.12679982E+03</pdfrwt>
<totfact> 0.22915954E+04</totfact>
</mgrwt>
</event>
<event>
 6    4  0.6093247E-003  0.1308722E+03  0.7818608E-02  0.1226167E+00
         21   -1    0    0  501  502  0.00000000000E+00  0.00000000000E+00  0.85286636571E+02  0.85286636571E+02  0.00000000000E+00 0.  1.
         -4   -1    0    0    0  501 -0.00000000000E+00 -0.00000000000E+00 -0.15914899016E+03  0.15915405734E+03  0.12700000000E+01 0.  1.
         25    2    1    2    0    0 -0.38366383620E+02  0.56386064787E+01 -0.12451076254E+03  0.18063906772E+03  0.12499507800E+03 0.  0.
    9000005    1    3    3    0    0 -0.61480859009E+02  0.49523510286E+02 -0.92430922831E+02  0.12156047709E+03  0.10000000000E+01 0.  0.
    9000005    1    3    3    0    0  0.23114475389E+02 -0.43884903808E+02 -0.32079839708E+02  0.59078590627E+02  0.10000000000E+01 0.  0.
         -4    1    1    2    0  502  0.38366383620E+02 -0.56386064787E+01  0.50648408955E+02  0.63801626192E+02  0.12700000000E+01 0. -1.
<mgrwt>
<rscale>  1 0.13087224E+03</rscale>
<asrwt>0</asrwt>
<pdfrwt beam="1">  1       21 0.13121021E-01 0.13087224E+03</pdfrwt>
<pdfrwt beam="2">  1       -4 0.24485577E-01 0.13087224E+03</pdfrwt>
<totfact> 0.31495438E+04</totfact>
</mgrwt>
</event>
<event>
 6    4  0.6093247E-003  0.1431855E+03  0.7818608E-02  0.1209106E+00
         21   -1    0    0  501  502  0.00000000000E+00  0.00000000000E+00  0.66877204560E+02  0.66877204560E+02  0.00000000000E+00 0.  1.
          4   -1    0    0  502    0 -0.00000000000E+00 -0.00000000000E+00 -0.32622184377E+03  0.32622431586E+03  0.12700000000E+01 0. -1.
         25    2    1    2    0    0  0.35591453180E+02  0.60087975498E+02 -0.28479210799E+03  0.31876106773E+03  0.12499902875E+03 0.  0.
    9000005    1    3    3    0    0  0.41608261121E+02  0.94181796964E+02 -0.16897710995E+03  0.19787804820E+03  0.10000000000E+01 0.  0.
    9000005    1    3    3    0    0 -0.60168079407E+01 -0.34093821466E+02 -0.11581499803E+03  0.12088301953E+03  0.10000000000E+01 0.  0.
          4    1    1    2  501    0 -0.35591453180E+02 -0.60087975498E+02  0.25447468772E+02  0.74340452688E+02  0.12700000000E+01 0.  1.
<mgrwt>
<rscale>  1 0.14318545E+03</rscale>
<asrwt>0</asrwt>
<pdfrwt beam="1">  1       21 0.10288801E-01 0.14318545E+03</pdfrwt>
<pdfrwt beam="2">  1        4 0.50189093E-01 0.14318545E+03</pdfrwt>
<totfact> 0.12197251E+04</totfact>
</mgrwt>
</event>
<event>
 6    4  0.6093247E-003  0.1276824E+03  0.7818608E-02  0.1230936E+00
         21   -1    0    0  501  502  0.00000000000E+00  0.00000000000E+00  0.13904357493E+03  0.13904357493E+03  0.00000000000E+00 0. -1.
          4   -1    0    0  502    0 -0.00000000000E+00 -0.00000000000E+00 -0.53470699051E+02  0.53485779017E+02  0.12700000000E+01 0. -1.
         25    2    1    2    0    0 -0.19764076297E+02 -0.16920196775E+02  0.30007310038E+02  0.13116114737E+03  0.12500358456E+03 0.  0.
    9000005    1    3    3    0    0  0.47385617626E+02 -0.23553390691E+02  0.35065091833E+02  0.63487948747E+02  0.10000000000E+01 0.  0.
    9000005    1    3    3    0    0 -0.67149693924E+02  0.66331939165E+01 -0.50577817948E+01  0.67673198626E+02  0.10000000000E+01 0.  0.
          4    1    1    2  501    0  0.19764076297E+02  0.16920196775E+02  0.55565565837E+02  0.61368206570E+02  0.12700000000E+01 0.  1.
<mgrwt>
<rscale>  1 0.12768245E+03</rscale>
<asrwt>0</asrwt>
<pdfrwt beam="1">  1       21 0.21391319E-01 0.12768245E+03</pdfrwt>
<pdfrwt beam="2">  1        4 0.82278676E-02 0.12768245E+03</pdfrwt>
<totfact> 0.85986254E+04</totfact>
</mgrwt>
</event>
<event>
 6    4  0.6093247E-003  0.1314302E+03  0.7818608E-02  0.1225349E+00
          4   -1    0    0  502    0 -0.00000000000E+00  0.00000000000E+00  0.20760626399E+03  0.20761014847E+03  0.12700000000E+01 0.  1.
         21   -1    0    0  501  502  0.00000000000E+00 -0.00000000000E+00 -0.67872433043E+02  0.67872433043E+02  0.00000000000E+00 0. -1.
         25    2    1    2    0    0  0.36365545450E+02  0.17997336319E+02  0.17694276523E+03  0.22041467161E+03  0.12501011273E+03 0.  0.
    9000005    1    3    3    0    0  0.59119209203E+02  0.37267397627E+02  0.17729990826E+03  0.19057858561E+03  0.10000000000E+01 0.  0.
    9000005    1    3    3    0    0 -0.22753663753E+02 -0.19270061307E+02 -0.35714303252E+00  0.29836086006E+02  0.10000000000E+01 0.  0.
          4    1    1    2  501    0 -0.36365545450E+02 -0.17997336319E+02 -0.37208934281E+02  0.55067909900E+02  0.12700000000E+01 0. -1.
<mgrwt>
<rscale>  1 0.13143015E+03</rscale>
<asrwt>0</asrwt>
<pdfrwt beam="2">  1       21 0.10441913E-01 0.13143015E+03</pdfrwt>
<pdfrwt beam="1">  1        4 0.31940638E-01 0.13143015E+03</pdfrwt>
<totfact> 0.28702368E+04</totfact>
</mgrwt>
</event>
<event>
 6    4  0.6093247E-003  0.1276979E+03  0.7818608E-02  0.1230912E+00
          4   -1    0    0  502    0 -0.00000000000E+00  0.00000000000E+00  0.36295811378E+02  0.36318023399E+02  0.12700000000E+01 0.  1.
         21   -1    0    0  501  502  0.00000000000E+00 -0.00000000000E+00 -0.20546878060E+03  0.20546878060E+03  0.00000000000E+00 0.  1.
         25    2    1    2    0    0  0.17212978609E+02 -0.19611217012E+02 -0.84373648564E+02  0.15305448661E+03  0.12500350729E+03 0.  0.
    9000005    1    3    3    0    0  0.27341371832E+02 -0.70588343065E+02 -0.50946732358E+02  0.91251489458E+02  0.10000000000E+01 0.  0.
    9000005    1    3    3    0    0 -0.10128393223E+02  0.50977126053E+02 -0.33426916206E+02  0.61802997151E+02  0.10000000000E+01 0.  0.
          4    1    1    2  501    0 -0.17212978609E+02  0.19611217012E+02 -0.84799320657E+02  0.88732317389E+02  0.12700000000E+01 0. -1.
<mgrwt>
<rscale>  1 0.12769794E+03</rscale>
<asrwt>0</asrwt>
<pdfrwt beam="2">  1       21 0.31610582E-01 0.12769794E+03</pdfrwt>
<pdfrwt beam="1">  1        4 0.55859814E-02 0.12769794E+03</pdfrwt>
<totfact> 0.77212122E+04</totfact>
</mgrwt>
</event>
<event>
 6    4  0.6093247E-003  0.1303171E+03  0.7818608E-02  0.1226986E+00
         -4   -1    0    0    0  501 -0.00000000000E+00  0.00000000000E+00  0.11584650310E+03  0.11585346426E+03  0.12700000000E+01 0.  1.
         21   -1    0    0  501  502  0.00000000000E+00 -0.00000000000E+00 -0.62547111171E+02  0.62547111171E+02  0.00000000000E+00 0.  1.
         25    2    1    2    0    0  0.36780954993E+02  0.19517143536E+01  0.26894964893E+02  0.13306345481E+03  0.12500358406E+03 0.  0.
    9000005    1    3    3    0    0 -0.26350360901E+02 -0.11397119028E+02  0.55483903004E+02  0.62479591342E+02  0.10000000000E+01 0.  0.
    9000005    1    3    3    0    0  0.63131315894E+02  0.13348833381E+02 -0.28588938111E+02  0.70583863464E+02  0.10000000000E+01 0.  0.
         -4    1    1    2    0  502 -0.36780954993E+02 -0.19517143536E+01  0.26404427033E+02  0.45337120620E+02  0.12700000000E+01 0. -1.
<mgrwt>
<rscale>  1 0.13031709E+03</rscale>
<asrwt>0</asrwt>
<pdfrwt beam="2">  1       21 0.96226325E-02 0.13031709E+03</pdfrwt>
<pdfrwt beam="1">  1       -4 0.17824066E-01 0.13031709E+03</pdfrwt>
<totfact> 0.96547855E+04</totfact>
</mgrwt>
</event>
<event>
 6    4  0.6093247E-003  0.1269391E+03  0.7818608E-02  0.1232070E+00
         -4   -1    0    0    0  501 -0.00000000000E+00  0.00000000000E+00  0.79476500719E+03  0.79476602189E+03  0.12700000000E+01 0.  1.
         21   -1    0    0  501  502  0.00000000000E+00 -0.00000000000E+00 -0.15331104146E+02  0.15331104146E+02  0.00000000000E+00 0. -1.
         25    2    1    2    0    0  0.20275412531E+02 -0.88329555064E+01  0.77757350715E+03  0.78786679925E+03  0.12499768348E+03 0.  0.
    9000005    1    3    3    0    0  0.16499498122E+02 -0.43604258359E+02  0.71214232664E+03  0.71366747030E+03  0.10000000000E+01 0.  0.
    9000005    1    3    3    0    0  0.37759144089E+01  0.34771302853E+02  0.65431180516E+02  0.74199328942E+02  0.10000000000E+01 0.  0.
         -4    1    1    2    0  502 -0.20275412531E+02  0.88329555064E+01  0.18603958910E+01  0.22230326789E+02  0.12700000000E+01 0. -1.
<mgrwt>
<rscale>  1 0.12693910E+03</rscale>
<asrwt>0</asrwt>
<pdfrwt beam="2">  1       21 0.23586320E-02 0.12693910E+03</pdfrwt>
<pdfrwt beam="1">  1       -4 0.12227563E+00 0.12693910E+03</pdfrwt>
<totfact> 0.20109646E+04</totfact>
</mgrwt>
</event>
<event>
 6    4  0.6093247E-003  0.1333866E+03  0.7818608E-02  0.1222515E+00
         21   -1    0    0  501  502  0.00000000000E+00  0.00000000000E+00  0.19885373808E+02  0.19885373808E+02  0.00000000000E+00 0.  1.
         -4   -1    0    0    0  501 -0.00000000000E+00 -0.00000000000E+00 -0.57896985374E+03  0.57897124665E+03  0.12700000000E+01 0. -1.
         25    2    1    2    0    0 -0.42809250137E+02 -0.18282745292E+02 -0.52356546992E+03  0.54028953375E+03  0.12500035325E+03 0.  0.
    9000005    1    3    3    0    0  0.71784370036E+01  0.29387608512E+02 -0.32589261357E+02  0.44477201437E+02  0.10000000000E+01 0.  0.
    9000005    1    3    3    0    0 -0.49987687141E+02 -0.47670353804E+02 -0.49097620856E+03  0.49581233231E+03  0.10000000000E+01 0.  0.
         -4    1    1    2    0  502  0.42809250137E+02  0.18282745292E+02 -0.35519010014E+02  0.58567086705E+02  0.12700000000E+01 0.  1.
<mgrwt>
<rscale>  1 0.13338658E+03</rscale>
<asrwt>0</asrwt>
<pdfrwt beam="1">  1       21 0.30592890E-02 0.13338658E+03</pdfrwt>
<pdfrwt beam="2">  1       -4 0.89075492E-01 0.13338658E+03</pdfrwt>
<totfact> 0.27669886E+04</totfact>
</mgrwt>
</event>
<event>
 6    4  0.6093247E-003  0.1319846E+03  0.7818608E-02  0.1224540E+00
         21   -1    0    0  501  502  0.00000000000E+00  0.00000000000E+00  0.23110416879E+02  0.23110416879E+02  0.00000000000E+00 0.  1.
          4   -1    0    0  502    0 -0.00000000000E+00 -0.00000000000E+00 -0.65626198274E+03  0.65626321159E+03  0.12700000000E+01 0. -1.
         25    2    1    2    0    0  0.36507854509E+02  0.21544926835E+02 -0.62154506859E+03  0.63540396857E+03  0.12499169441E+03 0.  0.
    9000005    1    3    3    0    0 -0.83899639233E+01 -0.47495745300E+02 -0.18698442098E+03  0.19310725260E+03  0.10000000000E+01 0.  0.
    9000005    1    3    3    0    0  0.44897818433E+02  0.69040672135E+02 -0.43456064761E+03  0.44229671597E+03  0.10000000000E+01 0.  0.
          4    1    1    2  501    0 -0.36507854509E+02 -0.21544926835E+02 -0.11606497275E+02  0.43969659905E+02  0.12700000000E+01 0.  1.
<mgrwt>
<rscale>  1 0.13198459E+03</rscale>
<asrwt>0</asrwt>
<pdfrwt beam="1">  1       21 0.35554489E-02 0.13198459E+03</pdfrwt>
<pdfrwt beam="2">  1        4 0.10096616E+00 0.13198459E+03</pdfrwt>
<totfact> 0.16206131E+04</totfact>
</mgrwt>
</event>
<event>
 6    4  0.6093247E-003  0.1276262E+03  0.7818608E-02  0.1231021E+00
         -4   -1    0    0    0  501 -0.00000000000E+00  0.00000000000E+00  0.42938137167E+01  0.44776931822E+01  0.12700000000E+01 0. -1.
         21   -1    0    0  501  502  0.00000000000E+00 -0.00000000000E+00 -0.16507390202E+04  0.16507390202E+04  0.00000000000E+00 0.  1.
         25    2    1    2    0    0 -0.24785117211E+02 -0.70008627280E+01 -0.98034895045E+03  0.98862152189E+03  0.12500053915E+03 0.  0.
    9000005    1    3    3    0    0  0.18424088530E+02  0.14783904883E+02 -0.83677281011E+03  0.83710677134E+03  0.10000000000E+01 0.  0.
    9000005    1    3    3    0    0 -0.43209205741E+02 -0.21784767611E+02 -0.14357614034E+03  0.15151475055E+03  0.10000000000E+01 0.  0.
         -4    1    1    2    0  502  0.24785117211E+02  0.70008627280E+01 -0.66609625599E+03  0.66659519145E+03  0.12700000000E+01 0.  1.
<mgrwt>
<rscale>  1 0.12762621E+03</rscale>
<asrwt>0</asrwt>
<pdfrwt beam="2">  1       21 0.25396007E+00 0.12762621E+03</pdfrwt>
<pdfrwt beam="1">  1       -4 0.67476829E-03 0.12762621E+03</pdfrwt>
<totfact> 0.14187861E+04</totfact>
</mgrwt>
</event>
<event>
 6    4  0.6093247E-003  0.1373792E+03  0.7818608E-02  0.1216900E+00
          4   -1    0    0  502    0 -0.00000000000E+00  0.00000000000E+00  0.14017456436E+03  0.14018031742E+03  0.12700000000E+01 0. -1.
         21   -1    0    0  501  502  0.00000000000E+00 -0.00000000000E+00 -0.67462932019E+02  0.67462932019E+02  0.00000000000E+00 0. -1.
         25    2    1    2    0    0  0.56930005693E+02  0.26756804501E+01  0.48193174540E+02  0.14558720633E+03  0.12499947104E+03 0.  0.
    9000005    1    3    3    0    0  0.25289851229E+02 -0.11417751607E+02 -0.41217135262E+02  0.49697020697E+02  0.10000000000E+01 0.  0.
    9000005    1    3    3    0    0  0.31640154464E+02  0.14093432057E+02  0.89410309801E+02  0.95890185631E+02  0.10000000000E+01 0.  0.
          4    1    1    2  501    0 -0.56930005693E+02 -0.26756804501E+01  0.24518457798E+02  0.62056043113E+02  0.12700000000E+01 0.  1.
<mgrwt>
<rscale>  1 0.13737923E+03</rscale>
<asrwt>0</asrwt>
<pdfrwt beam="2">  1       21 0.10378913E-01 0.13737923E+03</pdfrwt>
<pdfrwt beam="1">  1        4 0.21566680E-01 0.13737923E+03</pdfrwt>
<totfact> 0.60486992E+04</totfact>
</mgrwt>
</event>
<event>
 6    4  0.6093247E-003  0.1270656E+03  0.7818608E-02  0.1231876E+00
         -4   -1    0    0    0  501 -0.00000000000E+00  0.00000000000E+00  0.12278940403E+02  0.12344443180E+02  0.12700000000E+01 0.  1.
         21   -1    0    0  501  502  0.00000000000E+00 -0.00000000000E+00 -0.47126009757E+03  0.47126009757E+03  0.00000000000E+00 0. -1.
         25    2    1    2    0    0  0.16611355314E+02  0.15656978289E+02 -0.35265649189E+03  0.37484965378E+03  0.12499833426E+03 0.  0.
    9000005    1    3    3    0    0 -0.38846859172E+02 -0.11801956224E+01 -0.36179006860E+02  0.53107361699E+02  0.10000000000E+01 0.  0.
    9000005    1    3    3    0    0  0.55458214486E+02  0.16837173912E+02 -0.31647748503E+03  0.32174229208E+03  0.10000000000E+01 0.  0.
         -4    1    1    2    0  502 -0.16611355314E+02 -0.15656978289E+02 -0.10632466528E+03  0.10875488697E+03  0.12700000000E+01 0. -1.
<mgrwt>
<rscale>  1 0.12706558E+03</rscale>
<asrwt>0</asrwt>
<pdfrwt beam="2">  1       21 0.72501542E-01 0.12706558E+03</pdfrwt>
<pdfrwt beam="1">  1       -4 0.18942384E-02 0.12706558E+03</pdfrwt>
<totfact> 0.76719341E+04</totfact>
</mgrwt>
</event>
<event>
 6    4  0.6093247E-003  0.1283514E+03  0.7818608E-02  0.1229923E+00
         21   -1    0    0  501  502  0.00000000000E+00  0.00000000000E+00  0.79760791362E+02  0.79760791362E+02  0.00000000000E+00 0.  1.
          4   -1    0    0  502    0 -0.00000000000E+00 -0.00000000000E+00 -0.26952196478E+03  0.26952495691E+03  0.12700000000E+01 0. -1.
         25    2    1    2    0    0  0.25915492598E+02 -0.13301117449E+02 -0.25074715743E+03  0.28168814751E+03  0.12500217200E+03 0.  0.
    9000005    1    3    3    0    0  0.52914564821E+02  0.98948995637E+01 -0.23776746152E+03  0.24378725554E+03  0.10000000000E+01 0.  0.
    9000005    1    3    3    0    0 -0.26999072222E+02 -0.23196017012E+02 -0.12979695918E+02  0.37900891971E+02  0.10000000000E+01 0.  0.
          4    1    1    2  501    0 -0.25915492598E+02  0.13301117449E+02  0.60985984019E+02  0.67597600762E+02  0.12700000000E+01 0.  1.
<mgrwt>
<rscale>  1 0.12835138E+03</rscale>
<asrwt>0</asrwt>
<pdfrwt beam="1">  1       21 0.12270891E-01 0.12835138E+03</pdfrwt>
<pdfrwt beam="2">  1        4 0.41465924E-01 0.12835138E+03</pdfrwt>
<totfact> 0.12980858E+04</totfact>
</mgrwt>
</event>
<event>
 6    4  0.6093247E-003  0.1696496E+03  0.7818608E-02  0.1178214E+00
         21   -1    0    0  501  502  0.00000000000E+00  0.00000000000E+00  0.23097504971E+02  0.23097504971E+02  0.00000000000E+00 0. -1.
         -4   -1    0    0    0  501 -0.00000000000E+00 -0.00000000000E+00 -0.13599796893E+04  0.13599802823E+04  0.12700000000E+01 0.  1.
         25    2    1    2    0    0  0.98687042015E+02 -0.58448744118E+02 -0.11594644748E+04  0.11718100791E+04  0.12500242092E+03 0.  0.
    9000005    1    3    3    0    0  0.10650489778E+03 -0.81638883368E+02 -0.77238700644E+03  0.78395847355E+03  0.10000000000E+01 0.  0.
    9000005    1    3    3    0    0 -0.78178557689E+01  0.23190139250E+02 -0.38707746837E+03  0.38785160558E+03  0.10000000000E+01 0.  0.
         -4    1    1    2    0  502 -0.98687042015E+02  0.58448744118E+02 -0.17741770954E+03  0.21126770815E+03  0.12700000000E+01 0. -1.
<mgrwt>
<rscale>  1 0.16964962E+03</rscale>
<asrwt>0</asrwt>
<pdfrwt beam="1">  1       21 0.35534629E-02 0.16964962E+03</pdfrwt>
<pdfrwt beam="2">  1       -4 0.20923034E+00 0.16964962E+03</pdfrwt>
<totfact> 0.25466535E+03</totfact>
</mgrwt>
</event>
<event>
 6    4  0.6093247E-003  0.1276814E+03  0.7818608E-02  0.1230937E+00
         -4   -1    0    0    0  501 -0.00000000000E+00  0.00000000000E+00  0.37460808702E+02  0.37482330351E+02  0.12700000000E+01 0. -1.
         21   -1    0    0  501  502  0.00000000000E+00 -0.00000000000E+00 -0.38872050198E+03  0.38872050198E+03  0.00000000000E+00 0.  1.
         25    2    1    2    0    0  0.16225109426E+02 -0.20292434789E+02 -0.73696858196E+02  0.14742374882E+03  0.12500999049E+03 0.  0.
    9000005    1    3    3    0    0  0.55222029343E+02 -0.51173517320E+02 -0.58661114986E+02  0.95448037230E+02  0.10000000000E+01 0.  0.
    9000005    1    3    3    0    0 -0.38996919916E+02  0.30881082531E+02 -0.15035743210E+02  0.51975711588E+02  0.10000000000E+01 0.  0.
         -4    1    1    2    0  502 -0.16225109426E+02  0.20292434789E+02 -0.27756283508E+03  0.27877908351E+03  0.12700000000E+01 0.  1.
<mgrwt>
<rscale>  1 0.12768138E+03</rscale>
<asrwt>0</asrwt>
<pdfrwt beam="2">  1       21 0.59803156E-01 0.12768138E+03</pdfrwt>
<pdfrwt beam="1">  1       -4 0.57650163E-02 0.12768138E+03</pdfrwt>
<totfact> 0.20183543E+04</totfact>
</mgrwt>
</event>
<event>
 6    4  0.6093247E-003  0.1400581E+03  0.7818608E-02  0.1213251E+00
          4   -1    0    0  502    0 -0.00000000000E+00  0.00000000000E+00  0.17045509703E+03  0.17045982812E+03  0.12700000000E+01 0. -1.
         21   -1    0    0  501  502  0.00000000000E+00 -0.00000000000E+00 -0.92586316930E+02  0.92586316930E+02  0.00000000000E+00 0.  1.
         25    2    1    2    0    0 -0.17209146068E+02  0.60780819821E+02  0.12219064867E+03  0.18586775623E+03  0.12500322164E+03 0.  0.
    9000005    1    3    3    0    0 -0.36157285999E+02 -0.18681226458E+02  0.88657058203E+02  0.97557221783E+02  0.10000000000E+01 0.  0.
    9000005    1    3    3    0    0  0.18948139931E+02  0.79462046279E+02  0.33533590466E+02  0.88310534452E+02  0.10000000000E+01 0.  0.
          4    1    1    2  501    0  0.17209146068E+02 -0.60780819821E+02 -0.44321868571E+02  0.77178388815E+02  0.12700000000E+01 0.  1.
<mgrwt>
<rscale>  1 0.14005809E+03</rscale>
<asrwt>0</asrwt>
<pdfrwt beam="2">  1       21 0.14244049E-01 0.14005809E+03</pdfrwt>
<pdfrwt beam="1">  1        4 0.26224895E-01 0.14005809E+03</pdfrwt>
<totfact> 0.24118230E+04</totfact>
</mgrwt>
</event>
<event>
 6    4  0.6093247E-003  0.1267269E+03  0.7818608E-02  0.1232395E+00
         -4   -1    0    0    0  501 -0.00000000000E+00  0.00000000000E+00  0.85929532692E+03  0.85929626542E+03  0.12700000000E+01 0. -1.
         21   -1    0    0  501  502  0.00000000000E+00 -0.00000000000E+00 -0.21310992587E+02  0.21310992587E+02  0.00000000000E+00 0. -1.
         25    2    1    2    0    0  0.42896854484E+01  0.20496005397E+02  0.84796023827E+03  0.85737755293E+03  0.12498485886E+03 0.  0.
    9000005    1    3    3    0    0 -0.23934443524E+02 -0.34817288728E+02  0.60946314925E+03  0.61092669894E+03  0.10000000000E+01 0.  0.
    9000005    1    3    3    0    0  0.28224128972E+02  0.55313294125E+02  0.23849708902E+03  0.24645085399E+03  0.10000000000E+01 0.  0.
         -4    1    1    2    0  502 -0.42896854484E+01 -0.20496005397E+02 -0.99759039383E+01  0.23229705074E+02  0.12700000000E+01 0.  1.
<mgrwt>
<rscale>  1 0.12672688E+03</rscale>
<asrwt>0</asrwt>
<pdfrwt beam="2">  1       21 0.32786149E-02 0.12672688E+03</pdfrwt>
<pdfrwt beam="1">  1       -4 0.13220224E+00 0.12672688E+03</pdfrwt>
<totfact> 0.97082866E+03</totfact>
</mgrwt>
</event>
<event>
 6    4  0.6093247E-003  0.1267349E+03  0.7818608E-02  0.1232383E+00
         -4   -1    0    0    0  501 -0.00000000000E+00  0.00000000000E+00  0.75658890172E+03  0.75658996763E+03  0.12700000000E+01 0. -1.
         21   -1    0    0  501  502  0.00000000000E+00 -0.00000000000E+00 -0.98751508483E+01  0.98751508483E+01  0.00000000000E+00 0.  1.
         25    2    1    2    0    0 -0.20604932201E+02  0.34748711792E+01  0.72612799854E+03  0.73710487222E+03  0.12500033773E+03 0.  0.
    9000005    1    3    3    0    0 -0.23301769467E+02  0.40838756000E+02  0.10743125360E+03  0.11727425421E+03  0.10000000000E+01 0.  0.
    9000005    1    3    3    0    0  0.26968372661E+01 -0.37363884821E+02  0.61869674494E+03  0.61983061800E+03  0.10000000000E+01 0.  0.
         -4    1    1    2    0  502  0.20604932201E+02 -0.34748711792E+01  0.20585752340E+02  0.29360246254E+02  0.12700000000E+01 0.  1.
<mgrwt>
<rscale>  1 0.12673485E+03</rscale>
<asrwt>0</asrwt>
<pdfrwt beam="2">  1       21 0.15192546E-02 0.12673485E+03</pdfrwt>
<pdfrwt beam="1">  1       -4 0.11640461E+00 0.12673485E+03</pdfrwt>
<totfact> 0.45924502E+04</totfact>
</mgrwt>
</event>
<event>
 6    4  0.6093247E-003  0.1277236E+03  0.7818608E-02  0.1230873E+00
          4   -1    0    0  502    0 -0.00000000000E+00  0.00000000000E+00  0.15422658496E+04  0.15422663725E+04  0.12700000000E+01 0.  1.
         21   -1    0    0  501  502  0.00000000000E+00 -0.00000000000E+00 -0.46688814744E+01  0.46688814744E+01  0.00000000000E+00 0.  1.
         25    2    1    2    0    0  0.21470711725E+02 -0.15065031102E+02  0.14465312528E+04  0.14521590754E+04  0.12500147281E+03 0.  0.
    9000005    1    3    3    0    0 -0.10645877841E+01 -0.18245372001E+02  0.14021793815E+04  0.14022988429E+04  0.10000000000E+01 0.  0.
    9000005    1    3    3    0    0  0.22535299509E+02  0.31803408990E+01  0.44351871369E+02  0.49860232512E+02  0.10000000000E+01 0.  0.
          4    1    1    2  501    0 -0.21470711725E+02  0.15065031102E+02  0.91065715254E+02  0.94776178541E+02  0.12700000000E+01 0. -1.
<mgrwt>
<rscale>  1 0.12772359E+03</rscale>
<asrwt>0</asrwt>
<pdfrwt beam="2">  1       21 0.71829069E-03 0.12772359E+03</pdfrwt>
<pdfrwt beam="1">  1        4 0.23728459E+00 0.12772359E+03</pdfrwt>
<totfact> 0.22245228E+04</totfact>
</mgrwt>
</event>
<event>
 6    4  0.6093247E-003  0.1269789E+03  0.7818608E-02  0.1232009E+00
          4   -1    0    0  502    0 -0.00000000000E+00  0.00000000000E+00  0.33840106087E+04  0.33840108470E+04  0.12700000000E+01 0.  1.
         21   -1    0    0  501  502  0.00000000000E+00 -0.00000000000E+00 -0.23688853865E+01  0.23688853865E+01  0.00000000000E+00 0.  1.
         25    2    1    2    0    0  0.56458715499E+01  0.21598045490E+02  0.32729339576E+04  0.32753962081E+04  0.12500111169E+03 0.  0.
    9000005    1    3    3    0    0 -0.46130536134E+01 -0.51015363056E+02  0.10446028436E+04  0.10458584744E+04  0.10000000000E+01 0.  0.
    9000005    1    3    3    0    0  0.10258925163E+02  0.72613408546E+02  0.22283311140E+04  0.22295377337E+04  0.10000000000E+01 0.  0.
          4    1    1    2  501    0 -0.56458715499E+01 -0.21598045490E+02  0.10870776567E+03  0.11098352424E+03  0.12700000000E+01 0. -1.
<mgrwt>
<rscale>  1 0.12697885E+03</rscale>
<asrwt>0</asrwt>
<pdfrwt beam="2">  1       21 0.36444662E-03 0.12697885E+03</pdfrwt>
<pdfrwt beam="1">  1        4 0.52063935E+00 0.12697885E+03</pdfrwt>
<totfact> 0.90339623E+02</totfact>
</mgrwt>
</event>
<event>
 6    4  0.6093247E-003  0.1294429E+03  0.7818608E-02  0.1228285E+00
         21   -1    0    0  501  502  0.00000000000E+00  0.00000000000E+00  0.59677268169E+02  0.59677268169E+02  0.00000000000E+00 0.  1.
         -4   -1    0    0    0  501 -0.00000000000E+00 -0.00000000000E+00 -0.16385513597E+03  0.16386005762E+03  0.12700000000E+01 0.  1.
         25    2    1    2    0    0 -0.30256343516E+02  0.14672739632E+02 -0.12820711607E+03  0.18218816276E+03  0.12499890571E+03 0.  0.
    9000005    1    3    3    0    0 -0.23621751396E+02  0.11102714534E+02 -0.15353683604E+03  0.15574279255E+03  0.10000000000E+01 0.  0.
    9000005    1    3    3    0    0 -0.66345921197E+01  0.35700250984E+01  0.25329719972E+02  0.26445370212E+02  0.10000000000E+01 0.  0.
         -4    1    1    2    0  502  0.30256343516E+02 -0.14672739632E+02  0.24029248267E+02  0.41349163033E+02  0.12700000000E+01 0. -1.
<mgrwt>
<rscale>  1 0.12944289E+03</rscale>
<asrwt>0</asrwt>
<pdfrwt beam="1">  1       21 0.91811181E-02 0.12944289E+03</pdfrwt>
<pdfrwt beam="2">  1       -4 0.25209901E-01 0.12944289E+03</pdfrwt>
<totfact> 0.55902776E+04</totfact>
</mgrwt>
</event>
<event>
 6    4  0.6093247E-003  0.1292573E+03  0.7818608E-02  0.1228562E+00
          4   -1    0    0  502    0 -0.00000000000E+00  0.00000000000E+00  0.47493773234E+02  0.47510750321E+02  0.12700000000E+01 0.  1.
         21   -1    0    0  501  502  0.00000000000E+00 -0.00000000000E+00 -0.93048356300E+03  0.93048356300E+03  0.00000000000E+00 0. -1.
         25    2    1    2    0    0  0.26240975545E+02  0.19840400829E+02 -0.41349046390E+02  0.13570992898E+03  0.12500084353E+03 0.  0.
    9000005    1    3    3    0    0  0.65372629028E+02 -0.21794604661E+02 -0.75835779394E+01  0.69333224883E+02  0.10000000000E+01 0.  0.
    9000005    1    3    3    0    0 -0.39131653482E+02  0.41635005490E+02 -0.33765468451E+02  0.66376704092E+02  0.10000000000E+01 0.  0.
          4    1    1    2  501    0 -0.26240975545E+02 -0.19840400829E+02 -0.84164074338E+03  0.84228438435E+03  0.12700000000E+01 0. -1.
<mgrwt>
<rscale>  1 0.12925727E+03</rscale>
<asrwt>0</asrwt>
<pdfrwt beam="2">  1       21 0.14315131E+00 0.12925727E+03</pdfrwt>
<pdfrwt beam="1">  1        4 0.73081072E-02 0.12925727E+03</pdfrwt>
<totfact> 0.18219997E+03</totfact>
</mgrwt>
</event>
<event>
 6    4  0.6093247E-003  0.1293993E+03  0.7818608E-02  0.1228350E+00
          4   -1    0    0  502    0 -0.00000000000E+00  0.00000000000E+00  0.11762842401E+03  0.11763527972E+03  0.12700000000E+01 0. -1.
         21   -1    0    0  501  502  0.00000000000E+00 -0.00000000000E+00 -0.58593604915E+02  0.58593604915E+02  0.00000000000E+00 0. -1.
         25    2    1    2    0    0  0.15490482341E+02 -0.29656635554E+02  0.60219073700E+02  0.14272535595E+03  0.12499887727E+03 0.  0.
    9000005    1    3    3    0    0 -0.54095918994E+02 -0.72319265909E+01  0.14457641746E+02  0.56468509976E+02  0.10000000000E+01 0.  0.
    9000005    1    3    3    0    0  0.69586401335E+02 -0.22424708963E+02  0.45761431953E+02  0.86256845973E+02  0.10000000000E+01 0.  0.
          4    1    1    2  501    0 -0.15490482341E+02  0.29656635554E+02 -0.11842546049E+01  0.33503528687E+02  0.12700000000E+01 0.  1.
<mgrwt>
<rscale>  1 0.12939934E+03</rscale>
<asrwt>0</asrwt>
<pdfrwt beam="2">  1       21 0.90144008E-02 0.12939934E+03</pdfrwt>
<pdfrwt beam="1">  1        4 0.18098267E-01 0.12939934E+03</pdfrwt>
<totfact> 0.10517457E+05</totfact>
</mgrwt>
</event>
<event>
 6    4  0.6093247E-003  0.1276749E+03  0.7818608E-02  0.1230947E+00
         -4   -1    0    0    0  501 -0.00000000000E+00  0.00000000000E+00  0.18391761128E+03  0.18392199608E+03  0.12700000000E+01 0.  1.
         21   -1    0    0  501  502  0.00000000000E+00 -0.00000000000E+00 -0.43267467951E+02  0.43267467951E+02  0.00000000000E+00 0.  1.
         25    2    1    2    0    0  0.13495164358E+02  0.22205998505E+02  0.15225540729E+03  0.19870225844E+03  0.12500261048E+03 0.  0.
    9000005    1    3    3    0    0  0.24029721821E+01 -0.26713020911E+02  0.14564560064E+03  0.14809794309E+03  0.10000000000E+01 0.  0.
    9000005    1    3    3    0    0  0.11092192176E+02  0.48919019415E+02  0.66098066518E+01  0.50604315347E+02  0.10000000000E+01 0.  0.
         -4    1    1    2    0  502 -0.13495164358E+02 -0.22205998505E+02 -0.11605263960E+02  0.28487205588E+02  0.12700000000E+01 0. -1.
<mgrwt>
<rscale>  1 0.12767489E+03</rscale>
<asrwt>0</asrwt>
<pdfrwt beam="2">  1       21 0.66565336E-02 0.12767489E+03</pdfrwt>
<pdfrwt beam="1">  1       -4 0.28296788E-01 0.12767489E+03</pdfrwt>
<totfact> 0.78305126E+04</totfact>
</mgrwt>
</event>
<event>
 6    4  0.6093247E-003  0.1269111E+03  0.7818608E-02  0.1232112E+00
         -4   -1    0    0    0  501 -0.00000000000E+00  0.00000000000E+00  0.17958612849E+02  0.18003462875E+02  0.12700000000E+01 0. -1.
         21   -1    0    0  501  502  0.00000000000E+00 -0.00000000000E+00 -0.37625323965E+03  0.37625323965E+03  0.00000000000E+00 0. -1.
         25    2    1    2    0    0  0.20893551656E+02 -0.66301515686E+01 -0.34717549669E+03  0.36964476710E+03  0.12500371570E+03 0.  0.
    9000005    1    3    3    0    0 -0.14221456842E+02  0.53581445498E+02 -0.18478589316E+03  0.19292497881E+03  0.10000000000E+01 0.  0.
    9000005    1    3    3    0    0  0.35115008498E+02 -0.60211597067E+02 -0.16238960353E+03  0.17671978830E+03  0.10000000000E+01 0.  0.
         -4    1    1    2    0  502 -0.20893551656E+02  0.66301515686E+01 -0.11119130117E+02  0.24611935421E+02  0.12700000000E+01 0.  1.
<mgrwt>
<rscale>  1 0.12691110E+03</rscale>
<asrwt>0</asrwt>
<pdfrwt beam="2">  1       21 0.57885118E-01 0.12691110E+03</pdfrwt>
<pdfrwt beam="1">  1       -4 0.27664782E-02 0.12691110E+03</pdfrwt>
<totfact> 0.69301865E+04</totfact>
</mgrwt>
</event>
<event>
 6    4  0.6093247E-003  0.1291211E+03  0.7818608E-02  0.1228766E+00
          4   -1    0    0  502    0 -0.00000000000E+00  0.00000000000E+00  0.97354023640E+01  0.98178897523E+01  0.12700000000E+01 0.  1.
         21   -1    0    0  501  502  0.00000000000E+00 -0.00000000000E+00 -0.81425594039E+03  0.81425594039E+03  0.00000000000E+00 0. -1.
         25    2    1    2    0    0  0.80080708841E+01 -0.31355852073E+02 -0.45236430529E+03  0.47043143475E+03  0.12499980580E+03 0.  0.
    9000005    1    3    3    0    0 -0.24125751850E+02 -0.64393617326E+02 -0.36726382131E+03  0.37364729933E+03  0.10000000000E+01 0.  0.
    9000005    1    3    3    0    0  0.32133822734E+02  0.33037765254E+02 -0.85100483978E+02  0.96784135424E+02  0.10000000000E+01 0.  0.
          4    1    1    2  501    0 -0.80080708841E+01  0.31355852073E+02 -0.35215623274E+03  0.35364239539E+03  0.12700000000E+01 0. -1.
<mgrwt>
<rscale>  1 0.12912115E+03</rscale>
<asrwt>0</asrwt>
<pdfrwt beam="2">  1       21 0.12527020E+00 0.12912115E+03</pdfrwt>
<pdfrwt beam="1">  1        4 0.15041749E-02 0.12912115E+03</pdfrwt>
<totfact> 0.30750468E+04</totfact>
</mgrwt>
</event>
<event>
 6    4  0.6093247E-003  0.1276477E+03  0.7818608E-02  0.1230988E+00
          4   -1    0    0  502    0 -0.00000000000E+00  0.00000000000E+00  0.88765479398E+01  0.89669394627E+01  0.12700000000E+01 0. -1.
         21   -1    0    0  501  502  0.00000000000E+00 -0.00000000000E+00 -0.69074710998E+03  0.69074710998E+03  0.00000000000E+00 0. -1.
         25    2    1    2    0    0  0.19591413590E+02 -0.16997696187E+02 -0.61208245665E+03  0.62525105383E+03  0.12498480472E+03 0.  0.
    9000005    1    3    3    0    0  0.52703856115E+02 -0.24957672497E+02 -0.13634870802E+03  0.14829886057E+03  0.10000000000E+01 0.  0.
    9000005    1    3    3    0    0 -0.33112442525E+02  0.79599763096E+01 -0.47573374863E+03  0.47695219326E+03  0.10000000000E+01 0.  0.
          4    1    1    2  501    0 -0.19591413590E+02  0.16997696187E+02 -0.69788105389E+02  0.74462995615E+02  0.12700000000E+01 0.  1.
<mgrwt>
<rscale>  1 0.12764774E+03</rscale>
<asrwt>0</asrwt>
<pdfrwt beam="2">  1       21 0.10626880E+00 0.12764774E+03</pdfrwt>
<pdfrwt beam="1">  1        4 0.13726655E-02 0.12764774E+03</pdfrwt>
<totfact> 0.52531123E+04</totfact>
</mgrwt>
</event>
<event>
 6    4  0.6093247E-003  0.1299279E+03  0.7818608E-02  0.1227563E+00
         21   -1    0    0  501  502  0.00000000000E+00  0.00000000000E+00  0.20276240648E+04  0.20276240648E+04  0.00000000000E+00 0.  1.
          4   -1    0    0  502    0 -0.00000000000E+00 -0.00000000000E+00 -0.36753068970E+01  0.38885448161E+01  0.12700000000E+01 0.  1.
         25    2    1    2    0    0 -0.32658233361E+02  0.13784633521E+02  0.12460579666E+04  0.12528135198E+04  0.12499873213E+03 0.  0.
    9000005    1    3    3    0    0  0.25529782150E+02  0.29410382037E+02  0.14606054127E+03  0.15116686828E+03  0.10000000000E+01 0.  0.
    9000005    1    3    3    0    0 -0.58188015511E+02 -0.15625748516E+02  0.10999974253E+04  0.11016466516E+04  0.10000000000E+01 0.  0.
          4    1    1    2  501    0  0.32658233361E+02 -0.13784633521E+02  0.77789079128E+03  0.77869908976E+03  0.12700000000E+01 0. -1.
<mgrwt>
<rscale>  1 0.12992790E+03</rscale>
<asrwt>0</asrwt>
<pdfrwt beam="1">  1       21 0.31194130E+00 0.12992790E+03</pdfrwt>
<pdfrwt beam="2">  1        4 0.58186696E-03 0.12992790E+03</pdfrwt>
<totfact> 0.83237557E+03</totfact>
</mgrwt>
</event>
<event>
 6    4  0.6093247E-003  0.1280356E+03  0.7818608E-02  0.1230400E+00
         -4   -1    0    0    0  501 -0.00000000000E+00  0.00000000000E+00  0.16848788059E+02  0.16896584242E+02  0.12700000000E+01 0. -1.
         21   -1    0    0  501  502  0.00000000000E+00 -0.00000000000E+00 -0.46982042935E+03  0.46982042935E+03  0.00000000000E+00 0.  1.
         25    2    1    2    0    0 -0.10433139951E+02 -0.25662580706E+02 -0.24063513047E+03  0.27257728074E+03  0.12500275798E+03 0.  0.
    9000005    1    3    3    0    0  0.51916215007E+02  0.21405282352E+01 -0.15236229398E+03  0.16098181223E+03  0.10000000000E+01 0.  0.
    9000005    1    3    3    0    0 -0.62349354958E+02 -0.27803108941E+02 -0.88272836491E+02  0.11159546851E+03  0.10000000000E+01 0.  0.
         -4    1    1    2    0  502  0.10433139951E+02  0.25662580706E+02 -0.21233651082E+03  0.21413973285E+03  0.12700000000E+01 0.  1.
<mgrwt>
<rscale>  1 0.12803557E+03</rscale>
<asrwt>0</asrwt>
<pdfrwt beam="2">  1       21 0.72280076E-01 0.12803557E+03</pdfrwt>
<pdfrwt beam="1">  1       -4 0.25959296E-02 0.12803557E+03</pdfrwt>
<totfact> 0.47508016E+04</totfact>
</mgrwt>
</event>
<event>
 6    4  0.6093247E-003  0.1266140E+03  0.7818608E-02  0.1232568E+00
         -4   -1    0    0    0  501 -0.00000000000E+00  0.00000000000E+00  0.99688803671E+03  0.99688884568E+03  0.12700000000E+01 0.  1.
         21   -1    0    0  501  502  0.00000000000E+00 -0.00000000000E+00 -0.62122632791E+01  0.62122632791E+01  0.00000000000E+00 0.  1.
         25    2    1    2    0    0 -0.17754524173E+02  0.94897640283E+01  0.94109503194E+03  0.94957409169E+03  0.12500327088E+03 0.  0.
    9000005    1    3    3    0    0 -0.65240491508E+02 -0.11277786452E+01  0.73139098480E+03  0.73429651114E+03  0.10000000000E+01 0.  0.
    9000005    1    3    3    0    0  0.47485967335E+02  0.10617542674E+02  0.20970404713E+03  0.21527758056E+03  0.10000000000E+01 0.  0.
         -4    1    1    2    0  502  0.17754524173E+02 -0.94897640283E+01  0.49580741497E+02  0.53527017265E+02  0.12700000000E+01 0. -1.
<mgrwt>
<rscale>  1 0.12661397E+03</rscale>
<asrwt>0</asrwt>
<pdfrwt beam="2">  1       21 0.95573361E-03 0.12661397E+03</pdfrwt>
<pdfrwt beam="1">  1       -4 0.15337731E+00 0.12661397E+03</pdfrwt>
<totfact> 0.48499023E+04</totfact>
</mgrwt>
</event>
<event>
 6    4  0.6093247E-003  0.1277888E+03  0.7818608E-02  0.1230774E+00
         21   -1    0    0  501  502  0.00000000000E+00  0.00000000000E+00  0.22168979739E+02  0.22168979739E+02  0.00000000000E+00 0.  1.
          4   -1    0    0  502    0 -0.00000000000E+00 -0.00000000000E+00 -0.51296824320E+03  0.51296981533E+03  0.12700000000E+01 0. -1.
         25    2    1    2    0    0 -0.14630690898E+02  0.22151617614E+02 -0.49220601907E+03  0.50852407845E+03  0.12500088750E+03 0.  0.
    9000005    1    3    3    0    0  0.26549741257E+02 -0.43092422444E+02 -0.19289851129E+03  0.19943089352E+03  0.10000000000E+01 0.  0.
    9000005    1    3    3    0    0 -0.41180432155E+02  0.65244040059E+02 -0.29930750778E+03  0.30909318493E+03  0.10000000000E+01 0.  0.
          4    1    1    2  501    0  0.14630690898E+02 -0.22151617614E+02  0.14067556062E+01  0.26614716613E+02  0.12700000000E+01 0.  1.
<mgrwt>
<rscale>  1 0.12778878E+03</rscale>
<asrwt>0</asrwt>
<pdfrwt beam="1">  1       21 0.34106125E-02 0.12778878E+03</pdfrwt>
<pdfrwt beam="2">  1        4 0.78921104E-01 0.12778878E+03</pdfrwt>
<totfact> 0.30140995E+04</totfact>
</mgrwt>
</event>
<event>
 6    4  0.6093247E-003  0.1320434E+03  0.7818608E-02  0.1224455E+00
         21   -1    0    0  501  502  0.00000000000E+00  0.00000000000E+00  0.16173374505E+02  0.16173374505E+02  0.00000000000E+00 0.  1.
         -4   -1    0    0    0  501 -0.00000000000E+00 -0.00000000000E+00 -0.61067903114E+03  0.61068035172E+03  0.12700000000E+01 0. -1.
         25    2    1    2    0    0  0.10593493250E+02 -0.41213406126E+02 -0.54851199113E+03  0.56418158640E+03  0.12499876428E+03 0.  0.
    9000005    1    3    3    0    0 -0.58125228488E+01 -0.36401469932E+02 -0.36507534723E+02  0.51890774966E+02  0.10000000000E+01 0.  0.
    9000005    1    3    3    0    0  0.16406016099E+02 -0.48119361949E+01 -0.51200445641E+03  0.51229081143E+03  0.10000000000E+01 0.  0.
         -4    1    1    2    0  502 -0.10593493250E+02  0.41213406126E+02 -0.45993665499E+02  0.62672139822E+02  0.12700000000E+01 0.  1.
<mgrwt>
<rscale>  1 0.13204339E+03</rscale>
<asrwt>0</asrwt>
<pdfrwt beam="1">  1       21 0.24882118E-02 0.13204339E+03</pdfrwt>
<pdfrwt beam="2">  1       -4 0.93954544E-01 0.13204339E+03</pdfrwt>
<totfact> 0.34335621E+04</totfact>
</mgrwt>
</event>
<event>
 6    4  0.6093247E-003  0.1386154E+03  0.7818608E-02  0.1215204E+00
         21   -1    0    0  501  502  0.00000000000E+00  0.00000000000E+00  0.16740098445E+04  0.16740098445E+04  0.00000000000E+00 0. -1.
         -4   -1    0    0    0  501 -0.00000000000E+00 -0.00000000000E+00 -0.12556135681E+02  0.12620199810E+02  0.12700000000E+01 0.  1.
         25    2    1    2    0    0 -0.33573912168E+02 -0.49622149251E+02  0.39242129269E+03  0.41618348842E+03  0.12499863922E+03 0.  0.
    9000005    1    3    3    0    0 -0.31998256280E+02 -0.18543524830E+02  0.38134789091E+03  0.38313831004E+03  0.10000000000E+01 0.  0.
    9000005    1    3    3    0    0 -0.15756558874E+01 -0.31078624421E+02  0.11073401775E+02  0.33045178381E+02  0.10000000000E+01 0.  0.
         -4    1    1    2    0  502  0.33573912168E+02  0.49622149251E+02  0.12690324162E+04  0.12704465559E+04  0.12700000000E+01 0. -1.
<mgrwt>
<rscale>  1 0.13861539E+03</rscale>
<asrwt>0</asrwt>
<pdfrwt beam="1">  1       21 0.25753980E+00 0.13861539E+03</pdfrwt>
<pdfrwt beam="2">  1       -4 0.19366796E-02 0.13861539E+03</pdfrwt>
<totfact> 0.27454876E+03</totfact>
</mgrwt>
</event>
<event>
 6    4  0.6093247E-003  0.1291205E+03  0.7818608E-02  0.1228767E+00
         21   -1    0    0  501  502  0.00000000000E+00  0.00000000000E+00  0.12103034619E+03  0.12103034619E+03  0.00000000000E+00 0.  1.
         -4   -1    0    0    0  501 -0.00000000000E+00 -0.00000000000E+00 -0.74639127316E+03  0.74639235362E+03  0.12700000000E+01 0. -1.
         25    2    1    2    0    0  0.11363740362E+02 -0.30289538550E+02 -0.73852032099E+03  0.74972286083E+03  0.12500205113E+03 0.  0.
    9000005    1    3    3    0    0 -0.27200571963E+02 -0.65224107342E+02 -0.30456353594E+03  0.31265636523E+03  0.10000000000E+01 0.  0.
    9000005    1    3    3    0    0  0.38564312325E+02  0.34934568792E+02 -0.43395678505E+03  0.43706649560E+03  0.10000000000E+01 0.  0.
         -4    1    1    2    0  502 -0.11363740362E+02  0.30289538550E+02  0.11315939403E+03  0.11769983899E+03  0.12700000000E+01 0.  1.
<mgrwt>
<rscale>  1 0.12912050E+03</rscale>
<asrwt>0</asrwt>
<pdfrwt beam="1">  1       21 0.18620054E-01 0.12912050E+03</pdfrwt>
<pdfrwt beam="2">  1       -4 0.11483002E+00 0.12912050E+03</pdfrwt>
<totfact> 0.67935779E+02</totfact>
</mgrwt>
</event>
<event>
 6    4  0.6093247E-003  0.1312014E+03  0.7818608E-02  0.1225684E+00
         21   -1    0    0  501  502  0.00000000000E+00  0.00000000000E+00  0.15432395407E+03  0.15432395407E+03  0.00000000000E+00 0.  1.
          4   -1    0    0  502    0 -0.00000000000E+00 -0.00000000000E+00 -0.49279093742E+02  0.49295455978E+02  0.12700000000E+01 0. -1.
         25    2    1    2    0    0  0.22308323230E+02  0.33025312626E+02  0.96426197694E+02  0.16282447403E+03  0.12500186071E+03 0.  0.
    9000005    1    3    3    0    0  0.53780659074E+02  0.45940281818E+02  0.11937062462E+02  0.71738150549E+02  0.10000000000E+01 0.  0.
    9000005    1    3    3    0    0 -0.31472335844E+02 -0.12914969192E+02  0.84489135232E+02  0.91086323479E+02  0.10000000000E+01 0.  0.
          4    1    1    2  501    0 -0.22308323230E+02 -0.33025312626E+02  0.86186626379E+01  0.40794936022E+02  0.12700000000E+01 0.  1.
<mgrwt>
<rscale>  1 0.13120136E+03</rscale>
<asrwt>0</asrwt>
<pdfrwt beam="1">  1       21 0.23742146E-01 0.13120136E+03</pdfrwt>
<pdfrwt beam="2">  1        4 0.75830597E-02 0.13120136E+03</pdfrwt>
<totfact> 0.81263336E+04</totfact>
</mgrwt>
</event>
<event>
 6    4  0.6093247E-003  0.1362822E+03  0.7818608E-02  0.1218421E+00
         21   -1    0    0  501  502  0.00000000000E+00  0.00000000000E+00  0.54010302037E+02  0.54010302037E+02  0.00000000000E+00 0.  1.
          4   -1    0    0  502    0 -0.00000000000E+00 -0.00000000000E+00 -0.18560576774E+03  0.18561011265E+03  0.12700000000E+01 0.  1.
         25    2    1    2    0    0  0.52766375111E+02  0.12606747751E+02 -0.12505072246E+03  0.18496085930E+03  0.12501846205E+03 0.  0.
    9000005    1    3    3    0    0  0.23812618838E+02  0.36747717490E+02  0.98453353442E+01  0.44892829992E+02  0.10000000000E+01 0.  0.
    9000005    1    3    3    0    0  0.28953756273E+02 -0.24140969739E+02 -0.13489605781E+03  0.14006802931E+03  0.10000000000E+01 0.  0.
          4    1    1    2  501    0 -0.52766375111E+02 -0.12606747751E+02 -0.65447432411E+01  0.54659555389E+02  0.12700000000E+01 0. -1.
<mgrwt>
<rscale>  1 0.13628219E+03</rscale>
<asrwt>0</asrwt>
<pdfrwt beam="1">  1       21 0.83092771E-02 0.13628219E+03</pdfrwt>
<pdfrwt beam="2">  1        4 0.28556217E-01 0.13628219E+03</pdfrwt>
<totfact> 0.53045907E+04</totfact>
</mgrwt>
</event>
<event>
 6    4  0.6093247E-003  0.1378517E+03  0.7818608E-02  0.1216249E+00
         -4   -1    0    0    0  501 -0.00000000000E+00  0.00000000000E+00  0.63790023211E+02  0.63802664218E+02  0.12700000000E+01 0.  1.
         21   -1    0    0  501  502  0.00000000000E+00 -0.00000000000E+00 -0.16473693399E+03  0.16473693399E+03  0.00000000000E+00 0.  1.
         25    2    1    2    0    0  0.58066532091E+02 -0.29732333706E+01 -0.38329369943E+02  0.14308123650E+03  0.12499014910E+03 0.  0.
    9000005    1    3    3    0    0  0.82417767855E+02  0.36529920268E+02 -0.34410241543E+02  0.96499680083E+02  0.10000000000E+01 0.  0.
    9000005    1    3    3    0    0 -0.24351235764E+02 -0.39503153639E+02 -0.39191283995E+01  0.46581556415E+02  0.10000000000E+01 0.  0.
         -4    1    1    2    0  502 -0.58066532091E+02  0.29732333706E+01 -0.62617540833E+02  0.85458361707E+02  0.12700000000E+01 0. -1.
<mgrwt>
<rscale>  1 0.13785173E+03</rscale>
<asrwt>0</asrwt>
<pdfrwt beam="2">  1       21 0.25344143E-01 0.13785173E+03</pdfrwt>
<pdfrwt beam="1">  1       -4 0.98151988E-02 0.13785173E+03</pdfrwt>
<totfact> 0.47015479E+04</totfact>
</mgrwt>
</event>
<event>
 6    4  0.6093247E-003  0.1270866E+03  0.7818608E-02  0.1231844E+00
         21   -1    0    0  501  502  0.00000000000E+00  0.00000000000E+00  0.72965669456E+03  0.72965669456E+03  0.00000000000E+00 0. -1.
         -4   -1    0    0    0  501 -0.00000000000E+00 -0.00000000000E+00 -0.81229259729E+01  0.82216072858E+01  0.12700000000E+01 0.  1.
         25    2    1    2    0    0  0.17733583805E+02  0.14521754334E+02  0.53247355560E+03  0.54742952034E+03  0.12500252389E+03 0.  0.
    9000005    1    3    3    0    0  0.71574828432E+01 -0.40796895068E+02  0.68546031398E+02  0.80094785275E+02  0.10000000000E+01 0.  0.
    9000005    1    3    3    0    0  0.10576100961E+02  0.55318649402E+02  0.46392752420E+03  0.46733473506E+03  0.10000000000E+01 0.  0.
         -4    1    1    2    0  502 -0.17733583805E+02 -0.14521754334E+02  0.18906021299E+03  0.19044878151E+03  0.12700000000E+01 0. -1.
<mgrwt>
<rscale>  1 0.12708655E+03</rscale>
<asrwt>0</asrwt>
<pdfrwt beam="1">  1       21 0.11225482E+00 0.12708655E+03</pdfrwt>
<pdfrwt beam="2">  1       -4 0.12573574E-02 0.12708655E+03</pdfrwt>
<totfact> 0.52632639E+04</totfact>
</mgrwt>
</event>
<event>
 6    4  0.6093247E-003  0.1270383E+03  0.7818608E-02  0.1231918E+00
          4   -1    0    0  502    0 -0.00000000000E+00  0.00000000000E+00  0.56461628168E+03  0.56461770999E+03  0.12700000000E+01 0. -1.
         21   -1    0    0  501  502  0.00000000000E+00 -0.00000000000E+00 -0.10694681061E+02  0.10694681061E+02  0.00000000000E+00 0. -1.
         25    2    1    2    0    0 -0.21064459817E+02  0.84669141444E+01  0.51302318039E+03  0.52851822710E+03  0.12499333047E+03 0.  0.
    9000005    1    3    3    0    0 -0.26490226826E+01  0.61447709686E+02  0.36643595223E+03  0.37156311097E+03  0.10000000000E+01 0.  0.
    9000005    1    3    3    0    0 -0.18415437135E+02 -0.52980795542E+02  0.14658722816E+03  0.15695511614E+03  0.10000000000E+01 0.  0.
          4    1    1    2  501    0  0.21064459817E+02 -0.84669141444E+01  0.40898420224E+02  0.46794163946E+02  0.12700000000E+01 0.  1.
<mgrwt>
<rscale>  1 0.12703831E+03</rscale>
<asrwt>0</asrwt>
<pdfrwt beam="2">  1       21 0.16453360E-02 0.12703831E+03</pdfrwt>
<pdfrwt beam="1">  1        4 0.86869930E-01 0.12703831E+03</pdfrwt>
<totfact> 0.79506757E+04</totfact>
</mgrwt>
</event>
<event>
 6    4  0.6093247E-003  0.1548354E+03  0.7818608E-02  0.1194654E+00
          4   -1    0    0  502    0 -0.00000000000E+00  0.00000000000E+00  0.58387046015E+03  0.58387184136E+03  0.12700000000E+01 0.  1.
         21   -1    0    0  501  502  0.00000000000E+00 -0.00000000000E+00 -0.11662878369E+03  0.11662878369E+03  0.00000000000E+00 0. -1.
         25    2    1    2    0    0  0.89608213283E+02 -0.17817192658E+02  0.55355861406E+03  0.57480531544E+03  0.12500770861E+03 0.  0.
    9000005    1    3    3    0    0 -0.10459579028E+02  0.51765215762E+01 -0.92037324760E-01  0.11713566491E+02  0.10000000000E+01 0.  0.
    9000005    1    3    3    0    0  0.10006779231E+03 -0.22993714234E+02  0.55365065138E+03  0.56309174894E+03  0.10000000000E+01 0.  0.
          4    1    1    2  501    0 -0.89608213283E+02  0.17817192658E+02 -0.86316937599E+02  0.12569530961E+03  0.12700000000E+01 0. -1.
<mgrwt>
<rscale>  1 0.15483543E+03</rscale>
<asrwt>0</asrwt>
<pdfrwt beam="2">  1       21 0.17942890E-01 0.15483543E+03</pdfrwt>
<pdfrwt beam="1">  1        4 0.89826861E-01 0.15483543E+03</pdfrwt>
<totfact> 0.12928394E+03</totfact>
</mgrwt>
</event>
<event>
 6    4  0.6093247E-003  0.1280819E+03  0.7818608E-02  0.1230330E+00
         -4   -1    0    0    0  501 -0.00000000000E+00  0.00000000000E+00  0.77447809441E+01  0.78482183884E+01  0.12700000000E+01 0.  1.
         21   -1    0    0  501  502  0.00000000000E+00 -0.00000000000E+00 -0.78103753410E+03  0.78103753410E+03  0.00000000000E+00 0.  1.
         25    2    1    2    0    0  0.96057831662E+01 -0.26137129363E+02 -0.62301735948E+03  0.63604685873E+03  0.12501822140E+03 0.  0.
    9000005    1    3    3    0    0 -0.54674819921E+02  0.34338878808E+01 -0.33580018648E+03  0.34024093340E+03  0.10000000000E+01 0.  0.
    9000005    1    3    3    0    0  0.64280603087E+02 -0.29571017244E+02 -0.28721717300E+03  0.29580592533E+03  0.10000000000E+01 0.  0.
         -4    1    1    2    0  502 -0.96057831662E+01  0.26137129363E+02 -0.15027539367E+03  0.15283889375E+03  0.12700000000E+01 0. -1.
<mgrwt>
<rscale>  1 0.12808191E+03</rscale>
<asrwt>0</asrwt>
<pdfrwt beam="2">  1       21 0.12015965E+00 0.12808191E+03</pdfrwt>
<pdfrwt beam="1">  1       -4 0.11995406E-02 0.12808191E+03</pdfrwt>
<totfact> 0.47991030E+04</totfact>
</mgrwt>
</event>
<event>
 6    4  0.6093247E-003  0.1276267E+03  0.7818608E-02  0.1231020E+00
         21   -1    0    0  501  502  0.00000000000E+00  0.00000000000E+00  0.97547221850E+02  0.97547221850E+02  0.00000000000E+00 0. -1.
         -4   -1    0    0    0  501 -0.00000000000E+00 -0.00000000000E+00 -0.60308419833E+02  0.60321790447E+02  0.12700000000E+01 0. -1.
         25    2    1    2    0    0  0.28843274233E+00  0.25754186416E+02  0.31096517893E+02  0.13136048790E+03  0.12500089218E+03 0.  0.
    9000005    1    3    3    0    0  0.43138849429E+02  0.14065619884E+02 -0.31033254227E+02  0.54980586216E+02  0.10000000000E+01 0.  0.
    9000005    1    3    3    0    0 -0.42850416687E+02  0.11688566532E+02  0.62129772120E+02  0.76379901685E+02  0.10000000000E+01 0.  0.
         -4    1    1    2    0  502 -0.28843274233E+00 -0.25754186416E+02  0.61422841239E+01  0.26508524396E+02  0.12700000000E+01 0.  1.
<mgrwt>
<rscale>  1 0.12762674E+03</rscale>
<asrwt>0</asrwt>
<pdfrwt beam="1">  1       21 0.15007265E-01 0.12762674E+03</pdfrwt>
<pdfrwt beam="2">  1       -4 0.92798829E-02 0.12762674E+03</pdfrwt>
<totfact> 0.13461765E+05</totfact>
</mgrwt>
</event>
<event>
 6    4  0.6093247E-003  0.1287718E+03  0.7818608E-02  0.1229290E+00
         -4   -1    0    0    0  501 -0.00000000000E+00  0.00000000000E+00  0.13234442226E+04  0.13234448319E+04  0.12700000000E+01 0.  1.
         21   -1    0    0  501  502  0.00000000000E+00 -0.00000000000E+00 -0.49109817573E+01  0.49109817573E+01  0.00000000000E+00 0.  1.
         25    2    1    2    0    0  0.30558873292E+02 -0.47904830492E+01  0.11276021331E+04  0.11349311662E+04  0.12500155183E+03 0.  0.
    9000005    1    3    3    0    0  0.35946488857E+02 -0.47594052776E+02  0.28256255247E+03  0.28879047764E+03  0.10000000000E+01 0.  0.
    9000005    1    3    3    0    0 -0.53876155646E+01  0.42803569726E+02  0.84503958066E+03  0.84614068857E+03  0.10000000000E+01 0.  0.
         -4    1    1    2    0  502 -0.30558873292E+02  0.47904830492E+01  0.19093110770E+03  0.19342464748E+03  0.12700000000E+01 0. -1.
<mgrwt>
<rscale>  1 0.12877182E+03</rscale>
<asrwt>0</asrwt>
<pdfrwt beam="2">  1       21 0.75553671E-03 0.12877182E+03</pdfrwt>
<pdfrwt beam="1">  1       -4 0.20361920E+00 0.12877182E+03</pdfrwt>
<totfact> 0.32645545E+04</totfact>
</mgrwt>
</event>
<event>
 6    4  0.6093247E-003  0.1273096E+03  0.7818608E-02  0.1231503E+00
         -4   -1    0    0    0  501 -0.00000000000E+00  0.00000000000E+00  0.87178876523E+03  0.87178969028E+03  0.12700000000E+01 0.  1.
         21   -1    0    0  501  502  0.00000000000E+00 -0.00000000000E+00 -0.65810970188E+01  0.65810970188E+01  0.00000000000E+00 0.  1.
         25    2    1    2    0    0 -0.14471302311E+02 -0.19323377093E+02  0.72317285227E+03  0.73429333129E+03  0.12499964246E+03 0.  0.
    9000005    1    3    3    0    0  0.20296015643E+02  0.39454117482E+02  0.46931378442E+03  0.47140744996E+03  0.10000000000E+01 0.  0.
    9000005    1    3    3    0    0 -0.34767317953E+02 -0.58777494575E+02  0.25385906785E+03  0.26288588132E+03  0.10000000000E+01 0.  0.
         -4    1    1    2    0  502  0.14471302311E+02  0.19323377093E+02  0.14203481594E+03  0.14407745602E+03  0.12700000000E+01 0. -1.
<mgrwt>
<rscale>  1 0.12730955E+03</rscale>
<asrwt>0</asrwt>
<pdfrwt beam="2">  1       21 0.10124772E-02 0.12730955E+03</pdfrwt>
<pdfrwt beam="1">  1       -4 0.13413075E+00 0.12730955E+03</pdfrwt>
<totfact> 0.62055739E+04</totfact>
</mgrwt>
</event>
<event>
 6    4  0.6093247E-003  0.1275706E+03  0.7818608E-02  0.1231106E+00
         21   -1    0    0  501  502  0.00000000000E+00  0.00000000000E+00  0.36243753240E+02  0.36243753240E+02  0.00000000000E+00 0.  1.
          4   -1    0    0  502    0 -0.00000000000E+00 -0.00000000000E+00 -0.16386084454E+03  0.16386576602E+03  0.12700000000E+01 0.  1.
         25    2    1    2    0    0  0.12060719257E+02 -0.22447258860E+02 -0.11451068337E+03  0.17142622782E+03  0.12499965839E+03 0.  0.
    9000005    1    3    3    0    0  0.21961236645E+02 -0.35308522954E+02 -0.13728209883E+03  0.14344463171E+03  0.10000000000E+01 0.  0.
    9000005    1    3    3    0    0 -0.99005173881E+01  0.12861264094E+02  0.22771415457E+02  0.27981596104E+02  0.10000000000E+01 0.  0.
          4    1    1    2  501    0 -0.12060719257E+02  0.22447258860E+02 -0.13106407931E+02  0.28683291446E+02  0.12700000000E+01 0. -1.
<mgrwt>
<rscale>  1 0.12757059E+03</rscale>
<asrwt>0</asrwt>
<pdfrwt beam="1">  1       21 0.55759621E-02 0.12757059E+03</pdfrwt>
<pdfrwt beam="2">  1        4 0.25211451E-01 0.12757059E+03</pdfrwt>
<totfact> 0.13106306E+05</totfact>
</mgrwt>
</event>
<event>
 6    4  0.6093247E-003  0.1300491E+03  0.7818608E-02  0.1227383E+00
         21   -1    0    0  501  502  0.00000000000E+00  0.00000000000E+00  0.31583403805E+03  0.31583403805E+03  0.00000000000E+00 0.  1.
          4   -1    0    0  502    0 -0.00000000000E+00 -0.00000000000E+00 -0.22132515405E+02  0.22168922801E+02  0.12700000000E+01 0.  1.
         25    2    1    2    0    0 -0.55732432566E+01 -0.35447552284E+02  0.21122792425E+03  0.24805243370E+03  0.12500073550E+03 0.  0.
    9000005    1    3    3    0    0  0.49335635104E+02 -0.28982965251E+02  0.44797895365E+02  0.72676465207E+02  0.10000000000E+01 0.  0.
    9000005    1    3    3    0    0 -0.54908878361E+02 -0.64645870331E+01  0.16643002889E+03  0.17537596849E+03  0.10000000000E+01 0.  0.
          4    1    1    2  501    0  0.55732432566E+01  0.35447552284E+02  0.82473598391E+02  0.89950527152E+02  0.12700000000E+01 0. -1.
<mgrwt>
<rscale>  1 0.13004912E+03</rscale>
<asrwt>0</asrwt>
<pdfrwt beam="1">  1       21 0.48589849E-01 0.13004912E+03</pdfrwt>
<pdfrwt beam="2">  1        4 0.34079996E-02 0.13004912E+03</pdfrwt>
<totfact> 0.72169300E+04</totfact>
</mgrwt>
</event>
<event>
 6    4  0.6093247E-003  0.1275659E+03  0.7818608E-02  0.1231113E+00
         -4   -1    0    0    0  501 -0.00000000000E+00  0.00000000000E+00  0.21221994983E+03  0.21222374987E+03  0.12700000000E+01 0. -1.
         21   -1    0    0  501  502  0.00000000000E+00 -0.00000000000E+00 -0.32096467870E+02  0.32096467870E+02  0.00000000000E+00 0. -1.
         25    2    1    2    0    0 -0.13244982851E+02  0.21740346132E+02  0.17765692426E+03  0.21871223016E+03  0.12499993866E+03 0.  0.
    9000005    1    3    3    0    0  0.31071290698E+02  0.36102125002E+02  0.15664464105E+02  0.50151410458E+02  0.10000000000E+01 0.  0.
    9000005    1    3    3    0    0 -0.44316273549E+02 -0.14361778870E+02  0.16199246015E+03  0.16856081971E+03  0.10000000000E+01 0.  0.
         -4    1    1    2    0  502  0.13244982851E+02 -0.21740346132E+02  0.24665577071E+01  0.25607987574E+02  0.12700000000E+01 0.  1.
<mgrwt>
<rscale>  1 0.12756589E+03</rscale>
<asrwt>0</asrwt>
<pdfrwt beam="2">  1       21 0.49379183E-02 0.12756589E+03</pdfrwt>
<pdfrwt beam="1">  1       -4 0.32651447E-01 0.12756589E+03</pdfrwt>
<totfact> 0.98981104E+04</totfact>
</mgrwt>
</event>
<event>
 6    4  0.6093247E-003  0.1516535E+03  0.7818608E-02  0.1198456E+00
         21   -1    0    0  501  502  0.00000000000E+00  0.00000000000E+00  0.41374372210E+03  0.41374372210E+03  0.00000000000E+00 0. -1.
         -4   -1    0    0    0  501 -0.00000000000E+00 -0.00000000000E+00 -0.67437785577E+02  0.67449742946E+02  0.12700000000E+01 0.  1.
         25    2    1    2    0    0 -0.71146910442E+02 -0.48079962667E+02  0.31508580415E+02  0.15489214113E+03  0.12500087627E+03 0.  0.
    9000005    1    3    3    0    0 -0.65900909254E+02 -0.67189930056E+02 -0.22996372358E+02  0.96887820096E+02  0.10000000000E+01 0.  0.
    9000005    1    3    3    0    0 -0.52460011882E+01  0.19109967389E+02  0.54504952773E+02  0.58004321036E+02  0.10000000000E+01 0.  0.
         -4    1    1    2    0  502  0.71146910442E+02  0.48079962667E+02  0.31479735611E+03  0.32630132392E+03  0.12700000000E+01 0. -1.
<mgrwt>
<rscale>  1 0.15165350E+03</rscale>
<asrwt>0</asrwt>
<pdfrwt beam="1">  1       21 0.63652879E-01 0.15165350E+03</pdfrwt>
<pdfrwt beam="2">  1       -4 0.10376114E-01 0.15165350E+03</pdfrwt>
<totfact> 0.67628442E+03</totfact>
</mgrwt>
</event>
<event>
 6    4  0.6093247E-003  0.1289954E+03  0.7818608E-02  0.1228954E+00
         21   -1    0    0  501  502  0.00000000000E+00  0.00000000000E+00  0.27742723384E+02  0.27742723384E+02  0.00000000000E+00 0.  1.
         -4   -1    0    0    0  501 -0.00000000000E+00 -0.00000000000E+00 -0.26187532574E+03  0.26187840524E+03  0.12700000000E+01 0. -1.
         25    2    1    2    0    0 -0.21814195274E+02  0.23223390172E+02 -0.21936224018E+03  0.25447911011E+03  0.12499856039E+03 0.  0.
    9000005    1    3    3    0    0 -0.53430952594E+02  0.58473374452E+02 -0.16001969531E+03  0.17855336766E+03  0.10000000000E+01 0.  0.
    9000005    1    3    3    0    0  0.31616757320E+02 -0.35249984280E+02 -0.59342544866E+02  0.75925742449E+02  0.10000000000E+01 0.  0.
         -4    1    1    2    0  502  0.21814195274E+02 -0.23223390172E+02 -0.14770362180E+02  0.35142018517E+02  0.12700000000E+01 0.  1.
<mgrwt>
<rscale>  1 0.12899545E+03</rscale>
<asrwt>0</asrwt>
<pdfrwt beam="1">  1       21 0.42681115E-02 0.12899545E+03</pdfrwt>
<pdfrwt beam="2">  1       -4 0.40290983E-01 0.12899545E+03</pdfrwt>
<totfact> 0.84178886E+04</totfact>
</mgrwt>
</event>
<event>
 6    4  0.6093247E-003  0.1493821E+03  0.7818608E-02  0.1201234E+00
          4   -1    0    0  502    0 -0.00000000000E+00  0.00000000000E+00  0.52514805319E+01  0.54028647750E+01  0.12700000000E+01 0.  1.
         21   -1    0    0  501  502  0.00000000000E+00 -0.00000000000E+00 -0.26011288316E+04  0.26011288316E+04  0.00000000000E+00 0. -1.
         25    2    1    2    0    0 -0.71338331409E+01  0.81488258787E+02 -0.14278852693E+04  0.14356780147E+04  0.12499516688E+03 0.  0.
    9000005    1    3    3    0    0 -0.55608548652E+02  0.78815831482E+02 -0.10992814192E+04  0.11035057248E+04  0.10000000000E+01 0.  0.
    9000005    1    3    3    0    0  0.48474715511E+02  0.26724273043E+01 -0.32860385014E+03  0.33217228999E+03  0.10000000000E+01 0.  0.
          4    1    1    2  501    0  0.71338331409E+01 -0.81488258787E+02 -0.11679920818E+04  0.11708536817E+04  0.12700000000E+01 0. -1.
<mgrwt>
<rscale>  1 0.14938213E+03</rscale>
<asrwt>0</asrwt>
<pdfrwt beam="2">  1       21 0.40017381E+00 0.14938213E+03</pdfrwt>
<pdfrwt beam="1">  1        4 0.81958859E-03 0.14938213E+03</pdfrwt>
<totfact> 0.15041307E+03</totfact>
</mgrwt>
</event>
<event>
 6    4  0.6093247E-003  0.1304171E+03  0.7818608E-02  0.1226838E+00
          4   -1    0    0  502    0 -0.00000000000E+00  0.00000000000E+00  0.19720907990E+02  0.19761758827E+02  0.12700000000E+01 0.  1.
         21   -1    0    0  501  502  0.00000000000E+00 -0.00000000000E+00 -0.52034380722E+03  0.52034380722E+03  0.00000000000E+00 0.  1.
         25    2    1    2    0    0  0.11140390309E+02  0.35489175012E+02 -0.21065067366E+03  0.24775458804E+03  0.12500015897E+03 0.  0.
    9000005    1    3    3    0    0 -0.48956321868E+01 -0.76650125080E+01 -0.20036218979E+03  0.20057100171E+03  0.10000000000E+01 0.  0.
    9000005    1    3    3    0    0  0.16036022495E+02  0.43154187520E+02 -0.10288483867E+02  0.47183586323E+02  0.10000000000E+01 0.  0.
          4    1    1    2  501    0 -0.11140390309E+02 -0.35489175012E+02 -0.28997222557E+03  0.29235097801E+03  0.12700000000E+01 0. -1.
<mgrwt>
<rscale>  1 0.13041714E+03</rscale>
<asrwt>0</asrwt>
<pdfrwt beam="2">  1       21 0.80052886E-01 0.13041714E+03</pdfrwt>
<pdfrwt beam="1">  1        4 0.30372477E-02 0.13041714E+03</pdfrwt>
<totfact> 0.29714895E+04</totfact>
</mgrwt>
</event>
<event>
 6    4  0.6093247E-003  0.1311830E+03  0.7818608E-02  0.1225711E+00
          4   -1    0    0  502    0 -0.00000000000E+00  0.00000000000E+00  0.14499418001E+03  0.14499974185E+03  0.12700000000E+01 0. -1.
         21   -1    0    0  501  502  0.00000000000E+00 -0.00000000000E+00 -0.81583909933E+02  0.81583909933E+02  0.00000000000E+00 0.  1.
         25    2    1    2    0    0  0.29695628471E+02  0.26467406126E+02  0.10573197108E+03  0.16848809935E+03  0.12500654374E+03 0.  0.
    9000005    1    3    3    0    0  0.21103871621E+02  0.32756536791E+02  0.13331914831E+03  0.13890053781E+03  0.10000000000E+01 0.  0.
    9000005    1    3    3    0    0  0.85917568498E+01 -0.62891306648E+01 -0.27587177226E+02  0.29587561535E+02  0.10000000000E+01 0.  0.
          4    1    1    2  501    0 -0.29695628471E+02 -0.26467406126E+02 -0.42321701001E+02  0.58095552436E+02  0.12700000000E+01 0.  1.
<mgrwt>
<rscale>  1 0.13118304E+03</rscale>
<asrwt>0</asrwt>
<pdfrwt beam="2">  1       21 0.12551371E-01 0.13118304E+03</pdfrwt>
<pdfrwt beam="1">  1        4 0.22307985E-01 0.13118304E+03</pdfrwt>
<totfact> 0.40432321E+04</totfact>
</mgrwt>
</event>
<event>
 6    4  0.6093247E-003  0.1323849E+03  0.7818608E-02  0.1223959E+00
          4   -1    0    0  502    0 -0.00000000000E+00  0.00000000000E+00  0.12836530893E+04  0.12836537175E+04  0.12700000000E+01 0. -1.
         21   -1    0    0  501  502  0.00000000000E+00 -0.00000000000E+00 -0.60778612109E+01  0.60778612109E+01  0.00000000000E+00 0.  1.
         25    2    1    2    0    0 -0.40324435789E+02  0.16553256207E+02  0.10070084334E+04  0.10156730564E+04  0.12500280818E+03 0.  0.
    9000005    1    3    3    0    0 -0.15453877967E+01  0.44410327037E+02  0.13045080636E+03  0.13781537741E+03  0.10000000000E+01 0.  0.
    9000005    1    3    3    0    0 -0.38779047992E+02 -0.27857070830E+02  0.87655762704E+03  0.87785767895E+03  0.10000000000E+01 0.  0.
          4    1    1    2  501    0  0.40324435789E+02 -0.16553256207E+02  0.27056679467E+03  0.27405852239E+03  0.12700000000E+01 0.  1.
<mgrwt>
<rscale>  1 0.13238494E+03</rscale>
<asrwt>0</asrwt>
<pdfrwt beam="2">  1       21 0.93505659E-03 0.13238494E+03</pdfrwt>
<pdfrwt beam="1">  1        4 0.19749513E+00 0.13238494E+03</pdfrwt>
<totfact> 0.25578632E+04</totfact>
</mgrwt>
</event>
<event>
 6    4  0.6093247E-003  0.1354889E+03  0.7818608E-02  0.1219531E+00
         21   -1    0    0  501  502  0.00000000000E+00  0.00000000000E+00  0.25514650134E+02  0.25514650134E+02  0.00000000000E+00 0.  1.
          4   -1    0    0  502    0 -0.00000000000E+00 -0.00000000000E+00 -0.43137634688E+03  0.43137821636E+03  0.12700000000E+01 0.  1.
         25    2    1    2    0    0  0.44287095195E+02  0.27762089383E+02 -0.18135166020E+03  0.22637508016E+03  0.12500068740E+03 0.  0.
    9000005    1    3    3    0    0  0.85155681135E+02  0.38005338162E+02 -0.12110037840E+03  0.15284697382E+03  0.10000000000E+01 0.  0.
    9000005    1    3    3    0    0 -0.40868585940E+02 -0.10243248779E+02 -0.60251281799E+02  0.73528106332E+02  0.10000000000E+01 0.  0.
          4    1    1    2  501    0 -0.44287095195E+02 -0.27762089383E+02 -0.22451003655E+03  0.23051778634E+03  0.12700000000E+01 0. -1.
<mgrwt>
<rscale>  1 0.13548894E+03</rscale>
<asrwt>0</asrwt>
<pdfrwt beam="1">  1       21 0.39253307E-02 0.13548894E+03</pdfrwt>
<pdfrwt beam="2">  1        4 0.66368168E-01 0.13548894E+03</pdfrwt>
<totfact> 0.35027638E+04</totfact>
</mgrwt>
</event>
<event>
 6    4  0.6093247E-003  0.1268068E+03  0.7818608E-02  0.1232272E+00
         -4   -1    0    0    0  501 -0.00000000000E+00  0.00000000000E+00  0.43867638142E+02  0.43886018003E+02  0.12700000000E+01 0.  1.
         21   -1    0    0  501  502  0.00000000000E+00 -0.00000000000E+00 -0.12665513695E+03  0.12665513695E+03  0.00000000000E+00 0. -1.
         25    2    1    2    0    0 -0.12775703510E+02 -0.17064535371E+02 -0.63737018541E+02  0.14192384086E+03  0.12500220840E+03 0.  0.
    9000005    1    3    3    0    0  0.94913396095E+01  0.41608096060E+02  0.11240624343E+02  0.44143751777E+02  0.10000000000E+01 0.  0.
    9000005    1    3    3    0    0 -0.22267043119E+02 -0.58672631431E+02 -0.74977642883E+02  0.97780089081E+02  0.10000000000E+01 0.  0.
         -4    1    1    2    0  502  0.12775703510E+02  0.17064535371E+02 -0.19050480264E+02  0.28617314093E+02  0.12700000000E+01 0. -1.
<mgrwt>
<rscale>  1 0.12680682E+03</rscale>
<asrwt>0</asrwt>
<pdfrwt beam="2">  1       21 0.19485406E-01 0.12680682E+03</pdfrwt>
<pdfrwt beam="1">  1       -4 0.67507711E-02 0.12680682E+03</pdfrwt>
<totfact> 0.14143112E+05</totfact>
</mgrwt>
</event>
<event>
 6    4  0.6093247E-003  0.1271083E+03  0.7818608E-02  0.1231811E+00
          4   -1    0    0  502    0 -0.00000000000E+00  0.00000000000E+00  0.13475041951E+02  0.13534757315E+02  0.12700000000E+01 0. -1.
         21   -1    0    0  501  502  0.00000000000E+00 -0.00000000000E+00 -0.41778195077E+03  0.41778195077E+03  0.00000000000E+00 0. -1.
         25    2    1    2    0    0 -0.64836071112E+00  0.23075984365E+02 -0.34333422754E+03  0.36610779621E+03  0.12499442074E+03 0.  0.
    9000005    1    3    3    0    0  0.46078638534E+02  0.53621981748E+02 -0.20880885392E+03  0.22045565389E+03  0.10000000000E+01 0.  0.
    9000005    1    3    3    0    0 -0.46726999245E+02 -0.30545997383E+02 -0.13452537362E+03  0.14565214232E+03  0.10000000000E+01 0.  0.
          4    1    1    2  501    0  0.64836071112E+00 -0.23075984365E+02 -0.60972681281E+02  0.65208911880E+02  0.12700000000E+01 0.  1.
<mgrwt>
<rscale>  1 0.12710833E+03</rscale>
<asrwt>0</asrwt>
<pdfrwt beam="2">  1       21 0.64274142E-01 0.12710833E+03</pdfrwt>
<pdfrwt beam="1">  1        4 0.20778255E-02 0.12710833E+03</pdfrwt>
<totfact> 0.86427112E+04</totfact>
</mgrwt>
</event>
<event>
 6    4  0.6093247E-003  0.1287437E+03  0.7818608E-02  0.1229332E+00
         21   -1    0    0  501  502  0.00000000000E+00  0.00000000000E+00  0.86912540309E+01  0.86912540309E+01  0.00000000000E+00 0. -1.
         -4   -1    0    0    0  501 -0.00000000000E+00 -0.00000000000E+00 -0.78324211749E+03  0.78324314712E+03  0.12700000000E+01 0.  1.
         25    2    1    2    0    0 -0.90577352417E+01 -0.29465039959E+02 -0.69051119433E+03  0.70241060524E+03  0.12499887082E+03 0.  0.
    9000005    1    3    3    0    0 -0.29313432114E+02 -0.60590800677E+02 -0.61044746703E+03  0.61414789134E+03  0.10000000000E+01 0.  0.
    9000005    1    3    3    0    0  0.20255696872E+02  0.31125760718E+02 -0.80063727300E+02  0.88262713901E+02  0.10000000000E+01 0.  0.
         -4    1    1    2    0  502  0.90577352417E+01  0.29465039959E+02 -0.84039669131E+02  0.89523795916E+02  0.12700000000E+01 0. -1.
<mgrwt>
<rscale>  1 0.12874373E+03</rscale>
<asrwt>0</asrwt>
<pdfrwt beam="1">  1       21 0.13371160E-02 0.12874373E+03</pdfrwt>
<pdfrwt beam="2">  1       -4 0.12050601E+00 0.12874373E+03</pdfrwt>
<totfact> 0.51928046E+04</totfact>
</mgrwt>
</event>
<event>
 6    4  0.6093247E-003  0.1292926E+03  0.7818608E-02  0.1228509E+00
         21   -1    0    0  501  502  0.00000000000E+00  0.00000000000E+00  0.59315345722E+02  0.59315345722E+02  0.00000000000E+00 0. -1.
          4   -1    0    0  502    0 -0.00000000000E+00 -0.00000000000E+00 -0.11153405443E+03  0.11154128473E+03  0.12700000000E+01 0. -1.
         25    2    1    2    0    0  0.81171392452E+01  0.32022985476E+02 -0.45898291602E+02  0.13719775167E+03  0.12500084137E+03 0.  0.
    9000005    1    3    3    0    0  0.59199976070E+02  0.44981833751E+02 -0.39217806095E+02  0.84065681756E+02  0.10000000000E+01 0.  0.
    9000005    1    3    3    0    0 -0.51082836824E+02 -0.12958848275E+02 -0.66804855068E+01  0.53132069913E+02  0.10000000000E+01 0.  0.
          4    1    1    2  501    0 -0.81171392452E+01 -0.32022985476E+02 -0.63204171104E+01  0.33658878781E+02  0.12700000000E+01 0.  1.
<mgrwt>
<rscale>  1 0.12929257E+03</rscale>
<asrwt>0</asrwt>
<pdfrwt beam="1">  1       21 0.91254379E-02 0.12929257E+03</pdfrwt>
<pdfrwt beam="2">  1        4 0.17160687E-01 0.12929257E+03</pdfrwt>
<totfact> 0.11312650E+05</totfact>
</mgrwt>
</event>
<event>
 6    4  0.6093247E-003  0.1285456E+03  0.7818608E-02  0.1229630E+00
         -4   -1    0    0    0  501 -0.00000000000E+00  0.00000000000E+00  0.11773560711E+03  0.11774245658E+03  0.12700000000E+01 0. -1.
         21   -1    0    0  501  502  0.00000000000E+00 -0.00000000000E+00 -0.73255246331E+02  0.73255246331E+02  0.00000000000E+00 0.  1.
         25    2    1    2    0    0 -0.29353610262E+02 -0.61329716531E+01  0.74477936512E+02  0.14856286785E+03  0.12499885960E+03 0.  0.
    9000005    1    3    3    0    0 -0.53674835119E+02  0.32593685345E+02  0.19727363108E+01  0.62834926100E+02  0.10000000000E+01 0.  0.
    9000005    1    3    3    0    0  0.24321224857E+02 -0.38726656998E+02  0.72505200202E+02  0.85727941752E+02  0.10000000000E+01 0.  0.
         -4    1    1    2    0  502  0.29353610262E+02  0.61329716531E+01 -0.29997575733E+02  0.42434835060E+02  0.12700000000E+01 0.  1.
<mgrwt>
<rscale>  1 0.12854557E+03</rscale>
<asrwt>0</asrwt>
<pdfrwt beam="2">  1       21 0.11270038E-01 0.12854557E+03</pdfrwt>
<pdfrwt beam="1">  1       -4 0.18114544E-01 0.12854557E+03</pdfrwt>
<totfact> 0.70965369E+04</totfact>
</mgrwt>
</event>
<event>
 6    4  0.6093247E-003  0.1291217E+03  0.7818608E-02  0.1228765E+00
         -4   -1    0    0    0  501 -0.00000000000E+00  0.00000000000E+00  0.56213800209E+03  0.56213943670E+03  0.12700000000E+01 0. -1.
         21   -1    0    0  501  502  0.00000000000E+00 -0.00000000000E+00 -0.12250948639E+02  0.12250948639E+02  0.00000000000E+00 0.  1.
         25    2    1    2    0    0  0.28349733409E+02  0.15571311502E+02  0.48477078692E+03  0.50167233948E+03  0.12500498880E+03 0.  0.
    9000005    1    3    3    0    0  0.32556700784E+02  0.17111037670E+02  0.49185599308E+03  0.49323021430E+03  0.10000000000E+01 0.  0.
    9000005    1    3    3    0    0 -0.42069673756E+01 -0.15397261674E+01 -0.70852061600E+01  0.84421251767E+01  0.10000000000E+01 0.  0.
         -4    1    1    2    0  502 -0.28349733409E+02 -0.15571311502E+02  0.65116266529E+02  0.72718045855E+02  0.12700000000E+01 0.  1.
<mgrwt>
<rscale>  1 0.12912173E+03</rscale>
<asrwt>0</asrwt>
<pdfrwt beam="2">  1       21 0.18847618E-02 0.12912173E+03</pdfrwt>
<pdfrwt beam="1">  1       -4 0.86487923E-01 0.12912173E+03</pdfrwt>
<totfact> 0.64709857E+04</totfact>
</mgrwt>
</event>
<event>
 6    4  0.6093247E-003  0.1272243E+03  0.7818608E-02  0.1231633E+00
         21   -1    0    0  501  502  0.00000000000E+00  0.00000000000E+00  0.48584484211E+02  0.48584484211E+02  0.00000000000E+00 0. -1.
          4   -1    0    0  502    0 -0.00000000000E+00 -0.00000000000E+00 -0.14875577633E+03  0.14876119754E+03  0.12700000000E+01 0.  1.
         25    2    1    2    0    0 -0.21696320251E+02 -0.94756521528E+01 -0.11319808942E+03  0.17029335016E+03  0.12500199745E+03 0.  0.
    9000005    1    3    3    0    0  0.30529656498E+02  0.17201615795E+01 -0.11279433257E+03  0.11686992916E+03  0.10000000000E+01 0.  0.
    9000005    1    3    3    0    0 -0.52225976750E+02 -0.11195813732E+02 -0.40375685332E+00  0.53423421008E+02  0.10000000000E+01 0.  0.
          4    1    1    2  501    0  0.21696320251E+02  0.94756521528E+01  0.13026797299E+02  0.27052331583E+02  0.12700000000E+01 0. -1.
<mgrwt>
<rscale>  1 0.12722428E+03</rscale>
<asrwt>0</asrwt>
<pdfrwt beam="1">  1       21 0.74745361E-02 0.12722428E+03</pdfrwt>
<pdfrwt beam="2">  1        4 0.22887198E-01 0.12722428E+03</pdfrwt>
<totfact> 0.95002666E+04</totfact>
</mgrwt>
</event>
<event>
 6    4  0.6093247E-003  0.1269588E+03  0.7818608E-02  0.1232039E+00
         -4   -1    0    0    0  501 -0.00000000000E+00  0.00000000000E+00  0.12193058592E+02  0.12259020264E+02  0.12700000000E+01 0. -1.
         21   -1    0    0  501  502  0.00000000000E+00 -0.00000000000E+00 -0.46390511168E+03  0.46390511168E+03  0.00000000000E+00 0. -1.
         25    2    1    2    0    0  0.10474149451E+01 -0.22190718928E+02 -0.35796414174E+03  0.37981160802E+03  0.12500002292E+03 0.  0.
    9000005    1    3    3    0    0 -0.38005360507E+02 -0.60917053306E+02 -0.19368470106E+03  0.20656732131E+03  0.10000000000E+01 0.  0.
    9000005    1    3    3    0    0  0.39052775452E+02  0.38726334378E+02 -0.16427944068E+03  0.17324428670E+03  0.10000000000E+01 0.  0.
         -4    1    1    2    0  502 -0.10474149451E+01  0.22190718928E+02 -0.93747911346E+02  0.96352523923E+02  0.12700000000E+01 0.  1.
<mgrwt>
<rscale>  1 0.12695878E+03</rscale>
<asrwt>0</asrwt>
<pdfrwt beam="2">  1       21 0.71370005E-01 0.12695878E+03</pdfrwt>
<pdfrwt beam="1">  1       -4 0.18810632E-02 0.12695878E+03</pdfrwt>
<totfact> 0.80255693E+04</totfact>
</mgrwt>
</event>
<event>
 6    4  0.6093247E-003  0.1722811E+03  0.7818608E-02  0.1175490E+00
         21   -1    0    0  501  502  0.00000000000E+00  0.00000000000E+00  0.52583781884E+03  0.52583781884E+03  0.00000000000E+00 0.  1.
         -4   -1    0    0    0  501 -0.00000000000E+00 -0.00000000000E+00 -0.17517158824E+03  0.17517619195E+03  0.12700000000E+01 0. -1.
         25    2    1    2    0    0  0.11210883277E+03 -0.38565037354E+02 -0.12367722867E+03  0.21207742722E+03  0.12500050302E+03 0.  0.
    9000005    1    3    3    0    0  0.13233309983E+03 -0.15191960102E+02 -0.12274982102E+03  0.18113907233E+03  0.10000000000E+01 0.  0.
    9000005    1    3    3    0    0 -0.20224267064E+02 -0.23373077252E+02 -0.92740764504E+00  0.30938354893E+02  0.10000000000E+01 0.  0.
         -4    1    1    2    0  502 -0.11210883277E+03  0.38565037354E+02  0.47434345927E+03  0.48893658356E+03  0.12700000000E+01 0.  1.
<mgrwt>
<rscale>  1 0.17228110E+03</rscale>
<asrwt>0</asrwt>
<pdfrwt beam="1">  1       21 0.80898125E-01 0.17228110E+03</pdfrwt>
<pdfrwt beam="2">  1       -4 0.26949947E-01 0.17228110E+03</pdfrwt>
<totfact> 0.73467561E+02</totfact>
</mgrwt>
</event>
<event>
 6    4  0.6093247E-003  0.1309122E+03  0.7818608E-02  0.1226108E+00
         -4   -1    0    0    0  501 -0.00000000000E+00  0.00000000000E+00  0.88930726292E+02  0.88939794124E+02  0.12700000000E+01 0.  1.
         21   -1    0    0  501  502  0.00000000000E+00 -0.00000000000E+00 -0.15533628717E+03  0.15533628717E+03  0.00000000000E+00 0. -1.
         25    2    1    2    0    0  0.19054266884E+01 -0.38849181400E+02  0.35125141518E+02  0.13554252633E+03  0.12500044532E+03 0.  0.
    9000005    1    3    3    0    0  0.40146037753E+02  0.31301070794E+02  0.16174249064E+02  0.53423475298E+02  0.10000000000E+01 0.  0.
    9000005    1    3    3    0    0 -0.38240611065E+02 -0.70150252194E+02  0.18950892454E+02  0.82119051031E+02  0.10000000000E+01 0.  0.
         -4    1    1    2    0  502 -0.19054266884E+01  0.38849181400E+02 -0.10153070240E+03  0.10873355497E+03  0.12700000000E+01 0. -1.
<mgrwt>
<rscale>  1 0.13091219E+03</rscale>
<asrwt>0</asrwt>
<pdfrwt beam="2">  1       21 0.23897890E-01 0.13091219E+03</pdfrwt>
<pdfrwt beam="1">  1       -4 0.13682747E-01 0.13091219E+03</pdfrwt>
<totfact> 0.29646227E+04</totfact>
</mgrwt>
</event>
<event>
 6    4  0.6093247E-003  0.1342062E+03  0.7818608E-02  0.1221345E+00
         -4   -1    0    0    0  501 -0.00000000000E+00  0.00000000000E+00  0.80794469265E+02  0.80804450149E+02  0.12700000000E+01 0. -1.
         21   -1    0    0  501  502  0.00000000000E+00 -0.00000000000E+00 -0.10637612805E+03  0.10637612805E+03  0.00000000000E+00 0.  1.
         25    2    1    2    0    0 -0.19082727593E+02 -0.44971013264E+02 -0.54185081529E+01  0.13431557967E+03  0.12499908874E+03 0.  0.
    9000005    1    3    3    0    0 -0.62559685861E+02 -0.61024717805E+02  0.16935243792E+01  0.87416237067E+02  0.10000000000E+01 0.  0.
    9000005    1    3    3    0    0  0.43476958268E+02  0.16053704540E+02 -0.71120325320E+01  0.46899342601E+02  0.10000000000E+01 0.  0.
         -4    1    1    2    0  502  0.19082727593E+02  0.44971013264E+02 -0.20163150635E+02  0.52864998534E+02  0.12700000000E+01 0.  1.
<mgrwt>
<rscale>  1 0.13420624E+03</rscale>
<asrwt>0</asrwt>
<pdfrwt beam="2">  1       21 0.16365558E-01 0.13420624E+03</pdfrwt>
<pdfrwt beam="1">  1       -4 0.12431269E-01 0.13420624E+03</pdfrwt>
<totfact> 0.70622122E+04</totfact>
</mgrwt>
</event>
<event>
 6    4  0.6093247E-003  0.1268432E+03  0.7818608E-02  0.1232216E+00
          4   -1    0    0  502    0 -0.00000000000E+00  0.00000000000E+00  0.59687701172E+03  0.59687836284E+03  0.12700000000E+01 0.  1.
         21   -1    0    0  501  502  0.00000000000E+00 -0.00000000000E+00 -0.12656535906E+02  0.12656535906E+02  0.00000000000E+00 0.  1.
         25    2    1    2    0    0  0.10893424363E+02  0.18591316330E+02  0.56938655228E+03  0.58334402391E+03  0.12499960230E+03 0.  0.
    9000005    1    3    3    0    0 -0.27255843330E+02  0.36471296809E+01  0.51246393426E+03  0.51320216919E+03  0.10000000000E+01 0.  0.
    9000005    1    3    3    0    0  0.38149267693E+02  0.14944186649E+02  0.56922618023E+02  0.70141854714E+02  0.10000000000E+01 0.  0.
          4    1    1    2  501    0 -0.10893424363E+02 -0.18591316330E+02  0.14833923539E+02  0.26190874838E+02  0.12700000000E+01 0. -1.
<mgrwt>
<rscale>  1 0.12684323E+03</rscale>
<asrwt>0</asrwt>
<pdfrwt beam="2">  1       21 0.19471598E-02 0.12684323E+03</pdfrwt>
<pdfrwt beam="1">  1        4 0.91832216E-01 0.12684323E+03</pdfrwt>
<totfact> 0.53513319E+04</totfact>
</mgrwt>
</event>
<event>
 6    4  0.6093247E-003  0.1316150E+03  0.7818608E-02  0.1225079E+00
          4   -1    0    0  502    0 -0.00000000000E+00  0.00000000000E+00  0.88449086311E+01  0.89356202187E+01  0.12700000000E+01 0.  1.
         21   -1    0    0  501  502  0.00000000000E+00 -0.00000000000E+00 -0.12300618290E+04  0.12300618290E+04  0.00000000000E+00 0. -1.
         25    2    1    2    0    0 -0.37454877837E+02 -0.17151314014E+02 -0.51408706654E+03  0.53066752713E+03  0.12500190768E+03 0.  0.
    9000005    1    3    3    0    0 -0.65924652267E+02 -0.52681879593E+02 -0.29158293957E+03  0.30355073853E+03  0.10000000000E+01 0.  0.
    9000005    1    3    3    0    0  0.28469774430E+02  0.35530565578E+02 -0.22250412697E+03  0.22711678860E+03  0.10000000000E+01 0.  0.
          4    1    1    2  501    0  0.37454877837E+02  0.17151314014E+02 -0.70712985384E+03  0.70832992210E+03  0.12700000000E+01 0. -1.
<mgrwt>
<rscale>  1 0.13161502E+03</rscale>
<asrwt>0</asrwt>
<pdfrwt beam="2">  1       21 0.18924018E+00 0.13161502E+03</pdfrwt>
<pdfrwt beam="1">  1        4 0.13677842E-02 0.13161502E+03</pdfrwt>
<totfact> 0.12044311E+04</totfact>
</mgrwt>
</event>
<event>
 6    4  0.6093247E-003  0.1321123E+03  0.7818608E-02  0.1224355E+00
         -4   -1    0    0    0  501 -0.00000000000E+00  0.00000000000E+00  0.74980330440E+02  0.74991085156E+02  0.12700000000E+01 0.  1.
         21   -1    0    0  501  502  0.00000000000E+00 -0.00000000000E+00 -0.11488927477E+03  0.11488927477E+03  0.00000000000E+00 0.  1.
         25    2    1    2    0    0  0.39235684893E+02 -0.17028872254E+02 -0.11070905434E+01  0.13211689209E+03  0.12499690423E+03 0.  0.
    9000005    1    3    3    0    0 -0.41081752811E+02 -0.24162595315E+02  0.14815044638E+02  0.49920206069E+02  0.10000000000E+01 0.  0.
    9000005    1    3    3    0    0  0.80317437704E+02  0.71337230605E+01 -0.15922135181E+02  0.82196686021E+02  0.10000000000E+01 0.  0.
         -4    1    1    2    0  502 -0.39235684893E+02  0.17028872254E+02 -0.38801853791E+02  0.57763467840E+02  0.12700000000E+01 0. -1.
<mgrwt>
<rscale>  1 0.13211225E+03</rscale>
<asrwt>0</asrwt>
<pdfrwt beam="2">  1       21 0.17675273E-01 0.13211225E+03</pdfrwt>
<pdfrwt beam="1">  1       -4 0.11536803E-01 0.13211225E+03</pdfrwt>
<totfact> 0.69594669E+04</totfact>
</mgrwt>
</event>
<event>
 6    4  0.6093247E-003  0.1345525E+03  0.7818608E-02  0.1220853E+00
          4   -1    0    0  502    0 -0.00000000000E+00  0.00000000000E+00  0.32186792593E+03  0.32187043145E+03  0.12700000000E+01 0. -1.
         21   -1    0    0  501  502  0.00000000000E+00 -0.00000000000E+00 -0.48240048480E+02  0.48240048480E+02  0.00000000000E+00 0.  1.
         25    2    1    2    0    0 -0.25039831581E+02  0.43154367633E+02  0.28824665492E+03  0.31810457482E+03  0.12496036907E+03 0.  0.
    9000005    1    3    3    0    0 -0.46768134030E+02 -0.30513152736E+02  0.95745295834E+02  0.11084436172E+03  0.10000000000E+01 0.  0.
    9000005    1    3    3    0    0  0.21728302449E+02  0.73667520369E+02  0.19250135909E+03  0.20726021310E+03  0.10000000000E+01 0.  0.
          4    1    1    2  501    0  0.25039831581E+02 -0.43154367633E+02 -0.14618777473E+02  0.52005905109E+02  0.12700000000E+01 0.  1.
<mgrwt>
<rscale>  1 0.13455254E+03</rscale>
<asrwt>0</asrwt>
<pdfrwt beam="2">  1       21 0.74215461E-02 0.13455254E+03</pdfrwt>
<pdfrwt beam="1">  1        4 0.49519620E-01 0.13455254E+03</pdfrwt>
<totfact> 0.21978606E+04</totfact>
</mgrwt>
</event>
<event>
 6    4  0.6093247E-003  0.1348779E+03  0.7818608E-02  0.1220392E+00
         21   -1    0    0  501  502  0.00000000000E+00  0.00000000000E+00  0.42330257817E+03  0.42330257817E+03  0.00000000000E+00 0. -1.
         -4   -1    0    0    0  501 -0.00000000000E+00 -0.00000000000E+00 -0.30405971428E+02  0.30432482621E+02  0.12700000000E+01 0.  1.
         25    2    1    2    0    0 -0.47749936613E+02  0.16938988364E+02  0.13473306805E+03  0.19064380023E+03  0.12500029267E+03 0.  0.
    9000005    1    3    3    0    0 -0.17329926046E+02 -0.52809312779E+02  0.36998931105E+02  0.66776273899E+02  0.10000000000E+01 0.  0.
    9000005    1    3    3    0    0 -0.30420010567E+02  0.69748301143E+02  0.97734136947E+02  0.12386752633E+03  0.10000000000E+01 0.  0.
         -4    1    1    2    0  502  0.47749936613E+02 -0.16938988364E+02  0.25816353869E+03  0.26309126056E+03  0.12700000000E+01 0. -1.
<mgrwt>
<rscale>  1 0.13487794E+03</rscale>
<asrwt>0</asrwt>
<pdfrwt beam="1">  1       21 0.65123469E-01 0.13487794E+03</pdfrwt>
<pdfrwt beam="2">  1       -4 0.46800279E-02 0.13487794E+03</pdfrwt>
<totfact> 0.23644633E+04</totfact>
</mgrwt>
</event>
<event>
 6    4  0.6093247E-003  0.1272124E+03  0.7818608E-02  0.1231652E+00
         -4   -1    0    0    0  501 -0.00000000000E+00  0.00000000000E+00  0.14109197299E+03  0.14109768865E+03  0.12700000000E+01 0. -1.
         21   -1    0    0  501  502  0.00000000000E+00 -0.00000000000E+00 -0.67690695485E+02  0.67690695485E+02  0.00000000000E+00 0. -1.
         25    2    1    2    0    0 -0.98888854686E+01  0.21462098895E+02  0.10799757401E+03  0.16687265468E+03  0.12499838056E+03 0.  0.
    9000005    1    3    3    0    0  0.36237156842E+01 -0.31692564795E+02  0.10737193791E+03  0.11201465542E+03  0.10000000000E+01 0.  0.
    9000005    1    3    3    0    0 -0.13512601153E+02  0.53154663691E+02  0.62563610325E+00  0.54857999257E+02  0.10000000000E+01 0.  0.
         -4    1    1    2    0  502  0.98888854686E+01 -0.21462098895E+02 -0.34596296501E+02  0.41915729463E+02  0.12700000000E+01 0.  1.
<mgrwt>
<rscale>  1 0.12721245E+03</rscale>
<asrwt>0</asrwt>
<pdfrwt beam="2">  1       21 0.10413953E-01 0.12721245E+03</pdfrwt>
<pdfrwt beam="1">  1       -4 0.21707813E-01 0.12721245E+03</pdfrwt>
<totfact> 0.58843492E+04</totfact>
</mgrwt>
</event>
<event>
 6    4  0.6093247E-003  0.1305316E+03  0.7818608E-02  0.1226669E+00
         21   -1    0    0  501  502  0.00000000000E+00  0.00000000000E+00  0.97719168962E+02  0.97719168962E+02  0.00000000000E+00 0. -1.
          4   -1    0    0  502    0 -0.00000000000E+00 -0.00000000000E+00 -0.10149962990E+03  0.10150757494E+03  0.12700000000E+01 0. -1.
         25    2    1    2    0    0 -0.22864708737E+02  0.29841019797E+02 -0.49872056200E+02  0.13973448035E+03  0.12500088656E+03 0.  0.
    9000005    1    3    3    0    0 -0.65987894682E+01 -0.39915472491E+02 -0.54578078970E+02  0.67945240236E+02  0.10000000000E+01 0.  0.
    9000005    1    3    3    0    0 -0.16265919268E+02  0.69756492288E+02  0.47060227699E+01  0.71789240115E+02  0.10000000000E+01 0.  0.
          4    1    1    2  501    0  0.22864708737E+02 -0.29841019797E+02  0.46091595264E+02  0.59492263548E+02  0.12700000000E+01 0.  1.
<mgrwt>
<rscale>  1 0.13053162E+03</rscale>
<asrwt>0</asrwt>
<pdfrwt beam="1">  1       21 0.15033718E-01 0.13053162E+03</pdfrwt>
<pdfrwt beam="2">  1        4 0.15616574E-01 0.13053162E+03</pdfrwt>
<totfact> 0.55267808E+04</totfact>
</mgrwt>
</event>
<event>
 6    4  0.6093247E-003  0.1266574E+03  0.7818608E-02  0.1232502E+00
         -4   -1    0    0    0  501 -0.00000000000E+00  0.00000000000E+00  0.25861394993E+03  0.25861706827E+03  0.12700000000E+01 0. -1.
         21   -1    0    0  501  502  0.00000000000E+00 -0.00000000000E+00 -0.22078439202E+02  0.22078439202E+02  0.00000000000E+00 0. -1.
         25    2    1    2    0    0  0.12616855035E+02 -0.16061056051E+02  0.22201814977E+03  0.25560548512E+03  0.12499985056E+03 0.  0.
    9000005    1    3    3    0    0 -0.30840420672E+02 -0.52400396864E+02  0.66618623224E+02  0.90199634694E+02  0.10000000000E+01 0.  0.
    9000005    1    3    3    0    0  0.43457275707E+02  0.36339340813E+02  0.15539952655E+03  0.16540585042E+03  0.10000000000E+01 0.  0.
         -4    1    1    2    0  502 -0.12616855035E+02  0.16061056051E+02  0.14517360958E+02  0.25090022352E+02  0.12700000000E+01 0.  1.
<mgrwt>
<rscale>  1 0.12665743E+03</rscale>
<asrwt>0</asrwt>
<pdfrwt beam="2">  1       21 0.33966832E-02 0.12665743E+03</pdfrwt>
<pdfrwt beam="1">  1       -4 0.39789809E-01 0.12665743E+03</pdfrwt>
<totfact> 0.12561485E+05</totfact>
</mgrwt>
</event>
<event>
 6    4  0.6093247E-003  0.1371678E+03  0.7818608E-02  0.1217191E+00
         21   -1    0    0  501  502  0.00000000000E+00  0.00000000000E+00  0.18405752736E+03  0.18405752736E+03  0.00000000000E+00 0. -1.
         -4   -1    0    0    0  501 -0.00000000000E+00 -0.00000000000E+00 -0.10690279343E+03  0.10691033693E+03  0.12700000000E+01 0.  1.
         25    2    1    2    0    0 -0.25678514483E+02  0.50309212727E+02 -0.54580809960E+02  0.14762816492E+03  0.12499842907E+03 0.  0.
    9000005    1    3    3    0    0  0.88669561171E+01  0.63596592884E+02 -0.80095775693E+02  0.10266198333E+03  0.10000000000E+01 0.  0.
    9000005    1    3    3    0    0 -0.34545470600E+02 -0.13287380157E+02  0.25514965733E+02  0.44966181590E+02  0.10000000000E+01 0.  0.
         -4    1    1    2    0  502  0.25678514483E+02 -0.50309212727E+02  0.13173554389E+03  0.14333969937E+03  0.12700000000E+01 0. -1.
<mgrwt>
<rscale>  1 0.13716782E+03</rscale>
<asrwt>0</asrwt>
<pdfrwt beam="1">  1       21 0.28316543E-01 0.13716782E+03</pdfrwt>
<pdfrwt beam="2">  1       -4 0.16447501E-01 0.13716782E+03</pdfrwt>
<totfact> 0.15645498E+04</totfact>
</mgrwt>
</event>
<event>
 6    4  0.6093247E-003  0.1317789E+03  0.7818608E-02  0.1224840E+00
         21   -1    0    0  501  502  0.00000000000E+00  0.00000000000E+00  0.47219132133E+03  0.47219132133E+03  0.00000000000E+00 0.  1.
          4   -1    0    0  502    0 -0.00000000000E+00 -0.00000000000E+00 -0.17546102973E+02  0.17592004705E+02  0.12700000000E+01 0.  1.
         25    2    1    2    0    0  0.37604004074E+02 -0.18062768018E+02  0.26951359027E+03  0.30000541023E+03  0.12500138444E+03 0.  0.
    9000005    1    3    3    0    0 -0.18385838604E+02 -0.43308378471E+02  0.38015972442E+02  0.60496850064E+02  0.10000000000E+01 0.  0.
    9000005    1    3    3    0    0  0.55989842678E+02  0.25245610454E+02  0.23149761783E+03  0.23950856016E+03  0.10000000000E+01 0.  0.
          4    1    1    2  501    0 -0.37604004074E+02  0.18062768018E+02  0.18513162808E+03  0.18977791580E+03  0.12700000000E+01 0. -1.
<mgrwt>
<rscale>  1 0.13177887E+03</rscale>
<asrwt>0</asrwt>
<pdfrwt beam="1">  1       21 0.72644809E-01 0.13177887E+03</pdfrwt>
<pdfrwt beam="2">  1        4 0.27030631E-02 0.13177887E+03</pdfrwt>
<totfact> 0.44250478E+04</totfact>
</mgrwt>
</event>
<event>
 6    4  0.6093247E-003  0.1273540E+03  0.7818608E-02  0.1231436E+00
          4   -1    0    0  502    0 -0.00000000000E+00  0.00000000000E+00  0.82028045878E+02  0.82037876682E+02  0.12700000000E+01 0.  1.
         21   -1    0    0  501  502  0.00000000000E+00 -0.00000000000E+00 -0.73217432471E+02  0.73217432471E+02  0.00000000000E+00 0.  1.
         25    2    1    2    0    0  0.22860072784E+02 -0.84149639542E+01 -0.45653321083E+01  0.12743583100E+03  0.12500261685E+03 0.  0.
    9000005    1    3    3    0    0 -0.43031167487E+02 -0.95053404604E+01 -0.33590523773E+02  0.55419817393E+02  0.10000000000E+01 0.  0.
    9000005    1    3    3    0    0  0.65891240271E+02  0.10903765062E+01  0.29025191664E+02  0.72016013612E+02  0.10000000000E+01 0.  0.
          4    1    1    2  501    0 -0.22860072784E+02  0.84149639542E+01  0.13375945515E+02  0.27819478149E+02  0.12700000000E+01 0. -1.
<mgrwt>
<rscale>  1 0.12735403E+03</rscale>
<asrwt>0</asrwt>
<pdfrwt beam="2">  1       21 0.11264220E-01 0.12735403E+03</pdfrwt>
<pdfrwt beam="1">  1        4 0.12621303E-01 0.12735403E+03</pdfrwt>
<totfact> 0.13329228E+05</totfact>
</mgrwt>
</event>
<event>
 6    4  0.6093247E-003  0.1658063E+03  0.7818608E-02  0.1182293E+00
         -4   -1    0    0    0  501 -0.00000000000E+00  0.00000000000E+00  0.46185889479E+03  0.46186064088E+03  0.12700000000E+01 0.  1.
         21   -1    0    0  501  502  0.00000000000E+00 -0.00000000000E+00 -0.55905526015E+02  0.55905526015E+02  0.00000000000E+00 0. -1.
         25    2    1    2    0    0  0.17854552594E+01 -0.10892515724E+03  0.36585603293E+03  0.40167444896E+03  0.12499539348E+03 0.  0.
    9000005    1    3    3    0    0 -0.49838616915E+02 -0.16563112334E+02  0.18320102335E+03  0.19058289373E+03  0.10000000000E+01 0.  0.
    9000005    1    3    3    0    0  0.51624072175E+02 -0.92362044906E+02  0.18265500958E+03  0.21109155523E+03  0.10000000000E+01 0.  0.
         -4    1    1    2    0  502 -0.17854552594E+01  0.10892515724E+03  0.40097335843E+02  0.11609171793E+03  0.12700000000E+01 0. -1.
<mgrwt>
<rscale>  1 0.16580629E+03</rscale>
<asrwt>0</asrwt>
<pdfrwt beam="2">  1       21 0.86008505E-02 0.16580629E+03</pdfrwt>
<pdfrwt beam="1">  1       -4 0.71056456E-01 0.16580629E+03</pdfrwt>
<totfact> 0.81249405E+03</totfact>
</mgrwt>
</event>
<event>
 6    4  0.6093247E-003  0.1267593E+03  0.7818608E-02  0.1232345E+00
         -4   -1    0    0    0  501 -0.00000000000E+00  0.00000000000E+00  0.10575962182E+02  0.10651942362E+02  0.12700000000E+01 0. -1.
         21   -1    0    0  501  502  0.00000000000E+00 -0.00000000000E+00 -0.51656586730E+03  0.51656586730E+03  0.00000000000E+00 0. -1.
         25    2    1    2    0    0  0.18755408972E+02  0.95601257121E+01 -0.42251437931E+03  0.44111939110E+03  0.12499902045E+03 0.  0.
    9000005    1    3    3    0    0 -0.50810180244E+02  0.14825215244E+02 -0.12928612199E+03  0.13970455527E+03  0.10000000000E+01 0.  0.
    9000005    1    3    3    0    0  0.69565589216E+02 -0.52650895321E+01 -0.29322825732E+03  0.30141483583E+03  0.10000000000E+01 0.  0.
         -4    1    1    2    0  502 -0.18755408972E+02 -0.95601257121E+01 -0.83475525813E+02  0.86098418563E+02  0.12700000000E+01 0.  1.
<mgrwt>
<rscale>  1 0.12675929E+03</rscale>
<asrwt>0</asrwt>
<pdfrwt beam="2">  1       21 0.79471666E-01 0.12675929E+03</pdfrwt>
<pdfrwt beam="1">  1       -4 0.16330359E-02 0.12675929E+03</pdfrwt>
<totfact> 0.78575821E+04</totfact>
</mgrwt>
</event>
<event>
 6    4  0.6093247E-003  0.1309447E+03  0.7818608E-02  0.1226061E+00
         -4   -1    0    0    0  501 -0.00000000000E+00  0.00000000000E+00  0.21624024895E+02  0.21661286958E+02  0.12700000000E+01 0. -1.
         21   -1    0    0  501  502  0.00000000000E+00 -0.00000000000E+00 -0.82160938068E+03  0.82160938068E+03  0.00000000000E+00 0.  1.
         25    2    1    2    0    0  0.19736063666E+02  0.33633819259E+02 -0.18284045680E+03  0.22489361013E+03  0.12500302888E+03 0.  0.
    9000005    1    3    3    0    0  0.24124970106E+02  0.69908310750E+02 -0.17126368348E+03  0.18655142823E+03  0.10000000000E+01 0.  0.
    9000005    1    3    3    0    0 -0.43889064396E+01 -0.36274491491E+02 -0.11576773320E+02  0.38342181904E+02  0.10000000000E+01 0.  0.
         -4    1    1    2    0  502 -0.19736063666E+02 -0.33633819259E+02 -0.61714489899E+03  0.61837705751E+03  0.12700000000E+01 0.  1.
<mgrwt>
<rscale>  1 0.13094466E+03</rscale>
<asrwt>0</asrwt>
<pdfrwt beam="2">  1       21 0.12640144E+00 0.13094466E+03</pdfrwt>
<pdfrwt beam="1">  1       -4 0.33297150E-02 0.13094466E+03</pdfrwt>
<totfact> 0.88078775E+03</totfact>
</mgrwt>
</event>
<event>
 6    4  0.6093247E-003  0.1324724E+03  0.7818608E-02  0.1223833E+00
         -4   -1    0    0    0  501 -0.00000000000E+00  0.00000000000E+00  0.19859534424E+03  0.19859940497E+03  0.12700000000E+01 0. -1.
         21   -1    0    0  501  502  0.00000000000E+00 -0.00000000000E+00 -0.60182553516E+02  0.60182553516E+02  0.00000000000E+00 0.  1.
         25    2    1    2    0    0  0.43584153560E+02 -0.49978129302E+01  0.16175059284E+03  0.20907458998E+03  0.12499749325E+03 0.  0.
    9000005    1    3    3    0    0 -0.13811133136E+02  0.97497251359E+01  0.14703481802E+03  0.14800689933E+03  0.10000000000E+01 0.  0.
    9000005    1    3    3    0    0  0.57395286695E+02 -0.14747538066E+02  0.14715774822E+02  0.61067690659E+02  0.10000000000E+01 0.  0.
         -4    1    1    2    0  502 -0.43584153560E+02  0.49978129302E+01 -0.23337802115E+02  0.49707368499E+02  0.12700000000E+01 0.  1.
<mgrwt>
<rscale>  1 0.13247237E+03</rscale>
<asrwt>0</asrwt>
<pdfrwt beam="2">  1       21 0.92588545E-02 0.13247237E+03</pdfrwt>
<pdfrwt beam="1">  1       -4 0.30554473E-01 0.13247237E+03</pdfrwt>
<totfact> 0.38568221E+04</totfact>
</mgrwt>
</event>
<event>
 6    4  0.6093247E-003  0.1267908E+03  0.7818608E-02  0.1232297E+00
          4   -1    0    0  502    0 -0.00000000000E+00  0.00000000000E+00  0.20386511562E+02  0.20426031275E+02  0.12700000000E+01 0. -1.
         21   -1    0    0  501  502  0.00000000000E+00 -0.00000000000E+00 -0.28288210550E+03  0.28288210550E+03  0.00000000000E+00 0. -1.
         25    2    1    2    0    0 -0.20778120985E+02 -0.44034562228E+01 -0.24458674292E+03  0.27549697745E+03  0.12499915613E+03 0.  0.
    9000005    1    3    3    0    0  0.12611202803E+02  0.53270985939E+02 -0.71750198742E+02  0.90254813714E+02  0.10000000000E+01 0.  0.
    9000005    1    3    3    0    0 -0.33389323788E+02 -0.57674442162E+02 -0.17283654418E+03  0.18524216373E+03  0.10000000000E+01 0.  0.
          4    1    1    2  501    0  0.20778120985E+02  0.44034562228E+01 -0.17908851022E+02  0.27811159330E+02  0.12700000000E+01 0.  1.
<mgrwt>
<rscale>  1 0.12679081E+03</rscale>
<asrwt>0</asrwt>
<pdfrwt beam="2">  1       21 0.43520320E-01 0.12679081E+03</pdfrwt>
<pdfrwt beam="1">  1        4 0.31396459E-02 0.12679081E+03</pdfrwt>
<totfact> 0.10244055E+05</totfact>
</mgrwt>
</event>
<event>
 6    4  0.6093247E-003  0.1266687E+03  0.7818608E-02  0.1232484E+00
         21   -1    0    0  501  502  0.00000000000E+00  0.00000000000E+00  0.51196198664E+03  0.51196198664E+03  0.00000000000E+00 0.  1.
         -4   -1    0    0    0  501 -0.00000000000E+00 -0.00000000000E+00 -0.25352745717E+02  0.25384534965E+02  0.12700000000E+01 0. -1.
         25    2    1    2    0    0 -0.19698246150E+02  0.56373145708E+01  0.13493653465E+03  0.18507516959E+03  0.12500059919E+03 0.  0.
    9000005    1    3    3    0    0  0.37648750098E+02 -0.35771146840E+01 -0.36164987928E+00  0.37833251565E+02  0.10000000000E+01 0.  0.
    9000005    1    3    3    0    0 -0.57346996248E+02  0.92144292548E+01  0.13529818453E+03  0.14724191802E+03  0.10000000000E+01 0.  0.
         -4    1    1    2    0  502  0.19698246150E+02 -0.56373145708E+01  0.35167270627E+03  0.35227135202E+03  0.12700000000E+01 0.  1.
<mgrwt>
<rscale>  1 0.12666866E+03</rscale>
<asrwt>0</asrwt>
<pdfrwt beam="1">  1       21 0.78763375E-01 0.12666866E+03</pdfrwt>
<pdfrwt beam="2">  1       -4 0.39029893E-02 0.12666866E+03</pdfrwt>
<totfact> 0.20704273E+04</totfact>
</mgrwt>
</event>
<event>
 6    4  0.6093247E-003  0.1362397E+03  0.7818608E-02  0.1218480E+00
          4   -1    0    0  502    0 -0.00000000000E+00  0.00000000000E+00  0.20512907515E+02  0.20552184184E+02  0.12700000000E+01 0. -1.
         21   -1    0    0  501  502  0.00000000000E+00 -0.00000000000E+00 -0.48488713249E+03  0.48488713249E+03  0.00000000000E+00 0.  1.
         25    2    1    2    0    0  0.29481267740E+02 -0.45459385950E+02 -0.25440449377E+03  0.28858775029E+03  0.12500216899E+03 0.  0.
    9000005    1    3    3    0    0 -0.19264063104E+02 -0.76198862429E+02 -0.14689904886E+03  0.16660642640E+03  0.10000000000E+01 0.  0.
    9000005    1    3    3    0    0  0.48745330844E+02  0.30739476479E+02 -0.10750544491E+03  0.12198132389E+03  0.10000000000E+01 0.  0.
          4    1    1    2  501    0 -0.29481267740E+02  0.45459385950E+02 -0.20996973121E+03  0.21685156638E+03  0.12700000000E+01 0.  1.
<mgrwt>
<rscale>  1 0.13623965E+03</rscale>
<asrwt>0</asrwt>
<pdfrwt beam="2">  1       21 0.74598022E-01 0.13623965E+03</pdfrwt>
<pdfrwt beam="1">  1        4 0.31589811E-02 0.13623965E+03</pdfrwt>
<totfact> 0.32811573E+04</totfact>
</mgrwt>
</event>
<event>
 6    4  0.6093247E-003  0.1270410E+03  0.7818608E-02  0.1231914E+00
         21   -1    0    0  501  502  0.00000000000E+00  0.00000000000E+00  0.35611130604E+01  0.35611130604E+01  0.00000000000E+00 0.  1.
         -4   -1    0    0    0  501 -0.00000000000E+00 -0.00000000000E+00 -0.18514182006E+04  0.18514186362E+04  0.12700000000E+01 0.  1.
         25    2    1    2    0    0 -0.20574050277E+02 -0.96053291589E+01 -0.17459588728E+04  0.17505747065E+04  0.12499545380E+03 0.  0.
    9000005    1    3    3    0    0  0.41037302904E+02  0.30889275214E+02 -0.87140469011E+03  0.87291771749E+03  0.10000000000E+01 0.  0.
    9000005    1    3    3    0    0 -0.61611353182E+02 -0.40494604373E+02 -0.87455418273E+03  0.87765698900E+03  0.10000000000E+01 0.  0.
         -4    1    1    2    0  502  0.20574050277E+02  0.96053291589E+01 -0.10189821467E+03  0.10440504273E+03  0.12700000000E+01 0. -1.
<mgrwt>
<rscale>  1 0.12704101E+03</rscale>
<asrwt>0</asrwt>
<pdfrwt beam="1">  1       21 0.54786191E-03 0.12704101E+03</pdfrwt>
<pdfrwt beam="2">  1       -4 0.28485187E+00 0.12704101E+03</pdfrwt>
<totfact> 0.18055981E+04</totfact>
</mgrwt>
</event>
<event>
 6    4  0.6093247E-003  0.1270401E+03  0.7818608E-02  0.1231915E+00
         21   -1    0    0  501  502  0.00000000000E+00  0.00000000000E+00  0.18591032824E+02  0.18591032824E+02  0.00000000000E+00 0.  1.
         -4   -1    0    0    0  501 -0.00000000000E+00 -0.00000000000E+00 -0.50824801411E+03  0.50824960083E+03  0.12700000000E+01 0. -1.
         25    2    1    2    0    0 -0.70193288943E+01 -0.21554458929E+02 -0.48778782892E+03  0.50405966992E+03  0.12500127647E+03 0.  0.
    9000005    1    3    3    0    0 -0.15601610228E+02 -0.33902074272E+02 -0.35487953459E+02  0.51508792670E+02  0.10000000000E+01 0.  0.
    9000005    1    3    3    0    0  0.85822813336E+01  0.12347615342E+02 -0.45229987547E+03  0.45255087725E+03  0.10000000000E+01 0.  0.
         -4    1    1    2    0  502  0.70193288943E+01  0.21554458929E+02 -0.18691523565E+01  0.22780963728E+02  0.12700000000E+01 0.  1.
<mgrwt>
<rscale>  1 0.12704009E+03</rscale>
<asrwt>0</asrwt>
<pdfrwt beam="1">  1       21 0.28601589E-02 0.12704009E+03</pdfrwt>
<pdfrwt beam="2">  1       -4 0.78195460E-01 0.12704009E+03</pdfrwt>
<totfact> 0.41040667E+04</totfact>
</mgrwt>
</event>
<event>
 6    4  0.6093247E-003  0.1270245E+03  0.7818608E-02  0.1231939E+00
          4   -1    0    0  502    0 -0.00000000000E+00  0.00000000000E+00  0.54780967258E+02  0.54795686634E+02  0.12700000000E+01 0. -1.
         21   -1    0    0  501  502  0.00000000000E+00 -0.00000000000E+00 -0.24536777567E+03  0.24536777567E+03  0.00000000000E+00 0. -1.
         25    2    1    2    0    0 -0.21207533011E+02 -0.78010147009E+01 -0.20608931839E+02  0.12868545581E+03  0.12499841270E+03 0.  0.
    9000005    1    3    3    0    0 -0.55604931667E+02 -0.31508822003E+02 -0.46930917514E+02  0.79298331057E+02  0.10000000000E+01 0.  0.
    9000005    1    3    3    0    0  0.34397398656E+02  0.23707807302E+02  0.26321985675E+02  0.49387124752E+02  0.10000000000E+01 0.  0.
          4    1    1    2  501    0  0.21207533011E+02  0.78010147009E+01 -0.16997787657E+03  0.17147800649E+03  0.12700000000E+01 0.  1.
<mgrwt>
<rscale>  1 0.12702448E+03</rscale>
<asrwt>0</asrwt>
<pdfrwt beam="2">  1       21 0.37748888E-01 0.12702448E+03</pdfrwt>
<pdfrwt beam="1">  1        4 0.84292262E-02 0.12702448E+03</pdfrwt>
<totfact> 0.27778041E+04</totfact>
</mgrwt>
</event>
<event>
 6    4  0.6093247E-003  0.1286676E+03  0.7818608E-02  0.1229446E+00
          4   -1    0    0  502    0 -0.00000000000E+00  0.00000000000E+00  0.40620752697E+03  0.40620951228E+03  0.12700000000E+01 0.  1.
         21   -1    0    0  501  502  0.00000000000E+00 -0.00000000000E+00 -0.16843445030E+02  0.16843445030E+02  0.00000000000E+00 0. -1.
         25    2    1    2    0    0 -0.20879177157E+02  0.22222589428E+02  0.35218126934E+03  0.37494934027E+03  0.12500231108E+03 0.  0.
    9000005    1    3    3    0    0 -0.65778420473E+02  0.36957148438E+02  0.15792566950E+03  0.17502613664E+03  0.10000000000E+01 0.  0.
    9000005    1    3    3    0    0  0.44899243315E+02 -0.14734559010E+02  0.19425559984E+03  0.19992320362E+03  0.10000000000E+01 0.  0.
          4    1    1    2  501    0  0.20879177157E+02 -0.22222589428E+02  0.37182812598E+02  0.48103617040E+02  0.12700000000E+01 0. -1.
<mgrwt>
<rscale>  1 0.12866764E+03</rscale>
<asrwt>0</asrwt>
<pdfrwt beam="2">  1       21 0.25912995E-02 0.12866764E+03</pdfrwt>
<pdfrwt beam="1">  1        4 0.62497294E-01 0.12866764E+03</pdfrwt>
<totfact> 0.78282767E+04</totfact>
</mgrwt>
</event>
<event>
 6    4  0.6093247E-003  0.1272554E+03  0.7818608E-02  0.1231586E+00
         21   -1    0    0  501  502  0.00000000000E+00  0.00000000000E+00  0.22744967821E+03  0.22744967821E+03  0.00000000000E+00 0.  1.
         -4   -1    0    0    0  501 -0.00000000000E+00 -0.00000000000E+00 -0.55743879938E+02  0.55758345120E+02  0.12700000000E+01 0. -1.
         25    2    1    2    0    0  0.21024324542E+01 -0.23729957307E+02  0.19019166779E+02  0.12866886508E+03  0.12500566803E+03 0.  0.
    9000005    1    3    3    0    0 -0.44006094480E+01  0.48107730322E+02 -0.12554760523E+02  0.49923352172E+02  0.10000000000E+01 0.  0.
    9000005    1    3    3    0    0  0.65030419022E+01 -0.71837687629E+02  0.31573927302E+02  0.78745512908E+02  0.10000000000E+01 0.  0.
         -4    1    1    2    0  502 -0.21024324542E+01  0.23729957307E+02  0.15268663149E+03  0.15453915825E+03  0.12700000000E+01 0.  1.
<mgrwt>
<rscale>  1 0.12725544E+03</rscale>
<asrwt>0</asrwt>
<pdfrwt beam="1">  1       21 0.34992258E-01 0.12725544E+03</pdfrwt>
<pdfrwt beam="2">  1       -4 0.85773671E-02 0.12725544E+03</pdfrwt>
<totfact> 0.31345904E+04</totfact>
</mgrwt>
</event>
<event>
 6    4  0.6093247E-003  0.1274444E+03  0.7818608E-02  0.1231298E+00
         21   -1    0    0  501  502  0.00000000000E+00  0.00000000000E+00  0.20200708075E+03  0.20200708075E+03  0.00000000000E+00 0.  1.
         -4   -1    0    0    0  501 -0.00000000000E+00 -0.00000000000E+00 -0.11198302126E+03  0.11199022257E+03  0.12700000000E+01 0. -1.
         25    2    1    2    0    0 -0.11881527345E+02 -0.21813286607E+02 -0.74487740384E+02  0.14761600821E+03  0.12500028899E+03 0.  0.
    9000005    1    3    3    0    0  0.22673343429E+02 -0.51224489540E+02 -0.84261163658E+02  0.10118780822E+03  0.10000000000E+01 0.  0.
    9000005    1    3    3    0    0 -0.34554870774E+02  0.29411202932E+02  0.97734232743E+01  0.46428199993E+02  0.10000000000E+01 0.  0.
         -4    1    1    2    0  502  0.11881527345E+02  0.21813286607E+02  0.16451179987E+03  0.16638129511E+03  0.12700000000E+01 0.  1.
<mgrwt>
<rscale>  1 0.12744435E+03</rscale>
<asrwt>0</asrwt>
<pdfrwt beam="1">  1       21 0.31078012E-01 0.12744435E+03</pdfrwt>
<pdfrwt beam="2">  1       -4 0.17229018E-01 0.12744435E+03</pdfrwt>
<totfact> 0.11970929E+04</totfact>
</mgrwt>
</event>
<event>
 6    4  0.6093247E-003  0.1327338E+03  0.7818608E-02  0.1223455E+00
          4   -1    0    0  502    0 -0.00000000000E+00  0.00000000000E+00  0.22523724842E+02  0.22559500898E+02  0.12700000000E+01 0. -1.
         21   -1    0    0  501  502  0.00000000000E+00 -0.00000000000E+00 -0.43434636991E+03  0.43434636991E+03  0.00000000000E+00 0. -1.
         25    2    1    2    0    0 -0.14435023067E+02  0.42232946486E+02 -0.19734808398E+03  0.23783295620E+03  0.12500502848E+03 0.  0.
    9000005    1    3    3    0    0 -0.57159918814E+01 -0.39305406517E+02 -0.24930636912E+02  0.46905481572E+02  0.10000000000E+01 0.  0.
    9000005    1    3    3    0    0 -0.87190311854E+01  0.81538353003E+02 -0.17241744707E+03  0.19092747463E+03  0.10000000000E+01 0.  0.
          4    1    1    2  501    0  0.14435023067E+02 -0.42232946486E+02 -0.21447456109E+03  0.21907291460E+03  0.12700000000E+01 0.  1.
<mgrwt>
<rscale>  1 0.13273375E+03</rscale>
<asrwt>0</asrwt>
<pdfrwt beam="2">  1       21 0.66822509E-01 0.13273375E+03</pdfrwt>
<pdfrwt beam="1">  1        4 0.34680838E-02 0.13273375E+03</pdfrwt>
<totfact> 0.35950928E+04</totfact>
</mgrwt>
</event>
<event>
 6    4  0.6093247E-003  0.1340767E+03  0.7818608E-02  0.1221529E+00
         -4   -1    0    0    0  501 -0.00000000000E+00  0.00000000000E+00  0.48332134654E+02  0.48348817361E+02  0.12700000000E+01 0. -1.
         21   -1    0    0  501  502  0.00000000000E+00 -0.00000000000E+00 -0.17843484368E+03  0.17843484368E+03  0.00000000000E+00 0. -1.
         25    2    1    2    0    0  0.46797948591E+02 -0.12719925345E+02 -0.76009786408E+02  0.15412348164E+03  0.12499886188E+03 0.  0.
    9000005    1    3    3    0    0 -0.35485230632E+02  0.24409144232E+02 -0.32150158017E+02  0.53755377179E+02  0.10000000000E+01 0.  0.
    9000005    1    3    3    0    0  0.82283179223E+02 -0.37129069577E+02 -0.43859628391E+02  0.10036810446E+03  0.10000000000E+01 0.  0.
         -4    1    1    2    0  502 -0.46797948591E+02  0.12719925345E+02 -0.54092922620E+02  0.72660179401E+02  0.12700000000E+01 0.  1.
<mgrwt>
<rscale>  1 0.13407669E+03</rscale>
<asrwt>0</asrwt>
<pdfrwt beam="2">  1       21 0.27451514E-01 0.13407669E+03</pdfrwt>
<pdfrwt beam="1">  1       -4 0.74373441E-02 0.13407669E+03</pdfrwt>
<totfact> 0.63891878E+04</totfact>
</mgrwt>
</event>
<event>
 6    4  0.6093247E-003  0.1292729E+03  0.7818608E-02  0.1228539E+00
          4   -1    0    0  502    0 -0.00000000000E+00  0.00000000000E+00  0.24518359546E+02  0.24551229191E+02  0.12700000000E+01 0. -1.
         21   -1    0    0  501  502  0.00000000000E+00 -0.00000000000E+00 -0.52221782349E+03  0.52221782349E+03  0.00000000000E+00 0. -1.
         25    2    1    2    0    0 -0.18944698628E+02  0.26977560893E+02 -0.15216743409E+03  0.19966577273E+03  0.12499920962E+03 0.  0.
    9000005    1    3    3    0    0 -0.65035593433E+02 -0.46517485649E+01 -0.46406222183E+02  0.80036270747E+02  0.10000000000E+01 0.  0.
    9000005    1    3    3    0    0  0.46090894804E+02  0.31629309458E+02 -0.10576121191E+03  0.11962950198E+03  0.10000000000E+01 0.  0.
          4    1    1    2  501    0  0.18944698628E+02 -0.26977560893E+02 -0.34553202985E+03  0.34710327995E+03  0.12700000000E+01 0.  1.
<mgrwt>
<rscale>  1 0.12927294E+03</rscale>
<asrwt>0</asrwt>
<pdfrwt beam="2">  1       21 0.80341198E-01 0.12927294E+03</pdfrwt>
<pdfrwt beam="1">  1        4 0.37747028E-02 0.12927294E+03</pdfrwt>
<totfact> 0.20920142E+04</totfact>
</mgrwt>
</event>
<event>
 6    4  0.6093247E-003  0.1565071E+03  0.7818608E-02  0.1192698E+00
         21   -1    0    0  501  502  0.00000000000E+00  0.00000000000E+00  0.65725641994E+02  0.65725641994E+02  0.00000000000E+00 0. -1.
         -4   -1    0    0    0  501 -0.00000000000E+00 -0.00000000000E+00 -0.23905611668E+03  0.23905949013E+03  0.12700000000E+01 0.  1.
         25    2    1    2    0    0 -0.73683609596E+02 -0.58654507402E+02 -0.10721582719E+03  0.18970956967E+03  0.12499944664E+03 0.  0.
    9000005    1    3    3    0    0 -0.98151163193E+02 -0.76867905446E+01 -0.80469591348E+02  0.12715774737E+03  0.10000000000E+01 0.  0.
    9000005    1    3    3    0    0  0.24467553596E+02 -0.50967716858E+02 -0.26746235847E+02  0.62551822297E+02  0.10000000000E+01 0.  0.
         -4    1    1    2    0  502  0.73683609596E+02  0.58654507402E+02 -0.66114647487E+02  0.11507556245E+03  0.12700000000E+01 0. -1.
<mgrwt>
<rscale>  1 0.15650715E+03</rscale>
<asrwt>0</asrwt>
<pdfrwt beam="1">  1       21 0.10111637E-01 0.15650715E+03</pdfrwt>
<pdfrwt beam="2">  1       -4 0.36779068E-01 0.15650715E+03</pdfrwt>
<totfact> 0.23571567E+04</totfact>
</mgrwt>
</event>
<event>
 6    4  0.6093247E-003  0.1313823E+03  0.7818608E-02  0.1225419E+00
         21   -1    0    0  501  502  0.00000000000E+00  0.00000000000E+00  0.37628084370E+03  0.37628084370E+03  0.00000000000E+00 0.  1.
          4   -1    0    0  502    0 -0.00000000000E+00 -0.00000000000E+00 -0.20786744915E+02  0.20825505135E+02  0.12700000000E+01 0.  1.
         25    2    1    2    0    0  0.31556076087E+02 -0.25302594928E+02  0.22575228036E+03  0.26119991191E+03  0.12500117859E+03 0.  0.
    9000005    1    3    3    0    0  0.70338424480E+02  0.16204995852E+02  0.10127217249E+03  0.12436699228E+03  0.10000000000E+01 0.  0.
    9000005    1    3    3    0    0 -0.38782348393E+02 -0.41507590780E+02  0.12448010787E+03  0.13683291963E+03  0.10000000000E+01 0.  0.
          4    1    1    2  501    0 -0.31556076087E+02  0.25302594928E+02  0.12974181843E+03  0.13590643692E+03  0.12700000000E+01 0. -1.
<mgrwt>
<rscale>  1 0.13138227E+03</rscale>
<asrwt>0</asrwt>
<pdfrwt beam="1">  1       21 0.57889356E-01 0.13138227E+03</pdfrwt>
<pdfrwt beam="2">  1        4 0.32011075E-02 0.13138227E+03</pdfrwt>
<totfact> 0.55366026E+04</totfact>
</mgrwt>
</event>
<event>
 6    4  0.6093247E-003  0.1285987E+03  0.7818608E-02  0.1229550E+00
          4   -1    0    0  502    0 -0.00000000000E+00  0.00000000000E+00  0.63563597278E+03  0.63563724151E+03  0.12700000000E+01 0.  1.
         21   -1    0    0  501  502  0.00000000000E+00 -0.00000000000E+00 -0.99346111958E+01  0.99346111958E+01  0.00000000000E+00 0.  1.
         25    2    1    2    0    0  0.59160388562E+01 -0.29624254132E+02  0.51542482756E+03  0.53122534945E+03  0.12500009236E+03 0.  0.
    9000005    1    3    3    0    0  0.39565274214E+02 -0.67262864387E+02  0.30504332930E+03  0.31486844332E+03  0.10000000000E+01 0.  0.
    9000005    1    3    3    0    0 -0.33649235358E+02  0.37638610255E+02  0.21038149826E+03  0.21635690613E+03  0.10000000000E+01 0.  0.
          4    1    1    2  501    0 -0.59160388562E+01  0.29624254132E+02  0.11027653403E+03  0.11434650326E+03  0.12700000000E+01 0. -1.
<mgrwt>
<rscale>  1 0.12859867E+03</rscale>
<asrwt>0</asrwt>
<pdfrwt beam="2">  1       21 0.15284022E-02 0.12859867E+03</pdfrwt>
<pdfrwt beam="1">  1        4 0.97796459E-01 0.12859867E+03</pdfrwt>
<totfact> 0.68504132E+04</totfact>
</mgrwt>
</event>
<event>
 6    4  0.6093247E-003  0.1284268E+03  0.7818608E-02  0.1229809E+00
          4   -1    0    0  502    0 -0.00000000000E+00  0.00000000000E+00  0.21258046692E+03  0.21258426051E+03  0.12700000000E+01 0.  1.
         21   -1    0    0  501  502  0.00000000000E+00 -0.00000000000E+00 -0.58277170459E+02  0.58277170459E+02  0.00000000000E+00 0. -1.
         25    2    1    2    0    0 -0.17431162781E+02  0.23778842343E+02  0.18697638817E+03  0.22683391002E+03  0.12499669685E+03 0.  0.
    9000005    1    3    3    0    0  0.29007336718E+02  0.14289327811E+02 -0.15985982943E+01  0.32390831871E+02  0.10000000000E+01 0.  0.
    9000005    1    3    3    0    0 -0.46438499498E+02  0.94895145321E+01  0.18857498646E+03  0.19444307815E+03  0.10000000000E+01 0.  0.
          4    1    1    2  501    0  0.17431162781E+02 -0.23778842343E+02 -0.32673091705E+02  0.44027520946E+02  0.12700000000E+01 0. -1.
<mgrwt>
<rscale>  1 0.12842684E+03</rscale>
<asrwt>0</asrwt>
<pdfrwt beam="2">  1       21 0.89657187E-02 0.12842684E+03</pdfrwt>
<pdfrwt beam="1">  1        4 0.32706043E-01 0.12842684E+03</pdfrwt>
<totfact> 0.35701148E+04</totfact>
</mgrwt>
</event>
<event>
 6    4  0.6093247E-003  0.1414636E+03  0.7818608E-02  0.1211373E+00
         -4   -1    0    0    0  501 -0.00000000000E+00  0.00000000000E+00  0.12715087129E+03  0.12715721360E+03  0.12700000000E+01 0. -1.
         21   -1    0    0  501  502  0.00000000000E+00 -0.00000000000E+00 -0.12928981453E+03  0.12928981453E+03  0.00000000000E+00 0.  1.
         25    2    1    2    0    0  0.62585526880E+02  0.21681576706E+02  0.70566118261E+02  0.15808708805E+03  0.12499964568E+03 0.  0.
    9000005    1    3    3    0    0  0.56559461013E+02 -0.24068212502E+02 -0.12802425319E+02  0.62794534613E+02  0.10000000000E+01 0.  0.
    9000005    1    3    3    0    0  0.60260658667E+01  0.45749789208E+02  0.83368543580E+02  0.95292553440E+02  0.10000000000E+01 0.  0.
         -4    1    1    2    0  502 -0.62585526880E+02 -0.21681576706E+02 -0.72705061505E+02  0.98359940076E+02  0.12700000000E+01 0.  1.
<mgrwt>
<rscale>  1 0.14146360E+03</rscale>
<asrwt>0</asrwt>
<pdfrwt beam="2">  1       21 0.19890741E-01 0.14146360E+03</pdfrwt>
<pdfrwt beam="1">  1       -4 0.19562640E-01 0.14146360E+03</pdfrwt>
<totfact> 0.22420666E+04</totfact>
</mgrwt>
</event>
<event>
 6    4  0.6093247E-003  0.1267551E+03  0.7818608E-02  0.1232352E+00
         -4   -1    0    0    0  501 -0.00000000000E+00  0.00000000000E+00  0.30628792482E+03  0.30629055779E+03  0.12700000000E+01 0.  1.
         21   -1    0    0  501  502  0.00000000000E+00 -0.00000000000E+00 -0.23634032129E+02  0.23634032129E+02  0.00000000000E+00 0. -1.
         25    2    1    2    0    0 -0.13145538778E+02  0.16766423432E+02  0.28129900504E+03  0.30853845504E+03  0.12495171011E+03 0.  0.
    9000005    1    3    3    0    0  0.48839893277E+02 -0.60690187237E+01  0.60111549249E+02  0.77695344241E+02  0.10000000000E+01 0.  0.
    9000005    1    3    3    0    0 -0.61985432055E+02  0.22835442156E+02  0.22118745579E+03  0.23084311080E+03  0.10000000000E+01 0.  0.
         -4    1    1    2    0  502  0.13145538778E+02 -0.16766423432E+02  0.13548876540E+01  0.21386134878E+02  0.12700000000E+01 0. -1.
<mgrwt>
<rscale>  1 0.12675507E+03</rscale>
<asrwt>0</asrwt>
<pdfrwt beam="2">  1       21 0.36360052E-02 0.12675507E+03</pdfrwt>
<pdfrwt beam="1">  1       -4 0.47124044E-01 0.12675507E+03</pdfrwt>
<totfact> 0.80198184E+04</totfact>
</mgrwt>
</event>
<event>
 6    4  0.6093247E-003  0.1267323E+03  0.7818608E-02  0.1232387E+00
         -4   -1    0    0    0  501 -0.00000000000E+00  0.00000000000E+00  0.36379939732E+02  0.36402100418E+02  0.12700000000E+01 0.  1.
         21   -1    0    0  501  502  0.00000000000E+00 -0.00000000000E+00 -0.16181465087E+03  0.16181465087E+03  0.00000000000E+00 0.  1.
         25    2    1    2    0    0 -0.10696542148E+02  0.17966640290E+02 -0.84758795691E+02  0.15246350906E+03  0.12499540779E+03 0.  0.
    9000005    1    3    3    0    0 -0.43823790178E+01 -0.50231524151E+02 -0.10643637043E+02  0.51543169032E+02  0.10000000000E+01 0.  0.
    9000005    1    3    3    0    0 -0.63141631297E+01  0.68198164441E+02 -0.74115158649E+02  0.10092034002E+03  0.10000000000E+01 0.  0.
         -4    1    1    2    0  502  0.10696542148E+02 -0.17966640290E+02 -0.40675915443E+02  0.45753242228E+02  0.12700000000E+01 0. -1.
<mgrwt>
<rscale>  1 0.12673227E+03</rscale>
<asrwt>0</asrwt>
<pdfrwt beam="2">  1       21 0.24894562E-01 0.12673227E+03</pdfrwt>
<pdfrwt beam="1">  1       -4 0.55990018E-02 0.12673227E+03</pdfrwt>
<totfact> 0.12136712E+05</totfact>
</mgrwt>
</event>
<event>
 6    4  0.6093247E-003  0.1288823E+03  0.7818608E-02  0.1229124E+00
         21   -1    0    0  501  502  0.00000000000E+00  0.00000000000E+00  0.23470462139E+02  0.23470462139E+02  0.00000000000E+00 0.  1.
          4   -1    0    0  502    0 -0.00000000000E+00 -0.00000000000E+00 -0.40497095556E+03  0.40497294694E+03  0.12700000000E+01 0. -1.
         25    2    1    2    0    0  0.31384185039E+02  0.99445544843E+00 -0.37476066427E+03  0.39630318180E+03  0.12499880163E+03 0.  0.
    9000005    1    3    3    0    0  0.36064242012E+02 -0.35048966524E+02 -0.34681819928E+03  0.35044674768E+03  0.10000000000E+01 0.  0.
    9000005    1    3    3    0    0 -0.46800569732E+01  0.36043421973E+02 -0.27942464988E+02  0.45856434122E+02  0.10000000000E+01 0.  0.
          4    1    1    2  501    0 -0.31384185039E+02 -0.99445544843E+00 -0.67398291557E+01  0.32140227274E+02  0.12700000000E+01 0.  1.
<mgrwt>
<rscale>  1 0.12888234E+03</rscale>
<asrwt>0</asrwt>
<pdfrwt beam="1">  1       21 0.36108402E-02 0.12888234E+03</pdfrwt>
<pdfrwt beam="2">  1        4 0.62306022E-01 0.12888234E+03</pdfrwt>
<totfact> 0.45716030E+04</totfact>
</mgrwt>
</event>
<event>
 6    4  0.6093247E-003  0.1328570E+03  0.7818608E-02  0.1223277E+00
         21   -1    0    0  501  502  0.00000000000E+00  0.00000000000E+00  0.30794483231E+03  0.30794483231E+03  0.00000000000E+00 0. -1.
          4   -1    0    0  502    0 -0.00000000000E+00 -0.00000000000E+00 -0.99593035415E+02  0.99601132540E+02  0.12700000000E+01 0.  1.
         25    2    1    2    0    0 -0.16635461937E+02  0.41826650721E+02 -0.52486632517E+02  0.14284895606E+03  0.12499908140E+03 0.  0.
    9000005    1    3    3    0    0  0.48563547473E+02  0.45013948198E+02 -0.16278515629E+02  0.68195775137E+02  0.10000000000E+01 0.  0.
    9000005    1    3    3    0    0 -0.65199009410E+02 -0.31872974767E+01 -0.36208116888E+02  0.74653180922E+02  0.10000000000E+01 0.  0.
          4    1    1    2  501    0  0.16635461937E+02 -0.41826650721E+02  0.26083842941E+03  0.26469700879E+03  0.12700000000E+01 0. -1.
<mgrwt>
<rscale>  1 0.13285698E+03</rscale>
<asrwt>0</asrwt>
<pdfrwt beam="1">  1       21 0.47376128E-01 0.13285698E+03</pdfrwt>
<pdfrwt beam="2">  1        4 0.15322830E-01 0.13285698E+03</pdfrwt>
<totfact> 0.63786635E+03</totfact>
</mgrwt>
</event>
<event>
 6    4  0.6093247E-003  0.1454138E+03  0.7818608E-02  0.1206224E+00
         21   -1    0    0  501  502  0.00000000000E+00  0.00000000000E+00  0.84157907572E+01  0.84157907572E+01  0.00000000000E+00 0. -1.
         -4   -1    0    0    0  501 -0.00000000000E+00 -0.00000000000E+00 -0.16455554506E+04  0.16455559407E+04  0.12700000000E+01 0.  1.
         25    2    1    2    0    0  0.34097629152E+02 -0.66012578158E+02 -0.13320146997E+04  0.13399284812E+04  0.12499946337E+03 0.  0.
    9000005    1    3    3    0    0 -0.60474477324E+00 -0.22774276669E+01 -0.10030318367E+04  0.10030351030E+04  0.10000000000E+01 0.  0.
    9000005    1    3    3    0    0  0.34702373926E+02 -0.63735150491E+02 -0.32898286298E+03  0.33689337823E+03  0.10000000000E+01 0.  0.
         -4    1    1    2    0  502 -0.34097629152E+02  0.66012578158E+02 -0.30512496017E+03  0.31404325022E+03  0.12700000000E+01 0. -1.
<mgrwt>
<rscale>  1 0.14541380E+03</rscale>
<asrwt>0</asrwt>
<pdfrwt beam="1">  1       21 0.12947365E-02 0.14541380E+03</pdfrwt>
<pdfrwt beam="2">  1       -4 0.25316989E+00 0.14541380E+03</pdfrwt>
<totfact> 0.71763457E+03</totfact>
</mgrwt>
</event>
<event>
 6    4  0.6093247E-003  0.1596569E+03  0.7818608E-02  0.1189085E+00
         21   -1    0    0  501  502  0.00000000000E+00  0.00000000000E+00  0.37369018774E+02  0.37369018774E+02  0.00000000000E+00 0. -1.
          4   -1    0    0  502    0 -0.00000000000E+00 -0.00000000000E+00 -0.18111242413E+04  0.18111246865E+04  0.12700000000E+01 0.  1.
         25    2    1    2    0    0 -0.33329273879E+02  0.93562732405E+02 -0.17342699589E+04  0.17416034610E+04  0.12500199802E+03 0.  0.
    9000005    1    3    3    0    0 -0.60833287253E+02  0.14373839101E+02 -0.11059044571E+04  0.11076700611E+04  0.10000000000E+01 0.  0.
    9000005    1    3    3    0    0  0.27504013374E+02  0.79188893304E+02 -0.62836550180E+03  0.63393339984E+03  0.10000000000E+01 0.  0.
          4    1    1    2  501    0  0.33329273879E+02 -0.93562732405E+02 -0.39485263562E+02  0.10689024432E+03  0.12700000000E+01 0. -1.
<mgrwt>
<rscale>  1 0.15965690E+03</rscale>
<asrwt>0</asrwt>
<pdfrwt beam="1">  1       21 0.57490797E-02 0.15965690E+03</pdfrwt>
<pdfrwt beam="2">  1        4 0.27863620E+00 0.15965690E+03</pdfrwt>
<totfact> 0.44317176E+02</totfact>
</mgrwt>
</event>
<event>
 6    4  0.6093247E-003  0.1301237E+03  0.7818608E-02  0.1227272E+00
         21   -1    0    0  501  502  0.00000000000E+00  0.00000000000E+00  0.77254600478E+02  0.77254600478E+02  0.00000000000E+00 0.  1.
          4   -1    0    0  502    0 -0.00000000000E+00 -0.00000000000E+00 -0.89527943210E+02  0.89536950559E+02  0.12700000000E+01 0.  1.
         25    2    1    2    0    0  0.29021928436E+02  0.21572818632E+02 -0.10947915117E+02  0.13058342360E+03  0.12499805935E+03 0.  0.
    9000005    1    3    3    0    0  0.55402088418E+02 -0.19011339608E+02 -0.42869624750E+02  0.72592197659E+02  0.10000000000E+01 0.  0.
    9000005    1    3    3    0    0 -0.26380159981E+02  0.40584158239E+02  0.31921709633E+02  0.57991225944E+02  0.10000000000E+01 0.  0.
          4    1    1    2  501    0 -0.29021928436E+02 -0.21572818632E+02 -0.13254276157E+01  0.36208127434E+02  0.12700000000E+01 0. -1.
<mgrwt>
<rscale>  1 0.13012369E+03</rscale>
<asrwt>0</asrwt>
<pdfrwt beam="1">  1       21 0.11885323E-01 0.13012369E+03</pdfrwt>
<pdfrwt beam="2">  1        4 0.13775026E-01 0.13012369E+03</pdfrwt>
<totfact> 0.10459745E+05</totfact>
</mgrwt>
</event>
<event>
 6    4  0.6093247E-003  0.1273012E+03  0.7818608E-02  0.1231516E+00
         21   -1    0    0  501  502  0.00000000000E+00  0.00000000000E+00  0.23614446672E+03  0.23614446672E+03  0.00000000000E+00 0.  1.
          4   -1    0    0  502    0 -0.00000000000E+00 -0.00000000000E+00 -0.68537838228E+02  0.68549603711E+02  0.12700000000E+01 0. -1.
         25    2    1    2    0    0  0.87619556788E+00  0.24067375193E+02 -0.78925032975E+01  0.12754564558E+03  0.12500237530E+03 0.  0.
    9000005    1    3    3    0    0  0.14785252862E+02  0.94493267936E+01 -0.64809075809E+02  0.67149905333E+02  0.10000000000E+01 0.  0.
    9000005    1    3    3    0    0 -0.13909057294E+02  0.14618048400E+02  0.56916572511E+02  0.60395740249E+02  0.10000000000E+01 0.  0.
          4    1    1    2  501    0 -0.87619556788E+00 -0.24067375193E+02  0.17549913179E+03  0.17714842485E+03  0.12700000000E+01 0.  1.
<mgrwt>
<rscale>  1 0.12730122E+03</rscale>
<asrwt>0</asrwt>
<pdfrwt beam="1">  1       21 0.36329918E-01 0.12730122E+03</pdfrwt>
<pdfrwt beam="2">  1        4 0.10545451E-01 0.12730122E+03</pdfrwt>
<totfact> 0.20595099E+04</totfact>
</mgrwt>
</event>
<event>
 6    4  0.6093247E-003  0.1320952E+03  0.7818608E-02  0.1224380E+00
         21   -1    0    0  501  502  0.00000000000E+00  0.00000000000E+00  0.48594191911E+03  0.48594191911E+03  0.00000000000E+00 0. -1.
         -4   -1    0    0    0  501 -0.00000000000E+00 -0.00000000000E+00 -0.39192592885E+02  0.39213164079E+02  0.12700000000E+01 0.  1.
         25    2    1    2    0    0 -0.97843502808E+01  0.41574885473E+02  0.76906458400E+02  0.15285202868E+03  0.12499973887E+03 0.  0.
    9000005    1    3    3    0    0  0.17143570545E+02  0.24805025877E+02 -0.29269119803E+02  0.42034184824E+02  0.10000000000E+01 0.  0.
    9000005    1    3    3    0    0 -0.26927920826E+02  0.16769859596E+02  0.10617557820E+03  0.11081784386E+03  0.10000000000E+01 0.  0.
         -4    1    1    2    0  502  0.97843502808E+01 -0.41574885473E+02  0.36984286782E+03  0.37230305450E+03  0.12700000000E+01 0. -1.
<mgrwt>
<rscale>  1 0.13209519E+03</rscale>
<asrwt>0</asrwt>
<pdfrwt beam="1">  1       21 0.74760291E-01 0.13209519E+03</pdfrwt>
<pdfrwt beam="2">  1       -4 0.60313401E-02 0.13209519E+03</pdfrwt>
<totfact> 0.11603842E+04</totfact>
</mgrwt>
</event>
<event>
 6    4  0.6093247E-003  0.1274361E+03  0.7818608E-02  0.1231310E+00
         -4   -1    0    0    0  501 -0.00000000000E+00  0.00000000000E+00  0.11131097380E+03  0.11131821858E+03  0.12700000000E+01 0.  1.
         21   -1    0    0  501  502  0.00000000000E+00 -0.00000000000E+00 -0.11998293587E+03  0.11998293587E+03  0.00000000000E+00 0. -1.
         25    2    1    2    0    0 -0.84417680945E+01 -0.23299261624E+02  0.72365741096E+02  0.14654950978E+03  0.12500335712E+03 0.  0.
    9000005    1    3    3    0    0 -0.63932234110E+02 -0.19536841579E+02  0.19100524153E+02  0.69533076734E+02  0.10000000000E+01 0.  0.
    9000005    1    3    3    0    0  0.55490466015E+02 -0.37624200442E+01  0.53265216943E+02  0.77016433046E+02  0.10000000000E+01 0.  0.
         -4    1    1    2    0  502  0.84417680945E+01  0.23299261624E+02 -0.81037703165E+02  0.84751644674E+02  0.12700000000E+01 0. -1.
<mgrwt>
<rscale>  1 0.12743610E+03</rscale>
<asrwt>0</asrwt>
<pdfrwt beam="2">  1       21 0.18458913E-01 0.12743610E+03</pdfrwt>
<pdfrwt beam="1">  1       -4 0.17125839E-01 0.12743610E+03</pdfrwt>
<totfact> 0.32258814E+04</totfact>
</mgrwt>
</event>
<event>
 6    4  0.6093247E-003  0.1274177E+03  0.7818608E-02  0.1231338E+00
         21   -1    0    0  501  502  0.00000000000E+00  0.00000000000E+00  0.48894613959E+03  0.48894613959E+03  0.00000000000E+00 0.  1.
          4   -1    0    0  502    0 -0.00000000000E+00 -0.00000000000E+00 -0.65172593863E+02  0.65184966755E+02  0.12700000000E+01 0.  1.
         25    2    1    2    0    0 -0.24056994635E+02  0.40467775232E+01 -0.22206640345E+01  0.12743707657E+03  0.12506063224E+03 0.  0.
    9000005    1    3    3    0    0 -0.16580004549E+02  0.63736690485E+02  0.82089899252E+01  0.66375068968E+02  0.10000000000E+01 0.  0.
    9000005    1    3    3    0    0 -0.74769900870E+01 -0.59689912962E+02 -0.10429653960E+02  0.61062007598E+02  0.10000000000E+01 0.  0.
          4    1    1    2  501    0  0.24056994635E+02 -0.40467775232E+01  0.42599420976E+03  0.42669402978E+03  0.12700000000E+01 0. -1.
<mgrwt>
<rscale>  1 0.12741773E+03</rscale>
<asrwt>0</asrwt>
<pdfrwt beam="1">  1       21 0.75222481E-01 0.12741773E+03</pdfrwt>
<pdfrwt beam="2">  1        4 0.10027632E-01 0.12741773E+03</pdfrwt>
<totfact> 0.49298360E+03</totfact>
</mgrwt>
</event>
<event>
 6    4  0.6093247E-003  0.1284389E+03  0.7818608E-02  0.1229791E+00
         21   -1    0    0  501  502  0.00000000000E+00  0.00000000000E+00  0.11000599982E+02  0.11000599982E+02  0.00000000000E+00 0.  1.
         -4   -1    0    0    0  501 -0.00000000000E+00 -0.00000000000E+00 -0.58557942291E+03  0.58558080009E+03  0.12700000000E+01 0.  1.
         25    2    1    2    0    0  0.70618404278E+00 -0.29494068251E+02 -0.50325229635E+03  0.51938369899E+03  0.12500461689E+03 0.  0.
    9000005    1    3    3    0    0  0.56427738588E+02  0.10809633401E+02 -0.27750616615E+03  0.28339303115E+03  0.10000000000E+01 0.  0.
    9000005    1    3    3    0    0 -0.55721554545E+02 -0.40303701653E+02 -0.22574613020E+03  0.23599066784E+03  0.10000000000E+01 0.  0.
         -4    1    1    2    0  502 -0.70618404278E+00  0.29494068251E+02 -0.71326526579E+02  0.77197701078E+02  0.12700000000E+01 0. -1.
<mgrwt>
<rscale>  1 0.12843891E+03</rscale>
<asrwt>0</asrwt>
<pdfrwt beam="1">  1       21 0.16923997E-02 0.12843891E+03</pdfrwt>
<pdfrwt beam="2">  1       -4 0.90094903E-01 0.12843891E+03</pdfrwt>
<totfact> 0.70123196E+04</totfact>
</mgrwt>
</event>
<event>
 6    4  0.6093247E-003  0.1287736E+03  0.7818608E-02  0.1229287E+00
         21   -1    0    0  501  502  0.00000000000E+00  0.00000000000E+00  0.10742715923E+03  0.10742715923E+03  0.00000000000E+00 0.  1.
         -4   -1    0    0    0  501 -0.00000000000E+00 -0.00000000000E+00 -0.87658812638E+02  0.87668012029E+02  0.12700000000E+01 0.  1.
         25    2    1    2    0    0 -0.30735343823E+02  0.35926364450E+01 -0.33873890682E+02  0.13315430497E+03  0.12500024026E+03 0.  0.
    9000005    1    3    3    0    0 -0.65764975520E+02 -0.30599202701E+02  0.18182908829E+01  0.72564794445E+02  0.10000000000E+01 0.  0.
    9000005    1    3    3    0    0  0.35029631697E+02  0.34191839146E+02 -0.35692181565E+02  0.60589510527E+02  0.10000000000E+01 0.  0.
         -4    1    1    2    0  502  0.30735343823E+02 -0.35926364450E+01  0.53642237272E+02  0.61940866285E+02  0.12700000000E+01 0. -1.
<mgrwt>
<rscale>  1 0.12877355E+03</rscale>
<asrwt>0</asrwt>
<pdfrwt beam="1">  1       21 0.16527255E-01 0.12877355E+03</pdfrwt>
<pdfrwt beam="2">  1       -4 0.13487256E-01 0.12877355E+03</pdfrwt>
<totfact> 0.59974206E+04</totfact>
</mgrwt>
</event>
<event>
 6    4  0.6093247E-003  0.1327986E+03  0.7818608E-02  0.1223361E+00
         21   -1    0    0  501  502  0.00000000000E+00  0.00000000000E+00  0.51182312973E+01  0.51182312973E+01  0.00000000000E+00 0. -1.
         -4   -1    0    0    0  501 -0.00000000000E+00 -0.00000000000E+00 -0.15966330131E+04  0.15966335182E+04  0.12700000000E+01 0. -1.
         25    2    1    2    0    0  0.44729377792E+02 -0.30321553454E+01 -0.13062091367E+04  0.13129424089E+04  0.12500219599E+03 0.  0.
    9000005    1    3    3    0    0  0.61899459264E+02 -0.11009770794E+02 -0.12741218933E+04  0.12756725117E+04  0.10000000000E+01 0.  0.
    9000005    1    3    3    0    0 -0.17170081472E+02  0.79776154489E+01 -0.32087243378E+02  0.37269897151E+02  0.10000000000E+01 0.  0.
         -4    1    1    2    0  502 -0.44729377792E+02  0.30321553454E+01 -0.28530564511E+03  0.28880934063E+03  0.12700000000E+01 0.  1.
<mgrwt>
<rscale>  1 0.13279857E+03</rscale>
<asrwt>0</asrwt>
<pdfrwt beam="1">  1       21 0.78741949E-03 0.13279857E+03</pdfrwt>
<pdfrwt beam="2">  1       -4 0.24564823E+00 0.13279857E+03</pdfrwt>
<totfact> 0.17292650E+04</totfact>
</mgrwt>
</event>
<event>
 6    4  0.6093247E-003  0.1336089E+03  0.7818608E-02  0.1222197E+00
         21   -1    0    0  501  502  0.00000000000E+00  0.00000000000E+00  0.25900381345E+02  0.25900381345E+02  0.00000000000E+00 0. -1.
          4   -1    0    0  502    0 -0.00000000000E+00 -0.00000000000E+00 -0.14688608196E+04  0.14688613686E+04  0.12700000000E+01 0.  1.
         25    2    1    2    0    0 -0.85334740590E+01  0.46410079659E+02 -0.14413497771E+04  0.14475291044E+04  0.12499844968E+03 0.  0.
    9000005    1    3    3    0    0  0.56209689214E+01  0.65478332106E+02 -0.36205220211E+03  0.36796984159E+03  0.10000000000E+01 0.  0.
    9000005    1    3    3    0    0 -0.14154442980E+02 -0.19068252446E+02 -0.10792975750E+04  0.10795592628E+04  0.10000000000E+01 0.  0.
          4    1    1    2  501    0  0.85334740590E+01 -0.46410079659E+02 -0.16106610814E+01  0.47232645518E+02  0.12700000000E+01 0. -1.
<mgrwt>
<rscale>  1 0.13360886E+03</rscale>
<asrwt>0</asrwt>
<pdfrwt beam="1">  1       21 0.39846736E-02 0.13360886E+03</pdfrwt>
<pdfrwt beam="2">  1        4 0.22598105E+00 0.13360886E+03</pdfrwt>
<totfact> 0.16570839E+03</totfact>
</mgrwt>
</event>
<event>
 6    4  0.6093247E-003  0.1280612E+03  0.7818608E-02  0.1230361E+00
         21   -1    0    0  501  502  0.00000000000E+00  0.00000000000E+00  0.46757270400E+01  0.46757270400E+01  0.00000000000E+00 0.  1.
         -4   -1    0    0    0  501 -0.00000000000E+00 -0.00000000000E+00 -0.15633909457E+04  0.15633914616E+04  0.12700000000E+01 0.  1.
         25    2    1    2    0    0  0.27686046920E+02  0.52532441711E+00 -0.14578007518E+04  0.14634147367E+04  0.12503146211E+03 0.  0.
    9000005    1    3    3    0    0  0.10249269870E+02  0.56976055016E+02 -0.42510944183E+03  0.42903421299E+03  0.10000000000E+01 0.  0.
    9000005    1    3    3    0    0  0.17436777050E+02 -0.56450730599E+02 -0.10326913099E+04  0.10343805237E+04  0.10000000000E+01 0.  0.
         -4    1    1    2    0  502 -0.27686046920E+02 -0.52532441711E+00 -0.10091446695E+03  0.10465245195E+03  0.12700000000E+01 0. -1.
<mgrwt>
<rscale>  1 0.12806116E+03</rscale>
<asrwt>0</asrwt>
<pdfrwt beam="1">  1       21 0.71934228E-03 0.12806116E+03</pdfrwt>
<pdfrwt beam="2">  1       -4 0.24053510E+00 0.12806116E+03</pdfrwt>
<totfact> 0.21255733E+04</totfact>
</mgrwt>
</event>
<event>
 6    4  0.6093247E-003  0.1267117E+03  0.7818608E-02  0.1232418E+00
          4   -1    0    0  502    0 -0.00000000000E+00  0.00000000000E+00  0.46662658907E+03  0.46662831732E+03  0.12700000000E+01 0.  1.
         21   -1    0    0  501  502  0.00000000000E+00 -0.00000000000E+00 -0.20479482477E+02  0.20479482477E+02  0.00000000000E+00 0. -1.
         25    2    1    2    0    0 -0.76010960441E+00  0.20731393075E+02  0.44862524235E+03  0.46617642425E+03  0.12500192809E+03 0.  0.
    9000005    1    3    3    0    0  0.28638461963E+02 -0.12940488898E+02  0.39546773134E+03  0.39671569705E+03  0.10000000000E+01 0.  0.
    9000005    1    3    3    0    0 -0.29398571568E+02  0.33671881974E+02  0.53157511014E+02  0.69460727200E+02  0.10000000000E+01 0.  0.
          4    1    1    2  501    0  0.76010960441E+00 -0.20731393075E+02 -0.24781357610E+01  0.20931375547E+02  0.12700000000E+01 0. -1.
<mgrwt>
<rscale>  1 0.12671168E+03</rscale>
<asrwt>0</asrwt>
<pdfrwt beam="2">  1       21 0.31506900E-02 0.12671168E+03</pdfrwt>
<pdfrwt beam="1">  1        4 0.71791860E-01 0.12671168E+03</pdfrwt>
<totfact> 0.42181075E+04</totfact>
</mgrwt>
</event>
<event>
 6    4  0.6093247E-003  0.1271986E+03  0.7818608E-02  0.1231673E+00
          4   -1    0    0  502    0 -0.00000000000E+00  0.00000000000E+00  0.10456056881E+03  0.10456828128E+03  0.12700000000E+01 0. -1.
         21   -1    0    0  501  502  0.00000000000E+00 -0.00000000000E+00 -0.62528923376E+02  0.62528923376E+02  0.00000000000E+00 0. -1.
         25    2    1    2    0    0 -0.11133795446E+02 -0.20858227116E+02  0.56678905547E+02  0.13925511120E+03  0.12498184117E+03 0.  0.
    9000005    1    3    3    0    0 -0.44669528845E+02 -0.52555129588E+02  0.62056948007E+02  0.92787247234E+02  0.10000000000E+01 0.  0.
    9000005    1    3    3    0    0  0.33535733399E+02  0.31696902472E+02 -0.53780424607E+01  0.46467863967E+02  0.10000000000E+01 0.  0.
          4    1    1    2  501    0  0.11133795446E+02  0.20858227116E+02 -0.14647260110E+02  0.27842093459E+02  0.12700000000E+01 0.  1.
<mgrwt>
<rscale>  1 0.12719862E+03</rscale>
<asrwt>0</asrwt>
<pdfrwt beam="2">  1       21 0.96198344E-02 0.12719862E+03</pdfrwt>
<pdfrwt beam="1">  1        4 0.16087827E-01 0.12719862E+03</pdfrwt>
<totfact> 0.11534697E+05</totfact>
</mgrwt>
</event>
<event>
 6    4  0.6093247E-003  0.1266691E+03  0.7818608E-02  0.1232484E+00
         21   -1    0    0  501  502  0.00000000000E+00  0.00000000000E+00  0.13814573035E+03  0.13814573035E+03  0.00000000000E+00 0. -1.
          4   -1    0    0  502    0 -0.00000000000E+00 -0.00000000000E+00 -0.39320549581E+02  0.39341053867E+02  0.12700000000E+01 0. -1.
         25    2    1    2    0    0 -0.18396859608E+02 -0.90140413741E+01  0.88396273354E+02  0.15446348308E+03  0.12500147630E+03 0.  0.
    9000005    1    3    3    0    0 -0.11735369989E+02  0.21934885732E+02 -0.25860733950E+02  0.35897572081E+02  0.10000000000E+01 0.  0.
    9000005    1    3    3    0    0 -0.66614896188E+01 -0.30948927106E+02  0.11425700730E+03  0.11856591100E+03  0.10000000000E+01 0.  0.
          4    1    1    2  501    0  0.18396859608E+02  0.90140413741E+01  0.10428907414E+02  0.23023301136E+02  0.12700000000E+01 0.  1.
<mgrwt>
<rscale>  1 0.12666912E+03</rscale>
<asrwt>0</asrwt>
<pdfrwt beam="1">  1       21 0.21253189E-01 0.12666912E+03</pdfrwt>
<pdfrwt beam="2">  1        4 0.60513417E-02 0.12666912E+03</pdfrwt>
<totfact> 0.14390175E+05</totfact>
</mgrwt>
</event>
<event>
 6    4  0.6093247E-003  0.1284543E+03  0.7818608E-02  0.1229767E+00
         -4   -1    0    0    0  501 -0.00000000000E+00  0.00000000000E+00  0.11273942358E+02  0.11345249063E+02  0.12700000000E+01 0.  1.
         21   -1    0    0  501  502  0.00000000000E+00 -0.00000000000E+00 -0.56137674658E+03  0.56137674658E+03  0.00000000000E+00 0.  1.
         25    2    1    2    0    0  0.29140760226E+02  0.50589533577E+01 -0.47297161796E+03  0.49010474738E+03  0.12500294035E+03 0.  0.
    9000005    1    3    3    0    0  0.31820992576E+02  0.16129652286E+02 -0.47673345634E+03  0.47806749486E+03  0.10000000000E+01 0.  0.
    9000005    1    3    3    0    0 -0.26802323499E+01 -0.11070698929E+02  0.37618383811E+01  0.12037252520E+02  0.10000000000E+01 0.  0.
         -4    1    1    2    0  502 -0.29140760226E+02 -0.50589533577E+01 -0.77131186259E+02  0.82617248255E+02  0.12700000000E+01 0. -1.
<mgrwt>
<rscale>  1 0.12845432E+03</rscale>
<asrwt>0</asrwt>
<pdfrwt beam="2">  1       21 0.86365645E-01 0.12845432E+03</pdfrwt>
<pdfrwt beam="1">  1       -4 0.17400485E-02 0.12845432E+03</pdfrwt>
<totfact> 0.59228548E+04</totfact>
</mgrwt>
</event>
<event>
 6    4  0.6093247E-003  0.1860937E+03  0.7818608E-02  0.1162033E+00
         21   -1    0    0  501  502  0.00000000000E+00  0.00000000000E+00  0.46303997390E+03  0.46303997390E+03  0.00000000000E+00 0.  1.
         -4   -1    0    0    0  501 -0.00000000000E+00 -0.00000000000E+00 -0.87058317631E+02  0.87067580469E+02  0.12700000000E+01 0. -1.
         25    2    1    2    0    0 -0.10514157570E+03 -0.89169805656E+02  0.44850914855E+02  0.19142219644E+03  0.12499939018E+03 0.  0.
    9000005    1    3    3    0    0 -0.13048522199E+03 -0.57568550604E+02  0.20345397677E+02  0.14406757576E+03  0.10000000000E+01 0.  0.
    9000005    1    3    3    0    0  0.25343646292E+02 -0.31601255052E+02  0.24505517178E+02  0.47354620687E+02  0.10000000000E+01 0.  0.
         -4    1    1    2    0  502  0.10514157570E+03  0.89169805656E+02  0.33113074142E+03  0.35868535793E+03  0.12700000000E+01 0.  1.
<mgrwt>
<rscale>  1 0.18609367E+03</rscale>
<asrwt>0</asrwt>
<pdfrwt beam="1">  1       21 0.71236917E-01 0.18609367E+03</pdfrwt>
<pdfrwt beam="2">  1       -4 0.13394434E-01 0.18609367E+03</pdfrwt>
<totfact> 0.34415941E+03</totfact>
</mgrwt>
</event>
<event>
 6    4  0.6093247E-003  0.1277895E+03  0.7818608E-02  0.1230773E+00
          4   -1    0    0  502    0 -0.00000000000E+00  0.00000000000E+00  0.13056374870E+03  0.13056992523E+03  0.12700000000E+01 0.  1.
         21   -1    0    0  501  502  0.00000000000E+00 -0.00000000000E+00 -0.57269881086E+02  0.57269881086E+02  0.00000000000E+00 0.  1.
         25    2    1    2    0    0 -0.21408000351E+01  0.26441800383E+02  0.90146129624E+02  0.15638565766E+03  0.12500558949E+03 0.  0.
    9000005    1    3    3    0    0  0.50990649608E+01 -0.10043094042E+02  0.11244087384E+03  0.11300802764E+03  0.10000000000E+01 0.  0.
    9000005    1    3    3    0    0 -0.72398649960E+01  0.36484894425E+02 -0.22294744217E+02  0.43377630019E+02  0.10000000000E+01 0.  0.
          4    1    1    2  501    0  0.21408000351E+01 -0.26441800383E+02 -0.16852262014E+02  0.31454148650E+02  0.12700000000E+01 0. -1.
<mgrwt>
<rscale>  1 0.12778947E+03</rscale>
<asrwt>0</asrwt>
<pdfrwt beam="2">  1       21 0.88107510E-02 0.12778947E+03</pdfrwt>
<pdfrwt beam="1">  1        4 0.20088289E-01 0.12778947E+03</pdfrwt>
<totfact> 0.90650855E+04</totfact>
</mgrwt>
</event>
<event>
 6    4  0.6093247E-003  0.1479021E+03  0.7818608E-02  0.1203075E+00
          4   -1    0    0  502    0 -0.00000000000E+00  0.00000000000E+00  0.99986475394E+03  0.99986556050E+03  0.12700000000E+01 0.  1.
         21   -1    0    0  501  502  0.00000000000E+00 -0.00000000000E+00 -0.26153858229E+02  0.26153858229E+02  0.00000000000E+00 0. -1.
         25    2    1    2    0    0  0.79044863169E+02 -0.18027901710E+01  0.91665111449E+03  0.92850648636E+03  0.12499475619E+03 0.  0.
    9000005    1    3    3    0    0  0.11015730333E+03 -0.19470741553E+02  0.71635251653E+03  0.72503494343E+03  0.10000000000E+01 0.  0.
    9000005    1    3    3    0    0 -0.31112440163E+02  0.17667951382E+02  0.20029859795E+03  0.20347154293E+03  0.10000000000E+01 0.  0.
          4    1    1    2  501    0 -0.79044863169E+02  0.18027901710E+01  0.57059781225E+02  0.97512932370E+02  0.12700000000E+01 0. -1.
<mgrwt>
<rscale>  1 0.14790209E+03</rscale>
<asrwt>0</asrwt>
<pdfrwt beam="2">  1       21 0.40236713E-02 0.14790209E+03</pdfrwt>
<pdfrwt beam="1">  1        4 0.15382775E+00 0.14790209E+03</pdfrwt>
<totfact> 0.47848491E+03</totfact>
</mgrwt>
</event>
<event>
 6    4  0.6093247E-003  0.1414014E+03  0.7818608E-02  0.1211456E+00
         -4   -1    0    0    0  501 -0.00000000000E+00  0.00000000000E+00  0.42462896512E+03  0.42463086431E+03  0.12700000000E+01 0.  1.
         21   -1    0    0  501  502  0.00000000000E+00 -0.00000000000E+00 -0.39507106796E+02  0.39507106796E+02  0.00000000000E+00 0. -1.
         25    2    1    2    0    0 -0.33909334360E+02  0.56738187512E+02  0.37030918633E+03  0.39638774578E+03  0.12500114660E+03 0.  0.
    9000005    1    3    3    0    0 -0.21134245265E+01 -0.18368675392E+02  0.14008136354E+01  0.18569789383E+02  0.10000000000E+01 0.  0.
    9000005    1    3    3    0    0 -0.31795909834E+02  0.75106862904E+02  0.36890837269E+03  0.37781795640E+03  0.10000000000E+01 0.  0.
         -4    1    1    2    0  502  0.33909334360E+02 -0.56738187512E+02  0.14812672001E+02  0.67750225319E+02  0.12700000000E+01 0. -1.
<mgrwt>
<rscale>  1 0.14140138E+03</rscale>
<asrwt>0</asrwt>
<pdfrwt beam="2">  1       21 0.60780167E-02 0.14140138E+03</pdfrwt>
<pdfrwt beam="1">  1       -4 0.65329246E-01 0.14140138E+03</pdfrwt>
<totfact> 0.17455021E+04</totfact>
</mgrwt>
</event>
<event>
 6    4  0.6093247E-003  0.1271841E+03  0.7818608E-02  0.1231695E+00
         -4   -1    0    0    0  501 -0.00000000000E+00  0.00000000000E+00  0.11665819136E+03  0.11666510408E+03  0.12700000000E+01 0. -1.
         21   -1    0    0  501  502  0.00000000000E+00 -0.00000000000E+00 -0.59264560767E+02  0.59264560767E+02  0.00000000000E+00 0.  1.
         25    2    1    2    0    0 -0.19936370368E+02  0.12378101685E+02  0.74007567934E+02  0.14714925347E+03  0.12500042569E+03 0.  0.
    9000005    1    3    3    0    0 -0.29339552926E+02  0.23754853225E+02 -0.26131475522E+02  0.45923375645E+02  0.10000000000E+01 0.  0.
    9000005    1    3    3    0    0  0.94031825585E+01 -0.11376751541E+02  0.10013904346E+03  0.10122587783E+03  0.10000000000E+01 0.  0.
         -4    1    1    2    0  502  0.19936370368E+02 -0.12378101685E+02 -0.16613937346E+02  0.28780411375E+02  0.12700000000E+01 0.  1.
<mgrwt>
<rscale>  1 0.12718405E+03</rscale>
<asrwt>0</asrwt>
<pdfrwt beam="2">  1       21 0.91176248E-02 0.12718405E+03</pdfrwt>
<pdfrwt beam="1">  1       -4 0.17948992E-01 0.12718405E+03</pdfrwt>
<totfact> 0.10438040E+05</totfact>
</mgrwt>
</event>
<event>
 6    4  0.6093247E-003  0.1285759E+03  0.7818608E-02  0.1229584E+00
         -4   -1    0    0    0  501 -0.00000000000E+00  0.00000000000E+00  0.18953223231E+04  0.18953227486E+04  0.12700000000E+01 0.  1.
         21   -1    0    0  501  502  0.00000000000E+00 -0.00000000000E+00 -0.38814042082E+01  0.38814042082E+01  0.00000000000E+00 0.  1.
         25    2    1    2    0    0 -0.46831143428E+01 -0.29744425406E+02  0.17429332352E+04  0.17476693138E+04  0.12500042317E+03 0.  0.
    9000005    1    3    3    0    0  0.47168995670E+02  0.19200031279E+02  0.10075252330E+04  0.10088119996E+04  0.10000000000E+01 0.  0.
    9000005    1    3    3    0    0 -0.51852110013E+02 -0.48944456685E+02  0.73540800218E+03  0.73885731425E+03  0.10000000000E+01 0.  0.
         -4    1    1    2    0  502  0.46831143428E+01  0.29744425406E+02  0.14850768377E+03  0.15153483904E+03  0.12700000000E+01 0. -1.
<mgrwt>
<rscale>  1 0.12857592E+03</rscale>
<asrwt>0</asrwt>
<pdfrwt beam="2">  1       21 0.59714062E-03 0.12857592E+03</pdfrwt>
<pdfrwt beam="1">  1       -4 0.29160333E+00 0.12857592E+03</pdfrwt>
<totfact> 0.14462936E+04</totfact>
</mgrwt>
</event>
<event>
 6    4  0.6093247E-003  0.1270373E+03  0.7818608E-02  0.1231919E+00
         -4   -1    0    0    0  501 -0.00000000000E+00  0.00000000000E+00  0.75727783457E+02  0.75738432036E+02  0.12700000000E+01 0.  1.
         21   -1    0    0  501  502  0.00000000000E+00 -0.00000000000E+00 -0.10977658567E+03  0.10977658567E+03  0.00000000000E+00 0. -1.
         25    2    1    2    0    0  0.20425128780E+02 -0.98043254253E+01  0.18404658953E+02  0.12836355954E+03  0.12500064505E+03 0.  0.
    9000005    1    3    3    0    0 -0.51872602917E+02 -0.11174404488E+02  0.18010890574E+02  0.56044860856E+02  0.10000000000E+01 0.  0.
    9000005    1    3    3    0    0  0.72297731697E+02  0.13700790624E+01  0.39376837894E+00  0.72318698680E+02  0.10000000000E+01 0.  0.
         -4    1    1    2    0  502 -0.20425128780E+02  0.98043254253E+01 -0.52453461168E+02  0.57151458172E+02  0.12700000000E+01 0. -1.
<mgrwt>
<rscale>  1 0.12703729E+03</rscale>
<asrwt>0</asrwt>
<pdfrwt beam="2">  1       21 0.16888706E-01 0.12703729E+03</pdfrwt>
<pdfrwt beam="1">  1       -4 0.11651812E-01 0.12703729E+03</pdfrwt>
<totfact> 0.73971902E+04</totfact>
</mgrwt>
</event>
<event>
 6    4  0.6093247E-003  0.1388396E+03  0.7818608E-02  0.1214899E+00
          4   -1    0    0  502    0 -0.00000000000E+00  0.00000000000E+00  0.17275148541E+03  0.17275615361E+03  0.12700000000E+01 0. -1.
         21   -1    0    0  501  502  0.00000000000E+00 -0.00000000000E+00 -0.28721831827E+03  0.28721831827E+03  0.00000000000E+00 0.  1.
         25    2    1    2    0    0  0.42475929669E+02 -0.42969533486E+02  0.14074749742E+03  0.19770256586E+03  0.12500344438E+03 0.  0.
    9000005    1    3    3    0    0  0.61113542332E+02 -0.49598210575E+00  0.13834559087E+03  0.15124686300E+03  0.10000000000E+01 0.  0.
    9000005    1    3    3    0    0 -0.18637612663E+02 -0.42473551380E+02  0.24019065507E+01  0.46455702854E+02  0.10000000000E+01 0.  0.
          4    1    1    2  501    0 -0.42475929669E+02  0.42969533486E+02 -0.25521433028E+03  0.26227190602E+03  0.12700000000E+01 0.  1.
<mgrwt>
<rscale>  1 0.13883964E+03</rscale>
<asrwt>0</asrwt>
<pdfrwt beam="2">  1       21 0.44187434E-01 0.13883964E+03</pdfrwt>
<pdfrwt beam="1">  1        4 0.26577727E-01 0.13883964E+03</pdfrwt>
<totfact> 0.27318189E+03</totfact>
</mgrwt>
</event>
<event>
 6    4  0.6093247E-003  0.1316012E+03  0.7818608E-02  0.1225099E+00
          4   -1    0    0  502    0 -0.00000000000E+00  0.00000000000E+00  0.11242044903E+02  0.11313552651E+02  0.12700000000E+01 0. -1.
         21   -1    0    0  501  502  0.00000000000E+00 -0.00000000000E+00 -0.72969483282E+03  0.72969483282E+03  0.00000000000E+00 0. -1.
         25    2    1    2    0    0  0.10816612216E+01 -0.41144625463E+02 -0.62774635640E+03  0.64139252421E+03  0.12499932779E+03 0.  0.
    9000005    1    3    3    0    0 -0.45278367248E+02 -0.46677320391E+02 -0.18323881268E+03  0.19443858993E+03  0.10000000000E+01 0.  0.
    9000005    1    3    3    0    0  0.46360028470E+02  0.55326949278E+01 -0.44450754372E+03  0.44695393429E+03  0.10000000000E+01 0.  0.
          4    1    1    2  501    0 -0.10816612216E+01  0.41144625463E+02 -0.90706431522E+02  0.99615861262E+02  0.12700000000E+01 0.  1.
<mgrwt>
<rscale>  1 0.13160122E+03</rscale>
<asrwt>0</asrwt>
<pdfrwt beam="2">  1       21 0.11226073E+00 0.13160122E+03</pdfrwt>
<pdfrwt beam="1">  1        4 0.17351312E-02 0.13160122E+03</pdfrwt>
<totfact> 0.32327955E+04</totfact>
</mgrwt>
</event>
<event>
 6    4  0.6093247E-003  0.1284948E+03  0.7818608E-02  0.1229706E+00
         -4   -1    0    0    0  501 -0.00000000000E+00  0.00000000000E+00  0.23796617424E+03  0.23796956314E+03  0.12700000000E+01 0. -1.
         21   -1    0    0  501  502  0.00000000000E+00 -0.00000000000E+00 -0.85054851166E+02  0.85054851166E+02  0.00000000000E+00 0.  1.
         25    2    1    2    0    0 -0.13891746887E+02  0.26326078735E+02  0.21708982398E+03  0.25226753526E+03  0.12499949846E+03 0.  0.
    9000005    1    3    3    0    0  0.21690031349E+02 -0.44324501151E+02  0.80916517449E+02  0.94781863552E+02  0.10000000000E+01 0.  0.
    9000005    1    3    3    0    0 -0.35581778236E+02  0.70650579886E+02  0.13617330653E+03  0.15748567171E+03  0.10000000000E+01 0.  0.
         -4    1    1    2    0  502  0.13891746887E+02 -0.26326078735E+02 -0.64178500912E+02  0.70756879047E+02  0.12700000000E+01 0.  1.
<mgrwt>
<rscale>  1 0.12849482E+03</rscale>
<asrwt>0</asrwt>
<pdfrwt beam="2">  1       21 0.13085362E-01 0.12849482E+03</pdfrwt>
<pdfrwt beam="1">  1       -4 0.36611170E-01 0.12849482E+03</pdfrwt>
<totfact> 0.14777169E+04</totfact>
</mgrwt>
</event>
<event>
 6    4  0.6093247E-003  0.1288882E+03  0.7818608E-02  0.1229115E+00
         21   -1    0    0  501  502  0.00000000000E+00  0.00000000000E+00  0.12333757252E+02  0.12333757252E+02  0.00000000000E+00 0.  1.
          4   -1    0    0  502    0 -0.00000000000E+00 -0.00000000000E+00 -0.18642163943E+04  0.18642168269E+04  0.12700000000E+01 0. -1.
         25    2    1    2    0    0  0.22858362164E+02 -0.21557892386E+02 -0.18374252987E+04  0.18419402536E+04  0.12499968914E+03 0.  0.
    9000005    1    3    3    0    0  0.51648897073E+02 -0.45437100310E+02 -0.16090309427E+04  0.16105010752E+04  0.10000000000E+01 0.  0.
    9000005    1    3    3    0    0 -0.28790534909E+02  0.23879207924E+02 -0.22839435604E+03  0.23143917849E+03  0.10000000000E+01 0.  0.
          4    1    1    2  501    0 -0.22858362164E+02  0.21557892386E+02 -0.14457338355E+02  0.34610330499E+02  0.12700000000E+01 0.  1.
<mgrwt>
<rscale>  1 0.12888821E+03</rscale>
<asrwt>0</asrwt>
<pdfrwt beam="1">  1       21 0.18975003E-02 0.12888821E+03</pdfrwt>
<pdfrwt beam="2">  1        4 0.28680771E+00 0.12888821E+03</pdfrwt>
<totfact> 0.24816008E+03</totfact>
</mgrwt>
</event>
<event>
 6    4  0.6093247E-003  0.1379040E+03  0.7818608E-02  0.1216177E+00
         21   -1    0    0  501  502  0.00000000000E+00  0.00000000000E+00  0.19557856068E+03  0.19557856068E+03  0.00000000000E+00 0. -1.
         -4   -1    0    0    0  501 -0.00000000000E+00 -0.00000000000E+00 -0.16699379818E+03  0.16699862733E+03  0.12700000000E+01 0.  1.
         25    2    1    2    0    0 -0.47016632670E+01  0.58030436025E+02 -0.13252852250E+03  0.19126244654E+03  0.12501150763E+03 0.  0.
    9000005    1    3    3    0    0 -0.13754452555E+02  0.18225150394E+02  0.21823316108E+02  0.31600604392E+02  0.10000000000E+01 0.  0.
    9000005    1    3    3    0    0  0.90527892881E+01  0.39805285630E+02 -0.15435183861E+03  0.15966184215E+03  0.10000000000E+01 0.  0.
         -4    1    1    2    0  502  0.47016632670E+01 -0.58030436025E+02  0.16111328500E+03  0.17131474147E+03  0.12700000000E+01 0. -1.
<mgrwt>
<rscale>  1 0.13790400E+03</rscale>
<asrwt>0</asrwt>
<pdfrwt beam="1">  1       21 0.30089009E-01 0.13790400E+03</pdfrwt>
<pdfrwt beam="2">  1       -4 0.25692042E-01 0.13790400E+03</pdfrwt>
<totfact> 0.62229106E+03</totfact>
</mgrwt>
</event>
<event>
 6    4  0.6093247E-003  0.1266019E+03  0.7818608E-02  0.1232587E+00
         21   -1    0    0  501  502  0.00000000000E+00  0.00000000000E+00  0.53459931311E+01  0.53459931311E+01  0.00000000000E+00 0.  1.
         -4   -1    0    0    0  501 -0.00000000000E+00 -0.00000000000E+00 -0.10289896604E+04  0.10289904441E+04  0.12700000000E+01 0.  1.
         25    2    1    2    0    0  0.19470846396E+02  0.50736332020E+01 -0.92758806434E+03  0.93618783886E+03  0.12499278745E+03 0.  0.
    9000005    1    3    3    0    0 -0.18106892632E+02  0.13772594527E+01 -0.84691047299E+03  0.84710572284E+03  0.10000000000E+01 0.  0.
    9000005    1    3    3    0    0  0.37577739028E+02  0.36963737494E+01 -0.80677591344E+02  0.89082116019E+02  0.10000000000E+01 0.  0.
         -4    1    1    2    0  502 -0.19470846396E+02 -0.50736332020E+01 -0.96055602890E+02  0.98148598359E+02  0.12700000000E+01 0. -1.
<mgrwt>
<rscale>  1 0.12660195E+03</rscale>
<asrwt>0</asrwt>
<pdfrwt beam="1">  1       21 0.82246108E-03 0.12660195E+03</pdfrwt>
<pdfrwt beam="2">  1       -4 0.15831765E+00 0.12660195E+03</pdfrwt>
<totfact> 0.56575029E+04</totfact>
</mgrwt>
</event>
<event>
 6    4  0.6093247E-003  0.1352093E+03  0.7818608E-02  0.1219925E+00
          4   -1    0    0  502    0 -0.00000000000E+00  0.00000000000E+00  0.69233030683E+02  0.69244678045E+02  0.12700000000E+01 0.  1.
         21   -1    0    0  501  502  0.00000000000E+00 -0.00000000000E+00 -0.20932344270E+03  0.20932344270E+03  0.00000000000E+00 0. -1.
         25    2    1    2    0    0 -0.37439394877E+02 -0.35429987433E+02 -0.64920644119E+01  0.13536503530E+03  0.12499821432E+03 0.  0.
    9000005    1    3    3    0    0  0.42334875609E+02 -0.35663455231E+02 -0.59892861620E+00  0.55366799143E+02  0.10000000000E+01 0.  0.
    9000005    1    3    3    0    0 -0.79774270485E+02  0.23346779788E+00 -0.58931357957E+01  0.79998236157E+02  0.10000000000E+01 0.  0.
          4    1    1    2  501    0  0.37439394877E+02  0.35429987433E+02 -0.13359834760E+03  0.14320308544E+03  0.12700000000E+01 0.  1.
<mgrwt>
<rscale>  1 0.13520927E+03</rscale>
<asrwt>0</asrwt>
<pdfrwt beam="2">  1       21 0.32203607E-01 0.13520927E+03</pdfrwt>
<pdfrwt beam="1">  1        4 0.10652428E-01 0.13520927E+03</pdfrwt>
<totfact> 0.25793648E+04</totfact>
</mgrwt>
</event>
<event>
 6    4  0.6093247E-003  0.1272145E+03  0.7818608E-02  0.1231648E+00
         21   -1    0    0  501  502  0.00000000000E+00  0.00000000000E+00  0.60657607169E+02  0.60657607169E+02  0.00000000000E+00 0. -1.
          4   -1    0    0  502    0 -0.00000000000E+00 -0.00000000000E+00 -0.33081717358E+03  0.33081961133E+03  0.12700000000E+01 0.  1.
         25    2    1    2    0    0  0.13150873027E+02  0.19672665778E+02 -0.31557465962E+03  0.34025122088E+03  0.12499427297E+03 0.  0.
    9000005    1    3    3    0    0 -0.12362105393E+02 -0.25309870629E+02 -0.93599377145E+01  0.29698815381E+02  0.10000000000E+01 0.  0.
    9000005    1    3    3    0    0  0.25512978420E+02  0.44982536407E+02 -0.30621472191E+03  0.31055240550E+03  0.10000000000E+01 0.  0.
          4    1    1    2  501    0 -0.13150873027E+02 -0.19672665778E+02  0.45415093209E+02  0.51225997612E+02  0.12700000000E+01 0. -1.
<mgrwt>
<rscale>  1 0.12721449E+03</rscale>
<asrwt>0</asrwt>
<pdfrwt beam="1">  1       21 0.93319396E-02 0.12721449E+03</pdfrwt>
<pdfrwt beam="2">  1        4 0.50896160E-01 0.12721449E+03</pdfrwt>
<totfact> 0.13905600E+04</totfact>
</mgrwt>
</event>
<event>
 6    4  0.6093247E-003  0.1372615E+03  0.7818608E-02  0.1217062E+00
         -4   -1    0    0    0  501 -0.00000000000E+00  0.00000000000E+00  0.71726403415E+02  0.71737645953E+02  0.12700000000E+01 0.  1.
         21   -1    0    0  501  502  0.00000000000E+00 -0.00000000000E+00 -0.19443174984E+03  0.19443174984E+03  0.00000000000E+00 0. -1.
         25    2    1    2    0    0  0.49900162137E+02  0.26944391903E+02 -0.71562760156E+01  0.13744788629E+03  0.12499873088E+03 0.  0.
    9000005    1    3    3    0    0  0.74987155515E+02  0.12260296010E+02 -0.46070965213E+02  0.88864628431E+02  0.10000000000E+01 0.  0.
    9000005    1    3    3    0    0 -0.25086993378E+02  0.14684095893E+02  0.38914689197E+02  0.48583257859E+02  0.10000000000E+01 0.  0.
         -4    1    1    2    0  502 -0.49900162137E+02 -0.26944391903E+02 -0.11554907041E+03  0.12872150950E+03  0.12700000000E+01 0. -1.
<mgrwt>
<rscale>  1 0.13726146E+03</rscale>
<asrwt>0</asrwt>
<pdfrwt beam="2">  1       21 0.29912577E-01 0.13726146E+03</pdfrwt>
<pdfrwt beam="1">  1       -4 0.11036015E-01 0.13726146E+03</pdfrwt>
<totfact> 0.28070114E+04</totfact>
</mgrwt>
</event>
<event>
 6    4  0.6093247E-003  0.1688608E+03  0.7818608E-02  0.1179041E+00
          4   -1    0    0  502    0 -0.00000000000E+00  0.00000000000E+00  0.74840011194E+02  0.74850786071E+02  0.12700000000E+01 0.  1.
         21   -1    0    0  501  502  0.00000000000E+00 -0.00000000000E+00 -0.57929514529E+03  0.57929514529E+03  0.00000000000E+00 0. -1.
         25    2    1    2    0    0 -0.56936163829E+02  0.98219722553E+02 -0.36692080635E+02  0.17280122355E+03  0.12500045372E+03 0.  0.
    9000005    1    3    3    0    0 -0.72205788401E+02  0.12127803425E+03 -0.32025991768E+02  0.14473666301E+03  0.10000000000E+01 0.  0.
    9000005    1    3    3    0    0  0.15269624572E+02 -0.23058311702E+02 -0.46660888670E+01  0.28064560542E+02  0.10000000000E+01 0.  0.
          4    1    1    2  501    0  0.56936163829E+02 -0.98219722553E+02 -0.46776305346E+03  0.48134470780E+03  0.12700000000E+01 0. -1.
<mgrwt>
<rscale>  1 0.16886075E+03</rscale>
<asrwt>0</asrwt>
<pdfrwt beam="2">  1       21 0.89122328E-01 0.16886075E+03</pdfrwt>
<pdfrwt beam="1">  1        4 0.11514784E-01 0.16886075E+03</pdfrwt>
<totfact> 0.26901355E+03</totfact>
</mgrwt>
</event>
<event>
 6    4  0.6093247E-003  0.1266912E+03  0.7818608E-02  0.1232450E+00
         -4   -1    0    0    0  501 -0.00000000000E+00  0.00000000000E+00  0.76417240715E+02  0.76427793233E+02  0.12700000000E+01 0. -1.
         21   -1    0    0  501  502  0.00000000000E+00 -0.00000000000E+00 -0.71952668086E+02  0.71952668086E+02  0.00000000000E+00 0. -1.
         25    2    1    2    0    0  0.20584568804E+02 -0.14103648786E+01 -0.20454697817E+01  0.12670773297E+03  0.12499980818E+03 0.  0.
    9000005    1    3    3    0    0 -0.33768300705E+02  0.31635439908E+02 -0.32122727757E+02  0.56337987444E+02  0.10000000000E+01 0.  0.
    9000005    1    3    3    0    0  0.54352869509E+02 -0.33045804787E+02  0.30077257975E+02  0.70369745525E+02  0.10000000000E+01 0.  0.
         -4    1    1    2    0  502 -0.20584568804E+02  0.14103648786E+01  0.65100424104E+01  0.21672728350E+02  0.12700000000E+01 0.  1.
<mgrwt>
<rscale>  1 0.12669122E+03</rscale>
<asrwt>0</asrwt>
<pdfrwt beam="2">  1       21 0.11069641E-01 0.12669122E+03</pdfrwt>
<pdfrwt beam="1">  1       -4 0.11758172E-01 0.12669122E+03</pdfrwt>
<totfact> 0.15502851E+05</totfact>
</mgrwt>
</event>
<event>
 6    4  0.6093247E-003  0.1266271E+03  0.7818608E-02  0.1232548E+00
         21   -1    0    0  501  502  0.00000000000E+00  0.00000000000E+00  0.46697554123E+02  0.46697554123E+02  0.00000000000E+00 0.  1.
          4   -1    0    0  502    0 -0.00000000000E+00 -0.00000000000E+00 -0.11568763535E+03  0.11569460606E+03  0.12700000000E+01 0.  1.
         25    2    1    2    0    0  0.27160851225E+00  0.20251206837E+02 -0.61379804927E+02  0.14071926571E+03  0.12499698453E+03 0.  0.
    9000005    1    3    3    0    0 -0.17521927678E+02 -0.22290679812E+02  0.28175316925E+02  0.39984257401E+02  0.10000000000E+01 0.  0.
    9000005    1    3    3    0    0  0.17793536191E+02  0.42541886649E+02 -0.89555121852E+02  0.10073500831E+03  0.10000000000E+01 0.  0.
          4    1    1    2  501    0 -0.27160851225E+00 -0.20251206837E+02 -0.76102762987E+01  0.21672894474E+02  0.12700000000E+01 0. -1.
<mgrwt>
<rscale>  1 0.12662713E+03</rscale>
<asrwt>0</asrwt>
<pdfrwt beam="1">  1       21 0.71842391E-02 0.12662713E+03</pdfrwt>
<pdfrwt beam="2">  1        4 0.17799962E-01 0.12662713E+03</pdfrwt>
<totfact> 0.15968721E+05</totfact>
</mgrwt>
</event>
<event>
 6    4  0.6093247E-003  0.1445980E+03  0.7818608E-02  0.1207272E+00
          4   -1    0    0  502    0 -0.00000000000E+00  0.00000000000E+00  0.54466582725E+03  0.54466730788E+03  0.12700000000E+01 0. -1.
         21   -1    0    0  501  502  0.00000000000E+00 -0.00000000000E+00 -0.50837473539E+02  0.50837473539E+02  0.00000000000E+00 0.  1.
         25    2    1    2    0    0 -0.46518050175E+02  0.55873888423E+02  0.50192719926E+03  0.52234041442E+03  0.12499109877E+03 0.  0.
    9000005    1    3    3    0    0 -0.54711287066E+02  0.92265236114E+02  0.37515859701E+03  0.39019376166E+03  0.10000000000E+01 0.  0.
    9000005    1    3    3    0    0  0.81932368911E+01 -0.36391347691E+02  0.12676860226E+03  0.13214665276E+03  0.10000000000E+01 0.  0.
          4    1    1    2  501    0  0.46518050175E+02 -0.55873888423E+02 -0.80988455540E+01  0.73164367002E+02  0.12700000000E+01 0.  1.
<mgrwt>
<rscale>  1 0.14459805E+03</rscale>
<asrwt>0</asrwt>
<pdfrwt beam="2">  1       21 0.78211502E-02 0.14459805E+03</pdfrwt>
<pdfrwt beam="1">  1        4 0.83796073E-01 0.14459805E+03</pdfrwt>
<totfact> 0.65945008E+03</totfact>
</mgrwt>
</event>
<event>
 6    4  0.6093247E-003  0.1293010E+03  0.7818608E-02  0.1228497E+00
         21   -1    0    0  501  502  0.00000000000E+00  0.00000000000E+00  0.10777214429E+02  0.10777214429E+02  0.00000000000E+00 0. -1.
         -4   -1    0    0    0  501 -0.00000000000E+00 -0.00000000000E+00 -0.67648470442E+03  0.67648589654E+03  0.12700000000E+01 0. -1.
         25    2    1    2    0    0 -0.19325030535E+02  0.26833853610E+02 -0.59901957068E+03  0.61281578739E+03  0.12500092288E+03 0.  0.
    9000005    1    3    3    0    0  0.45538755509E+02  0.12962437403E+01 -0.38593997373E+03  0.38862079438E+03  0.10000000000E+01 0.  0.
    9000005    1    3    3    0    0 -0.64863786044E+02  0.25537609870E+02 -0.21307959694E+03  0.22419499301E+03  0.10000000000E+01 0.  0.
         -4    1    1    2    0  502  0.19325030535E+02 -0.26833853610E+02 -0.66687919316E+02  0.74447323575E+02  0.12700000000E+01 0.  1.
<mgrwt>
<rscale>  1 0.12930098E+03</rscale>
<asrwt>0</asrwt>
<pdfrwt beam="1">  1       21 0.16580325E-02 0.12930098E+03</pdfrwt>
<pdfrwt beam="2">  1       -4 0.10408045E+00 0.12930098E+03</pdfrwt>
<totfact> 0.52099476E+04</totfact>
</mgrwt>
</event>
<event>
 6    4  0.6093247E-003  0.1269177E+03  0.7818608E-02  0.1232102E+00
          4   -1    0    0  502    0 -0.00000000000E+00  0.00000000000E+00  0.12763817697E+03  0.12764449507E+03  0.12700000000E+01 0. -1.
         21   -1    0    0  501  502  0.00000000000E+00 -0.00000000000E+00 -0.48519969875E+02  0.48519969875E+02  0.00000000000E+00 0. -1.
         25    2    1    2    0    0 -0.19785196217E+02 -0.95849678892E+01  0.43266724307E+02  0.13408992018E+03  0.12499908665E+03 0.  0.
    9000005    1    3    3    0    0 -0.17959123853E+02  0.84078687255E+01 -0.42246403323E+02  0.46679556337E+02  0.10000000000E+01 0.  0.
    9000005    1    3    3    0    0 -0.18260723641E+01 -0.17992836615E+02  0.85513127629E+02  0.87410363840E+02  0.10000000000E+01 0.  0.
          4    1    1    2  501    0  0.19785196217E+02  0.95849678892E+01  0.35851482790E+02  0.42074544763E+02  0.12700000000E+01 0.  1.
<mgrwt>
<rscale>  1 0.12691768E+03</rscale>
<asrwt>0</asrwt>
<pdfrwt beam="2">  1       21 0.74646109E-02 0.12691768E+03</pdfrwt>
<pdfrwt beam="1">  1        4 0.19638407E-01 0.12691768E+03</pdfrwt>
<totfact> 0.12554634E+05</totfact>
</mgrwt>
</event>
<event>
 6    4  0.6093247E-003  0.1318083E+03  0.7818608E-02  0.1224797E+00
         21   -1    0    0  501  502  0.00000000000E+00  0.00000000000E+00  0.19769029356E+02  0.19769029356E+02  0.00000000000E+00 0. -1.
         -4   -1    0    0    0  501 -0.00000000000E+00 -0.00000000000E+00 -0.61330702124E+03  0.61330833616E+03  0.12700000000E+01 0.  1.
         25    2    1    2    0    0  0.19643041710E+02  0.36914094044E+02 -0.57007103115E+03  0.58511060022E+03  0.12499973803E+03 0.  0.
    9000005    1    3    3    0    0 -0.31935016226E+02  0.64416067579E+02 -0.35673545965E+03  0.36390996578E+03  0.10000000000E+01 0.  0.
    9000005    1    3    3    0    0  0.51578057937E+02 -0.27501973535E+02 -0.21333557150E+03  0.22120063444E+03  0.10000000000E+01 0.  0.
         -4    1    1    2    0  502 -0.19643041710E+02 -0.36914094044E+02 -0.23466960736E+02  0.47966765295E+02  0.12700000000E+01 0. -1.
<mgrwt>
<rscale>  1 0.13180832E+03</rscale>
<asrwt>0</asrwt>
<pdfrwt beam="1">  1       21 0.30413891E-02 0.13180832E+03</pdfrwt>
<pdfrwt beam="2">  1       -4 0.94358166E-01 0.13180832E+03</pdfrwt>
<totfact> 0.24483694E+04</totfact>
</mgrwt>
</event>
<event>
 6    4  0.6093247E-003  0.1292845E+03  0.7818608E-02  0.1228521E+00
         21   -1    0    0  501  502  0.00000000000E+00  0.00000000000E+00  0.23195355901E+03  0.23195355901E+03  0.00000000000E+00 0. -1.
          4   -1    0    0  502    0 -0.00000000000E+00 -0.00000000000E+00 -0.29653548482E+02  0.29680731756E+02  0.12700000000E+01 0. -1.
         25    2    1    2    0    0  0.30027347502E+02  0.13692717972E+02  0.13647747937E+03  0.18799088894E+03  0.12500135930E+03 0.  0.
    9000005    1    3    3    0    0  0.59673318818E+02  0.38736743975E+02  0.13060461994E+03  0.14872796328E+03  0.10000000000E+01 0.  0.
    9000005    1    3    3    0    0 -0.29645971315E+02 -0.25044026002E+02  0.58728594281E+01  0.39262925662E+02  0.10000000000E+01 0.  0.
          4    1    1    2  501    0 -0.30027347502E+02 -0.13692717972E+02  0.65822531158E+02  0.73643401819E+02  0.12700000000E+01 0.  1.
<mgrwt>
<rscale>  1 0.12928446E+03</rscale>
<asrwt>0</asrwt>
<pdfrwt beam="1">  1       21 0.35685162E-01 0.12928446E+03</pdfrwt>
<pdfrwt beam="2">  1        4 0.45644430E-02 0.12928446E+03</pdfrwt>
<totfact> 0.84409281E+04</totfact>
</mgrwt>
</event>
<event>
 6    4  0.6093247E-003  0.1276055E+03  0.7818608E-02  0.1231053E+00
         21   -1    0    0  501  502  0.00000000000E+00  0.00000000000E+00  0.10451583487E+03  0.10451583487E+03  0.00000000000E+00 0.  1.
          4   -1    0    0  502    0 -0.00000000000E+00 -0.00000000000E+00 -0.29459804863E+03  0.29460078607E+03  0.12700000000E+01 0. -1.
         25    2    1    2    0    0  0.19003679332E+02  0.17229820801E+02 -0.27887560431E+03  0.30668347938E+03  0.12500058915E+03 0.  0.
    9000005    1    3    3    0    0  0.65657597003E+02  0.35689193354E+02 -0.19641180730E+03  0.21015050942E+03  0.10000000000E+01 0.  0.
    9000005    1    3    3    0    0 -0.46653917671E+02 -0.18459372553E+02 -0.82463797020E+02  0.96532969953E+02  0.10000000000E+01 0.  0.
          4    1    1    2  501    0 -0.19003679332E+02 -0.17229820801E+02  0.88793390557E+02  0.92433141565E+02  0.12700000000E+01 0.  1.
<mgrwt>
<rscale>  1 0.12760546E+03</rscale>
<asrwt>0</asrwt>
<pdfrwt beam="1">  1       21 0.16079359E-01 0.12760546E+03</pdfrwt>
<pdfrwt beam="2">  1        4 0.45323580E-01 0.12760546E+03</pdfrwt>
<totfact> 0.66945626E+03</totfact>
</mgrwt>
</event>
<event>
 6    4  0.6093247E-003  0.1314748E+03  0.7818608E-02  0.1225284E+00
         21   -1    0    0  501  502  0.00000000000E+00  0.00000000000E+00  0.74139956484E+02  0.74139956484E+02  0.00000000000E+00 0.  1.
          4   -1    0    0  502    0 -0.00000000000E+00 -0.00000000000E+00 -0.33021093362E+03  0.33021337584E+03  0.12700000000E+01 0. -1.
         25    2    1    2    0    0  0.37629977818E+02 -0.15591957269E+02 -0.31001778135E+03  0.33674419872E+03  0.12500602487E+03 0.  0.
    9000005    1    3    3    0    0 -0.24654746410E+02 -0.53237616964E+02 -0.13608003473E+03  0.14819202487E+03  0.10000000000E+01 0.  0.
    9000005    1    3    3    0    0  0.62284724228E+02  0.37645659695E+02 -0.17393774661E+03  0.18855217385E+03  0.10000000000E+01 0.  0.
          4    1    1    2  501    0 -0.37629977818E+02  0.15591957269E+02  0.53946804214E+02  0.67609133606E+02  0.12700000000E+01 0.  1.
<mgrwt>
<rscale>  1 0.13147483E+03</rscale>
<asrwt>0</asrwt>
<pdfrwt beam="1">  1       21 0.11406147E-01 0.13147483E+03</pdfrwt>
<pdfrwt beam="2">  1        4 0.50802706E-01 0.13147483E+03</pdfrwt>
<totfact> 0.98487949E+03</totfact>
</mgrwt>
</event>
<event>
 6    4  0.6093247E-003  0.1266361E+03  0.7818608E-02  0.1232534E+00
          4   -1    0    0  502    0 -0.00000000000E+00  0.00000000000E+00  0.70819298874E+02  0.70830685391E+02  0.12700000000E+01 0. -1.
         21   -1    0    0  501  502  0.00000000000E+00 -0.00000000000E+00 -0.94686535120E+02  0.94686535120E+02  0.00000000000E+00 0. -1.
         25    2    1    2    0    0 -0.21189986104E+01  0.20176020334E+02  0.89096197398E+01  0.12694913604E+03  0.12500055946E+03 0.  0.
    9000005    1    3    3    0    0  0.25560785605E+02  0.63740930859E+02 -0.14610857392E+02  0.70219208065E+02  0.10000000000E+01 0.  0.
    9000005    1    3    3    0    0 -0.27679784216E+02 -0.43564910526E+02  0.23520477131E+02  0.56729927973E+02  0.10000000000E+01 0.  0.
          4    1    1    2  501    0  0.21189986104E+01 -0.20176020334E+02 -0.32776855986E+02  0.38568084474E+02  0.12700000000E+01 0.  1.
<mgrwt>
<rscale>  1 0.12663610E+03</rscale>
<asrwt>0</asrwt>
<pdfrwt beam="2">  1       21 0.14567159E-01 0.12663610E+03</pdfrwt>
<pdfrwt beam="1">  1        4 0.10896808E-01 0.12663610E+03</pdfrwt>
<totfact> 0.10825594E+05</totfact>
</mgrwt>
</event>
<event>
 6    4  0.6093247E-003  0.1271073E+03  0.7818608E-02  0.1231812E+00
         -4   -1    0    0    0  501 -0.00000000000E+00  0.00000000000E+00  0.32681482734E+02  0.32706149478E+02  0.12700000000E+01 0. -1.
         21   -1    0    0  501  502  0.00000000000E+00 -0.00000000000E+00 -0.19297284103E+03  0.19297284103E+03  0.00000000000E+00 0.  1.
         25    2    1    2    0    0  0.11162366662E+02 -0.20166291882E+02 -0.10196739505E+03  0.16295279704E+03  0.12499994661E+03 0.  0.
    9000005    1    3    3    0    0  0.35254264178E+02  0.30454231290E+02 -0.12959256129E-01  0.46597462529E+02  0.10000000000E+01 0.  0.
    9000005    1    3    3    0    0 -0.24091897516E+02 -0.50620523172E+02 -0.10195443579E+03  0.11635533451E+03  0.10000000000E+01 0.  0.
         -4    1    1    2    0  502 -0.11162366662E+02  0.20166291882E+02 -0.58323963250E+02  0.62726193468E+02  0.12700000000E+01 0.  1.
<mgrwt>
<rscale>  1 0.12710729E+03</rscale>
<asrwt>0</asrwt>
<pdfrwt beam="2">  1       21 0.29688131E-01 0.12710729E+03</pdfrwt>
<pdfrwt beam="1">  1       -4 0.50301391E-02 0.12710729E+03</pdfrwt>
<totfact> 0.10313927E+05</totfact>
</mgrwt>
</event>
<event>
 6    4  0.6093247E-003  0.1432641E+03  0.7818608E-02  0.1209003E+00
         -4   -1    0    0    0  501 -0.00000000000E+00  0.00000000000E+00  0.42638936679E+02  0.42657845950E+02  0.12700000000E+01 0. -1.
         21   -1    0    0  501  502  0.00000000000E+00 -0.00000000000E+00 -0.43099615553E+03  0.43099615553E+03  0.00000000000E+00 0.  1.
         25    2    1    2    0    0 -0.56766618875E+02  0.40959749103E+02 -0.94624700483E+02  0.17169281968E+03  0.12499776128E+03 0.  0.
    9000005    1    3    3    0    0 -0.18327783429E+02 -0.29734062562E+02  0.13021885825E+02  0.37290637327E+02  0.10000000000E+01 0.  0.
    9000005    1    3    3    0    0 -0.38438835446E+02  0.70693811665E+02 -0.10764658631E+03  0.13440218236E+03  0.10000000000E+01 0.  0.
         -4    1    1    2    0  502  0.56766618875E+02 -0.40959749103E+02 -0.29373251836E+03  0.30196118179E+03  0.12700000000E+01 0.  1.
<mgrwt>
<rscale>  1 0.14326406E+03</rscale>
<asrwt>0</asrwt>
<pdfrwt beam="2">  1       21 0.66307102E-01 0.14326406E+03</pdfrwt>
<pdfrwt beam="1">  1       -4 0.65614348E-02 0.14326406E+03</pdfrwt>
<totfact> 0.13224707E+04</totfact>
</mgrwt>
</event>
<event>
 6    4  0.6093247E-003  0.2175500E+03  0.7818608E-02  0.1135723E+00
         -4   -1    0    0    0  501 -0.00000000000E+00  0.00000000000E+00  0.36812068155E+03  0.36812287227E+03  0.12700000000E+01 0.  1.
         21   -1    0    0  501  502  0.00000000000E+00 -0.00000000000E+00 -0.12212956045E+03  0.12212956045E+03  0.00000000000E+00 0. -1.
         25    2    1    2    0    0  0.15653398088E+03  0.84851465101E+02  0.22158870573E+03  0.31053112325E+03  0.12500146279E+03 0.  0.
    9000005    1    3    3    0    0 -0.13372776023E+02 -0.15004308117E+02  0.15721485872E+02  0.25536748396E+02  0.10000000000E+01 0.  0.
    9000005    1    3    3    0    0  0.16990675690E+03  0.99855773218E+02  0.20586721986E+03  0.28499437485E+03  0.10000000000E+01 0.  0.
         -4    1    1    2    0  502 -0.15653398088E+03 -0.84851465101E+02  0.24402415380E+02  0.17972130947E+03  0.12700000000E+01 0. -1.
<mgrwt>
<rscale>  1 0.21755005E+03</rscale>
<asrwt>0</asrwt>
<pdfrwt beam="2">  1       21 0.18789163E-01 0.21755005E+03</pdfrwt>
<pdfrwt beam="1">  1       -4 0.56634627E-01 0.21755005E+03</pdfrwt>
<totfact> 0.32786303E+03</totfact>
</mgrwt>
</event>
<event>
 6    4  0.6093247E-003  0.1272103E+03  0.7818608E-02  0.1231655E+00
          4   -1    0    0  502    0 -0.00000000000E+00  0.00000000000E+00  0.50607178531E+02  0.50623111509E+02  0.12700000000E+01 0. -1.
         21   -1    0    0  501  502  0.00000000000E+00 -0.00000000000E+00 -0.11724680742E+03  0.11724680742E+03  0.00000000000E+00 0. -1.
         25    2    1    2    0    0 -0.74770692538E+01  0.22392985404E+02 -0.67893501818E+02  0.14419424666E+03  0.12500040328E+03 0.  0.
    9000005    1    3    3    0    0 -0.20428874789E+02  0.58390162292E+02  0.47873999265E+01  0.62053760367E+02  0.10000000000E+01 0.  0.
    9000005    1    3    3    0    0  0.12951805535E+02 -0.35997176888E+02 -0.72680901744E+02  0.82140486295E+02  0.10000000000E+01 0.  0.
          4    1    1    2  501    0  0.74770692538E+01 -0.22392985404E+02  0.12538729295E+01  0.23675672266E+02  0.12700000000E+01 0.  1.
<mgrwt>
<rscale>  1 0.12721027E+03</rscale>
<asrwt>0</asrwt>
<pdfrwt beam="2">  1       21 0.18037970E-01 0.12721027E+03</pdfrwt>
<pdfrwt beam="1">  1        4 0.77874745E-02 0.12721027E+03</pdfrwt>
<totfact> 0.12893470E+05</totfact>
</mgrwt>
</event>
<event>
 6    4  0.6093247E-003  0.1346927E+03  0.7818608E-02  0.1220654E+00
         21   -1    0    0  501  502  0.00000000000E+00  0.00000000000E+00  0.54113997600E+01  0.54113997600E+01  0.00000000000E+00 0.  1.
          4   -1    0    0  502    0 -0.00000000000E+00 -0.00000000000E+00 -0.19332287388E+04  0.19332291559E+04  0.12700000000E+01 0. -1.
         25    2    1    2    0    0 -0.14958342177E+02  0.47881234716E+02 -0.17017004566E+04  0.17070227195E+04  0.12500302463E+03 0.  0.
    9000005    1    3    3    0    0 -0.50568553916E+02  0.62357104519E+02 -0.14667864439E+04  0.14689823210E+04  0.10000000000E+01 0.  0.
    9000005    1    3    3    0    0  0.35610211739E+02 -0.14475869803E+02 -0.23491401267E+03  0.23804039854E+03  0.10000000000E+01 0.  0.
          4    1    1    2  501    0  0.14958342177E+02 -0.47881234716E+02 -0.22611688238E+03  0.23161783618E+03  0.12700000000E+01 0.  1.
<mgrwt>
<rscale>  1 0.13469269E+03</rscale>
<asrwt>0</asrwt>
<pdfrwt beam="1">  1       21 0.83252192E-03 0.13469269E+03</pdfrwt>
<pdfrwt beam="2">  1        4 0.29743170E+00 0.13469269E+03</pdfrwt>
<totfact> 0.79920705E+03</totfact>
</mgrwt>
</event>
<event>
 6    4  0.6093247E-003  0.1283473E+03  0.7818608E-02  0.1229929E+00
         21   -1    0    0  501  502  0.00000000000E+00  0.00000000000E+00  0.26037311212E+02  0.26037311212E+02  0.00000000000E+00 0.  1.
          4   -1    0    0  502    0 -0.00000000000E+00 -0.00000000000E+00 -0.23851594472E+03  0.23851932581E+03  0.12700000000E+01 0.  1.
         25    2    1    2    0    0 -0.44213422845E+01  0.28771345099E+02 -0.17727140135E+03  0.21885652037E+03  0.12500275278E+03 0.  0.
    9000005    1    3    3    0    0  0.39071924268E+02  0.25018173076E+02 -0.12025994818E+02  0.47939011269E+02  0.10000000000E+01 0.  0.
    9000005    1    3    3    0    0 -0.43493266553E+02  0.37531720236E+01 -0.16524540653E+03  0.17091750910E+03  0.10000000000E+01 0.  0.
          4    1    1    2  501    0  0.44213422845E+01 -0.28771345099E+02 -0.35207232158E+02  0.45700116659E+02  0.12700000000E+01 0. -1.
<mgrwt>
<rscale>  1 0.12834729E+03</rscale>
<asrwt>0</asrwt>
<pdfrwt beam="1">  1       21 0.40057401E-02 0.12834729E+03</pdfrwt>
<pdfrwt beam="2">  1        4 0.36697404E-01 0.12834729E+03</pdfrwt>
<totfact> 0.11220112E+05</totfact>
</mgrwt>
</event>
<event>
 6    4  0.6093247E-003  0.1637460E+03  0.7818608E-02  0.1184531E+00
          4   -1    0    0  502    0 -0.00000000000E+00  0.00000000000E+00  0.89357726591E+02  0.89366751096E+02  0.12700000000E+01 0.  1.
         21   -1    0    0  501  502  0.00000000000E+00 -0.00000000000E+00 -0.39479521831E+03  0.39479521831E+03  0.00000000000E+00 0. -1.
         25    2    1    2    0    0  0.85663785310E+02  0.62025328228E+02 -0.30112752310E+01  0.16377368189E+03  0.12500930224E+03 0.  0.
    9000005    1    3    3    0    0  0.95295817824E+02  0.16695322601E+02 -0.39777389326E+02  0.10461007310E+03  0.10000000000E+01 0.  0.
    9000005    1    3    3    0    0 -0.96320325139E+01  0.45330005627E+02  0.36766114095E+02  0.59163608799E+02  0.10000000000E+01 0.  0.
          4    1    1    2  501    0 -0.85663785310E+02 -0.62025328228E+02 -0.30242621649E+03  0.32038828751E+03  0.12700000000E+01 0. -1.
<mgrwt>
<rscale>  1 0.16374600E+03</rscale>
<asrwt>0</asrwt>
<pdfrwt beam="2">  1       21 0.60737724E-01 0.16374600E+03</pdfrwt>
<pdfrwt beam="1">  1        4 0.13748194E-01 0.16374600E+03</pdfrwt>
<totfact> 0.46331831E+03</totfact>
</mgrwt>
</event>
<event>
 6    4  0.6093247E-003  0.1292828E+03  0.7818608E-02  0.1228524E+00
         21   -1    0    0  501  502  0.00000000000E+00  0.00000000000E+00  0.12733625921E+02  0.12733625921E+02  0.00000000000E+00 0. -1.
         -4   -1    0    0    0  501 -0.00000000000E+00 -0.00000000000E+00 -0.58611078407E+03  0.58611216000E+03  0.12700000000E+01 0.  1.
         25    2    1    2    0    0 -0.29570395101E+02  0.14637994820E+02 -0.52201146742E+03  0.53778248891E+03  0.12500141637E+03 0.  0.
    9000005    1    3    3    0    0 -0.17024676611E+02 -0.23823081470E+02 -0.47436882671E+03  0.47527272442E+03  0.10000000000E+01 0.  0.
    9000005    1    3    3    0    0 -0.12545718490E+02  0.38461076291E+02 -0.47642640712E+02  0.62509764484E+02  0.10000000000E+01 0.  0.
         -4    1    1    2    0  502  0.29570395101E+02 -0.14637994820E+02 -0.51365690723E+02  0.61063297014E+02  0.12700000000E+01 0. -1.
<mgrwt>
<rscale>  1 0.12928276E+03</rscale>
<asrwt>0</asrwt>
<pdfrwt beam="1">  1       21 0.19590197E-02 0.12928276E+03</pdfrwt>
<pdfrwt beam="2">  1       -4 0.90175852E-01 0.12928276E+03</pdfrwt>
<totfact> 0.55363932E+04</totfact>
</mgrwt>
</event>
<event>
 6    4  0.6093247E-003  0.1269905E+03  0.7818608E-02  0.1231991E+00
         -4   -1    0    0    0  501 -0.00000000000E+00  0.00000000000E+00  0.71207827617E+02  0.71219152016E+02  0.12700000000E+01 0. -1.
         21   -1    0    0  501  502  0.00000000000E+00 -0.00000000000E+00 -0.14424232607E+03  0.14424232607E+03  0.00000000000E+00 0. -1.
         25    2    1    2    0    0 -0.10691505319E+02  0.19665534920E+02  0.11966805527E+02  0.12755313873E+03  0.12500222885E+03 0.  0.
    9000005    1    3    3    0    0  0.37738189354E+02 -0.29342206723E+02  0.29846085441E+02  0.56364216018E+02  0.10000000000E+01 0.  0.
    9000005    1    3    3    0    0 -0.48429694673E+02  0.49007741643E+02 -0.17879279914E+02  0.71188922715E+02  0.10000000000E+01 0.  0.
         -4    1    1    2    0  502  0.10691505319E+02 -0.19665534920E+02 -0.85001303983E+02  0.87908339357E+02  0.12700000000E+01 0.  1.
<mgrwt>
<rscale>  1 0.12699055E+03</rscale>
<asrwt>0</asrwt>
<pdfrwt beam="2">  1       21 0.22191127E-01 0.12699055E+03</pdfrwt>
<pdfrwt beam="1">  1       -4 0.10956352E-01 0.12699055E+03</pdfrwt>
<totfact> 0.49655232E+04</totfact>
</mgrwt>
</event>
<event>
 6    4  0.6093247E-003  0.1297738E+03  0.7818608E-02  0.1227792E+00
         -4   -1    0    0    0  501 -0.00000000000E+00  0.00000000000E+00  0.11874993183E+03  0.11875672279E+03  0.12700000000E+01 0. -1.
         21   -1    0    0  501  502  0.00000000000E+00 -0.00000000000E+00 -0.26477107023E+03  0.26477107023E+03  0.00000000000E+00 0.  1.
         25    2    1    2    0    0  0.27468318361E+02  0.21607332541E+02  0.81560122273E+02  0.15327526113E+03  0.12497946549E+03 0.  0.
    9000005    1    3    3    0    0 -0.30268913440E+02  0.16103760713E+02 -0.17480061519E+02  0.38497932161E+02  0.10000000000E+01 0.  0.
    9000005    1    3    3    0    0  0.57737231801E+02  0.55035718284E+01  0.99040183792E+02  0.11477732897E+03  0.10000000000E+01 0.  0.
         -4    1    1    2    0  502 -0.27468318361E+02 -0.21607332541E+02 -0.22758126068E+03  0.23025253190E+03  0.12700000000E+01 0.  1.
<mgrwt>
<rscale>  1 0.12977385E+03</rscale>
<asrwt>0</asrwt>
<pdfrwt beam="2">  1       21 0.40734010E-01 0.12977385E+03</pdfrwt>
<pdfrwt beam="1">  1       -4 0.18269977E-01 0.12977385E+03</pdfrwt>
<totfact> 0.63418216E+03</totfact>
</mgrwt>
</event>
<event>
 6    4  0.6093247E-003  0.1283274E+03  0.7818608E-02  0.1229959E+00
         21   -1    0    0  501  502  0.00000000000E+00  0.00000000000E+00  0.11320474763E+02  0.11320474763E+02  0.00000000000E+00 0. -1.
          4   -1    0    0  502    0 -0.00000000000E+00 -0.00000000000E+00 -0.59495338778E+03  0.59495474326E+03  0.12700000000E+01 0. -1.
         25    2    1    2    0    0  0.21180701931E+02 -0.19857033066E+02 -0.52956992136E+03  0.54489652576E+03  0.12499999315E+03 0.  0.
    9000005    1    3    3    0    0  0.81852077221E+01 -0.63556656448E+02 -0.15746702339E+03  0.17000973401E+03  0.10000000000E+01 0.  0.
    9000005    1    3    3    0    0  0.12995494208E+02  0.43699623382E+02 -0.37210289797E+03  0.37488679175E+03  0.10000000000E+01 0.  0.
          4    1    1    2  501    0 -0.21180701931E+02  0.19857033066E+02 -0.54062991662E+02  0.61378692263E+02  0.12700000000E+01 0.  1.
<mgrwt>
<rscale>  1 0.12832740E+03</rscale>
<asrwt>0</asrwt>
<pdfrwt beam="1">  1       21 0.17416115E-02 0.12832740E+03</pdfrwt>
<pdfrwt beam="2">  1        4 0.91536874E-01 0.12832740E+03</pdfrwt>
<totfact> 0.64602043E+04</totfact>
</mgrwt>
</event>
<event>
 6    4  0.6093247E-003  0.1675191E+03  0.7818608E-02  0.1180460E+00
          4   -1    0    0  502    0 -0.00000000000E+00  0.00000000000E+00  0.25075882461E+03  0.25076204063E+03  0.12700000000E+01 0. -1.
         21   -1    0    0  501  502  0.00000000000E+00 -0.00000000000E+00 -0.10184610081E+03  0.10184610081E+03  0.00000000000E+00 0.  1.
         25    2    1    2    0    0  0.54240831905E+02  0.97448327905E+02  0.17047702317E+03  0.23900850956E+03  0.12499763100E+03 0.  0.
    9000005    1    3    3    0    0  0.25468963030E+02  0.12437436519E+03  0.14135084685E+03  0.18999661234E+03  0.10000000000E+01 0.  0.
    9000005    1    3    3    0    0  0.28771868875E+02 -0.26926037284E+02  0.29126176316E+02  0.49011897221E+02  0.10000000000E+01 0.  0.
          4    1    1    2  501    0 -0.54240831905E+02 -0.97448327905E+02 -0.21564299369E+02  0.11359963189E+03  0.12700000000E+01 0.  1.
<mgrwt>
<rscale>  1 0.16751911E+03</rscale>
<asrwt>0</asrwt>
<pdfrwt beam="2">  1       21 0.15668631E-01 0.16751911E+03</pdfrwt>
<pdfrwt beam="1">  1        4 0.38579137E-01 0.16751911E+03</pdfrwt>
<totfact> 0.98608752E+03</totfact>
</mgrwt>
</event>
<event>
 6    4  0.6093247E-003  0.1307771E+03  0.7818608E-02  0.1226307E+00
         21   -1    0    0  501  502  0.00000000000E+00  0.00000000000E+00  0.82484158290E+02  0.82484158290E+02  0.00000000000E+00 0. -1.
          4   -1    0    0  502    0 -0.00000000000E+00 -0.00000000000E+00 -0.19842588766E+03  0.19842995186E+03  0.12700000000E+01 0. -1.
         25    2    1    2    0    0  0.18267107650E+02  0.33801805026E+02 -0.17006102660E+03  0.21453067489E+03  0.12500563369E+03 0.  0.
    9000005    1    3    3    0    0 -0.36570002767E+02  0.21214659306E+02 -0.14827606175E+03  0.15418890155E+03  0.10000000000E+01 0.  0.
    9000005    1    3    3    0    0  0.54837110417E+02  0.12587145720E+02 -0.21784964844E+02  0.60341773338E+02  0.10000000000E+01 0.  0.
          4    1    1    2  501    0 -0.18267107650E+02 -0.33801805026E+02  0.54119297226E+02  0.66383435262E+02  0.12700000000E+01 0.  1.
<mgrwt>
<rscale>  1 0.13077713E+03</rscale>
<asrwt>0</asrwt>
<pdfrwt beam="1">  1       21 0.12689871E-01 0.13077713E+03</pdfrwt>
<pdfrwt beam="2">  1        4 0.30528124E-01 0.13077713E+03</pdfrwt>
<totfact> 0.22148130E+04</totfact>
</mgrwt>
</event>
<event>
 6    4  0.6093247E-003  0.1290795E+03  0.7818608E-02  0.1228828E+00
         -4   -1    0    0    0  501 -0.00000000000E+00  0.00000000000E+00  0.70469013143E+02  0.70480456251E+02  0.12700000000E+01 0.  1.
         21   -1    0    0  501  502  0.00000000000E+00 -0.00000000000E+00 -0.19730228028E+03  0.19730228028E+03  0.00000000000E+00 0. -1.
         25    2    1    2    0    0 -0.24569589992E+02 -0.20747420964E+02  0.78401019459E+01  0.12931739982E+03  0.12500960951E+03 0.  0.
    9000005    1    3    3    0    0  0.39555260433E+02  0.21314116656E+02  0.23982338187E+02  0.50941758329E+02  0.10000000000E+01 0.  0.
    9000005    1    3    3    0    0 -0.64124850425E+02 -0.42061537620E+02 -0.16142236241E+02  0.78375641495E+02  0.10000000000E+01 0.  0.
         -4    1    1    2    0  502  0.24569589992E+02  0.20747420964E+02 -0.13467336908E+03  0.13846533671E+03  0.12700000000E+01 0. -1.
<mgrwt>
<rscale>  1 0.12907952E+03</rscale>
<asrwt>0</asrwt>
<pdfrwt beam="2">  1       21 0.30354196E-01 0.12907952E+03</pdfrwt>
<pdfrwt beam="1">  1       -4 0.10842581E-01 0.12907952E+03</pdfrwt>
<totfact> 0.27943513E+04</totfact>
</mgrwt>
</event>
<event>
 6    4  0.6093247E-003  0.1274113E+03  0.7818608E-02  0.1231348E+00
         -4   -1    0    0    0  501 -0.00000000000E+00  0.00000000000E+00  0.25694108473E+02  0.25725475899E+02  0.12700000000E+01 0. -1.
         21   -1    0    0  501  502  0.00000000000E+00 -0.00000000000E+00 -0.26727518606E+03  0.26727518606E+03  0.00000000000E+00 0. -1.
         25    2    1    2    0    0  0.91487865837E+01 -0.22894924069E+02 -0.14368280367E+03  0.19203748660E+03  0.12500308133E+03 0.  0.
    9000005    1    3    3    0    0 -0.12723558829E+02  0.45488639561E+02 -0.92475171634E+02  0.10384489707E+03  0.10000000000E+01 0.  0.
    9000005    1    3    3    0    0  0.21872345412E+02 -0.68383563630E+02 -0.51207632039E+02  0.88192589528E+02  0.10000000000E+01 0.  0.
         -4    1    1    2    0  502 -0.91487865837E+01  0.22894924069E+02 -0.97898273914E+02  0.10096317536E+03  0.12700000000E+01 0.  1.
<mgrwt>
<rscale>  1 0.12741133E+03</rscale>
<asrwt>0</asrwt>
<pdfrwt beam="2">  1       21 0.41119260E-01 0.12741133E+03</pdfrwt>
<pdfrwt beam="1">  1       -4 0.39555846E-02 0.12741133E+03</pdfrwt>
<totfact> 0.79842155E+04</totfact>
</mgrwt>
</event>
<event>
 6    4  0.6093247E-003  0.1511654E+03  0.7818608E-02  0.1199048E+00
         -4   -1    0    0    0  501 -0.00000000000E+00  0.00000000000E+00  0.24488956659E+02  0.24521865718E+02  0.12700000000E+01 0.  1.
         21   -1    0    0  501  502  0.00000000000E+00 -0.00000000000E+00 -0.69699599518E+03  0.69699599518E+03  0.00000000000E+00 0. -1.
         25    2    1    2    0    0 -0.76136285553E+02  0.37771153381E+02 -0.26358740303E+03  0.30385738253E+03  0.12501038306E+03 0.  0.
    9000005    1    3    3    0    0  0.17477517624E+02 -0.25348394618E+02 -0.24186458669E+02  0.39166178202E+02  0.10000000000E+01 0.  0.
    9000005    1    3    3    0    0 -0.93613803177E+02  0.63119547998E+02 -0.23940094436E+03  0.26469120433E+03  0.10000000000E+01 0.  0.
         -4    1    1    2    0  502  0.76136285553E+02 -0.37771153381E+02 -0.40891963548E+03  0.41766047837E+03  0.12700000000E+01 0. -1.
<mgrwt>
<rscale>  1 0.15116544E+03</rscale>
<asrwt>0</asrwt>
<pdfrwt beam="2">  1       21 0.10723014E+00 0.15116544E+03</pdfrwt>
<pdfrwt beam="1">  1       -4 0.37701526E-02 0.15116544E+03</pdfrwt>
<totfact> 0.10875015E+04</totfact>
</mgrwt>
</event>
<event>
 6    4  0.6093247E-003  0.1359752E+03  0.7818608E-02  0.1218850E+00
         21   -1    0    0  501  502  0.00000000000E+00  0.00000000000E+00  0.13437772431E+03  0.13437772431E+03  0.00000000000E+00 0. -1.
          4   -1    0    0  502    0 -0.00000000000E+00 -0.00000000000E+00 -0.89908412956E+02  0.89917382192E+02  0.12700000000E+01 0.  1.
         25    2    1    2    0    0 -0.11974698013E+02  0.52167097722E+02 -0.23270670504E+02  0.13795208409E+03  0.12499781567E+03 0.  0.
    9000005    1    3    3    0    0  0.40051876188E+02  0.29848218316E+01 -0.47639211058E+02  0.62318186573E+02  0.10000000000E+01 0.  0.
    9000005    1    3    3    0    0 -0.52026574201E+02  0.49182275890E+02  0.24368540554E+02  0.75633897517E+02  0.10000000000E+01 0.  0.
          4    1    1    2  501    0  0.11974698013E+02 -0.52167097722E+02  0.67739981861E+02  0.86343022415E+02  0.12700000000E+01 0. -1.
<mgrwt>
<rscale>  1 0.13597519E+03</rscale>
<asrwt>0</asrwt>
<pdfrwt beam="1">  1       21 0.20673496E-01 0.13597519E+03</pdfrwt>
<pdfrwt beam="2">  1        4 0.13833215E-01 0.13597519E+03</pdfrwt>
<totfact> 0.38298608E+04</totfact>
</mgrwt>
</event>
<event>
 6    4  0.6093247E-003  0.1469566E+03  0.7818608E-02  0.1204263E+00
          4   -1    0    0  502    0 -0.00000000000E+00  0.00000000000E+00  0.22191302474E+02  0.22227613581E+02  0.12700000000E+01 0.  1.
         21   -1    0    0  501  502  0.00000000000E+00 -0.00000000000E+00 -0.57738200017E+03  0.57738200017E+03  0.00000000000E+00 0.  1.
         25    2    1    2    0    0 -0.77134081589E+02 -0.40070986331E+01 -0.32181191225E+03  0.35377838348E+03  0.12502205552E+03 0.  0.
    9000005    1    3    3    0    0  0.82103855266E+01  0.23618529920E+02 -0.63628722311E+01  0.25821145000E+02  0.10000000000E+01 0.  0.
    9000005    1    3    3    0    0 -0.85344467116E+02 -0.27625628553E+02 -0.31544904002E+03  0.32795723848E+03  0.10000000000E+01 0.  0.
          4    1    1    2  501    0  0.77134081589E+02  0.40070986331E+01 -0.23337878544E+03  0.24583123027E+03  0.12700000000E+01 0. -1.
<mgrwt>
<rscale>  1 0.14695658E+03</rscale>
<asrwt>0</asrwt>
<pdfrwt beam="2">  1       21 0.88827992E-01 0.14695658E+03</pdfrwt>
<pdfrwt beam="1">  1        4 0.34169474E-02 0.14695658E+03</pdfrwt>
<totfact> 0.19705306E+04</totfact>
</mgrwt>
</event>
<event>
 6    4  0.6093247E-003  0.1285919E+03  0.7818608E-02  0.1229560E+00
         -4   -1    0    0    0  501 -0.00000000000E+00  0.00000000000E+00  0.19149914419E+03  0.19150335539E+03  0.12700000000E+01 0.  1.
         21   -1    0    0  501  502  0.00000000000E+00 -0.00000000000E+00 -0.45868429950E+02  0.45868429950E+02  0.00000000000E+00 0. -1.
         25    2    1    2    0    0 -0.22228246812E+02  0.20414153902E+02  0.15887038830E+03  0.20439096508E+03  0.12500013477E+03 0.  0.
    9000005    1    3    3    0    0  0.38095854753E+02  0.48083355513E+02  0.64541061804E+02  0.89049715808E+02  0.10000000000E+01 0.  0.
    9000005    1    3    3    0    0 -0.60324101565E+02 -0.27669201611E+02  0.94329326496E+02  0.11534124928E+03  0.10000000000E+01 0.  0.
         -4    1    1    2    0  502  0.22228246812E+02 -0.20414153902E+02 -0.13239674056E+02  0.32980820259E+02  0.12700000000E+01 0. -1.
<mgrwt>
<rscale>  1 0.12859186E+03</rscale>
<asrwt>0</asrwt>
<pdfrwt beam="2">  1       21 0.70566817E-02 0.12859186E+03</pdfrwt>
<pdfrwt beam="1">  1       -4 0.29463083E-01 0.12859186E+03</pdfrwt>
<totfact> 0.65760639E+04</totfact>
</mgrwt>
</event>
<event>
 6    4  0.6093247E-003  0.1294939E+03  0.7818608E-02  0.1228209E+00
         21   -1    0    0  501  502  0.00000000000E+00  0.00000000000E+00  0.96065488516E+02  0.96065488516E+02  0.00000000000E+00 0.  1.
         -4   -1    0    0    0  501 -0.00000000000E+00 -0.00000000000E+00 -0.68017243833E+03  0.68017362399E+03  0.12700000000E+01 0. -1.
         25    2    1    2    0    0 -0.23808834968E+02  0.24032803851E+02 -0.67079267948E+03  0.68317749361E+03  0.12499693056E+03 0.  0.
    9000005    1    3    3    0    0 -0.19776060207E+02 -0.50397043356E+01 -0.11929618214E+02  0.23660240232E+02  0.10000000000E+01 0.  0.
    9000005    1    3    3    0    0 -0.40327747604E+01  0.29072508187E+02 -0.65886306127E+03  0.65951725338E+03  0.10000000000E+01 0.  0.
         -4    1    1    2    0  502  0.23808834968E+02 -0.24032803851E+02  0.86685729663E+02  0.93061618891E+02  0.12700000000E+01 0.  1.
<mgrwt>
<rscale>  1 0.12949390E+03</rscale>
<asrwt>0</asrwt>
<pdfrwt beam="1">  1       21 0.14779305E-01 0.12949390E+03</pdfrwt>
<pdfrwt beam="2">  1       -4 0.10464266E+00 0.12949390E+03</pdfrwt>
<totfact> 0.12865670E+03</totfact>
</mgrwt>
</event>
<event>
 6    4  0.6093247E-003  0.1891181E+03  0.7818608E-02  0.1159259E+00
          4   -1    0    0  502    0 -0.00000000000E+00  0.00000000000E+00  0.56135123041E+02  0.56149487432E+02  0.12700000000E+01 0.  1.
         21   -1    0    0  501  502  0.00000000000E+00 -0.00000000000E+00 -0.64544286653E+03  0.64544286653E+03  0.00000000000E+00 0. -1.
         25    2    1    2    0    0  0.12265577325E+03 -0.71388695533E+02 -0.15448847461E+03  0.24419734519E+03  0.12499948019E+03 0.  0.
    9000005    1    3    3    0    0 -0.17342634752E+02 -0.33645494391E+02 -0.92742405836E+01  0.38984584278E+02  0.10000000000E+01 0.  0.
    9000005    1    3    3    0    0  0.13999840801E+03 -0.37743201142E+02 -0.14521423403E+03  0.20521276091E+03  0.10000000000E+01 0.  0.
          4    1    1    2  501    0 -0.12265577325E+03  0.71388695533E+02 -0.43481926888E+03  0.45739500878E+03  0.12700000000E+01 0. -1.
<mgrwt>
<rscale>  1 0.18911810E+03</rscale>
<asrwt>0</asrwt>
<pdfrwt beam="2">  1       21 0.99298895E-01 0.18911810E+03</pdfrwt>
<pdfrwt beam="1">  1        4 0.86373745E-02 0.18911810E+03</pdfrwt>
<totfact> 0.34110182E+03</totfact>
</mgrwt>
</event>
<event>
 6    4  0.6093247E-003  0.1320126E+03  0.7818608E-02  0.1224500E+00
         21   -1    0    0  501  502  0.00000000000E+00  0.00000000000E+00  0.64552628775E+02  0.64552628775E+02  0.00000000000E+00 0.  1.
         -4   -1    0    0    0  501 -0.00000000000E+00 -0.00000000000E+00 -0.14572025033E+03  0.14572578446E+03  0.12700000000E+01 0. -1.
         25    2    1    2    0    0  0.10461397971E+02  0.41144254187E+02 -0.98186322223E+02  0.16452319963E+03  0.12500015537E+03 0.  0.
    9000005    1    3    3    0    0 -0.28089316125E+02  0.47688513176E+02 -0.11043790393E+03  0.12353434581E+03  0.10000000000E+01 0.  0.
    9000005    1    3    3    0    0  0.38550714097E+02 -0.65442589893E+01  0.12251581707E+02  0.40988853819E+02  0.10000000000E+01 0.  0.
         -4    1    1    2    0  502 -0.10461397971E+02 -0.41144254187E+02  0.17018700666E+02  0.45755213610E+02  0.12700000000E+01 0.  1.
<mgrwt>
<rscale>  1 0.13201261E+03</rscale>
<asrwt>0</asrwt>
<pdfrwt beam="1">  1       21 0.99311738E-02 0.13201261E+03</pdfrwt>
<pdfrwt beam="2">  1       -4 0.22419886E-01 0.13201261E+03</pdfrwt>
<totfact> 0.60597630E+04</totfact>
</mgrwt>
</event>
<event>
 6    4  0.6093247E-003  0.1459660E+03  0.7818608E-02  0.1205519E+00
          4   -1    0    0  502    0 -0.00000000000E+00  0.00000000000E+00  0.12751330984E+04  0.12751337309E+04  0.12700000000E+01 0. -1.
         21   -1    0    0  501  502  0.00000000000E+00 -0.00000000000E+00 -0.10074999657E+02  0.10074999657E+02  0.00000000000E+00 0.  1.
         25    2    1    2    0    0 -0.40926484111E+02 -0.63299095260E+02  0.95656680620E+03  0.96763945768E+03  0.12499725110E+03 0.  0.
    9000005    1    3    3    0    0  0.16777261373E+02 -0.82186025375E+02  0.48854427107E+03  0.49569398227E+03  0.10000000000E+01 0.  0.
    9000005    1    3    3    0    0 -0.57703745484E+02  0.18886930115E+02  0.46802253513E+03  0.47194547541E+03  0.10000000000E+01 0.  0.
          4    1    1    2  501    0  0.40926484111E+02  0.63299095260E+02  0.30849129256E+03  0.31756927284E+03  0.12700000000E+01 0.  1.
<mgrwt>
<rscale>  1 0.14596597E+03</rscale>
<asrwt>0</asrwt>
<pdfrwt beam="2">  1       21 0.15500010E-02 0.14596597E+03</pdfrwt>
<pdfrwt beam="1">  1        4 0.19618040E+00 0.14596597E+03</pdfrwt>
<totfact> 0.11784081E+04</totfact>
</mgrwt>
</event>
<event>
 6    4  0.6093247E-003  0.1280659E+03  0.7818608E-02  0.1230354E+00
         21   -1    0    0  501  502  0.00000000000E+00  0.00000000000E+00  0.65431391356E+02  0.65431391356E+02  0.00000000000E+00 0.  1.
          4   -1    0    0  502    0 -0.00000000000E+00 -0.00000000000E+00 -0.10062422046E+03  0.10063223461E+03  0.12700000000E+01 0.  1.
         25    2    1    2    0    0  0.27163039073E+02  0.61400025519E+01 -0.46125567729E+02  0.13611921084E+03  0.12500136495E+03 0.  0.
    9000005    1    3    3    0    0 -0.33976687626E+01 -0.26696259920E+02  0.34550212168E+02  0.43805839880E+02  0.10000000000E+01 0.  0.
    9000005    1    3    3    0    0  0.30560707836E+02  0.32836262472E+02 -0.80675779897E+02  0.92313370963E+02  0.10000000000E+01 0.  0.
          4    1    1    2  501    0 -0.27163039073E+02 -0.61400025519E+01  0.10932738629E+02  0.29944415121E+02  0.12700000000E+01 0. -1.
<mgrwt>
<rscale>  1 0.12806589E+03</rscale>
<asrwt>0</asrwt>
<pdfrwt beam="1">  1       21 0.10066368E-01 0.12806589E+03</pdfrwt>
<pdfrwt beam="2">  1        4 0.15482214E-01 0.12806589E+03</pdfrwt>
<totfact> 0.11408129E+05</totfact>
</mgrwt>
</event>
<event>
 6    4  0.6093247E-003  0.1302115E+03  0.7818608E-02  0.1227142E+00
         21   -1    0    0  501  502  0.00000000000E+00  0.00000000000E+00  0.10000791011E+03  0.10000791011E+03  0.00000000000E+00 0.  1.
          4   -1    0    0  502    0 -0.00000000000E+00 -0.00000000000E+00 -0.15644165366E+03  0.15644680853E+03  0.12700000000E+01 0. -1.
         25    2    1    2    0    0 -0.57580799320E+01  0.36023797004E+02 -0.12390442096E+03  0.17974243381E+03  0.12499667013E+03 0.  0.
    9000005    1    3    3    0    0 -0.29172755999E+02  0.13637085772E+02  0.16113042441E+02  0.36022908512E+02  0.10000000000E+01 0.  0.
    9000005    1    3    3    0    0  0.23414676067E+02  0.22386711232E+02 -0.14001746340E+03  0.14371952529E+03  0.10000000000E+01 0.  0.
          4    1    1    2  501    0  0.57580799320E+01 -0.36023797004E+02  0.67470677410E+02  0.76712284840E+02  0.12700000000E+01 0.  1.
<mgrwt>
<rscale>  1 0.13021151E+03</rscale>
<asrwt>0</asrwt>
<pdfrwt beam="1">  1       21 0.15385832E-01 0.13021151E+03</pdfrwt>
<pdfrwt beam="2">  1        4 0.24068964E-01 0.13021151E+03</pdfrwt>
<totfact> 0.24407427E+04</totfact>
</mgrwt>
</event>
<event>
 6    4  0.6093247E-003  0.1289173E+03  0.7818608E-02  0.1229071E+00
          4   -1    0    0  502    0 -0.00000000000E+00  0.00000000000E+00  0.70814896266E+02  0.70826283491E+02  0.12700000000E+01 0.  1.
         21   -1    0    0  501  502  0.00000000000E+00 -0.00000000000E+00 -0.91444531283E+02  0.91444531283E+02  0.00000000000E+00 0.  1.
         25    2    1    2    0    0  0.69908638954E+00 -0.31532878532E+02 -0.21472665525E+02  0.13069337424E+03  0.12499948622E+03 0.  0.
    9000005    1    3    3    0    0  0.10979781668E+02  0.43178174254E+02  0.14861020029E+02  0.46976166869E+02  0.10000000000E+01 0.  0.
    9000005    1    3    3    0    0 -0.10280695279E+02 -0.74711052786E+02 -0.36333685554E+02  0.83717207370E+02  0.10000000000E+01 0.  0.
          4    1    1    2  501    0 -0.69908638954E+00  0.31532878532E+02  0.84303050777E+00  0.31577440535E+02  0.12700000000E+01 0. -1.
<mgrwt>
<rscale>  1 0.12891735E+03</rscale>
<asrwt>0</asrwt>
<pdfrwt beam="2">  1       21 0.14068389E-01 0.12891735E+03</pdfrwt>
<pdfrwt beam="1">  1        4 0.10896154E-01 0.12891735E+03</pdfrwt>
<totfact> 0.11555037E+05</totfact>
</mgrwt>
</event>
<event>
 6    4  0.6093247E-003  0.1475544E+03  0.7818608E-02  0.1203511E+00
         21   -1    0    0  501  502  0.00000000000E+00  0.00000000000E+00  0.43828628691E+02  0.43828628691E+02  0.00000000000E+00 0. -1.
          4   -1    0    0  502    0 -0.00000000000E+00 -0.00000000000E+00 -0.10003695977E+04  0.10003704039E+04  0.12700000000E+01 0.  1.
         25    2    1    2    0    0  0.18232020839E+02  0.76256641379E+02 -0.95441531859E+03  0.96575406314E+03  0.12499931269E+03 0.  0.
    9000005    1    3    3    0    0 -0.17661310176E+00  0.10951949498E+03 -0.70873790039E+03  0.71715058560E+03  0.10000000000E+01 0.  0.
    9000005    1    3    3    0    0  0.18408633941E+02 -0.33262853600E+02 -0.24567741820E+03  0.24860347754E+03  0.10000000000E+01 0.  0.
          4    1    1    2  501    0 -0.18232020839E+02 -0.76256641379E+02 -0.21256504414E+01  0.78444969425E+02  0.12700000000E+01 0. -1.
<mgrwt>
<rscale>  1 0.14755443E+03</rscale>
<asrwt>0</asrwt>
<pdfrwt beam="1">  1       21 0.67428654E-02 0.14755443E+03</pdfrwt>
<pdfrwt beam="2">  1        4 0.15390451E+00 0.14755443E+03</pdfrwt>
<totfact> 0.19977806E+03</totfact>
</mgrwt>
</event>
<event>
 6    4  0.6093247E-003  0.1328625E+03  0.7818608E-02  0.1223269E+00
          4   -1    0    0  502    0 -0.00000000000E+00  0.00000000000E+00  0.62627249904E+03  0.62627378674E+03  0.12700000000E+01 0.  1.
         21   -1    0    0  501  502  0.00000000000E+00 -0.00000000000E+00 -0.30561334943E+02  0.30561334943E+02  0.00000000000E+00 0. -1.
         25    2    1    2    0    0  0.38429318055E+02  0.23499283467E+02  0.59714747896E+03  0.61174959506E+03  0.12499370635E+03 0.  0.
    9000005    1    3    3    0    0 -0.20141016251E+02 -0.38570971280E+02  0.13679021947E+03  0.14354770811E+03  0.10000000000E+01 0.  0.
    9000005    1    3    3    0    0  0.58570334306E+02  0.62070254748E+02  0.46035725948E+03  0.46820188695E+03  0.10000000000E+01 0.  0.
          4    1    1    2  501    0 -0.38429318055E+02 -0.23499283467E+02 -0.14363148611E+01  0.45085526614E+02  0.12700000000E+01 0. -1.
<mgrwt>
<rscale>  1 0.13286254E+03</rscale>
<asrwt>0</asrwt>
<pdfrwt beam="2">  1       21 0.47017443E-02 0.13286254E+03</pdfrwt>
<pdfrwt beam="1">  1        4 0.96351734E-01 0.13286254E+03</pdfrwt>
<totfact> 0.11344680E+04</totfact>
</mgrwt>
</event>
<event>
 6    4  0.6093247E-003  0.1272682E+03  0.7818608E-02  0.1231566E+00
         21   -1    0    0  501  502  0.00000000000E+00  0.00000000000E+00  0.72792193485E+02  0.72792193485E+02  0.00000000000E+00 0.  1.
          4   -1    0    0  502    0 -0.00000000000E+00 -0.00000000000E+00 -0.92700835646E+02  0.92709534728E+02  0.12700000000E+01 0.  1.
         25    2    1    2    0    0 -0.68642295426E+00 -0.23957772985E+02 -0.40834895682E+02  0.13365887895E+03  0.12499104429E+03 0.  0.
    9000005    1    3    3    0    0  0.52594175017E+02  0.21800129894E+02 -0.15834265750E+02  0.59102596229E+02  0.10000000000E+01 0.  0.
    9000005    1    3    3    0    0 -0.53280597971E+02 -0.45757902879E+02 -0.25000629931E+02  0.74556282720E+02  0.10000000000E+01 0.  0.
          4    1    1    2  501    0  0.68642295426E+00  0.23957772985E+02  0.20926253521E+02  0.31842849265E+02  0.12700000000E+01 0. -1.
<mgrwt>
<rscale>  1 0.12726825E+03</rscale>
<asrwt>0</asrwt>
<pdfrwt beam="1">  1       21 0.11198799E-01 0.12726825E+03</pdfrwt>
<pdfrwt beam="2">  1        4 0.14263188E-01 0.12726825E+03</pdfrwt>
<totfact> 0.10903689E+05</totfact>
</mgrwt>
</event>
<event>
 6    4  0.6093247E-003  0.1365679E+03  0.7818608E-02  0.1218023E+00
          4   -1    0    0  502    0 -0.00000000000E+00  0.00000000000E+00  0.23445233298E+03  0.23445577267E+03  0.12700000000E+01 0. -1.
         21   -1    0    0  501  502  0.00000000000E+00 -0.00000000000E+00 -0.14427326639E+03  0.14427326639E+03  0.00000000000E+00 0.  1.
         25    2    1    2    0    0 -0.48530847998E+02  0.25902074951E+02  0.20792277186E+03  0.24876229823E+03  0.12499856507E+03 0.  0.
    9000005    1    3    3    0    0  0.24269568685E+02 -0.28090479126E+02  0.25460669009E+02  0.45025910852E+02  0.10000000000E+01 0.  0.
    9000005    1    3    3    0    0 -0.72800416683E+02  0.53992554077E+02  0.18246210285E+03  0.20373638737E+03  0.10000000000E+01 0.  0.
          4    1    1    2  501    0  0.48530847998E+02 -0.25902074951E+02 -0.11774370526E+03  0.12996674083E+03  0.12700000000E+01 0.  1.
<mgrwt>
<rscale>  1 0.13656794E+03</rscale>
<asrwt>0</asrwt>
<pdfrwt beam="2">  1       21 0.22195887E-01 0.13656794E+03</pdfrwt>
<pdfrwt beam="1">  1        4 0.36070284E-01 0.13656794E+03</pdfrwt>
<totfact> 0.58296914E+03</totfact>
</mgrwt>
</event>
<event>
 6    4  0.6093247E-003  0.1276758E+03  0.7818608E-02  0.1230946E+00
         -4   -1    0    0    0  501 -0.00000000000E+00  0.00000000000E+00  0.67120830389E+03  0.67120950538E+03  0.12700000000E+01 0.  1.
         21   -1    0    0  501  502  0.00000000000E+00 -0.00000000000E+00 -0.29142481781E+02  0.29142481781E+02  0.00000000000E+00 0.  1.
         25    2    1    2    0    0  0.24622236944E+02 -0.81540347249E+01  0.65774181950E+03  0.67001895849E+03  0.12501344240E+03 0.  0.
    9000005    1    3    3    0    0  0.55084370864E+02 -0.50944275691E+02  0.40004277579E+03  0.40701944622E+03  0.10000000000E+01 0.  0.
    9000005    1    3    3    0    0 -0.30462133920E+02  0.42790240966E+02  0.25769904371E+03  0.26299951227E+03  0.10000000000E+01 0.  0.
         -4    1    1    2    0  502 -0.24622236944E+02  0.81540347249E+01 -0.15675997388E+02  0.30333028674E+02  0.12700000000E+01 0. -1.
<mgrwt>
<rscale>  1 0.12767578E+03</rscale>
<asrwt>0</asrwt>
<pdfrwt beam="2">  1       21 0.44834592E-02 0.12767578E+03</pdfrwt>
<pdfrwt beam="1">  1       -4 0.10326503E+00 0.12767578E+03</pdfrwt>
<totfact> 0.10426278E+04</totfact>
</mgrwt>
</event>
<event>
 6    4  0.6093247E-003  0.1299946E+03  0.7818608E-02  0.1227464E+00
         21   -1    0    0  501  502  0.00000000000E+00  0.00000000000E+00  0.49818057127E+03  0.49818057127E+03  0.00000000000E+00 0. -1.
         -4   -1    0    0    0  501 -0.00000000000E+00 -0.00000000000E+00 -0.14042255680E+02  0.14099568950E+02  0.12700000000E+01 0. -1.
         25    2    1    2    0    0  0.19179453439E+02  0.30092712274E+02  0.34639896581E+03  0.36998761004E+03  0.12500066122E+03 0.  0.
    9000005    1    3    3    0    0  0.60703116645E+02  0.36953310179E+02  0.29553778621E+03  0.30396381131E+03  0.10000000000E+01 0.  0.
    9000005    1    3    3    0    0 -0.41523663207E+02 -0.68605979045E+01  0.50861179595E+02  0.66023798736E+02  0.10000000000E+01 0.  0.
         -4    1    1    2    0  502 -0.19179453439E+02 -0.30092712274E+02  0.13773934978E+03  0.14229253018E+03  0.12700000000E+01 0.  1.
<mgrwt>
<rscale>  1 0.12999457E+03</rscale>
<asrwt>0</asrwt>
<pdfrwt beam="1">  1       21 0.76643151E-01 0.12999457E+03</pdfrwt>
<pdfrwt beam="2">  1       -4 0.21648807E-02 0.12999457E+03</pdfrwt>
<totfact> 0.55399826E+04</totfact>
</mgrwt>
</event>
<event>
 6    4  0.6093247E-003  0.1309023E+03  0.7818608E-02  0.1226123E+00
         -4   -1    0    0    0  501 -0.00000000000E+00  0.00000000000E+00  0.30239321732E+01  0.32797966077E+01  0.12700000000E+01 0.  1.
         21   -1    0    0  501  502  0.00000000000E+00 -0.00000000000E+00 -0.22896337753E+04  0.22896337753E+04  0.00000000000E+00 0. -1.
         25    2    1    2    0    0 -0.38833478956E+02  0.11077334967E+01 -0.17238819975E+04  0.17288448640E+04  0.12500462438E+03 0.  0.
    9000005    1    3    3    0    0  0.22487817934E+02  0.38895258062E+02 -0.10820923001E+04  0.10830250639E+04  0.10000000000E+01 0.  0.
    9000005    1    3    3    0    0 -0.61321296891E+02 -0.37787524566E+02 -0.64178969739E+03  0.64581980006E+03  0.10000000000E+01 0.  0.
         -4    1    1    2    0  502  0.38833478956E+02 -0.11077334967E+01 -0.56272784561E+03  0.56406870795E+03  0.12700000000E+01 0. -1.
<mgrwt>
<rscale>  1 0.13090234E+03</rscale>
<asrwt>0</asrwt>
<pdfrwt beam="2">  1       21 0.35225135E+00 0.13090234E+03</pdfrwt>
<pdfrwt beam="1">  1       -4 0.48492931E-03 0.13090234E+03</pdfrwt>
<totfact> 0.64193652E+03</totfact>
</mgrwt>
</event>
<event>
 6    4  0.6093247E-003  0.1286435E+03  0.7818608E-02  0.1229482E+00
         -4   -1    0    0    0  501 -0.00000000000E+00  0.00000000000E+00  0.34753943156E+02  0.34777139976E+02  0.12700000000E+01 0. -1.
         21   -1    0    0  501  502  0.00000000000E+00 -0.00000000000E+00 -0.18201053618E+03  0.18201053618E+03  0.00000000000E+00 0. -1.
         25    2    1    2    0    0  0.15359659489E+02 -0.26235915385E+02 -0.12065264867E+03  0.17636954717E+03  0.12499965256E+03 0.  0.
    9000005    1    3    3    0    0  0.38252657930E+02  0.38526397832E+02 -0.28195010319E+02  0.61184211815E+02  0.10000000000E+01 0.  0.
    9000005    1    3    3    0    0 -0.22892998440E+02 -0.64762313216E+02 -0.92457638354E+02  0.11518533535E+03  0.10000000000E+01 0.  0.
         -4    1    1    2    0  502 -0.15359659489E+02  0.26235915385E+02 -0.26603944348E+02  0.40418128984E+02  0.12700000000E+01 0.  1.
<mgrwt>
<rscale>  1 0.12864352E+03</rscale>
<asrwt>0</asrwt>
<pdfrwt beam="2">  1       21 0.28001621E-01 0.12864352E+03</pdfrwt>
<pdfrwt beam="1">  1       -4 0.53488856E-02 0.12864352E+03</pdfrwt>
<totfact> 0.10470121E+05</totfact>
</mgrwt>
</event>
<event>
 6    4  0.6093247E-003  0.1284422E+03  0.7818608E-02  0.1229786E+00
         21   -1    0    0  501  502  0.00000000000E+00  0.00000000000E+00  0.29851166004E+02  0.29851166004E+02  0.00000000000E+00 0. -1.
         -4   -1    0    0    0  501 -0.00000000000E+00 -0.00000000000E+00 -0.21130838354E+03  0.21131219997E+03  0.12700000000E+01 0. -1.
         25    2    1    2    0    0 -0.27619565125E+02  0.10439408292E+02 -0.15667271597E+03  0.20259257338E+03  0.12500235692E+03 0.  0.
    9000005    1    3    3    0    0  0.20891093949E+02 -0.31362069284E+02 -0.12612175776E+03  0.13163477875E+03  0.10000000000E+01 0.  0.
    9000005    1    3    3    0    0 -0.48510659073E+02  0.41801477576E+02 -0.30550958208E+02  0.70957794629E+02  0.10000000000E+01 0.  0.
         -4    1    1    2    0  502  0.27619565125E+02 -0.10439408292E+02 -0.24784501572E+02  0.38570792594E+02  0.12700000000E+01 0.  1.
<mgrwt>
<rscale>  1 0.12844225E+03</rscale>
<asrwt>0</asrwt>
<pdfrwt beam="1">  1       21 0.45924869E-02 0.12844225E+03</pdfrwt>
<pdfrwt beam="2">  1       -4 0.32511355E-01 0.12844225E+03</pdfrwt>
<totfact> 0.11280339E+05</totfact>
</mgrwt>
</event>
<event>
 6    4  0.6093247E-003  0.1506116E+03  0.7818608E-02  0.1199723E+00
         21   -1    0    0  501  502  0.00000000000E+00  0.00000000000E+00  0.56383170237E+02  0.56383170237E+02  0.00000000000E+00 0.  1.
          4   -1    0    0  502    0 -0.00000000000E+00 -0.00000000000E+00 -0.83667543181E+03  0.83667639568E+03  0.12700000000E+01 0. -1.
         25    2    1    2    0    0  0.81089312142E+02  0.21968567684E+02 -0.79379721777E+03  0.80795908853E+03  0.12500308512E+03 0.  0.
    9000005    1    3    3    0    0  0.11049809901E+03  0.16691144477E+01 -0.50458376654E+03  0.51654466727E+03  0.10000000000E+01 0.  0.
    9000005    1    3    3    0    0 -0.29408786871E+02  0.20299453236E+02 -0.28921345123E+03  0.29141442126E+03  0.10000000000E+01 0.  0.
          4    1    1    2  501    0 -0.81089312142E+02 -0.21968567684E+02  0.13504956198E+02  0.85100477388E+02  0.12700000000E+01 0.  1.
<mgrwt>
<rscale>  1 0.15061164E+03</rscale>
<asrwt>0</asrwt>
<pdfrwt beam="1">  1       21 0.86743344E-02 0.15061164E+03</pdfrwt>
<pdfrwt beam="2">  1        4 0.12872046E+00 0.15061164E+03</pdfrwt>
<totfact> 0.20270358E+03</totfact>
</mgrwt>
</event>
<event>
 6    4  0.6093247E-003  0.1365130E+03  0.7818608E-02  0.1218100E+00
          4   -1    0    0  502    0 -0.00000000000E+00  0.00000000000E+00  0.11291015372E+03  0.11291729590E+03  0.12700000000E+01 0.  1.
         21   -1    0    0  501  502  0.00000000000E+00 -0.00000000000E+00 -0.88902938956E+02  0.88902938956E+02  0.00000000000E+00 0.  1.
         25    2    1    2    0    0 -0.48439618559E+02  0.25773676675E+02 -0.10619983609E+02  0.13692543674E+03  0.12500044847E+03 0.  0.
    9000005    1    3    3    0    0 -0.48297821926E+02 -0.44312379494E+02 -0.12830000378E+02  0.66797271568E+02  0.10000000000E+01 0.  0.
    9000005    1    3    3    0    0 -0.14179663316E+00  0.70086056170E+02  0.22100167687E+01  0.70128165168E+02  0.10000000000E+01 0.  0.
          4    1    1    2  501    0  0.48439618559E+02 -0.25773676675E+02  0.34627198373E+02  0.64894798117E+02  0.12700000000E+01 0. -1.
<mgrwt>
<rscale>  1 0.13651297E+03</rscale>
<asrwt>0</asrwt>
<pdfrwt beam="2">  1       21 0.13677375E-01 0.13651297E+03</pdfrwt>
<pdfrwt beam="1">  1        4 0.17372040E-01 0.13651297E+03</pdfrwt>
<totfact> 0.54597007E+04</totfact>
</mgrwt>
</event>
<event>
 6    4  0.6093247E-003  0.1266170E+03  0.7818608E-02  0.1232564E+00
         -4   -1    0    0    0  501 -0.00000000000E+00  0.00000000000E+00  0.26564670994E+03  0.26564974572E+03  0.12700000000E+01 0.  1.
         21   -1    0    0  501  502  0.00000000000E+00 -0.00000000000E+00 -0.34108420187E+02  0.34108420187E+02  0.00000000000E+00 0. -1.
         25    2    1    2    0    0 -0.20137429264E+02 -0.49855503632E+00  0.24480081784E+03  0.27560713765E+03  0.12500435708E+03 0.  0.
    9000005    1    3    3    0    0  0.80282028667E+01  0.58493531472E+02  0.14186387159E+03  0.15366295366E+03  0.10000000000E+01 0.  0.
    9000005    1    3    3    0    0 -0.28165632131E+02 -0.58992086508E+02  0.10293694626E+03  0.12194418399E+03  0.10000000000E+01 0.  0.
         -4    1    1    2    0  502  0.20137429264E+02  0.49855503632E+00 -0.13262528095E+02  0.24151028259E+02  0.12700000000E+01 0. -1.
<mgrwt>
<rscale>  1 0.12661696E+03</rscale>
<asrwt>0</asrwt>
<pdfrwt beam="2">  1       21 0.52474494E-02 0.12661696E+03</pdfrwt>
<pdfrwt beam="1">  1       -4 0.40870776E-01 0.12661696E+03</pdfrwt>
<totfact> 0.57757553E+04</totfact>
</mgrwt>
</event>
<event>
 6    4  0.6093247E-003  0.1268904E+03  0.7818608E-02  0.1232144E+00
          4   -1    0    0  502    0 -0.00000000000E+00  0.00000000000E+00  0.68344116822E+01  0.69514087091E+01  0.12700000000E+01 0.  1.
         21   -1    0    0  501  502  0.00000000000E+00 -0.00000000000E+00 -0.83786757150E+03  0.83786757150E+03  0.00000000000E+00 0.  1.
         25    2    1    2    0    0 -0.19659830680E+02 -0.94959948304E+01 -0.63382142561E+03  0.64639830621E+03  0.12499795139E+03 0.  0.
    9000005    1    3    3    0    0  0.15409043658E+02 -0.61916500432E+02 -0.31813484507E+03  0.32447168027E+03  0.10000000000E+01 0.  0.
    9000005    1    3    3    0    0 -0.35068874338E+02  0.52420505601E+02 -0.31568658054E+03  0.32192662594E+03  0.10000000000E+01 0.  0.
          4    1    1    2  501    0  0.19659830680E+02  0.94959948304E+01 -0.19721173421E+03  0.19842067400E+03  0.12700000000E+01 0. -1.
<mgrwt>
<rscale>  1 0.12689039E+03</rscale>
<asrwt>0</asrwt>
<pdfrwt beam="2">  1       21 0.12890273E+00 0.12689039E+03</pdfrwt>
<pdfrwt beam="1">  1        4 0.10605215E-02 0.12689039E+03</pdfrwt>
<totfact> 0.48571672E+04</totfact>
</mgrwt>
</event>
<event>
 6    4  0.6093247E-003  0.1266531E+03  0.7818608E-02  0.1232508E+00
         21   -1    0    0  501  502  0.00000000000E+00  0.00000000000E+00  0.77210248692E+02  0.77210248692E+02  0.00000000000E+00 0.  1.
          4   -1    0    0  502    0 -0.00000000000E+00 -0.00000000000E+00 -0.19942039941E+03  0.19942444334E+03  0.12700000000E+01 0. -1.
         25    2    1    2    0    0  0.19873553245E+02  0.41386368770E+01 -0.17731107358E+03  0.21789960002E+03  0.12501572877E+03 0.  0.
    9000005    1    3    3    0    0  0.69469814769E+02  0.67714847757E+00 -0.65314657926E+02  0.95359940406E+02  0.10000000000E+01 0.  0.
    9000005    1    3    3    0    0 -0.49596261524E+02  0.34614883994E+01 -0.11199641565E+03  0.12253965961E+03  0.10000000000E+01 0.  0.
          4    1    1    2  501    0 -0.19873553245E+02 -0.41386368770E+01  0.55100922859E+02  0.58735092013E+02  0.12700000000E+01 0.  1.
<mgrwt>
<rscale>  1 0.12665314E+03</rscale>
<asrwt>0</asrwt>
<pdfrwt beam="1">  1       21 0.11878500E-01 0.12665314E+03</pdfrwt>
<pdfrwt beam="2">  1        4 0.30681176E-01 0.12665314E+03</pdfrwt>
<totfact> 0.24581260E+04</totfact>
</mgrwt>
</event>
<event>
 6    4  0.6093247E-003  0.1303814E+03  0.7818608E-02  0.1226891E+00
         21   -1    0    0  501  502  0.00000000000E+00  0.00000000000E+00  0.69016959676E+03  0.69016959676E+03  0.00000000000E+00 0. -1.
         -4   -1    0    0    0  501 -0.00000000000E+00 -0.00000000000E+00 -0.25780871744E+03  0.25781184552E+03  0.12700000000E+01 0.  1.
         25    2    1    2    0    0  0.33402419312E+02  0.16065606035E+02 -0.24078280850E+03  0.27381687582E+03  0.12500198119E+03 0.  0.
    9000005    1    3    3    0    0  0.72911409618E+02  0.29962104673E+02 -0.20155789298E+03  0.21642639763E+03  0.10000000000E+01 0.  0.
    9000005    1    3    3    0    0 -0.39508990306E+02 -0.13896498637E+02 -0.39224915520E+02  0.57390478191E+02  0.10000000000E+01 0.  0.
         -4    1    1    2    0  502 -0.33402419312E+02 -0.16065606035E+02  0.67314368782E+03  0.67416456646E+03  0.12700000000E+01 0. -1.
<mgrwt>
<rscale>  1 0.13038144E+03</rscale>
<asrwt>0</asrwt>
<pdfrwt beam="1">  1       21 0.10617994E+00 0.13038144E+03</pdfrwt>
<pdfrwt beam="2">  1       -4 0.39663210E-01 0.13038144E+03</pdfrwt>
<totfact> 0.18732987E+02</totfact>
</mgrwt>
</event>
<event>
 6    4  0.6093247E-003  0.1511746E+03  0.7818608E-02  0.1199037E+00
         -4   -1    0    0    0  501 -0.00000000000E+00  0.00000000000E+00  0.84496562180E+02  0.84506105817E+02  0.12700000000E+01 0.  1.
         21   -1    0    0  501  502  0.00000000000E+00 -0.00000000000E+00 -0.37477128198E+03  0.37477128198E+03  0.00000000000E+00 0. -1.
         25    2    1    2    0    0 -0.80661682712E+02 -0.26861725793E+02  0.57497930981E+01  0.15128390652E+03  0.12500360347E+03 0.  0.
    9000005    1    3    3    0    0  0.14743654284E+02  0.25928692485E+02 -0.23954967079E+02  0.38268954563E+02  0.10000000000E+01 0.  0.
    9000005    1    3    3    0    0 -0.95405336996E+02 -0.52790418279E+02  0.29704760177E+02  0.11301495196E+03  0.10000000000E+01 0.  0.
         -4    1    1    2    0  502  0.80661682712E+02  0.26861725793E+02 -0.29602451290E+03  0.30799348127E+03  0.12700000000E+01 0. -1.
<mgrwt>
<rscale>  1 0.15117460E+03</rscale>
<asrwt>0</asrwt>
<pdfrwt beam="2">  1       21 0.57657120E-01 0.15117460E+03</pdfrwt>
<pdfrwt beam="1">  1       -4 0.13000371E-01 0.15117460E+03</pdfrwt>
<totfact> 0.56812297E+03</totfact>
</mgrwt>
</event>
<event>
 6    4  0.6093247E-003  0.1272160E+03  0.7818608E-02  0.1231646E+00
         21   -1    0    0  501  502  0.00000000000E+00  0.00000000000E+00  0.31061964041E+03  0.31061964041E+03  0.00000000000E+00 0.  1.
         -4   -1    0    0    0  501 -0.00000000000E+00 -0.00000000000E+00 -0.19276365074E+02  0.19318155980E+02  0.12700000000E+01 0.  1.
         25    2    1    2    0    0  0.16441033225E+02 -0.16963516207E+02  0.21298101814E+03  0.24808228522E+03  0.12500335075E+03 0.  0.
    9000005    1    3    3    0    0 -0.39174172102E+02  0.82765853109E+01  0.16670703157E+03  0.17145072762E+03  0.10000000000E+01 0.  0.
    9000005    1    3    3    0    0  0.55615205327E+02 -0.25240101518E+02  0.46273986563E+02  0.76631557603E+02  0.10000000000E+01 0.  0.
         -4    1    1    2    0  502 -0.16441033225E+02  0.16963516207E+02  0.78362257196E+02  0.81855511167E+02  0.12700000000E+01 0. -1.
<mgrwt>
<rscale>  1 0.12721598E+03</rscale>
<asrwt>0</asrwt>
<pdfrwt beam="1">  1       21 0.47787633E-01 0.12721598E+03</pdfrwt>
<pdfrwt beam="2">  1       -4 0.29690092E-02 0.12721598E+03</pdfrwt>
<totfact> 0.92466885E+04</totfact>
</mgrwt>
</event>
<event>
 6    4  0.6093247E-003  0.1773262E+03  0.7818608E-02  0.1170416E+00
          4   -1    0    0  502    0 -0.00000000000E+00  0.00000000000E+00  0.26992447655E+02  0.27022308014E+02  0.12700000000E+01 0. -1.
         21   -1    0    0  501  502  0.00000000000E+00 -0.00000000000E+00 -0.13498934742E+04  0.13498934742E+04  0.00000000000E+00 0.  1.
         25    2    1    2    0    0 -0.12534982220E+03  0.10355499387E+02 -0.31738266288E+03  0.36356065845E+03  0.12499913353E+03 0.  0.
    9000005    1    3    3    0    0 -0.58434604299E+02  0.23305378662E+02 -0.32851768418E+02  0.70978745708E+02  0.10000000000E+01 0.  0.
    9000005    1    3    3    0    0 -0.66915217897E+02 -0.12949879275E+02 -0.28453089446E+03  0.29258191274E+03  0.10000000000E+01 0.  0.
          4    1    1    2  501    0  0.12534982220E+03 -0.10355499387E+02 -0.10055183636E+04  0.10133551237E+04  0.12700000000E+01 0.  1.
<mgrwt>
<rscale>  1 0.17732625E+03</rscale>
<asrwt>0</asrwt>
<pdfrwt beam="2">  1       21 0.20767594E+00 0.17732625E+03</pdfrwt>
<pdfrwt beam="1">  1        4 0.41550267E-02 0.17732625E+03</pdfrwt>
<totfact> 0.16309681E+03</totfact>
</mgrwt>
</event>
<event>
 6    4  0.6093247E-003  0.1278279E+03  0.7818608E-02  0.1230715E+00
         21   -1    0    0  501  502  0.00000000000E+00  0.00000000000E+00  0.66188555330E+03  0.66188555330E+03  0.00000000000E+00 0. -1.
          4   -1    0    0  502    0 -0.00000000000E+00 -0.00000000000E+00 -0.14663611574E+02  0.14718505508E+02  0.12700000000E+01 0.  1.
         25    2    1    2    0    0  0.13105707561E+02  0.23310461854E+02  0.27320846759E+03  0.30163362139E+03  0.12499935035E+03 0.  0.
    9000005    1    3    3    0    0 -0.26008376607E+02  0.65320025360E+02  0.15646580310E+03  0.17153917601E+03  0.10000000000E+01 0.  0.
    9000005    1    3    3    0    0  0.39114084169E+02 -0.42009563505E+02  0.11674266449E+03  0.13009444538E+03  0.10000000000E+01 0.  0.
          4    1    1    2  501    0 -0.13105707561E+02 -0.23310461854E+02  0.37401347414E+03  0.37497043742E+03  0.12700000000E+01 0. -1.
<mgrwt>
<rscale>  1 0.12782791E+03</rscale>
<asrwt>0</asrwt>
<pdfrwt beam="1">  1       21 0.10182852E+00 0.12782791E+03</pdfrwt>
<pdfrwt beam="2">  1        4 0.22602571E-02 0.12782791E+03</pdfrwt>
<totfact> 0.27075322E+04</totfact>
</mgrwt>
</event>
<event>
 6    4  0.6093247E-003  0.1292853E+03  0.7818608E-02  0.1228520E+00
         -4   -1    0    0    0  501 -0.00000000000E+00  0.00000000000E+00  0.32203188625E+02  0.32228221447E+02  0.12700000000E+01 0. -1.
         21   -1    0    0  501  502  0.00000000000E+00 -0.00000000000E+00 -0.22800489165E+03  0.22800489165E+03  0.00000000000E+00 0. -1.
         25    2    1    2    0    0 -0.25367036998E+02  0.21122186234E+02 -0.11535092433E+03  0.17326430254E+03  0.12500019789E+03 0.  0.
    9000005    1    3    3    0    0 -0.76417024997E+02  0.14113694134E+02 -0.67496971222E+02  0.10293492700E+03  0.10000000000E+01 0.  0.
    9000005    1    3    3    0    0  0.51049987999E+02  0.70084921000E+01 -0.47853953109E+02  0.70329375544E+02  0.10000000000E+01 0.  0.
         -4    1    1    2    0  502  0.25367036998E+02 -0.21122186234E+02 -0.80450778691E+02  0.86968810555E+02  0.12700000000E+01 0.  1.
<mgrwt>
<rscale>  1 0.12928528E+03</rscale>
<asrwt>0</asrwt>
<pdfrwt beam="2">  1       21 0.35077675E-01 0.12928528E+03</pdfrwt>
<pdfrwt beam="1">  1       -4 0.49565344E-02 0.12928528E+03</pdfrwt>
<totfact> 0.76513266E+04</totfact>
</mgrwt>
</event>
<event>
 6    4  0.6093247E-003  0.1368043E+03  0.7818608E-02  0.1217695E+00
         -4   -1    0    0    0  501 -0.00000000000E+00  0.00000000000E+00  0.31296786304E+03  0.31297043981E+03  0.12700000000E+01 0.  1.
         21   -1    0    0  501  502  0.00000000000E+00 -0.00000000000E+00 -0.48605906237E+02  0.48605906237E+02  0.00000000000E+00 0. -1.
         25    2    1    2    0    0 -0.19245532628E+02 -0.52156430926E+02  0.27294416892E+03  0.30530956119E+03  0.12499889997E+03 0.  0.
    9000005    1    3    3    0    0 -0.43255072343E+02 -0.85357687119E+02  0.19691086417E+03  0.21893337905E+03  0.10000000000E+01 0.  0.
    9000005    1    3    3    0    0  0.24009539715E+02  0.33201256193E+02  0.76033304751E+02  0.86376182143E+02  0.10000000000E+01 0.  0.
         -4    1    1    2    0  502  0.19245532628E+02  0.52156430926E+02 -0.85822121192E+01  0.56266784855E+02  0.12700000000E+01 0. -1.
<mgrwt>
<rscale>  1 0.13680427E+03</rscale>
<asrwt>0</asrwt>
<pdfrwt beam="2">  1       21 0.74778319E-02 0.13680427E+03</pdfrwt>
<pdfrwt beam="1">  1       -4 0.48150375E-01 0.13680427E+03</pdfrwt>
<totfact> 0.23004981E+04</totfact>
</mgrwt>
</event>
<event>
 6    4  0.6093247E-003  0.1273063E+03  0.7818608E-02  0.1231508E+00
          4   -1    0    0  502    0 -0.00000000000E+00  0.00000000000E+00  0.38080418231E+02  0.38101589897E+02  0.12700000000E+01 0.  1.
         21   -1    0    0  501  502  0.00000000000E+00 -0.00000000000E+00 -0.17490483906E+03  0.17490483906E+03  0.00000000000E+00 0.  1.
         25    2    1    2    0    0  0.18759925936E+01  0.24054708931E+02 -0.77722451534E+02  0.14915657348E+03  0.12499902227E+03 0.  0.
    9000005    1    3    3    0    0  0.75716987294E+01  0.67555558682E+02 -0.80278707403E+02  0.10519864539E+03  0.10000000000E+01 0.  0.
    9000005    1    3    3    0    0 -0.56957061358E+01 -0.43500849751E+02  0.25562558698E+01  0.43957928084E+02  0.10000000000E+01 0.  0.
          4    1    1    2  501    0 -0.18759925936E+01 -0.24054708931E+02 -0.59101969295E+02  0.63849855478E+02  0.12700000000E+01 0. -1.
<mgrwt>
<rscale>  1 0.12730634E+03</rscale>
<asrwt>0</asrwt>
<pdfrwt beam="2">  1       21 0.26908436E-01 0.12730634E+03</pdfrwt>
<pdfrwt beam="1">  1        4 0.58605092E-02 0.12730634E+03</pdfrwt>
<totfact> 0.97328706E+04</totfact>
</mgrwt>
</event>
<event>
 6    4  0.6093247E-003  0.1371932E+03  0.7818608E-02  0.1217156E+00
         21   -1    0    0  501  502  0.00000000000E+00  0.00000000000E+00  0.18197745795E+04  0.18197745795E+04  0.00000000000E+00 0. -1.
         -4   -1    0    0    0  501 -0.00000000000E+00 -0.00000000000E+00 -0.49494293344E+02  0.49510584460E+02  0.12700000000E+01 0.  1.
         25    2    1    2    0    0 -0.56246807855E+02  0.57533834180E+01  0.46916285856E+02  0.14499345568E+03  0.12500063799E+03 0.  0.
    9000005    1    3    3    0    0 -0.82947687050E+02 -0.20760744025E+02  0.86666311861E+00  0.85516538660E+02  0.10000000000E+01 0.  0.
    9000005    1    3    3    0    0  0.26700879195E+02  0.26514127443E+02  0.46049622737E+02  0.59476917019E+02  0.10000000000E+01 0.  0.
         -4    1    1    2    0  502  0.56246807855E+02 -0.57533834180E+01  0.17233640003E+04  0.17242917083E+04  0.12700000000E+01 0. -1.
<mgrwt>
<rscale>  1 0.13719316E+03</rscale>
<asrwt>0</asrwt>
<pdfrwt beam="1">  1       21 0.27996527E+00 0.13719316E+03</pdfrwt>
<pdfrwt beam="2">  1       -4 0.76157953E-02 0.13719316E+03</pdfrwt>
<totfact> 0.23265018E+02</totfact>
</mgrwt>
</event>
<event>
 6    4  0.6093247E-003  0.1277657E+03  0.7818608E-02  0.1230809E+00
         21   -1    0    0  501  502  0.00000000000E+00  0.00000000000E+00  0.15085319716E+03  0.15085319716E+03  0.00000000000E+00 0.  1.
         -4   -1    0    0    0  501 -0.00000000000E+00 -0.00000000000E+00 -0.12966922320E+03  0.12967544233E+03  0.12700000000E+01 0. -1.
         25    2    1    2    0    0 -0.74082067779E+01 -0.25381875247E+02 -0.96367397052E+02  0.16003358214E+03  0.12499980431E+03 0.  0.
    9000005    1    3    3    0    0 -0.62901462369E+02 -0.34022206902E+02 -0.51248304057E+02  0.87985755662E+02  0.10000000000E+01 0.  0.
    9000005    1    3    3    0    0  0.55493255591E+02  0.86403316543E+01 -0.45119092995E+02  0.72047826476E+02  0.10000000000E+01 0.  0.
         -4    1    1    2    0  502  0.74082067779E+01  0.25381875247E+02  0.11755137102E+03  0.12049505736E+03  0.12700000000E+01 0.  1.
<mgrwt>
<rscale>  1 0.12776569E+03</rscale>
<asrwt>0</asrwt>
<pdfrwt beam="1">  1       21 0.23208184E-01 0.12776569E+03</pdfrwt>
<pdfrwt beam="2">  1       -4 0.19950001E-01 0.12776569E+03</pdfrwt>
<totfact> 0.16079922E+04</totfact>
</mgrwt>
</event>
<event>
 6    4  0.6093247E-003  0.1266589E+03  0.7818608E-02  0.1232499E+00
         -4   -1    0    0    0  501 -0.00000000000E+00  0.00000000000E+00  0.13744321521E+03  0.13744908260E+03  0.12700000000E+01 0. -1.
         21   -1    0    0  501  502  0.00000000000E+00 -0.00000000000E+00 -0.97548275426E+02  0.97548275426E+02  0.00000000000E+00 0.  1.
         25    2    1    2    0    0  0.20362409661E+02 -0.58435324685E+00  0.10640739238E+03  0.16542373912E+03  0.12501004406E+03 0.  0.
    9000005    1    3    3    0    0  0.14076543876E+02 -0.43338365023E+02 -0.50701927929E+01  0.45859239258E+02  0.10000000000E+01 0.  0.
    9000005    1    3    3    0    0  0.62858657855E+01  0.42754011776E+02  0.11147758518E+03  0.11956449987E+03  0.10000000000E+01 0.  0.
         -4    1    1    2    0  502 -0.20362409661E+02  0.58435324685E+00 -0.66512452600E+02  0.69573618900E+02  0.12700000000E+01 0.  1.
<mgrwt>
<rscale>  1 0.12665891E+03</rscale>
<asrwt>0</asrwt>
<pdfrwt beam="2">  1       21 0.15007427E-01 0.12665891E+03</pdfrwt>
<pdfrwt beam="1">  1       -4 0.21146197E-01 0.12665891E+03</pdfrwt>
<totfact> 0.32218765E+04</totfact>
</mgrwt>
</event>
<event>
 6    4  0.6093247E-003  0.1293809E+03  0.7818608E-02  0.1228377E+00
         21   -1    0    0  501  502  0.00000000000E+00  0.00000000000E+00  0.12341611448E+02  0.12341611448E+02  0.00000000000E+00 0.  1.
          4   -1    0    0  502    0 -0.00000000000E+00 -0.00000000000E+00 -0.57152583489E+03  0.57152724594E+03  0.12700000000E+01 0.  1.
         25    2    1    2    0    0  0.32258296925E+02  0.85813260038E+01 -0.37530797633E+03  0.39698299909E+03  0.12500075038E+03 0.  0.
    9000005    1    3    3    0    0  0.50388966420E+02  0.23547211769E+02 -0.36823363231E+03  0.37241177087E+03  0.10000000000E+01 0.  0.
    9000005    1    3    3    0    0 -0.18130669495E+02 -0.14965885765E+02 -0.70743440207E+01  0.24571228223E+02  0.10000000000E+01 0.  0.
          4    1    1    2  501    0 -0.32258296925E+02 -0.85813260038E+01 -0.18387624712E+03  0.18688585830E+03  0.12700000000E+01 0. -1.
<mgrwt>
<rscale>  1 0.12938093E+03</rscale>
<asrwt>0</asrwt>
<pdfrwt beam="1">  1       21 0.18987091E-02 0.12938093E+03</pdfrwt>
<pdfrwt beam="2">  1        4 0.87932203E-01 0.12938093E+03</pdfrwt>
<totfact> 0.61631437E+04</totfact>
</mgrwt>
</event>
<event>
 6    4  0.6093247E-003  0.1317732E+03  0.7818608E-02  0.1224848E+00
          4   -1    0    0  502    0 -0.00000000000E+00  0.00000000000E+00  0.97039931845E+02  0.97048241985E+02  0.12700000000E+01 0. -1.
         21   -1    0    0  501  502  0.00000000000E+00 -0.00000000000E+00 -0.58020816076E+03  0.58020816076E+03  0.00000000000E+00 0.  1.
         25    2    1    2    0    0  0.27353667271E+02 -0.31417739314E+02  0.51122664356E+02  0.14134253934E+03  0.12501555567E+03 0.  0.
    9000005    1    3    3    0    0 -0.26308386562E+02 -0.39947444077E+02 -0.19982172932E+02  0.51848015650E+02  0.10000000000E+01 0.  0.
    9000005    1    3    3    0    0  0.53662053832E+02  0.85297047627E+01  0.71104837288E+02  0.89494523691E+02  0.10000000000E+01 0.  0.
          4    1    1    2  501    0 -0.27353667271E+02  0.31417739314E+02 -0.53429089327E+03  0.53591386340E+03  0.12700000000E+01 0.  1.
<mgrwt>
<rscale>  1 0.13177324E+03</rscale>
<asrwt>0</asrwt>
<pdfrwt beam="2">  1       21 0.89262794E-01 0.13177324E+03</pdfrwt>
<pdfrwt beam="1">  1        4 0.14929966E-01 0.13177324E+03</pdfrwt>
<totfact> 0.17004749E+03</totfact>
</mgrwt>
</event>
<event>
 6    4  0.6093247E-003  0.1267721E+03  0.7818608E-02  0.1232325E+00
         -4   -1    0    0    0  501 -0.00000000000E+00  0.00000000000E+00  0.26442179297E+03  0.26442484281E+03  0.12700000000E+01 0. -1.
         21   -1    0    0  501  502  0.00000000000E+00 -0.00000000000E+00 -0.20698271641E+02  0.20698271641E+02  0.00000000000E+00 0. -1.
         25    2    1    2    0    0 -0.83426829723E+01 -0.19438406783E+02  0.20945683823E+03  0.24483328338E+03  0.12499487010E+03 0.  0.
    9000005    1    3    3    0    0  0.45296190503E+02 -0.17414551747E+02  0.28960293500E+02  0.56521766482E+02  0.10000000000E+01 0.  0.
    9000005    1    3    3    0    0 -0.53638873475E+02 -0.20238550360E+01  0.18049654473E+03  0.18831151690E+03  0.10000000000E+01 0.  0.
         -4    1    1    2    0  502  0.83426829723E+01  0.19438406783E+02  0.34266683090E+02  0.40289831067E+02  0.12700000000E+01 0.  1.
<mgrwt>
<rscale>  1 0.12677212E+03</rscale>
<asrwt>0</asrwt>
<pdfrwt beam="2">  1       21 0.31843497E-02 0.12677212E+03</pdfrwt>
<pdfrwt beam="1">  1       -4 0.40683505E-01 0.12677212E+03</pdfrwt>
<totfact> 0.13374362E+05</totfact>
</mgrwt>
</event>
<event>
 6    4  0.6093247E-003  0.1267261E+03  0.7818608E-02  0.1232396E+00
         -4   -1    0    0    0  501 -0.00000000000E+00  0.00000000000E+00  0.32936936566E+02  0.32961412142E+02  0.12700000000E+01 0. -1.
         21   -1    0    0  501  502  0.00000000000E+00 -0.00000000000E+00 -0.40023096739E+03  0.40023096739E+03  0.00000000000E+00 0. -1.
         25    2    1    2    0    0 -0.24409030858E+01  0.20709000165E+02 -0.90770076324E+02  0.15588040538E+03  0.12499869331E+03 0.  0.
    9000005    1    3    3    0    0 -0.34568799664E+02  0.61698108808E+02 -0.70850367845E+02  0.10011210299E+03  0.10000000000E+01 0.  0.
    9000005    1    3    3    0    0  0.32127896579E+02 -0.40989108644E+02 -0.19919708480E+02  0.55768302394E+02  0.10000000000E+01 0.  0.
         -4    1    1    2    0  502  0.24409030858E+01 -0.20709000165E+02 -0.27652395450E+03  0.27731197415E+03  0.12700000000E+01 0.  1.
<mgrwt>
<rscale>  1 0.12672606E+03</rscale>
<asrwt>0</asrwt>
<pdfrwt beam="2">  1       21 0.61573996E-01 0.12672606E+03</pdfrwt>
<pdfrwt beam="1">  1       -4 0.50692587E-02 0.12672606E+03</pdfrwt>
<totfact> 0.23325271E+04</totfact>
</mgrwt>
</event>
<event>
 6    4  0.6093247E-003  0.1298960E+03  0.7818608E-02  0.1227610E+00
         -4   -1    0    0    0  501 -0.00000000000E+00  0.00000000000E+00  0.12843159068E+03  0.12843786975E+03  0.12700000000E+01 0.  1.
         21   -1    0    0  501  502  0.00000000000E+00 -0.00000000000E+00 -0.62240994589E+02  0.62240994589E+02  0.00000000000E+00 0. -1.
         25    2    1    2    0    0 -0.18018206081E+02 -0.30368087530E+02  0.80210234726E+02  0.15266518709E+03  0.12500440433E+03 0.  0.
    9000005    1    3    3    0    0 -0.68462415422E+02 -0.22618688692E+02  0.22321024748E+02  0.75484670956E+02  0.10000000000E+01 0.  0.
    9000005    1    3    3    0    0  0.50444209341E+02 -0.77493988373E+01  0.57889209978E+02  0.77180516131E+02  0.10000000000E+01 0.  0.
         -4    1    1    2    0  502  0.18018206081E+02  0.30368087530E+02 -0.14019638633E+02  0.38013677249E+02  0.12700000000E+01 0. -1.
<mgrwt>
<rscale>  1 0.12989603E+03</rscale>
<asrwt>0</asrwt>
<pdfrwt beam="2">  1       21 0.95755377E-02 0.12989603E+03</pdfrwt>
<pdfrwt beam="1">  1       -4 0.19760186E-01 0.12989603E+03</pdfrwt>
<totfact> 0.80971345E+04</totfact>
</mgrwt>
</event>
<event>
 6    4  0.6093247E-003  0.1270311E+03  0.7818608E-02  0.1231929E+00
          4   -1    0    0  502    0 -0.00000000000E+00  0.00000000000E+00  0.28540163477E+02  0.28568406174E+02  0.12700000000E+01 0. -1.
         21   -1    0    0  501  502  0.00000000000E+00 -0.00000000000E+00 -0.35836982089E+03  0.35836982089E+03  0.00000000000E+00 0.  1.
         25    2    1    2    0    0  0.69377736101E+01  0.21546717135E+02 -0.11636251501E+03  0.17227051289E+03  0.12499800395E+03 0.  0.
    9000005    1    3    3    0    0 -0.33466535593E+02 -0.38303271647E+02 -0.27728557762E+02  0.57939818252E+02  0.10000000000E+01 0.  0.
    9000005    1    3    3    0    0  0.40404309203E+02  0.59849988782E+02 -0.88633957245E+02  0.11433069464E+03  0.10000000000E+01 0.  0.
          4    1    1    2  501    0 -0.69377736101E+01 -0.21546717135E+02 -0.21346714240E+03  0.21466771417E+03  0.12700000000E+01 0.  1.
<mgrwt>
<rscale>  1 0.12703108E+03</rscale>
<asrwt>0</asrwt>
<pdfrwt beam="2">  1       21 0.55133822E-01 0.12703108E+03</pdfrwt>
<pdfrwt beam="1">  1        4 0.43931398E-02 0.12703108E+03</pdfrwt>
<totfact> 0.37048403E+04</totfact>
</mgrwt>
</event>
<event>
 6    4  0.6093247E-003  0.1277140E+03  0.7818608E-02  0.1230888E+00
         -4   -1    0    0    0  501 -0.00000000000E+00  0.00000000000E+00  0.58995294500E+02  0.59008962651E+02  0.12700000000E+01 0.  1.
         21   -1    0    0  501  502  0.00000000000E+00 -0.00000000000E+00 -0.10998353353E+03  0.10998353353E+03  0.00000000000E+00 0.  1.
         25    2    1    2    0    0  0.23194315954E+02  0.12300684890E+02 -0.21536463809E+02  0.12951714812E+03  0.12498635622E+03 0.  0.
    9000005    1    3    3    0    0  0.64696455783E+02  0.22067946343E+02 -0.44015381286E+02  0.81307929727E+02  0.10000000000E+01 0.  0.
    9000005    1    3    3    0    0 -0.41502139829E+02 -0.97672614527E+01  0.22478917477E+02  0.48209218389E+02  0.10000000000E+01 0.  0.
         -4    1    1    2    0  502 -0.23194315954E+02 -0.12300684890E+02 -0.29451775225E+02  0.39475348070E+02  0.12700000000E+01 0. -1.
<mgrwt>
<rscale>  1 0.12771403E+03</rscale>
<asrwt>0</asrwt>
<pdfrwt beam="2">  1       21 0.16920543E-01 0.12771403E+03</pdfrwt>
<pdfrwt beam="1">  1       -4 0.90778147E-02 0.12771403E+03</pdfrwt>
<totfact> 0.11239414E+05</totfact>
</mgrwt>
</event>
<event>
 6    4  0.6093247E-003  0.1275017E+03  0.7818608E-02  0.1231210E+00
         21   -1    0    0  501  502  0.00000000000E+00  0.00000000000E+00  0.67344101795E+03  0.67344101795E+03  0.00000000000E+00 0. -1.
         -4   -1    0    0    0  501 -0.00000000000E+00 -0.00000000000E+00 -0.87686090823E+01  0.88601018751E+01  0.12700000000E+01 0. -1.
         25    2    1    2    0    0 -0.28023601096E+01 -0.24957892376E+02  0.51614630970E+03  0.53166126902E+03  0.12500376936E+03 0.  0.
    9000005    1    3    3    0    0 -0.37195293610E+01 -0.43294625356E+02  0.51061327914E+03  0.51245993045E+03  0.10000000000E+01 0.  0.
    9000005    1    3    3    0    0  0.91716925139E+00  0.18336732980E+02  0.55330305534E+01  0.19201338571E+02  0.10000000000E+01 0.  0.
         -4    1    1    2    0  502  0.28023601096E+01  0.24957892376E+02  0.14852609917E+03  0.15063985080E+03  0.12700000000E+01 0.  1.
<mgrwt>
<rscale>  1 0.12750173E+03</rscale>
<asrwt>0</asrwt>
<pdfrwt beam="1">  1       21 0.10360627E+00 0.12750173E+03</pdfrwt>
<pdfrwt beam="2">  1       -4 0.13561473E-02 0.12750173E+03</pdfrwt>
<totfact> 0.56813762E+04</totfact>
</mgrwt>
</event>
<event>
 6    4  0.6093247E-003  0.1275436E+03  0.7818608E-02  0.1231147E+00
         -4   -1    0    0    0  501 -0.00000000000E+00  0.00000000000E+00  0.23049388038E+02  0.23084349437E+02  0.12700000000E+01 0. -1.
         21   -1    0    0  501  502  0.00000000000E+00 -0.00000000000E+00 -0.25364176587E+03  0.25364176587E+03  0.00000000000E+00 0. -1.
         25    2    1    2    0    0  0.18865007082E+02  0.16988605877E+02 -0.19046615726E+03  0.22922635006E+03  0.12499144481E+03 0.  0.
    9000005    1    3    3    0    0 -0.29979289923E+01 -0.99493054351E+01 -0.19405300557E+03  0.19433359264E+03  0.10000000000E+01 0.  0.
    9000005    1    3    3    0    0  0.21862936074E+02  0.26937911312E+02  0.35868483036E+01  0.34892757420E+02  0.10000000000E+01 0.  0.
         -4    1    1    2    0  502 -0.18865007082E+02 -0.16988605877E+02 -0.40126220568E+02  0.47499765251E+02  0.12700000000E+01 0.  1.
<mgrwt>
<rscale>  1 0.12754357E+03</rscale>
<asrwt>0</asrwt>
<pdfrwt beam="2">  1       21 0.39021812E-01 0.12754357E+03</pdfrwt>
<pdfrwt beam="1">  1       -4 0.35489934E-02 0.12754357E+03</pdfrwt>
<totfact> 0.10524777E+05</totfact>
</mgrwt>
</event>
<event>
 6    4  0.6093247E-003  0.1325101E+03  0.7818608E-02  0.1223778E+00
         21   -1    0    0  501  502  0.00000000000E+00  0.00000000000E+00  0.15161248085E+03  0.15161248085E+03  0.00000000000E+00 0. -1.
          4   -1    0    0  502    0 -0.00000000000E+00 -0.00000000000E+00 -0.69476989229E+02  0.69488595700E+02  0.12700000000E+01 0.  1.
         25    2    1    2    0    0  0.40191260961E+02  0.17847202104E+02  0.53653588339E+01  0.13261872651E+03  0.12500031786E+03 0.  0.
    9000005    1    3    3    0    0  0.88763266636E+01 -0.45963707475E+02  0.31990650082E+02  0.56708493831E+02  0.10000000000E+01 0.  0.
    9000005    1    3    3    0    0  0.31314934297E+02  0.63810909579E+02 -0.26625291248E+02  0.75910232679E+02  0.10000000000E+01 0.  0.
          4    1    1    2  501    0 -0.40191260961E+02 -0.17847202104E+02  0.76770132791E+02  0.88482350044E+02  0.12700000000E+01 0. -1.
<mgrwt>
<rscale>  1 0.13251015E+03</rscale>
<asrwt>0</asrwt>
<pdfrwt beam="1">  1       21 0.23324997E-01 0.13251015E+03</pdfrwt>
<pdfrwt beam="2">  1        4 0.10690070E-01 0.13251015E+03</pdfrwt>
<totfact> 0.47398716E+04</totfact>
</mgrwt>
</event>
<event>
 6    4  0.6093247E-003  0.1310064E+03  0.7818608E-02  0.1225970E+00
          4   -1    0    0  502    0 -0.00000000000E+00  0.00000000000E+00  0.48886234220E+03  0.48886399184E+03  0.12700000000E+01 0. -1.
         21   -1    0    0  501  502  0.00000000000E+00 -0.00000000000E+00 -0.54413537604E+02  0.54413537604E+02  0.00000000000E+00 0.  1.
         25    2    1    2    0    0  0.35887090396E+02  0.15781219717E+02  0.47147514393E+03  0.48933781441E+03  0.12500302043E+03 0.  0.
    9000005    1    3    3    0    0 -0.25615334050E+02  0.10715576877E+02  0.36658743563E+03  0.36763884029E+03  0.10000000000E+01 0.  0.
    9000005    1    3    3    0    0  0.61502424446E+02  0.50656428401E+01  0.10488770830E+03  0.12169897412E+03  0.10000000000E+01 0.  0.
          4    1    1    2  501    0 -0.35887090396E+02 -0.15781219717E+02 -0.37026339339E+02  0.53939715032E+02  0.12700000000E+01 0.  1.
<mgrwt>
<rscale>  1 0.13100643E+03</rscale>
<asrwt>0</asrwt>
<pdfrwt beam="2">  1       21 0.83713138E-02 0.13100643E+03</pdfrwt>
<pdfrwt beam="1">  1        4 0.75210855E-01 0.13100643E+03</pdfrwt>
<totfact> 0.73864432E+03</totfact>
</mgrwt>
</event>
<event>
 6    4  0.6093247E-003  0.1271844E+03  0.7818608E-02  0.1231694E+00
         -4   -1    0    0    0  501 -0.00000000000E+00  0.00000000000E+00  0.13622974054E+03  0.13623566020E+03  0.12700000000E+01 0. -1.
         21   -1    0    0  501  502  0.00000000000E+00 -0.00000000000E+00 -0.28913529611E+03  0.28913529611E+03  0.00000000000E+00 0.  1.
         25    2    1    2    0    0  0.23505200371E+02  0.14121577602E+01  0.10589508985E+03  0.16549814972E+03  0.12498551466E+03 0.  0.
    9000005    1    3    3    0    0  0.80360754423E+00 -0.22558124511E+02  0.12521239186E+03  0.12723465660E+03  0.10000000000E+01 0.  0.
    9000005    1    3    3    0    0  0.22701592826E+02  0.23970282271E+02 -0.19317302008E+02  0.38263493121E+02  0.10000000000E+01 0.  0.
         -4    1    1    2    0  502 -0.23505200371E+02 -0.14121577602E+01 -0.25880064542E+03  0.25987280658E+03  0.12700000000E+01 0.  1.
<mgrwt>
<rscale>  1 0.12718438E+03</rscale>
<asrwt>0</asrwt>
<pdfrwt beam="2">  1       21 0.44482352E-01 0.12718438E+03</pdfrwt>
<pdfrwt beam="1">  1       -4 0.20959092E-01 0.12718438E+03</pdfrwt>
<totfact> 0.41463150E+03</totfact>
</mgrwt>
</event>
<event>
 6    4  0.6093247E-003  0.1455689E+03  0.7818608E-02  0.1206026E+00
         21   -1    0    0  501  502  0.00000000000E+00  0.00000000000E+00  0.48209934678E+03  0.48209934678E+03  0.00000000000E+00 0.  1.
          4   -1    0    0  502    0 -0.00000000000E+00 -0.00000000000E+00 -0.25133656141E+02  0.25165722144E+02  0.12700000000E+01 0.  1.
         25    2    1    2    0    0  0.50919989820E+02  0.54519554621E+02  0.30707061109E+03  0.33982739404E+03  0.12500028137E+03 0.  0.
    9000005    1    3    3    0    0 -0.25000675223E+02  0.52211000567E+02  0.20226596647E+03  0.21038902903E+03  0.10000000000E+01 0.  0.
    9000005    1    3    3    0    0  0.75920665043E+02  0.23085540541E+01  0.10480464462E+03  0.12943836501E+03  0.10000000000E+01 0.  0.
          4    1    1    2  501    0 -0.50919989820E+02 -0.54519554621E+02  0.14989507955E+03  0.16743767489E+03  0.12700000000E+01 0. -1.
<mgrwt>
<rscale>  1 0.14556888E+03</rscale>
<asrwt>0</asrwt>
<pdfrwt beam="1">  1       21 0.74169124E-01 0.14556888E+03</pdfrwt>
<pdfrwt beam="2">  1        4 0.38693120E-02 0.14556888E+03</pdfrwt>
<totfact> 0.24263321E+04</totfact>
</mgrwt>
</event>
<event>
 6    4  0.6093247E-003  0.1537573E+03  0.7818608E-02  0.1195931E+00
         21   -1    0    0  501  502  0.00000000000E+00  0.00000000000E+00  0.30605726601E+03  0.30605726601E+03  0.00000000000E+00 0.  1.
         -4   -1    0    0    0  501 -0.00000000000E+00 -0.00000000000E+00 -0.72784027343E+02  0.72795106540E+02  0.12700000000E+01 0. -1.
         25    2    1    2    0    0 -0.17564034840E+02 -0.87792376822E+02  0.29896416926E+02  0.15663684368E+03  0.12500123322E+03 0.  0.
    9000005    1    3    3    0    0 -0.58481384659E+02 -0.95612729738E+02  0.22237004163E+02  0.11426876561E+03  0.10000000000E+01 0.  0.
    9000005    1    3    3    0    0  0.40917349819E+02  0.78203529150E+01  0.76594127627E+01  0.42368078075E+02  0.10000000000E+01 0.  0.
         -4    1    1    2    0  502  0.17564034840E+02  0.87792376822E+02  0.20337682174E+03  0.22221552887E+03  0.12700000000E+01 0.  1.
<mgrwt>
<rscale>  1 0.15375729E+03</rscale>
<asrwt>0</asrwt>
<pdfrwt beam="1">  1       21 0.47085733E-01 0.15375729E+03</pdfrwt>
<pdfrwt beam="2">  1       -4 0.11198598E-01 0.15375729E+03</pdfrwt>
<totfact> 0.11207760E+04</totfact>
</mgrwt>
</event>
<event>
 6    4  0.6093247E-003  0.1282445E+03  0.7818608E-02  0.1230084E+00
         21   -1    0    0  501  502  0.00000000000E+00  0.00000000000E+00  0.63554579179E+02  0.63554579179E+02  0.00000000000E+00 0. -1.
          4   -1    0    0  502    0 -0.00000000000E+00 -0.00000000000E+00 -0.11020391021E+03  0.11021122777E+03  0.12700000000E+01 0. -1.
         25    2    1    2    0    0 -0.28655699803E+02 -0.20374465233E+00 -0.60631431369E+02  0.14185495185E+03  0.12500186499E+03 0.  0.
    9000005    1    3    3    0    0 -0.56435957959E+01  0.51623502671E+02  0.82900066441E+01  0.52598102739E+02  0.10000000000E+01 0.  0.
    9000005    1    3    3    0    0 -0.23012104007E+02 -0.51827247324E+02 -0.68921438013E+02  0.89256849114E+02  0.10000000000E+01 0.  0.
          4    1    1    2  501    0  0.28655699803E+02  0.20374465233E+00  0.13982100335E+02  0.31910855094E+02  0.12700000000E+01 0.  1.
<mgrwt>
<rscale>  1 0.12824452E+03</rscale>
<asrwt>0</asrwt>
<pdfrwt beam="1">  1       21 0.97776276E-02 0.12824452E+03</pdfrwt>
<pdfrwt beam="2">  1        4 0.16955987E-01 0.12824452E+03</pdfrwt>
<totfact> 0.10233145E+05</totfact>
</mgrwt>
</event>
<event>
 6    4  0.6093247E-003  0.1291211E+03  0.7818608E-02  0.1228766E+00
         -4   -1    0    0    0  501 -0.00000000000E+00  0.00000000000E+00  0.25197331114E+03  0.25197651165E+03  0.12700000000E+01 0. -1.
         21   -1    0    0  501  502  0.00000000000E+00 -0.00000000000E+00 -0.36410182309E+02  0.36410182309E+02  0.00000000000E+00 0.  1.
         25    2    1    2    0    0  0.12638755805E+02 -0.29806288814E+02  0.22058733242E+03  0.25559937137E+03  0.12499645761E+03 0.  0.
    9000005    1    3    3    0    0 -0.46672234339E+02 -0.47896183283E+02  0.12192335679E+03  0.13906346307E+03  0.10000000000E+01 0.  0.
    9000005    1    3    3    0    0  0.59310990144E+02  0.18089894469E+02  0.98663975635E+02  0.11653590829E+03  0.10000000000E+01 0.  0.
         -4    1    1    2    0  502 -0.12638755805E+02  0.29806288814E+02 -0.50242035977E+01  0.32787322595E+02  0.12700000000E+01 0.  1.
<mgrwt>
<rscale>  1 0.12912113E+03</rscale>
<asrwt>0</asrwt>
<pdfrwt beam="2">  1       21 0.56015667E-02 0.12912113E+03</pdfrwt>
<pdfrwt beam="1">  1       -4 0.38767074E-01 0.12912113E+03</pdfrwt>
<totfact> 0.57545788E+04</totfact>
</mgrwt>
</event>
<event>
 6    4  0.6093247E-003  0.1278248E+03  0.7818608E-02  0.1230720E+00
         -4   -1    0    0    0  501 -0.00000000000E+00  0.00000000000E+00  0.77874656903E+01  0.78903435842E+01  0.12700000000E+01 0. -1.
         21   -1    0    0  501  502  0.00000000000E+00 -0.00000000000E+00 -0.94962287340E+03  0.94962287340E+03  0.00000000000E+00 0.  1.
         25    2    1    2    0    0  0.13553707451E+02  0.23048673834E+02 -0.54555574982E+03  0.56033048258E+03  0.12499691675E+03 0.  0.
    9000005    1    3    3    0    0 -0.50167689993E+02  0.29077914215E+02 -0.34397760813E+03  0.34883221914E+03  0.10000000000E+01 0.  0.
    9000005    1    3    3    0    0  0.63721397444E+02 -0.60292403809E+01 -0.20157814169E+03  0.21149826344E+03  0.10000000000E+01 0.  0.
         -4    1    1    2    0  502 -0.13553707451E+02 -0.23048673834E+02 -0.39627965789E+03  0.39718273440E+03  0.12700000000E+01 0.  1.
<mgrwt>
<rscale>  1 0.12782478E+03</rscale>
<asrwt>0</asrwt>
<pdfrwt beam="2">  1       21 0.14609575E+00 0.12782478E+03</pdfrwt>
<pdfrwt beam="1">  1       -4 0.12060513E-02 0.12782478E+03</pdfrwt>
<totfact> 0.29180849E+04</totfact>
</mgrwt>
</event>
<event>
 6    4  0.6093247E-003  0.1267506E+03  0.7818608E-02  0.1232358E+00
         21   -1    0    0  501  502  0.00000000000E+00  0.00000000000E+00  0.75690511911E+01  0.75690511911E+01  0.00000000000E+00 0. -1.
         -4   -1    0    0    0  501 -0.00000000000E+00 -0.00000000000E+00 -0.91201257774E+03  0.91201346200E+03  0.12700000000E+01 0.  1.
         25    2    1    2    0    0 -0.12125923992E+02 -0.17038426248E+02 -0.87060196831E+03  0.87978037799E+03  0.12501352038E+03 0.  0.
    9000005    1    3    3    0    0  0.27861582007E+02  0.20171691895E+02 -0.77467423248E+02  0.84766541575E+02  0.10000000000E+01 0.  0.
    9000005    1    3    3    0    0 -0.39987505999E+02 -0.37210118143E+02 -0.79313454506E+03  0.79501383642E+03  0.10000000000E+01 0.  0.
         -4    1    1    2    0  502  0.12125923992E+02  0.17038426248E+02 -0.33841558246E+02  0.39802135196E+02  0.12700000000E+01 0. -1.
<mgrwt>
<rscale>  1 0.12675065E+03</rscale>
<asrwt>0</asrwt>
<pdfrwt beam="1">  1       21 0.11644697E-02 0.12675065E+03</pdfrwt>
<pdfrwt beam="2">  1       -4 0.14031785E+00 0.12675065E+03</pdfrwt>
<totfact> 0.44467754E+04</totfact>
</mgrwt>
</event>
<event>
 6    4  0.6093247E-003  0.1280835E+03  0.7818608E-02  0.1230328E+00
          4   -1    0    0  502    0 -0.00000000000E+00  0.00000000000E+00  0.10074281034E+03  0.10075081506E+03  0.12700000000E+01 0.  1.
         21   -1    0    0  501  502  0.00000000000E+00 -0.00000000000E+00 -0.73829678637E+02  0.73829678637E+02  0.00000000000E+00 0. -1.
         25    2    1    2    0    0 -0.82028913994E+01  0.26721009389E+02  0.50800860713E+02  0.13779005652E+03  0.12499628978E+03 0.  0.
    9000005    1    3    3    0    0  0.35188083326E+02 -0.27710075937E+02 -0.93746322294E+01  0.45770440745E+02  0.10000000000E+01 0.  0.
    9000005    1    3    3    0    0 -0.43390974726E+02  0.54431085326E+02  0.60175492942E+02  0.92019615780E+02  0.10000000000E+01 0.  0.
          4    1    1    2  501    0  0.82028913994E+01 -0.26721009389E+02 -0.23887729009E+02  0.36790437172E+02  0.12700000000E+01 0. -1.
<mgrwt>
<rscale>  1 0.12808346E+03</rscale>
<asrwt>0</asrwt>
<pdfrwt beam="2">  1       21 0.11358412E-01 0.12808346E+03</pdfrwt>
<pdfrwt beam="1">  1        4 0.15500350E-01 0.12808346E+03</pdfrwt>
<totfact> 0.92085052E+04</totfact>
</mgrwt>
</event>
<event>
 6    4  0.6093247E-003  0.1285622E+03  0.7818608E-02  0.1229605E+00
          4   -1    0    0  502    0 -0.00000000000E+00  0.00000000000E+00  0.59241540367E+02  0.59255151718E+02  0.12700000000E+01 0.  1.
         21   -1    0    0  501  502  0.00000000000E+00 -0.00000000000E+00 -0.11053690830E+03  0.11053690830E+03  0.00000000000E+00 0.  1.
         25    2    1    2    0    0  0.29810870489E+02  0.40982818848E+01 -0.27652047504E+02  0.13150233013E+03  0.12499097242E+03 0.  0.
    9000005    1    3    3    0    0  0.12246621404E+02 -0.11249493876E+01 -0.77451962231E+02  0.78428640817E+02  0.10000000000E+01 0.  0.
    9000005    1    3    3    0    0  0.17564249085E+02  0.52232312724E+01  0.49799914727E+02  0.53073689316E+02  0.10000000000E+01 0.  0.
          4    1    1    2  501    0 -0.29810870489E+02 -0.40982818848E+01 -0.23643320427E+02  0.38289729883E+02  0.12700000000E+01 0. -1.
<mgrwt>
<rscale>  1 0.12856215E+03</rscale>
<asrwt>0</asrwt>
<pdfrwt beam="2">  1       21 0.17005678E-01 0.12856215E+03</pdfrwt>
<pdfrwt beam="1">  1        4 0.91156914E-02 0.12856215E+03</pdfrwt>
<totfact> 0.11070301E+05</totfact>
</mgrwt>
</event>
<event>
 6    4  0.6093247E-003  0.1276929E+03  0.7818608E-02  0.1230920E+00
         21   -1    0    0  501  502  0.00000000000E+00  0.00000000000E+00  0.13815625292E+04  0.13815625292E+04  0.00000000000E+00 0.  1.
         -4   -1    0    0    0  501 -0.00000000000E+00 -0.00000000000E+00 -0.43019650554E+01  0.44855103765E+01  0.12700000000E+01 0. -1.
         25    2    1    2    0    0 -0.10728916620E+02  0.23772615415E+02  0.10472915100E+04  0.10550473802E+04  0.12500088285E+03 0.  0.
    9000005    1    3    3    0    0 -0.39838607880E+02  0.38536507813E+02  0.96386080963E+03  0.96545369514E+03  0.10000000000E+01 0.  0.
    9000005    1    3    3    0    0  0.29109691260E+02 -0.14763892398E+02  0.83430700350E+02  0.89593685073E+02  0.10000000000E+01 0.  0.
         -4    1    1    2    0  502  0.10728916620E+02 -0.23772615415E+02  0.32996905419E+03  0.33100065940E+03  0.12700000000E+01 0.  1.
<mgrwt>
<rscale>  1 0.12769286E+03</rscale>
<asrwt>0</asrwt>
<pdfrwt beam="1">  1       21 0.21254774E+00 0.12769286E+03</pdfrwt>
<pdfrwt beam="2">  1       -4 0.67600565E-03 0.12769286E+03</pdfrwt>
<totfact> 0.24773973E+04</totfact>
</mgrwt>
</event>
<event>
 6    4  0.6093247E-003  0.1268877E+03  0.7818608E-02  0.1232148E+00
         21   -1    0    0  501  502  0.00000000000E+00  0.00000000000E+00  0.11788027880E+03  0.11788027880E+03  0.00000000000E+00 0. -1.
          4   -1    0    0  502    0 -0.00000000000E+00 -0.00000000000E+00 -0.54242824233E+02  0.54257689601E+02  0.12700000000E+01 0.  1.
         25    2    1    2    0    0 -0.71742346252E+01  0.20593846411E+02  0.27379572076E+02  0.12980803697E+03  0.12499963737E+03 0.  0.
    9000005    1    3    3    0    0 -0.20187273835E+02  0.61446031367E+02 -0.18227624771E+02  0.67204070564E+02  0.10000000000E+01 0.  0.
    9000005    1    3    3    0    0  0.13013039210E+02 -0.40852184956E+02  0.45607196847E+02  0.62603966403E+02  0.10000000000E+01 0.  0.
          4    1    1    2  501    0  0.71742346252E+01 -0.20593846411E+02  0.36257882494E+02  0.42329931436E+02  0.12700000000E+01 0. -1.
<mgrwt>
<rscale>  1 0.12688769E+03</rscale>
<asrwt>0</asrwt>
<pdfrwt beam="1">  1       21 0.18135427E-01 0.12688769E+03</pdfrwt>
<pdfrwt beam="2">  1        4 0.83467197E-02 0.12688769E+03</pdfrwt>
<totfact> 0.11378255E+05</totfact>
</mgrwt>
</event>
<event>
 6    4  0.6093247E-003  0.1269917E+03  0.7818608E-02  0.1231989E+00
         21   -1    0    0  501  502  0.00000000000E+00  0.00000000000E+00  0.96826438604E+02  0.96826438604E+02  0.00000000000E+00 0.  1.
         -4   -1    0    0    0  501 -0.00000000000E+00 -0.00000000000E+00 -0.72037454045E+02  0.72048648047E+02  0.12700000000E+01 0. -1.
         25    2    1    2    0    0  0.32900051183E+01  0.22210822803E+02 -0.10071046417E+02  0.12739039739E+03  0.12499097003E+03 0.  0.
    9000005    1    3    3    0    0 -0.18806274073E+02 -0.27596556772E+02  0.40872137483E+02  0.52789937607E+02  0.10000000000E+01 0.  0.
    9000005    1    3    3    0    0  0.22096279191E+02  0.49807379575E+02 -0.50943183900E+02  0.74600459785E+02  0.10000000000E+01 0.  0.
         -4    1    1    2    0  502 -0.32900051183E+01 -0.22210822803E+02  0.34860030976E+02  0.41484689259E+02  0.12700000000E+01 0.  1.
<mgrwt>
<rscale>  1 0.12699168E+03</rscale>
<asrwt>0</asrwt>
<pdfrwt beam="1">  1       21 0.14896375E-01 0.12699168E+03</pdfrwt>
<pdfrwt beam="2">  1       -4 0.11084187E-01 0.12699168E+03</pdfrwt>
<totfact> 0.10106628E+05</totfact>
</mgrwt>
</event>
<event>
 6    4  0.6093247E-003  0.1333636E+03  0.7818608E-02  0.1222548E+00
          4   -1    0    0  502    0 -0.00000000000E+00  0.00000000000E+00  0.83395762628E+01  0.84357235755E+01  0.12700000000E+01 0.  1.
         21   -1    0    0  501  502  0.00000000000E+00 -0.00000000000E+00 -0.10764555849E+04  0.10764555849E+04  0.00000000000E+00 0.  1.
         25    2    1    2    0    0 -0.15367707481E+02  0.43877442989E+02 -0.92081503514E+03  0.93042258631E+03  0.12499785488E+03 0.  0.
    9000005    1    3    3    0    0  0.34433838299E+02  0.29619670931E+02 -0.12634622906E+03  0.13426609298E+03  0.10000000000E+01 0.  0.
    9000005    1    3    3    0    0 -0.49801545780E+02  0.14257772058E+02 -0.79446880609E+03  0.79615649333E+03  0.10000000000E+01 0.  0.
          4    1    1    2  501    0  0.15367707481E+02 -0.43877442989E+02 -0.14730097348E+03  0.15446872216E+03  0.12700000000E+01 0. -1.
<mgrwt>
<rscale>  1 0.13336364E+03</rscale>
<asrwt>0</asrwt>
<pdfrwt beam="2">  1       21 0.16560847E+00 0.13336364E+03</pdfrwt>
<pdfrwt beam="1">  1        4 0.12904660E-02 0.13336364E+03</pdfrwt>
<totfact> 0.19002631E+04</totfact>
</mgrwt>
</event>
<event>
 6    4  0.6093247E-003  0.1289472E+03  0.7818608E-02  0.1229026E+00
          4   -1    0    0  502    0 -0.00000000000E+00  0.00000000000E+00  0.63939643379E+03  0.63939769506E+03  0.12700000000E+01 0. -1.
         21   -1    0    0  501  502  0.00000000000E+00 -0.00000000000E+00 -0.10385310525E+02  0.10385310525E+02  0.00000000000E+00 0. -1.
         25    2    1    2    0    0 -0.30528775399E+02  0.84407296655E+01  0.45550491604E+03  0.47340480713E+03  0.12499652327E+03 0.  0.
    9000005    1    3    3    0    0 -0.43402678655E+02  0.52398769862E+02  0.15299526727E+03  0.16744544008E+03  0.10000000000E+01 0.  0.
    9000005    1    3    3    0    0  0.12873903255E+02 -0.43958040196E+02  0.30250964877E+03  0.30595936705E+03  0.10000000000E+01 0.  0.
          4    1    1    2  501    0  0.30528775399E+02 -0.84407296655E+01  0.17350620722E+03  0.17637819845E+03  0.12700000000E+01 0.  1.
<mgrwt>
<rscale>  1 0.12894721E+03</rscale>
<asrwt>0</asrwt>
<pdfrwt beam="2">  1       21 0.15977406E-02 0.12894721E+03</pdfrwt>
<pdfrwt beam="1">  1        4 0.98374722E-01 0.12894721E+03</pdfrwt>
<totfact> 0.62977906E+04</totfact>
</mgrwt>
</event>
<event>
 6    4  0.6093247E-003  0.1467304E+03  0.7818608E-02  0.1204549E+00
          4   -1    0    0  502    0 -0.00000000000E+00  0.00000000000E+00  0.35122770622E+03  0.35123000230E+03  0.12700000000E+01 0.  1.
         21   -1    0    0  501  502  0.00000000000E+00 -0.00000000000E+00 -0.57623211107E+02  0.57623211107E+02  0.00000000000E+00 0. -1.
         25    2    1    2    0    0 -0.24862822416E+02 -0.72704975927E+02  0.29769877145E+03  0.33189511142E+03  0.12500253198E+03 0.  0.
    9000005    1    3    3    0    0  0.24065247421E+02 -0.16189827677E+02  0.22750035846E+03  0.22934397693E+03  0.10000000000E+01 0.  0.
    9000005    1    3    3    0    0 -0.48928069837E+02 -0.56515148250E+02  0.70198412987E+02  0.10255113449E+03  0.10000000000E+01 0.  0.
          4    1    1    2  501    0  0.24862822416E+02  0.72704975927E+02 -0.40942763333E+01  0.76958101989E+02  0.12700000000E+01 0. -1.
<mgrwt>
<rscale>  1 0.14673039E+03</rscale>
<asrwt>0</asrwt>
<pdfrwt beam="2">  1       21 0.88651097E-02 0.14673039E+03</pdfrwt>
<pdfrwt beam="1">  1        4 0.54036283E-01 0.14673039E+03</pdfrwt>
<totfact> 0.13630026E+04</totfact>
</mgrwt>
</event>
<event>
 6    4  0.6093247E-003  0.1546857E+03  0.7818608E-02  0.1194831E+00
         21   -1    0    0  501  502  0.00000000000E+00  0.00000000000E+00  0.81305660155E+03  0.81305660155E+03  0.00000000000E+00 0.  1.
         -4   -1    0    0    0  501 -0.00000000000E+00 -0.00000000000E+00 -0.33951218294E+02  0.33974963188E+02  0.12700000000E+01 0. -1.
         25    2    1    2    0    0  0.82020087584E+02 -0.39703214078E+02  0.16487924000E+03  0.22608147984E+03  0.12499612701E+03 0.  0.
    9000005    1    3    3    0    0 -0.14664803748E+02 -0.41162168864E+02  0.10136623299E+03  0.11038792418E+03  0.10000000000E+01 0.  0.
    9000005    1    3    3    0    0  0.96684891332E+02  0.14589547855E+01  0.63513007004E+02  0.11569355565E+03  0.10000000000E+01 0.  0.
         -4    1    1    2    0  502 -0.82020087584E+02  0.39703214078E+02  0.61422614326E+03  0.62095008490E+03  0.12700000000E+01 0.  1.
<mgrwt>
<rscale>  1 0.15468572E+03</rscale>
<asrwt>0</asrwt>
<pdfrwt beam="1">  1       21 0.12508562E+00 0.15468572E+03</pdfrwt>
<pdfrwt beam="2">  1       -4 0.52251678E-02 0.15468572E+03</pdfrwt>
<totfact> 0.44384291E+03</totfact>
</mgrwt>
</event>
<event>
 6    4  0.6093247E-003  0.1518422E+03  0.7818608E-02  0.1198227E+00
         -4   -1    0    0    0  501 -0.00000000000E+00  0.00000000000E+00  0.93850976228E+02  0.93859568712E+02  0.12700000000E+01 0.  1.
         21   -1    0    0  501  502  0.00000000000E+00 -0.00000000000E+00 -0.48897188202E+03  0.48897188202E+03  0.00000000000E+00 0. -1.
         25    2    1    2    0    0  0.50034458453E+02  0.70198000274E+02  0.25060579603E+02  0.15389637424E+03  0.12499942032E+03 0.  0.
    9000005    1    3    3    0    0  0.36363922126E+02 -0.10027203630E+02 -0.35997949993E+02  0.52151050313E+02  0.10000000000E+01 0.  0.
    9000005    1    3    3    0    0  0.13670536327E+02  0.80225203904E+02  0.61058529596E+02  0.10174532393E+03  0.10000000000E+01 0.  0.
         -4    1    1    2    0  502 -0.50034458453E+02 -0.70198000274E+02 -0.42018148540E+03  0.42893507649E+03  0.12700000000E+01 0. -1.
<mgrwt>
<rscale>  1 0.15184223E+03</rscale>
<asrwt>0</asrwt>
<pdfrwt beam="2">  1       21 0.75226445E-01 0.15184223E+03</pdfrwt>
<pdfrwt beam="1">  1       -4 0.14439399E-01 0.15184223E+03</pdfrwt>
<totfact> 0.26606417E+03</totfact>
</mgrwt>
</event>
<event>
 6    4  0.6093247E-003  0.1300886E+03  0.7818608E-02  0.1227324E+00
         21   -1    0    0  501  502  0.00000000000E+00  0.00000000000E+00  0.90540090413E+02  0.90540090413E+02  0.00000000000E+00 0.  1.
          4   -1    0    0  502    0 -0.00000000000E+00 -0.00000000000E+00 -0.11977381735E+03  0.11978055026E+03  0.12700000000E+01 0.  1.
         25    2    1    2    0    0 -0.92368308853E+01  0.34817147413E+02 -0.76472700706E+02  0.15090106190E+03  0.12500201491E+03 0.  0.
    9000005    1    3    3    0    0  0.29305954042E+02  0.58787986494E+02 -0.45559540121E+01  0.65853041048E+02  0.10000000000E+01 0.  0.
    9000005    1    3    3    0    0 -0.38542784927E+02 -0.23970839081E+02 -0.71916746694E+02  0.85048020855E+02  0.10000000000E+01 0.  0.
          4    1    1    2  501    0  0.92368308853E+01 -0.34817147413E+02  0.47238973773E+02  0.59419578775E+02  0.12700000000E+01 0. -1.
<mgrwt>
<rscale>  1 0.13008865E+03</rscale>
<asrwt>0</asrwt>
<pdfrwt beam="1">  1       21 0.13929245E-01 0.13008865E+03</pdfrwt>
<pdfrwt beam="2">  1        4 0.18427944E-01 0.13008865E+03</pdfrwt>
<totfact> 0.47306147E+04</totfact>
</mgrwt>
</event>
<event>
 6    4  0.6093247E-003  0.1324544E+03  0.7818608E-02  0.1223859E+00
         21   -1    0    0  501  502  0.00000000000E+00  0.00000000000E+00  0.10522842012E+03  0.10522842012E+03  0.00000000000E+00 0.  1.
         -4   -1    0    0    0  501 -0.00000000000E+00 -0.00000000000E+00 -0.34658502691E+03  0.34658735375E+03  0.12700000000E+01 0. -1.
         25    2    1    2    0    0  0.29020024881E+02  0.32775548563E+02 -0.32854838427E+03  0.35424314764E+03  0.12501107317E+03 0.  0.
    9000005    1    3    3    0    0  0.25048926476E+01  0.79048150866E+02 -0.19921190524E+03  0.21433914209E+03  0.10000000000E+01 0.  0.
    9000005    1    3    3    0    0  0.26515132234E+02 -0.46272602302E+02 -0.12933647903E+03  0.13990400555E+03  0.10000000000E+01 0.  0.
         -4    1    1    2    0  502 -0.29020024881E+02 -0.32775548563E+02  0.87191777484E+02  0.97572626226E+02  0.12700000000E+01 0.  1.
<mgrwt>
<rscale>  1 0.13245440E+03</rscale>
<asrwt>0</asrwt>
<pdfrwt beam="1">  1       21 0.16188988E-01 0.13245440E+03</pdfrwt>
<pdfrwt beam="2">  1       -4 0.53321542E-01 0.13245440E+03</pdfrwt>
<totfact> 0.47683396E+03</totfact>
</mgrwt>
</event>
<event>
 6    4  0.6093247E-003  0.1298082E+03  0.7818608E-02  0.1227741E+00
         21   -1    0    0  501  502  0.00000000000E+00  0.00000000000E+00  0.74594146678E+03  0.74594146678E+03  0.00000000000E+00 0. -1.
         -4   -1    0    0    0  501 -0.00000000000E+00 -0.00000000000E+00 -0.14450047062E+02  0.14505749208E+02  0.12700000000E+01 0.  1.
         25    2    1    2    0    0 -0.34299083578E+02 -0.65243331849E+01  0.29180470482E+03  0.31937464348E+03  0.12502472990E+03 0.  0.
    9000005    1    3    3    0    0 -0.79631798657E+02 -0.48193309819E+00  0.14280051917E+03  0.16350670902E+03  0.10000000000E+01 0.  0.
    9000005    1    3    3    0    0  0.45332715079E+02 -0.60424000867E+01  0.14900418565E+03  0.15586793447E+03  0.10000000000E+01 0.  0.
         -4    1    1    2    0  502  0.34299083578E+02  0.65243331849E+01  0.43968671490E+03  0.44107257251E+03  0.12700000000E+01 0. -1.
<mgrwt>
<rscale>  1 0.12980823E+03</rscale>
<asrwt>0</asrwt>
<pdfrwt beam="1">  1       21 0.11476020E+00 0.12980823E+03</pdfrwt>
<pdfrwt beam="2">  1       -4 0.22274527E-02 0.12980823E+03</pdfrwt>
<totfact> 0.20858066E+04</totfact>
</mgrwt>
</event>
<event>
 6    4  0.6093247E-003  0.1277870E+03  0.7818608E-02  0.1230777E+00
         -4   -1    0    0    0  501 -0.00000000000E+00  0.00000000000E+00  0.29798812800E+03  0.29799083430E+03  0.12700000000E+01 0. -1.
         21   -1    0    0  501  502  0.00000000000E+00 -0.00000000000E+00 -0.22721643732E+03  0.22721643732E+03  0.00000000000E+00 0.  1.
         25    2    1    2    0    0  0.18745839117E+02 -0.18789248732E+02  0.28342477246E+03  0.31090050914E+03  0.12500033037E+03 0.  0.
    9000005    1    3    3    0    0  0.12314498007E+02 -0.67084978157E+02  0.99554997811E+02  0.12068238788E+03  0.10000000000E+01 0.  0.
    9000005    1    3    3    0    0  0.64313411106E+01  0.48295729425E+02  0.18386977464E+03  0.19021812126E+03  0.10000000000E+01 0.  0.
         -4    1    1    2    0  502 -0.18745839117E+02  0.18789248732E+02 -0.21265308178E+03  0.21430676247E+03  0.12700000000E+01 0.  1.
<mgrwt>
<rscale>  1 0.12778703E+03</rscale>
<asrwt>0</asrwt>
<pdfrwt beam="2">  1       21 0.34956375E-01 0.12778703E+03</pdfrwt>
<pdfrwt beam="1">  1       -4 0.45844809E-01 0.12778703E+03</pdfrwt>
<totfact> 0.15171285E+03</totfact>
</mgrwt>
</event>
<event>
 6    4  0.6093247E-003  0.1283128E+03  0.7818608E-02  0.1229981E+00
         -4   -1    0    0    0  501 -0.00000000000E+00  0.00000000000E+00  0.13838289218E+04  0.13838295046E+04  0.12700000000E+01 0.  1.
         21   -1    0    0  501  502  0.00000000000E+00 -0.00000000000E+00 -0.64101314686E+01  0.64101314686E+01  0.00000000000E+00 0.  1.
         25    2    1    2    0    0 -0.25325358368E+02 -0.14063408263E+02  0.13168650179E+04  0.13231015285E+04  0.12500010441E+03 0.  0.
    9000005    1    3    3    0    0 -0.82276993242E+01 -0.61609343872E+02  0.10257971403E+04  0.10276790255E+04  0.10000000000E+01 0.  0.
    9000005    1    3    3    0    0 -0.17097659043E+02  0.47545935609E+02  0.29106787763E+03  0.29542250308E+03  0.10000000000E+01 0.  0.
         -4    1    1    2    0  502  0.25325358368E+02  0.14063408263E+02  0.60553772408E+02  0.67138107519E+02  0.12700000000E+01 0. -1.
<mgrwt>
<rscale>  1 0.12831282E+03</rscale>
<asrwt>0</asrwt>
<pdfrwt beam="2">  1       21 0.98617517E-03 0.12831282E+03</pdfrwt>
<pdfrwt beam="1">  1       -4 0.21290624E+00 0.12831282E+03</pdfrwt>
<totfact> 0.18867685E+04</totfact>
</mgrwt>
</event>
<event>
 6    4  0.6093247E-003  0.1523123E+03  0.7818608E-02  0.1197660E+00
         21   -1    0    0  501  502  0.00000000000E+00  0.00000000000E+00  0.10030207593E+03  0.10030207593E+03  0.00000000000E+00 0. -1.
         -4   -1    0    0    0  501 -0.00000000000E+00 -0.00000000000E+00 -0.34751298782E+03  0.34751530844E+03  0.12700000000E+01 0.  1.
         25    2    1    2    0    0 -0.42111949272E+02 -0.76119647095E+02 -0.30668891128E+03  0.34242828504E+03  0.12502569795E+03 0.  0.
    9000005    1    3    3    0    0 -0.15708279837E+02 -0.10868549024E+03 -0.23452477845E+03  0.25896362206E+03  0.10000000000E+01 0.  0.
    9000005    1    3    3    0    0 -0.26403669435E+02  0.32565843141E+02 -0.72164132831E+02  0.83464662980E+02  0.10000000000E+01 0.  0.
         -4    1    1    2    0  502  0.42111949272E+02  0.76119647095E+02  0.59477999396E+02  0.10538909933E+03  0.12700000000E+01 0. -1.
<mgrwt>
<rscale>  1 0.15231232E+03</rscale>
<asrwt>0</asrwt>
<pdfrwt beam="1">  1       21 0.15431089E-01 0.15231232E+03</pdfrwt>
<pdfrwt beam="2">  1       -4 0.53464334E-01 0.15231232E+03</pdfrwt>
<totfact> 0.52218616E+03</totfact>
</mgrwt>
</event>
<event>
 6    4  0.6093247E-003  0.1273233E+03  0.7818608E-02  0.1231482E+00
         21   -1    0    0  501  502  0.00000000000E+00  0.00000000000E+00  0.56667893433E+02  0.56667893433E+02  0.00000000000E+00 0.  1.
         -4   -1    0    0    0  501 -0.00000000000E+00 -0.00000000000E+00 -0.11504583867E+03  0.11505284827E+03  0.12700000000E+01 0.  1.
         25    2    1    2    0    0  0.13083524722E+02 -0.20089076918E+02 -0.69727169961E+02  0.14516575286E+03  0.12504586335E+03 0.  0.
    9000005    1    3    3    0    0 -0.41403419234E+02 -0.95061439282E+01  0.13971318291E+02  0.44730388232E+02  0.10000000000E+01 0.  0.
    9000005    1    3    3    0    0  0.54486943956E+02 -0.10582932990E+02 -0.83698488251E+02  0.10043536463E+03  0.10000000000E+01 0.  0.
         -4    1    1    2    0  502 -0.13083524722E+02  0.20089076918E+02  0.11349224725E+02  0.26554988843E+02  0.12700000000E+01 0. -1.
<mgrwt>
<rscale>  1 0.12732328E+03</rscale>
<asrwt>0</asrwt>
<pdfrwt beam="1">  1       21 0.87181375E-02 0.12732328E+03</pdfrwt>
<pdfrwt beam="2">  1       -4 0.17700994E-01 0.12732328E+03</pdfrwt>
<totfact> 0.11565782E+05</totfact>
</mgrwt>
</event>
<event>
 6    4  0.6093247E-003  0.1350012E+03  0.7818608E-02  0.1220218E+00
         -4   -1    0    0    0  501 -0.00000000000E+00  0.00000000000E+00  0.24784383065E+03  0.24784708450E+03  0.12700000000E+01 0.  1.
         21   -1    0    0  501  502  0.00000000000E+00 -0.00000000000E+00 -0.86012374170E+02  0.86012374170E+02  0.00000000000E+00 0. -1.
         25    2    1    2    0    0 -0.28785587434E+02 -0.42087686337E+02  0.21898595397E+03  0.25725506670E+03  0.12500135169E+03 0.  0.
    9000005    1    3    3    0    0  0.29038079498E+01 -0.25372454611E+02  0.21992123319E+03  0.22140131518E+03  0.10000000000E+01 0.  0.
    9000005    1    3    3    0    0 -0.31689395383E+02 -0.16715231725E+02 -0.93527921940E+00  0.35853751528E+02  0.10000000000E+01 0.  0.
         -4    1    1    2    0  502  0.28785587434E+02  0.42087686337E+02 -0.57154497487E+02  0.76604391963E+02  0.12700000000E+01 0. -1.
<mgrwt>
<rscale>  1 0.13500119E+03</rscale>
<asrwt>0</asrwt>
<pdfrwt beam="2">  1       21 0.13232673E-01 0.13500119E+03</pdfrwt>
<pdfrwt beam="1">  1       -4 0.38130791E-01 0.13500119E+03</pdfrwt>
<totfact> 0.13445685E+04</totfact>
</mgrwt>
</event>
<event>
 6    4  0.6093247E-003  0.1334626E+03  0.7818608E-02  0.1222406E+00
          4   -1    0    0  502    0 -0.00000000000E+00  0.00000000000E+00  0.56017541273E+03  0.56017685237E+03  0.12700000000E+01 0.  1.
         21   -1    0    0  501  502  0.00000000000E+00 -0.00000000000E+00 -0.14604730455E+02  0.14604730455E+02  0.00000000000E+00 0.  1.
         25    2    1    2    0    0 -0.23284716565E+02  0.40558505878E+02  0.42450110570E+03  0.44498703095E+03  0.12500039418E+03 0.  0.
    9000005    1    3    3    0    0 -0.49277990624E+02 -0.29131969069E+02  0.22171001699E+03  0.22898323873E+03  0.10000000000E+01 0.  0.
    9000005    1    3    3    0    0  0.25993274059E+02  0.69690474947E+02  0.20279108871E+03  0.21600379222E+03  0.10000000000E+01 0.  0.
          4    1    1    2  501    0  0.23284716565E+02 -0.40558505878E+02  0.12106957657E+03  0.12979455187E+03  0.12700000000E+01 0. -1.
<mgrwt>
<rscale>  1 0.13346261E+03</rscale>
<asrwt>0</asrwt>
<pdfrwt beam="2">  1       21 0.22468820E-02 0.13346261E+03</pdfrwt>
<pdfrwt beam="1">  1        4 0.86185174E-01 0.13346261E+03</pdfrwt>
<totfact> 0.49317003E+04</totfact>
</mgrwt>
</event>
<event>
 6    4  0.6093247E-003  0.1273196E+03  0.7818608E-02  0.1231488E+00
          4   -1    0    0  502    0 -0.00000000000E+00  0.00000000000E+00  0.12569485647E+03  0.12570127224E+03  0.12700000000E+01 0. -1.
         21   -1    0    0  501  502  0.00000000000E+00 -0.00000000000E+00 -0.18028376134E+03  0.18028376134E+03  0.00000000000E+00 0.  1.
         25    2    1    2    0    0  0.16335101242E+02  0.17668889881E+02  0.92221464700E+02  0.15721029542E+03  0.12502501042E+03 0.  0.
    9000005    1    3    3    0    0 -0.10082412216E+02  0.59598892693E+02  0.10104526794E+02  0.61292613814E+02  0.10000000000E+01 0.  0.
    9000005    1    3    3    0    0  0.26417513459E+02 -0.41930002812E+02  0.82116937906E+02  0.95917681604E+02  0.10000000000E+01 0.  0.
          4    1    1    2  501    0 -0.16335101242E+02 -0.17668889881E+02 -0.14681036957E+03  0.14877473816E+03  0.12700000000E+01 0.  1.
<mgrwt>
<rscale>  1 0.12731959E+03</rscale>
<asrwt>0</asrwt>
<pdfrwt beam="2">  1       21 0.27735963E-01 0.12731959E+03</pdfrwt>
<pdfrwt beam="1">  1        4 0.19338508E-01 0.12731959E+03</pdfrwt>
<totfact> 0.12131521E+04</totfact>
</mgrwt>
</event>
<event>
 6    4  0.6093247E-003  0.1272484E+03  0.7818608E-02  0.1231597E+00
         21   -1    0    0  501  502  0.00000000000E+00  0.00000000000E+00  0.55957887779E+02  0.55957887779E+02  0.00000000000E+00 0.  1.
          4   -1    0    0  502    0 -0.00000000000E+00 -0.00000000000E+00 -0.23623292769E+03  0.23623634146E+03  0.12700000000E+01 0. -1.
         25    2    1    2    0    0  0.18539226404E+02 -0.15022507309E+02 -0.21512325942E+03  0.24994035433E+03  0.12499114104E+03 0.  0.
    9000005    1    3    3    0    0 -0.33218415547E+02  0.39174448229E+02 -0.10258743323E+03  0.11473134699E+03  0.10000000000E+01 0.  0.
    9000005    1    3    3    0    0  0.51757641951E+02 -0.54196955538E+02 -0.11253582619E+03  0.13520900734E+03  0.10000000000E+01 0.  0.
          4    1    1    2  501    0 -0.18539226404E+02  0.15022507309E+02  0.34848219509E+02  0.42253874904E+02  0.12700000000E+01 0.  1.
<mgrwt>
<rscale>  1 0.12724843E+03</rscale>
<asrwt>0</asrwt>
<pdfrwt beam="1">  1       21 0.86089056E-02 0.12724843E+03</pdfrwt>
<pdfrwt beam="2">  1        4 0.36344899E-01 0.12724843E+03</pdfrwt>
<totfact> 0.31235397E+04</totfact>
</mgrwt>
</event>
<event>
 6    4  0.6093247E-003  0.1305518E+03  0.7818608E-02  0.1226639E+00
         21   -1    0    0  501  502  0.00000000000E+00  0.00000000000E+00  0.76205013308E+02  0.76205013308E+02  0.00000000000E+00 0.  1.
         -4   -1    0    0    0  501 -0.00000000000E+00 -0.00000000000E+00 -0.95075547244E+02  0.95084029068E+02  0.12700000000E+01 0.  1.
         25    2    1    2    0    0  0.37659341125E+02  0.41965151924E+00 -0.25522964593E+02  0.13302326373E+03  0.12500145956E+03 0.  0.
    9000005    1    3    3    0    0  0.54481277965E+02 -0.48512266270E+02  0.46725978773E+01  0.73105969649E+02  0.10000000000E+01 0.  0.
    9000005    1    3    3    0    0 -0.16821936840E+02  0.48931917789E+02 -0.30195562471E+02  0.59917294085E+02  0.10000000000E+01 0.  0.
         -4    1    1    2    0  502 -0.37659341125E+02 -0.41965151924E+00  0.66524306576E+01  0.38265778641E+02  0.12700000000E+01 0. -1.
<mgrwt>
<rscale>  1 0.13055178E+03</rscale>
<asrwt>0</asrwt>
<pdfrwt beam="1">  1       21 0.11723848E-01 0.13055178E+03</pdfrwt>
<pdfrwt beam="2">  1       -4 0.14628474E-01 0.13055178E+03</pdfrwt>
<totfact> 0.96589583E+04</totfact>
</mgrwt>
</event>
<event>
 6    4  0.6093247E-003  0.1269023E+03  0.7818608E-02  0.1232126E+00
         21   -1    0    0  501  502  0.00000000000E+00  0.00000000000E+00  0.15882566562E+02  0.15882566562E+02  0.00000000000E+00 0. -1.
         -4   -1    0    0    0  501 -0.00000000000E+00 -0.00000000000E+00 -0.89817909483E+03  0.89817999270E+03  0.12700000000E+01 0.  1.
         25    2    1    2    0    0 -0.21844847168E+02  0.14261767861E+01 -0.88304956634E+03  0.89212147236E+03  0.12499981402E+03 0.  0.
    9000005    1    3    3    0    0 -0.65127188821E+02  0.14136730646E+02 -0.29934034458E+03  0.30667089815E+03  0.10000000000E+01 0.  0.
    9000005    1    3    3    0    0  0.43282341653E+02 -0.12710553859E+02 -0.58370922176E+03  0.58545057421E+03  0.10000000000E+01 0.  0.
         -4    1    1    2    0  502  0.21844847168E+02 -0.14261767861E+01  0.75303807691E+00  0.21941086900E+02  0.12700000000E+01 0. -1.
<mgrwt>
<rscale>  1 0.12690226E+03</rscale>
<asrwt>0</asrwt>
<pdfrwt beam="1">  1       21 0.24434713E-02 0.12690226E+03</pdfrwt>
<pdfrwt beam="2">  1       -4 0.13818540E+00 0.12690226E+03</pdfrwt>
<totfact> 0.14080491E+04</totfact>
</mgrwt>
</event>
<event>
 6    4  0.6093247E-003  0.1330785E+03  0.7818608E-02  0.1222958E+00
          4   -1    0    0  502    0 -0.00000000000E+00  0.00000000000E+00  0.13156968725E+03  0.13157581655E+03  0.12700000000E+01 0.  1.
         21   -1    0    0  501  502  0.00000000000E+00 -0.00000000000E+00 -0.43017216759E+03  0.43017216759E+03  0.00000000000E+00 0. -1.
         25    2    1    2    0    0 -0.44757047123E+02 -0.89998225358E+01  0.96266194259E+02  0.16424694873E+03  0.12500275972E+03 0.  0.
    9000005    1    3    3    0    0 -0.33228782572E+02 -0.65850811145E+02  0.65124428750E+02  0.98400571846E+02  0.10000000000E+01 0.  0.
    9000005    1    3    3    0    0 -0.11528264552E+02  0.56850988610E+02  0.31141765509E+02  0.65846376882E+02  0.10000000000E+01 0.  0.
          4    1    1    2  501    0  0.44757047123E+02  0.89998225358E+01 -0.39486867461E+03  0.39750103542E+03  0.12700000000E+01 0. -1.
<mgrwt>
<rscale>  1 0.13307847E+03</rscale>
<asrwt>0</asrwt>
<pdfrwt beam="2">  1       21 0.66180333E-01 0.13307847E+03</pdfrwt>
<pdfrwt beam="1">  1        4 0.20242106E-01 0.13307847E+03</pdfrwt>
<totfact> 0.19277251E+03</totfact>
</mgrwt>
</event>
<event>
 6    4  0.6093247E-003  0.1279906E+03  0.7818608E-02  0.1230468E+00
          4   -1    0    0  502    0 -0.00000000000E+00  0.00000000000E+00  0.60574292970E+02  0.60587604910E+02  0.12700000000E+01 0. -1.
         21   -1    0    0  501  502  0.00000000000E+00 -0.00000000000E+00 -0.12507146964E+03  0.12507146964E+03  0.00000000000E+00 0. -1.
         25    2    1    2    0    0  0.43971969143E+01  0.27143107051E+02 -0.14794067697E+02  0.12884274290E+03  0.12500201741E+03 0.  0.
    9000005    1    3    3    0    0 -0.54494911799E+02 -0.66796133834E+01  0.11334412039E+02  0.56069435018E+02  0.10000000000E+01 0.  0.
    9000005    1    3    3    0    0  0.58892108713E+02  0.33822720434E+02 -0.26128479736E+02  0.72773307879E+02  0.10000000000E+01 0.  0.
          4    1    1    2  501    0 -0.43971969143E+01 -0.27143107051E+02 -0.49703108977E+02  0.56816331658E+02  0.12700000000E+01 0. -1.
<mgrwt>
<rscale>  1 0.12799058E+03</rscale>
<asrwt>0</asrwt>
<pdfrwt beam="2">  1       21 0.19241764E-01 0.12799058E+03</pdfrwt>
<pdfrwt beam="1">  1        4 0.93206421E-02 0.12799058E+03</pdfrwt>
<totfact> 0.85015718E+04</totfact>
</mgrwt>
</event>
<event>
 6    4  0.6093247E-003  0.1640385E+03  0.7818608E-02  0.1184211E+00
          4   -1    0    0  502    0 -0.00000000000E+00  0.00000000000E+00  0.86390046053E+02  0.86399380536E+02  0.12700000000E+01 0. -1.
         21   -1    0    0  501  502  0.00000000000E+00 -0.00000000000E+00 -0.39964679638E+03  0.39964679638E+03  0.00000000000E+00 0.  1.
         25    2    1    2    0    0  0.10525320738E+03 -0.14329085965E+02 -0.95725275716E+01  0.16431759500E+03  0.12500031350E+03 0.  0.
    9000005    1    3    3    0    0 -0.28454084983E+02 -0.51106734577E+01 -0.89777410790E+01  0.30287848559E+02  0.10000000000E+01 0.  0.
    9000005    1    3    3    0    0  0.13370729237E+03 -0.92184125075E+01 -0.59478649258E+00  0.13402974644E+03  0.10000000000E+01 0.  0.
          4    1    1    2  501    0 -0.10525320738E+03  0.14329085965E+02 -0.30368422276E+03  0.32172858192E+03  0.12700000000E+01 0.  1.
<mgrwt>
<rscale>  1 0.16403853E+03</rscale>
<asrwt>0</asrwt>
<pdfrwt beam="2">  1       21 0.61484122E-01 0.16403853E+03</pdfrwt>
<pdfrwt beam="1">  1        4 0.13291650E-01 0.16403853E+03</pdfrwt>
<totfact> 0.47862342E+03</totfact>
</mgrwt>
</event>
<event>
 6    4  0.6093247E-003  0.1350404E+03  0.7818608E-02  0.1220163E+00
         -4   -1    0    0    0  501 -0.00000000000E+00  0.00000000000E+00  0.14931749644E+02  0.14985661395E+02  0.12700000000E+01 0. -1.
         21   -1    0    0  501  502  0.00000000000E+00 -0.00000000000E+00 -0.77134329940E+03  0.77134329940E+03  0.00000000000E+00 0.  1.
         25    2    1    2    0    0  0.48896496033E+02 -0.14814638984E+02 -0.32554761834E+03  0.35244455091E+03  0.12500227519E+03 0.  0.
    9000005    1    3    3    0    0  0.38580702095E+02  0.51419511678E+02 -0.11854590818E+03  0.13485758822E+03  0.10000000000E+01 0.  0.
    9000005    1    3    3    0    0  0.10315793938E+02 -0.66234150662E+02 -0.20700171016E+03  0.21758696268E+03  0.10000000000E+01 0.  0.
         -4    1    1    2    0  502 -0.48896496033E+02  0.14814638984E+02 -0.43086393141E+03  0.43388440989E+03  0.12700000000E+01 0.  1.
<mgrwt>
<rscale>  1 0.13504040E+03</rscale>
<asrwt>0</asrwt>
<pdfrwt beam="2">  1       21 0.11866820E+00 0.13504040E+03</pdfrwt>
<pdfrwt beam="1">  1       -4 0.23014197E-02 0.13504040E+03</pdfrwt>
<totfact> 0.18340216E+04</totfact>
</mgrwt>
</event>
<event>
 6    4  0.6093247E-003  0.1510492E+03  0.7818608E-02  0.1199190E+00
         21   -1    0    0  501  502  0.00000000000E+00  0.00000000000E+00  0.14723973378E+03  0.14723973378E+03  0.00000000000E+00 0. -1.
         -4   -1    0    0    0  501 -0.00000000000E+00 -0.00000000000E+00 -0.95727926396E+02  0.95736350422E+02  0.12700000000E+01 0.  1.
         25    2    1    2    0    0 -0.84539784251E+02 -0.65662363310E+01  0.46412915057E+02  0.15801902338E+03  0.12500304990E+03 0.  0.
    9000005    1    3    3    0    0 -0.16056749668E+02 -0.22934275733E+02  0.76480255906E+02  0.81449553447E+02  0.10000000000E+01 0.  0.
    9000005    1    3    3    0    0 -0.68483034583E+02  0.16368039402E+02 -0.30067340849E+02  0.76569469930E+02  0.10000000000E+01 0.  0.
         -4    1    1    2    0  502  0.84539784251E+02  0.65662363310E+01  0.50988923248E+01  0.84957060823E+02  0.12700000000E+01 0. -1.
<mgrwt>
<rscale>  1 0.15104917E+03</rscale>
<asrwt>0</asrwt>
<pdfrwt beam="1">  1       21 0.22652267E-01 0.15104917E+03</pdfrwt>
<pdfrwt beam="2">  1       -4 0.14728443E-01 0.15104917E+03</pdfrwt>
<totfact> 0.29267536E+04</totfact>
</mgrwt>
</event>
<event>
 6    4  0.6093247E-003  0.1274138E+03  0.7818608E-02  0.1231344E+00
          4   -1    0    0  502    0 -0.00000000000E+00  0.00000000000E+00  0.16057802052E+03  0.16058304261E+03  0.12700000000E+01 0. -1.
         21   -1    0    0  501  502  0.00000000000E+00 -0.00000000000E+00 -0.36304842631E+02  0.36304842631E+02  0.00000000000E+00 0. -1.
         25    2    1    2    0    0 -0.15547591301E+02  0.19164453908E+02  0.97378411507E+02  0.16036467005E+03  0.12500107393E+03 0.  0.
    9000005    1    3    3    0    0 -0.15223780021E+01  0.60059921997E+02  0.10040744664E+03  0.11701353429E+03  0.10000000000E+01 0.  0.
    9000005    1    3    3    0    0 -0.14025213299E+02 -0.40895468088E+02 -0.30290351367E+01  0.43351135765E+02  0.10000000000E+01 0.  0.
          4    1    1    2  501    0  0.15547591301E+02 -0.19164453908E+02  0.26894766378E+02  0.36523215184E+02  0.12700000000E+01 0.  1.
<mgrwt>
<rscale>  1 0.12741378E+03</rscale>
<asrwt>0</asrwt>
<pdfrwt beam="2">  1       21 0.55853605E-02 0.12741378E+03</pdfrwt>
<pdfrwt beam="1">  1        4 0.24706405E-01 0.12741378E+03</pdfrwt>
<totfact> 0.13563221E+05</totfact>
</mgrwt>
</event>
<event>
 6    4  0.6093247E-003  0.1265976E+03  0.7818608E-02  0.1232593E+00
         -4   -1    0    0    0  501 -0.00000000000E+00  0.00000000000E+00  0.21116343599E+03  0.21116725503E+03  0.12700000000E+01 0.  1.
         21   -1    0    0  501  502  0.00000000000E+00 -0.00000000000E+00 -0.40906866784E+02  0.40906866784E+02  0.00000000000E+00 0.  1.
         25    2    1    2    0    0 -0.18227468618E+02  0.83668697720E+01  0.18706401676E+03  0.22587587159E+03  0.12499887150E+03 0.  0.
    9000005    1    3    3    0    0  0.16970545454E+02  0.81557403915E+01 -0.12893169060E+02  0.22841832736E+02  0.10000000000E+01 0.  0.
    9000005    1    3    3    0    0 -0.35198014072E+02  0.21112938047E+00  0.19995718582E+03  0.20303403885E+03  0.10000000000E+01 0.  0.
         -4    1    1    2    0  502  0.18227468618E+02 -0.83668697720E+01 -0.16807447554E+02  0.26198250234E+02  0.12700000000E+01 0. -1.
<mgrwt>
<rscale>  1 0.12659764E+03</rscale>
<asrwt>0</asrwt>
<pdfrwt beam="2">  1       21 0.62933643E-02 0.12659764E+03</pdfrwt>
<pdfrwt beam="1">  1       -4 0.32488492E-01 0.12659764E+03</pdfrwt>
<totfact> 0.66278254E+04</totfact>
</mgrwt>
</event>
<event>
 6    4  0.6093247E-003  0.1279545E+03  0.7818608E-02  0.1230523E+00
         -4   -1    0    0    0  501 -0.00000000000E+00  0.00000000000E+00  0.31061956723E+02  0.31087908509E+02  0.12700000000E+01 0.  1.
         21   -1    0    0  501  502  0.00000000000E+00 -0.00000000000E+00 -0.20715118649E+03  0.20715118649E+03  0.00000000000E+00 0.  1.
         25    2    1    2    0    0  0.12320575006E+02  0.24389965408E+02 -0.11811981772E+03  0.17413969864E+03  0.12500270526E+03 0.  0.
    9000005    1    3    3    0    0  0.23285925275E+02 -0.14739160907E+02 -0.12911737468E+03  0.13202944226E+03  0.10000000000E+01 0.  0.
    9000005    1    3    3    0    0 -0.10965350270E+02  0.39129126315E+02  0.10997556960E+02  0.42110256373E+02  0.10000000000E+01 0.  0.
         -4    1    1    2    0  502 -0.12320575006E+02 -0.24389965408E+02 -0.57969412047E+02  0.64099396364E+02  0.12700000000E+01 0. -1.
<mgrwt>
<rscale>  1 0.12795446E+03</rscale>
<asrwt>0</asrwt>
<pdfrwt beam="2">  1       21 0.31869415E-01 0.12795446E+03</pdfrwt>
<pdfrwt beam="1">  1       -4 0.47810581E-02 0.12795446E+03</pdfrwt>
<totfact> 0.97641485E+04</totfact>
</mgrwt>
</event>
<event>
 6    4  0.6093247E-003  0.1266042E+03  0.7818608E-02  0.1232583E+00
         21   -1    0    0  501  502  0.00000000000E+00  0.00000000000E+00  0.10495876632E+03  0.10495876632E+03  0.00000000000E+00 0.  1.
         -4   -1    0    0    0  501 -0.00000000000E+00 -0.00000000000E+00 -0.73548371677E+02  0.73559335752E+02  0.12700000000E+01 0.  1.
         25    2    1    2    0    0  0.19090632685E+02 -0.62537496475E+01 -0.15424986025E+02  0.12754038710E+03  0.12500023403E+03 0.  0.
    9000005    1    3    3    0    0  0.33229146458E+02  0.17151347334E+02 -0.62645847436E+02  0.72964697564E+02  0.10000000000E+01 0.  0.
    9000005    1    3    3    0    0 -0.14138513773E+02 -0.23405096981E+02  0.47220861411E+02  0.54575689541E+02  0.10000000000E+01 0.  0.
         -4    1    1    2    0  502 -0.19090632685E+02  0.62537496475E+01  0.46835380666E+02  0.50977714966E+02  0.12700000000E+01 0. -1.
<mgrwt>
<rscale>  1 0.12660419E+03</rscale>
<asrwt>0</asrwt>
<pdfrwt beam="1">  1       21 0.16147503E-01 0.12660419E+03</pdfrwt>
<pdfrwt beam="2">  1       -4 0.11316568E-01 0.12660419E+03</pdfrwt>
<totfact> 0.84302396E+04</totfact>
</mgrwt>
</event>
<event>
 6    4  0.6093247E-003  0.1298180E+03  0.7818608E-02  0.1227726E+00
         21   -1    0    0  501  502  0.00000000000E+00  0.00000000000E+00  0.10981353685E+02  0.10981353685E+02  0.00000000000E+00 0. -1.
          4   -1    0    0  502    0 -0.00000000000E+00 -0.00000000000E+00 -0.93353276483E+03  0.93353362870E+03  0.12700000000E+01 0.  1.
         25    2    1    2    0    0  0.11373757322E+02 -0.33123276720E+02 -0.87937830348E+03  0.88890883217E+03  0.12500478974E+03 0.  0.
    9000005    1    3    3    0    0  0.30037830816E+02 -0.49837647660E+02 -0.18197395849E+03  0.19105387715E+03  0.10000000000E+01 0.  0.
    9000005    1    3    3    0    0 -0.18664073494E+02  0.16714370940E+02 -0.69740434499E+03  0.69785495502E+03  0.10000000000E+01 0.  0.
          4    1    1    2  501    0 -0.11373757322E+02  0.33123276720E+02 -0.43173107664E+02  0.55606150214E+02  0.12700000000E+01 0. -1.
<mgrwt>
<rscale>  1 0.12981799E+03</rscale>
<asrwt>0</asrwt>
<pdfrwt beam="1">  1       21 0.16894396E-02 0.12981799E+03</pdfrwt>
<pdfrwt beam="2">  1        4 0.14362609E+00 0.12981799E+03</pdfrwt>
<totfact> 0.23252307E+04</totfact>
</mgrwt>
</event>
<event>
 6    4  0.6093247E-003  0.1300980E+03  0.7818608E-02  0.1227310E+00
         21   -1    0    0  501  502  0.00000000000E+00  0.00000000000E+00  0.40306465069E+02  0.40306465069E+02  0.00000000000E+00 0.  1.
          4   -1    0    0  502    0 -0.00000000000E+00 -0.00000000000E+00 -0.18944890939E+03  0.18945316616E+03  0.12700000000E+01 0.  1.
         25    2    1    2    0    0  0.29223452497E+02 -0.21173716695E+02 -0.82757728198E+02  0.15418926740E+03  0.12499260839E+03 0.  0.
    9000005    1    3    3    0    0  0.18877985671E+02  0.51592556218E+02 -0.23450583006E+02  0.59741945428E+02  0.10000000000E+01 0.  0.
    9000005    1    3    3    0    0  0.10345466826E+02 -0.72766272913E+02 -0.59307145192E+02  0.94447321976E+02  0.10000000000E+01 0.  0.
          4    1    1    2  501    0 -0.29223452497E+02  0.21173716695E+02 -0.66384716124E+02  0.75570363830E+02  0.12700000000E+01 0. -1.
<mgrwt>
<rscale>  1 0.13009800E+03</rscale>
<asrwt>0</asrwt>
<pdfrwt beam="1">  1       21 0.62009946E-02 0.13009800E+03</pdfrwt>
<pdfrwt beam="2">  1        4 0.29147853E-01 0.13009800E+03</pdfrwt>
<totfact> 0.83791996E+04</totfact>
</mgrwt>
</event>
<event>
 6    4  0.6093247E-003  0.1274503E+03  0.7818608E-02  0.1231289E+00
          4   -1    0    0  502    0 -0.00000000000E+00  0.00000000000E+00  0.92446623872E+02  0.92455346873E+02  0.12700000000E+01 0. -1.
         21   -1    0    0  501  502  0.00000000000E+00 -0.00000000000E+00 -0.97450237938E+02  0.97450237938E+02  0.00000000000E+00 0.  1.
         25    2    1    2    0    0  0.15195929409E+02 -0.19693690048E+02  0.44085134598E+02  0.13485946012E+03  0.12499926877E+03 0.  0.
    9000005    1    3    3    0    0 -0.28762227510E+02 -0.60782722206E+02  0.22117876661E+02  0.70795519054E+02  0.10000000000E+01 0.  0.
    9000005    1    3    3    0    0  0.43958156919E+02  0.41089032158E+02  0.21967257937E+02  0.64063941064E+02  0.10000000000E+01 0.  0.
          4    1    1    2  501    0 -0.15195929409E+02  0.19693690048E+02 -0.49088748664E+02  0.55046124693E+02  0.12700000000E+01 0.  1.
<mgrwt>
<rscale>  1 0.12745028E+03</rscale>
<asrwt>0</asrwt>
<pdfrwt beam="2">  1       21 0.14992344E-01 0.12745028E+03</pdfrwt>
<pdfrwt beam="1">  1        4 0.14223865E-01 0.12745028E+03</pdfrwt>
<totfact> 0.65164182E+04</totfact>
</mgrwt>
</event>
<event>
 6    4  0.6093247E-003  0.1275655E+03  0.7818608E-02  0.1231113E+00
          4   -1    0    0  502    0 -0.00000000000E+00  0.00000000000E+00  0.31714778862E+02  0.31740196885E+02  0.12700000000E+01 0. -1.
         21   -1    0    0  501  502  0.00000000000E+00 -0.00000000000E+00 -0.24667735970E+03  0.24667735970E+03  0.00000000000E+00 0.  1.
         25    2    1    2    0    0  0.25374203863E+02  0.20250917366E+01 -0.10406300231E+03  0.16462704452E+03  0.12500001648E+03 0.  0.
    9000005    1    3    3    0    0  0.34627297318E+02  0.59695960516E+02 -0.52660421857E+02  0.86814615427E+02  0.10000000000E+01 0.  0.
    9000005    1    3    3    0    0 -0.92530934552E+01 -0.57670868780E+02 -0.51402580456E+02  0.77812429096E+02  0.10000000000E+01 0.  0.
          4    1    1    2  501    0 -0.25374203863E+02 -0.20250917366E+01 -0.11089957853E+03  0.11379051206E+03  0.12700000000E+01 0.  1.
<mgrwt>
<rscale>  1 0.12756549E+03</rscale>
<asrwt>0</asrwt>
<pdfrwt beam="2">  1       21 0.37950365E-01 0.12756549E+03</pdfrwt>
<pdfrwt beam="1">  1        4 0.48814032E-02 0.12756549E+03</pdfrwt>
<totfact> 0.67014924E+04</totfact>
</mgrwt>
</event>
<event>
 6    4  0.6093247E-003  0.1353147E+03  0.7818608E-02  0.1219776E+00
         21   -1    0    0  501  502  0.00000000000E+00  0.00000000000E+00  0.61454302188E+02  0.61454302188E+02  0.00000000000E+00 0.  1.
         -4   -1    0    0    0  501 -0.00000000000E+00 -0.00000000000E+00 -0.28975159956E+03  0.28975438279E+03  0.12700000000E+01 0. -1.
         25    2    1    2    0    0  0.50585191474E+02 -0.11220616941E+02 -0.25810059830E+03  0.29142061353E+03  0.12500116522E+03 0.  0.
    9000005    1    3    3    0    0  0.81460540255E+02 -0.41394109354E+02 -0.18909750784E+03  0.21001942620E+03  0.10000000000E+01 0.  0.
    9000005    1    3    3    0    0 -0.30875348782E+02  0.30173492413E+02 -0.69003090461E+02  0.81401187337E+02  0.10000000000E+01 0.  0.
         -4    1    1    2    0  502 -0.50585191474E+02  0.11220616941E+02  0.29803300930E+02  0.59788071447E+02  0.12700000000E+01 0.  1.
<mgrwt>
<rscale>  1 0.13531465E+03</rscale>
<asrwt>0</asrwt>
<pdfrwt beam="1">  1       21 0.94545080E-02 0.13531465E+03</pdfrwt>
<pdfrwt beam="2">  1       -4 0.44578393E-01 0.13531465E+03</pdfrwt>
<totfact> 0.17877009E+04</totfact>
</mgrwt>
</event>
<event>
 6    4  0.6093247E-003  0.1422839E+03  0.7818608E-02  0.1210288E+00
         21   -1    0    0  501  502  0.00000000000E+00  0.00000000000E+00  0.54089121882E+02  0.54089121882E+02  0.00000000000E+00 0. -1.
         -4   -1    0    0    0  501 -0.00000000000E+00 -0.00000000000E+00 -0.21704807140E+03  0.21705178690E+03  0.12700000000E+01 0. -1.
         25    2    1    2    0    0  0.17656387225E+02  0.65730975549E+02 -0.77956568151E+02  0.16224037208E+03  0.12494960048E+03 0.  0.
    9000005    1    3    3    0    0 -0.16014650543E+02  0.25975933092E+02 -0.10081683860E+03  0.10533875392E+03  0.10000000000E+01 0.  0.
    9000005    1    3    3    0    0  0.33671037768E+02  0.39755042457E+02  0.22860270445E+02  0.56901618167E+02  0.10000000000E+01 0.  0.
         -4    1    1    2    0  502 -0.17656387225E+02 -0.65730975549E+02 -0.85002381363E+02  0.10890053670E+03  0.12700000000E+01 0.  1.
<mgrwt>
<rscale>  1 0.14228391E+03</rscale>
<asrwt>0</asrwt>
<pdfrwt beam="1">  1       21 0.83214034E-02 0.14228391E+03</pdfrwt>
<pdfrwt beam="2">  1       -4 0.33393443E-01 0.14228391E+03</pdfrwt>
<totfact> 0.39514269E+04</totfact>
</mgrwt>
</event>
<event>
 6    4  0.6093247E-003  0.1379699E+03  0.7818608E-02  0.1216087E+00
         21   -1    0    0  501  502  0.00000000000E+00  0.00000000000E+00  0.17281931954E+03  0.17281931954E+03  0.00000000000E+00 0. -1.
         -4   -1    0    0    0  501 -0.00000000000E+00 -0.00000000000E+00 -0.59686436850E+02  0.59699946766E+02  0.12700000000E+01 0.  1.
         25    2    1    2    0    0 -0.58174180644E+02  0.47294980886E+01  0.10541410507E+03  0.17363127200E+03  0.12501632542E+03 0.  0.
    9000005    1    3    3    0    0  0.10095827094E+01 -0.40367673741E+02  0.88553542905E+02  0.97330870239E+02  0.10000000000E+01 0.  0.
    9000005    1    3    3    0    0 -0.59183763353E+02  0.45097171829E+02  0.16860562167E+02  0.76300401757E+02  0.10000000000E+01 0.  0.
         -4    1    1    2    0  502  0.58174180644E+02 -0.47294980886E+01  0.77187776166E+01  0.58887994308E+02  0.12700000000E+01 0. -1.
<mgrwt>
<rscale>  1 0.13796987E+03</rscale>
<asrwt>0</asrwt>
<pdfrwt beam="1">  1       21 0.26587587E-01 0.13796987E+03</pdfrwt>
<pdfrwt beam="2">  1       -4 0.91839270E-02 0.13796987E+03</pdfrwt>
<totfact> 0.47997164E+04</totfact>
</mgrwt>
</event>
<event>
 6    4  0.6093247E-003  0.1343737E+03  0.7818608E-02  0.1221107E+00
         21   -1    0    0  501  502  0.00000000000E+00  0.00000000000E+00  0.49596200256E+02  0.49596200256E+02  0.00000000000E+00 0.  1.
          4   -1    0    0  502    0 -0.00000000000E+00 -0.00000000000E+00 -0.56812280296E+03  0.56812422246E+03  0.12700000000E+01 0. -1.
         25    2    1    2    0    0  0.47972520839E+02 -0.11404185566E+02 -0.54528938858E+03  0.56160199604E+03  0.12499946581E+03 0.  0.
    9000005    1    3    3    0    0  0.62136543788E+01 -0.15733478834E+01  0.58854580745E+01  0.87591975116E+01  0.10000000000E+01 0.  0.
    9000005    1    3    3    0    0  0.41758866461E+02 -0.98308376823E+01 -0.55117484666E+03  0.55284279853E+03  0.10000000000E+01 0.  0.
          4    1    1    2  501    0 -0.47972520839E+02  0.11404185566E+02  0.26762785880E+02  0.56118426672E+02  0.12700000000E+01 0.  1.
<mgrwt>
<rscale>  1 0.13437368E+03</rscale>
<asrwt>0</asrwt>
<pdfrwt beam="1">  1       21 0.76301848E-02 0.13437368E+03</pdfrwt>
<pdfrwt beam="2">  1        4 0.87404866E-01 0.13437368E+03</pdfrwt>
<totfact> 0.62265585E+03</totfact>
</mgrwt>
</event>
<event>
 6    4  0.6093247E-003  0.1303300E+03  0.7818608E-02  0.1226967E+00
         21   -1    0    0  501  502  0.00000000000E+00  0.00000000000E+00  0.45912348269E+02  0.45912348269E+02  0.00000000000E+00 0.  1.
         -4   -1    0    0    0  501 -0.00000000000E+00 -0.00000000000E+00 -0.16576914350E+03  0.16577400832E+03  0.12700000000E+01 0.  1.
         25    2    1    2    0    0 -0.36864198266E+02  0.13478195689E+01 -0.11617497801E+03  0.17459249713E+03  0.12500051523E+03 0.  0.
    9000005    1    3    3    0    0  0.46584255190E+02  0.33735553367E+01 -0.45517111554E+02  0.65224850720E+02  0.10000000000E+01 0.  0.
    9000005    1    3    3    0    0 -0.83448453457E+02 -0.20257357678E+01 -0.70657866459E+02  0.10936764641E+03  0.10000000000E+01 0.  0.
         -4    1    1    2    0  502  0.36864198266E+02 -0.13478195689E+01 -0.36818172133E+01  0.37093859457E+02  0.12700000000E+01 0. -1.
<mgrwt>
<rscale>  1 0.13033002E+03</rscale>
<asrwt>0</asrwt>
<pdfrwt beam="1">  1       21 0.70634384E-02 0.13033002E+03</pdfrwt>
<pdfrwt beam="2">  1       -4 0.25504670E-01 0.13033002E+03</pdfrwt>
<totfact> 0.86096523E+04</totfact>
</mgrwt>
</event>
<event>
 6    4  0.6093247E-003  0.1277734E+03  0.7818608E-02  0.1230798E+00
         21   -1    0    0  501  502  0.00000000000E+00  0.00000000000E+00  0.30904080159E+02  0.30904080159E+02  0.00000000000E+00 0. -1.
         -4   -1    0    0    0  501 -0.00000000000E+00 -0.00000000000E+00 -0.24622581798E+03  0.24622909320E+03  0.12700000000E+01 0. -1.
         25    2    1    2    0    0 -0.12038932571E+02  0.23578094643E+02 -0.21561082720E+03  0.25062734538E+03  0.12500070000E+03 0.  0.
    9000005    1    3    3    0    0 -0.17041210731E+02  0.74581709834E+02 -0.13019085392E+03  0.15100825391E+03  0.10000000000E+01 0.  0.
    9000005    1    3    3    0    0  0.50022781595E+01 -0.51003615191E+02 -0.85419973287E+02  0.99619091471E+02  0.10000000000E+01 0.  0.
         -4    1    1    2    0  502  0.12038932571E+02 -0.23578094643E+02  0.28908938177E+00  0.26505827984E+02  0.12700000000E+01 0.  1.
<mgrwt>
<rscale>  1 0.12777338E+03</rscale>
<asrwt>0</asrwt>
<pdfrwt beam="1">  1       21 0.47544736E-02 0.12777338E+03</pdfrwt>
<pdfrwt beam="2">  1       -4 0.37883156E-01 0.12777338E+03</pdfrwt>
<totfact> 0.79198523E+04</totfact>
</mgrwt>
</event>
<event>
 6    4  0.6093247E-003  0.1330107E+03  0.7818608E-02  0.1223056E+00
         -4   -1    0    0    0  501 -0.00000000000E+00  0.00000000000E+00  0.51308016717E+03  0.51308173895E+03  0.12700000000E+01 0.  1.
         21   -1    0    0  501  502  0.00000000000E+00 -0.00000000000E+00 -0.49277476507E+02  0.49277476507E+02  0.00000000000E+00 0. -1.
         25    2    1    2    0    0  0.97529055077E+01 -0.44403496473E+02  0.49145257099E+03  0.50913404803E+03  0.12500023866E+03 0.  0.
    9000005    1    3    3    0    0 -0.77229598682E+01 -0.76279715659E+02  0.18117174218E+03  0.19672935544E+03  0.10000000000E+01 0.  0.
    9000005    1    3    3    0    0  0.17475865376E+02  0.31876219187E+02  0.31028082882E+03  0.31240469259E+03  0.10000000000E+01 0.  0.
         -4    1    1    2    0  502 -0.97529055077E+01  0.44403496473E+02 -0.27649880331E+02  0.53225167422E+02  0.12700000000E+01 0. -1.
<mgrwt>
<rscale>  1 0.13301071E+03</rscale>
<asrwt>0</asrwt>
<pdfrwt beam="2">  1       21 0.75811506E-02 0.13301071E+03</pdfrwt>
<pdfrwt beam="1">  1       -4 0.78936786E-01 0.13301071E+03</pdfrwt>
<totfact> 0.78921223E+03</totfact>
</mgrwt>
</event>
<event>
 6    4  0.6093247E-003  0.1322298E+03  0.7818608E-02  0.1224184E+00
         21   -1    0    0  501  502  0.00000000000E+00  0.00000000000E+00  0.48967743242E+03  0.48967743242E+03  0.00000000000E+00 0. -1.
         -4   -1    0    0    0  501 -0.00000000000E+00 -0.00000000000E+00 -0.20193782748E+02  0.20233678896E+02  0.12700000000E+01 0. -1.
         25    2    1    2    0    0  0.37781575584E+02  0.20685902637E+02  0.21958768994E+03  0.25632688938E+03  0.12501746529E+03 0.  0.
    9000005    1    3    3    0    0  0.51092176996E+02 -0.28731687081E+02  0.43641138062E+02  0.73085356427E+02  0.10000000000E+01 0.  0.
    9000005    1    3    3    0    0 -0.13310601411E+02  0.49417589718E+02  0.17594655188E+03  0.18324153296E+03  0.10000000000E+01 0.  0.
         -4    1    1    2    0  502 -0.37781575584E+02 -0.20685902637E+02  0.24989595973E+03  0.25358422193E+03  0.12700000000E+01 0.  1.
<mgrwt>
<rscale>  1 0.13222980E+03</rscale>
<asrwt>0</asrwt>
<pdfrwt beam="1">  1       21 0.75334981E-01 0.13222980E+03</pdfrwt>
<pdfrwt beam="2">  1       -4 0.31099318E-02 0.13222980E+03</pdfrwt>
<totfact> 0.32815286E+04</totfact>
</mgrwt>
</event>
<event>
 6    4  0.6093247E-003  0.1479751E+03  0.7818608E-02  0.1202983E+00
          4   -1    0    0  502    0 -0.00000000000E+00  0.00000000000E+00  0.15624776305E+04  0.15624781467E+04  0.12700000000E+01 0. -1.
         21   -1    0    0  501  502  0.00000000000E+00 -0.00000000000E+00 -0.20878385051E+02  0.20878385051E+02  0.00000000000E+00 0.  1.
         25    2    1    2    0    0  0.10691897849E+02  0.78465797140E+02  0.14673560140E+04  0.14747983984E+04  0.12500178368E+03 0.  0.
    9000005    1    3    3    0    0 -0.46468833055E+02  0.44394626561E+02  0.10682193491E+04  0.10701513038E+04  0.10000000000E+01 0.  0.
    9000005    1    3    3    0    0  0.57160730904E+02  0.34071170579E+02  0.39913666495E+03  0.40464709455E+03  0.10000000000E+01 0.  0.
          4    1    1    2  501    0 -0.10691897849E+02 -0.78465797140E+02  0.74243231456E+02  0.10855813335E+03  0.12700000000E+01 0.  1.
<mgrwt>
<rscale>  1 0.14797515E+03</rscale>
<asrwt>0</asrwt>
<pdfrwt beam="2">  1       21 0.32120605E-02 0.14797515E+03</pdfrwt>
<pdfrwt beam="1">  1        4 0.24038409E+00 0.14797515E+03</pdfrwt>
<totfact> 0.19547376E+03</totfact>
</mgrwt>
</event>
<event>
 6    4  0.6093247E-003  0.1278081E+03  0.7818608E-02  0.1230745E+00
         21   -1    0    0  501  502  0.00000000000E+00  0.00000000000E+00  0.74623544170E+01  0.74623544170E+01  0.00000000000E+00 0. -1.
         -4   -1    0    0    0  501 -0.00000000000E+00 -0.00000000000E+00 -0.94925849756E+03  0.94925934712E+03  0.12700000000E+01 0. -1.
         25    2    1    2    0    0 -0.26061665865E+02 -0.54877648839E+01 -0.88249565467E+03  0.89170257493E+03  0.12500230253E+03 0.  0.
    9000005    1    3    3    0    0 -0.74492247545E+01  0.27087423454E+02 -0.80605893662E+03  0.80654896241E+03  0.10000000000E+01 0.  0.
    9000005    1    3    3    0    0 -0.18612441110E+02 -0.32575188337E+02 -0.76436718050E+02  0.85153612522E+02  0.10000000000E+01 0.  0.
         -4    1    1    2    0  502  0.26061665865E+02  0.54877648839E+01 -0.59300488472E+02  0.65019126602E+02  0.12700000000E+01 0.  1.
<mgrwt>
<rscale>  1 0.12780807E+03</rscale>
<asrwt>0</asrwt>
<pdfrwt beam="1">  1       21 0.11480553E-02 0.12780807E+03</pdfrwt>
<pdfrwt beam="2">  1       -4 0.14604805E+00 0.12780807E+03</pdfrwt>
<totfact> 0.41173350E+04</totfact>
</mgrwt>
</event>
<event>
 6    4  0.6093247E-003  0.1358543E+03  0.7818608E-02  0.1219019E+00
         21   -1    0    0  501  502  0.00000000000E+00  0.00000000000E+00  0.32137991705E+02  0.32137991705E+02  0.00000000000E+00 0. -1.
         -4   -1    0    0    0  501 -0.00000000000E+00 -0.00000000000E+00 -0.68202379416E+03  0.68202497659E+03  0.12700000000E+01 0.  1.
         25    2    1    2    0    0 -0.52119648086E+02 -0.10828606860E+02 -0.64670469248E+03  0.66082021993E+03  0.12499074901E+03 0.  0.
    9000005    1    3    3    0    0 -0.57483684433E+02 -0.41850752186E+02 -0.60170142007E+03  0.60588898187E+03  0.10000000000E+01 0.  0.
    9000005    1    3    3    0    0  0.53640363477E+01  0.31022145327E+02 -0.45003272413E+02  0.54931238057E+02  0.10000000000E+01 0.  0.
         -4    1    1    2    0  502  0.52119648086E+02  0.10828606860E+02 -0.31811099675E+01  0.53342748371E+02  0.12700000000E+01 0. -1.
<mgrwt>
<rscale>  1 0.13585435E+03</rscale>
<asrwt>0</asrwt>
<pdfrwt beam="1">  1       21 0.49443071E-02 0.13585435E+03</pdfrwt>
<pdfrwt beam="2">  1       -4 0.10492874E+00 0.13585435E+03</pdfrwt>
<totfact> 0.85745485E+03</totfact>
</mgrwt>
</event>
<event>
 6    4  0.6093247E-003  0.1370219E+03  0.7818608E-02  0.1217393E+00
         21   -1    0    0  501  502  0.00000000000E+00  0.00000000000E+00  0.26209689617E+03  0.26209689617E+03  0.00000000000E+00 0.  1.
         -4   -1    0    0    0  501 -0.00000000000E+00 -0.00000000000E+00 -0.49748441950E+02  0.49764649867E+02  0.12700000000E+01 0. -1.
         25    2    1    2    0    0 -0.36151246485E+02  0.42945561442E+02  0.60163475410E+02  0.14964836980E+03  0.12499502766E+03 0.  0.
    9000005    1    3    3    0    0  0.26673220587E+02  0.20139199682E+02 -0.24736515595E+02  0.41592586648E+02  0.10000000000E+01 0.  0.
    9000005    1    3    3    0    0 -0.62824467072E+02  0.22806361760E+02  0.84899991004E+02  0.10805578315E+03  0.10000000000E+01 0.  0.
         -4    1    1    2    0  502  0.36151246485E+02 -0.42945561442E+02  0.15218497881E+03  0.16221317624E+03  0.12700000000E+01 0.  1.
<mgrwt>
<rscale>  1 0.13702186E+03</rscale>
<asrwt>0</asrwt>
<pdfrwt beam="1">  1       21 0.40322599E-01 0.13702186E+03</pdfrwt>
<pdfrwt beam="2">  1       -4 0.76550900E-02 0.13702186E+03</pdfrwt>
<totfact> 0.28784953E+04</totfact>
</mgrwt>
</event>
<event>
 6    4  0.6093247E-003  0.1271725E+03  0.7818608E-02  0.1231713E+00
         -4   -1    0    0    0  501 -0.00000000000E+00  0.00000000000E+00  0.30941763304E+02  0.30967815815E+02  0.12700000000E+01 0. -1.
         21   -1    0    0  501  502  0.00000000000E+00 -0.00000000000E+00 -0.19382685620E+03  0.19382685620E+03  0.00000000000E+00 0. -1.
         25    2    1    2    0    0  0.45738791417E+01  0.22990200616E+02 -0.15393362567E+03  0.19967075194E+03  0.12499351332E+03 0.  0.
    9000005    1    3    3    0    0  0.52819184901E+02  0.10335005681E+02 -0.21169493604E+02  0.57843116233E+02  0.10000000000E+01 0.  0.
    9000005    1    3    3    0    0 -0.48245305760E+02  0.12655194934E+02 -0.13276413206E+03  0.14182763570E+03  0.10000000000E+01 0.  0.
         -4    1    1    2    0  502 -0.45738791417E+01 -0.22990200616E+02 -0.89514672342E+01  0.25123920084E+02  0.12700000000E+01 0.  1.
<mgrwt>
<rscale>  1 0.12717251E+03</rscale>
<asrwt>0</asrwt>
<pdfrwt beam="2">  1       21 0.29819517E-01 0.12717251E+03</pdfrwt>
<pdfrwt beam="1">  1       -4 0.47625953E-02 0.12717251E+03</pdfrwt>
<totfact> 0.11164076E+05</totfact>
</mgrwt>
</event>
<event>
 6    4  0.6093247E-003  0.1282319E+03  0.7818608E-02  0.1230103E+00
          4   -1    0    0  502    0 -0.00000000000E+00  0.00000000000E+00  0.14465961100E+02  0.14521602203E+02  0.12700000000E+01 0.  1.
         21   -1    0    0  501  502  0.00000000000E+00 -0.00000000000E+00 -0.75312305544E+03  0.75312305544E+03  0.00000000000E+00 0. -1.
         25    2    1    2    0    0  0.26919672469E+02  0.96178234179E+01 -0.27855251431E+03  0.30665115578E+03  0.12500502718E+03 0.  0.
    9000005    1    3    3    0    0 -0.38279475146E+02  0.11796433074E+02 -0.31042085203E+02  0.50686143122E+02  0.10000000000E+01 0.  0.
    9000005    1    3    3    0    0  0.65199147615E+02 -0.21786096561E+01 -0.24751042910E+03  0.25596501266E+03  0.10000000000E+01 0.  0.
          4    1    1    2  501    0 -0.26919672469E+02 -0.96178234179E+01 -0.46010458003E+03  0.46099350186E+03  0.12700000000E+01 0. -1.
<mgrwt>
<rscale>  1 0.12823193E+03</rscale>
<asrwt>0</asrwt>
<pdfrwt beam="2">  1       21 0.11586509E+00 0.12823193E+03</pdfrwt>
<pdfrwt beam="1">  1        4 0.22298949E-02 0.12823193E+03</pdfrwt>
<totfact> 0.20329748E+04</totfact>
</mgrwt>
</event>
<event>
 6    4  0.6093247E-003  0.1314229E+03  0.7818608E-02  0.1225360E+00
         21   -1    0    0  501  502  0.00000000000E+00  0.00000000000E+00  0.26971390545E+03  0.26971390545E+03  0.00000000000E+00 0. -1.
          4   -1    0    0  502    0 -0.00000000000E+00 -0.00000000000E+00 -0.14655802139E+03  0.14656352388E+03  0.12700000000E+01 0.  1.
         25    2    1    2    0    0  0.40489495937E+02  0.30351736185E+01 -0.11502914766E+03  0.17465306426E+03  0.12499350577E+03 0.  0.
    9000005    1    3    3    0    0  0.24528606393E+02  0.27781888273E+02  0.15980084110E+02  0.40371387588E+02  0.10000000000E+01 0.  0.
    9000005    1    3    3    0    0  0.15960889543E+02 -0.24746714655E+02 -0.13100923177E+03  0.13428167667E+03  0.10000000000E+01 0.  0.
          4    1    1    2  501    0 -0.40489495937E+02 -0.30351736185E+01  0.23818503172E+03  0.24162436507E+03  0.12700000000E+01 0. -1.
<mgrwt>
<rscale>  1 0.13142294E+03</rscale>
<asrwt>0</asrwt>
<pdfrwt beam="1">  1       21 0.41494447E-01 0.13142294E+03</pdfrwt>
<pdfrwt beam="2">  1        4 0.22548041E-01 0.13142294E+03</pdfrwt>
<totfact> 0.41871559E+03</totfact>
</mgrwt>
</event>
<event>
 6    4  0.6093247E-003  0.1278956E+03  0.7818608E-02  0.1230612E+00
         21   -1    0    0  501  502  0.00000000000E+00  0.00000000000E+00  0.65119993918E+02  0.65119993918E+02  0.00000000000E+00 0. -1.
         -4   -1    0    0    0  501 -0.00000000000E+00 -0.00000000000E+00 -0.99541787140E+02  0.99549888433E+02  0.12700000000E+01 0. -1.
         25    2    1    2    0    0 -0.13068888465E+02  0.23693338970E+02 -0.45011479243E+02  0.13558510098E+03  0.12500046475E+03 0.  0.
    9000005    1    3    3    0    0 -0.26846788580E+01  0.14083843739E+02  0.43567940244E+02  0.45877309992E+02  0.10000000000E+01 0.  0.
    9000005    1    3    3    0    0 -0.10384209607E+02  0.96094952317E+01 -0.88579419487E+02  0.89707790990E+02  0.10000000000E+01 0.  0.
         -4    1    1    2    0  502  0.13068888465E+02 -0.23693338970E+02  0.10589686021E+02  0.29084781369E+02  0.12700000000E+01 0.  1.
<mgrwt>
<rscale>  1 0.12789561E+03</rscale>
<asrwt>0</asrwt>
<pdfrwt beam="1">  1       21 0.10018461E-01 0.12789561E+03</pdfrwt>
<pdfrwt beam="2">  1       -4 0.15315697E-01 0.12789561E+03</pdfrwt>
<totfact> 0.11721009E+05</totfact>
</mgrwt>
</event>
<event>
 6    4  0.6093247E-003  0.1295460E+03  0.7818608E-02  0.1228131E+00
         -4   -1    0    0    0  501 -0.00000000000E+00  0.00000000000E+00  0.69224186545E+03  0.69224303043E+03  0.12700000000E+01 0.  1.
         21   -1    0    0  501  502  0.00000000000E+00 -0.00000000000E+00 -0.10863435985E+02  0.10863435985E+02  0.00000000000E+00 0.  1.
         25    2    1    2    0    0  0.33341132891E+02  0.67882876896E+01  0.42014639828E+03  0.43966482390E+03  0.12499779758E+03 0.  0.
    9000005    1    3    3    0    0  0.72216022079E+02  0.33990941861E+02  0.22199564815E+03  0.23591016462E+03  0.10000000000E+01 0.  0.
    9000005    1    3    3    0    0 -0.38874889188E+02 -0.27202654171E+02  0.19815075013E+03  0.20375465928E+03  0.10000000000E+01 0.  0.
         -4    1    1    2    0  502 -0.33341132891E+02 -0.67882876896E+01  0.26123203119E+03  0.26344164252E+03  0.12700000000E+01 0. -1.
<mgrwt>
<rscale>  1 0.12954598E+03</rscale>
<asrwt>0</asrwt>
<pdfrwt beam="2">  1       21 0.16712984E-02 0.12954598E+03</pdfrwt>
<pdfrwt beam="1">  1       -4 0.10650451E+00 0.12954598E+03</pdfrwt>
<totfact> 0.48755725E+04</totfact>
</mgrwt>
</event>
<event>
 6    4  0.6093247E-003  0.1268667E+03  0.7818608E-02  0.1232180E+00
         21   -1    0    0  501  502  0.00000000000E+00  0.00000000000E+00  0.20209573300E+02  0.20209573300E+02  0.00000000000E+00 0. -1.
          4   -1    0    0  502    0 -0.00000000000E+00 -0.00000000000E+00 -0.36651471858E+03  0.36651691889E+03  0.12700000000E+01 0.  1.
         25    2    1    2    0    0 -0.21537644356E+02  0.25104619039E+01 -0.34174316301E+03  0.36453196301E+03  0.12499996019E+03 0.  0.
    9000005    1    3    3    0    0 -0.38091055345E+02 -0.17110023482E+02 -0.33550537470E+03  0.33809545671E+03  0.10000000000E+01 0.  0.
    9000005    1    3    3    0    0  0.16553410989E+02  0.19620485386E+02 -0.62377883185E+01  0.26436506299E+02  0.10000000000E+01 0.  0.
          4    1    1    2  501    0  0.21537644356E+02 -0.25104619039E+01 -0.45619822648E+01  0.22194529181E+02  0.12700000000E+01 0. -1.
<mgrwt>
<rscale>  1 0.12686671E+03</rscale>
<asrwt>0</asrwt>
<pdfrwt beam="1">  1       21 0.31091652E-02 0.12686671E+03</pdfrwt>
<pdfrwt beam="2">  1        4 0.56390117E-01 0.12686671E+03</pdfrwt>
<totfact> 0.71918416E+04</totfact>
</mgrwt>
</event>
<event>
 6    4  0.6093247E-003  0.1267996E+03  0.7818608E-02  0.1232283E+00
          4   -1    0    0  502    0 -0.00000000000E+00  0.00000000000E+00  0.33412740170E+02  0.33436867462E+02  0.12700000000E+01 0. -1.
         21   -1    0    0  501  502  0.00000000000E+00 -0.00000000000E+00 -0.23070512731E+03  0.23070512731E+03  0.00000000000E+00 0.  1.
         25    2    1    2    0    0 -0.19839387423E+02 -0.76670868764E+01 -0.91857388268E+02  0.15657556227E+03  0.12500296559E+03 0.  0.
    9000005    1    3    3    0    0 -0.67042416725E+02 -0.24339265104E+02 -0.75580740653E+02  0.10392561678E+03  0.10000000000E+01 0.  0.
    9000005    1    3    3    0    0  0.47203029302E+02  0.16672178227E+02 -0.16276647616E+02  0.52649945486E+02  0.10000000000E+01 0.  0.
          4    1    1    2  501    0  0.19839387423E+02  0.76670868764E+01 -0.10543499887E+03  0.10756643250E+03  0.12700000000E+01 0.  1.
<mgrwt>
<rscale>  1 0.12679955E+03</rscale>
<asrwt>0</asrwt>
<pdfrwt beam="2">  1       21 0.35493097E-01 0.12679955E+03</pdfrwt>
<pdfrwt beam="1">  1        4 0.51425463E-02 0.12679955E+03</pdfrwt>
<totfact> 0.70296383E+04</totfact>
</mgrwt>
</event>
<event>
 6    4  0.6093247E-003  0.1281290E+03  0.7818608E-02  0.1230259E+00
         21   -1    0    0  501  502  0.00000000000E+00  0.00000000000E+00  0.30012373471E+02  0.30012373471E+02  0.00000000000E+00 0.  1.
          4   -1    0    0  502    0 -0.00000000000E+00 -0.00000000000E+00 -0.22570093314E+03  0.22570450621E+03  0.12700000000E+01 0.  1.
         25    2    1    2    0    0 -0.27524066102E+02  0.58467185490E+01 -0.18613913958E+03  0.22597528159E+03  0.12500116110E+03 0.  0.
    9000005    1    3    3    0    0  0.35097676392E+02 -0.11055590827E+02 -0.14397427577E+03  0.14860573697E+03  0.10000000000E+01 0.  0.
    9000005    1    3    3    0    0 -0.62621742494E+02  0.16902309376E+02 -0.42164863803E+02  0.77369544620E+02  0.10000000000E+01 0.  0.
          4    1    1    2  501    0  0.27524066102E+02 -0.58467185490E+01 -0.95494200988E+01  0.29741598088E+02  0.12700000000E+01 0. -1.
<mgrwt>
<rscale>  1 0.12812903E+03</rscale>
<asrwt>0</asrwt>
<pdfrwt beam="1">  1       21 0.46172884E-02 0.12812903E+03</pdfrwt>
<pdfrwt beam="2">  1        4 0.34725561E-01 0.12812903E+03</pdfrwt>
<totfact> 0.98492651E+04</totfact>
</mgrwt>
</event>
<event>
 6    4  0.6093247E-003  0.1438118E+03  0.7818608E-02  0.1208290E+00
         21   -1    0    0  501  502  0.00000000000E+00  0.00000000000E+00  0.94242318004E+02  0.94242318004E+02  0.00000000000E+00 0. -1.
          4   -1    0    0  502    0 -0.00000000000E+00 -0.00000000000E+00 -0.14001591344E+03  0.14002167302E+03  0.12700000000E+01 0. -1.
         25    2    1    2    0    0 -0.67461000064E+02  0.22478030726E+02 -0.68920020489E+02  0.15947349505E+03  0.12500231200E+03 0.  0.
    9000005    1    3    3    0    0 -0.33642812905E+02 -0.50300810437E+02 -0.45959383644E+02  0.75995232323E+02  0.10000000000E+01 0.  0.
    9000005    1    3    3    0    0 -0.33818187158E+02  0.72778841163E+02 -0.22960636845E+02  0.83478262728E+02  0.10000000000E+01 0.  0.
          4    1    1    2  501    0  0.67461000064E+02 -0.22478030726E+02  0.23146425057E+02  0.74790495973E+02  0.12700000000E+01 0.  1.
<mgrwt>
<rscale>  1 0.14381177E+03</rscale>
<asrwt>0</asrwt>
<pdfrwt beam="1">  1       21 0.14498818E-01 0.14381177E+03</pdfrwt>
<pdfrwt beam="2">  1        4 0.21542011E-01 0.14381177E+03</pdfrwt>
<totfact> 0.33619608E+04</totfact>
</mgrwt>
</event>
<event>
 6    4  0.6093247E-003  0.1326512E+03  0.7818608E-02  0.1223574E+00
         21   -1    0    0  501  502  0.00000000000E+00  0.00000000000E+00  0.12635803267E+03  0.12635803267E+03  0.00000000000E+00 0. -1.
          4   -1    0    0  502    0 -0.00000000000E+00 -0.00000000000E+00 -0.73606448236E+02  0.73617403662E+02  0.12700000000E+01 0.  1.
         25    2    1    2    0    0 -0.11613444440E+02 -0.42842315878E+02  0.21727954799E+01  0.13266895140E+03  0.12500397395E+03 0.  0.
    9000005    1    3    3    0    0 -0.61056691514E+02 -0.53169063542E+02  0.98634046419E+01  0.81566878374E+02  0.10000000000E+01 0.  0.
    9000005    1    3    3    0    0  0.49443247074E+02  0.10326747663E+02 -0.76906091620E+01  0.51102073029E+02  0.10000000000E+01 0.  0.
          4    1    1    2  501    0  0.11613444440E+02  0.42842315878E+02  0.50578788958E+02  0.67306484933E+02  0.12700000000E+01 0. -1.
<mgrwt>
<rscale>  1 0.13265116E+03</rscale>
<asrwt>0</asrwt>
<pdfrwt beam="1">  1       21 0.19439697E-01 0.13265116E+03</pdfrwt>
<pdfrwt beam="2">  1        4 0.11325403E-01 0.13265116E+03</pdfrwt>
<totfact> 0.60334881E+04</totfact>
</mgrwt>
</event>
<event>
 6    4  0.6093247E-003  0.1277717E+03  0.7818608E-02  0.1230800E+00
          4   -1    0    0  502    0 -0.00000000000E+00  0.00000000000E+00  0.25683045069E+02  0.25714425991E+02  0.12700000000E+01 0. -1.
         21   -1    0    0  501  502  0.00000000000E+00 -0.00000000000E+00 -0.25335772750E+03  0.25335772750E+03  0.00000000000E+00 0. -1.
         25    2    1    2    0    0  0.73327612490E+01  0.25436704752E+02 -0.15022581106E+03  0.19721413059E+03  0.12499929464E+03 0.  0.
    9000005    1    3    3    0    0 -0.97960318503E+01  0.22806928433E+02 -0.16947973681E+03  0.17129068689E+03  0.10000000000E+01 0.  0.
    9000005    1    3    3    0    0  0.17128793099E+02  0.26297763189E+01  0.19253925753E+02  0.25923443703E+02  0.10000000000E+01 0.  0.
          4    1    1    2  501    0 -0.73327612490E+01 -0.25436704752E+02 -0.77448871371E+02  0.81858022899E+02  0.12700000000E+01 0.  1.
<mgrwt>
<rscale>  1 0.12777175E+03</rscale>
<asrwt>0</asrwt>
<pdfrwt beam="2">  1       21 0.38978111E-01 0.12777175E+03</pdfrwt>
<pdfrwt beam="1">  1        4 0.39538965E-02 0.12777175E+03</pdfrwt>
<totfact> 0.88940995E+04</totfact>
</mgrwt>
</event>
<event>
 6    4  0.6093247E-003  0.1309289E+03  0.7818608E-02  0.1226084E+00
         21   -1    0    0  501  502  0.00000000000E+00  0.00000000000E+00  0.47369417932E+02  0.47369417932E+02  0.00000000000E+00 0.  1.
          4   -1    0    0  502    0 -0.00000000000E+00 -0.00000000000E+00 -0.55644353254E+03  0.55644498184E+03  0.12700000000E+01 0. -1.
         25    2    1    2    0    0  0.29586894584E+02  0.25346768893E+02 -0.53899841080E+03  0.55467257006E+03  0.12499812043E+03 0.  0.
    9000005    1    3    3    0    0  0.61983133198E+02  0.56975809498E+02 -0.30947587407E+03  0.32072491063E+03  0.10000000000E+01 0.  0.
    9000005    1    3    3    0    0 -0.32396238614E+02 -0.31629040605E+02 -0.22952253673E+03  0.23394765943E+03  0.10000000000E+01 0.  0.
          4    1    1    2  501    0 -0.29586894584E+02 -0.25346768893E+02  0.29924296187E+02  0.49141829704E+02  0.12700000000E+01 0.  1.
<mgrwt>
<rscale>  1 0.13092889E+03</rscale>
<asrwt>0</asrwt>
<pdfrwt beam="1">  1       21 0.72876024E-02 0.13092889E+03</pdfrwt>
<pdfrwt beam="2">  1        4 0.85608122E-01 0.13092889E+03</pdfrwt>
<totfact> 0.70440213E+03</totfact>
</mgrwt>
</event>
<event>
 6    4  0.6093247E-003  0.1415874E+03  0.7818608E-02  0.1211209E+00
         -4   -1    0    0    0  501 -0.00000000000E+00  0.00000000000E+00  0.21925800626E+02  0.21962550696E+02  0.12700000000E+01 0. -1.
         21   -1    0    0  501  502  0.00000000000E+00 -0.00000000000E+00 -0.49403854701E+03  0.49403854701E+03  0.00000000000E+00 0. -1.
         25    2    1    2    0    0  0.58094900801E+02 -0.32354810802E+02 -0.31196159009E+03  0.34258870760E+03  0.12500055040E+03 0.  0.
    9000005    1    3    3    0    0  0.69020849105E+02 -0.54568127837E+02 -0.30413299572E+03  0.31660612324E+03  0.10000000000E+01 0.  0.
    9000005    1    3    3    0    0 -0.10925948304E+02  0.22213317035E+02 -0.78285943667E+01  0.25982584356E+02  0.10000000000E+01 0.  0.
         -4    1    1    2    0  502 -0.58094900801E+02  0.32354810802E+02 -0.16015115630E+03  0.17341239011E+03  0.12700000000E+01 0.  1.
<mgrwt>
<rscale>  1 0.14158739E+03</rscale>
<asrwt>0</asrwt>
<pdfrwt beam="2">  1       21 0.76005920E-01 0.14158739E+03</pdfrwt>
<pdfrwt beam="1">  1       -4 0.33761530E-02 0.14158739E+03</pdfrwt>
<totfact> 0.28450478E+04</totfact>
</mgrwt>
</event>
<event>
 6    4  0.6093247E-003  0.1293074E+03  0.7818608E-02  0.1228487E+00
         -4   -1    0    0    0  501 -0.00000000000E+00  0.00000000000E+00  0.98227309960E+03  0.98227392060E+03  0.12700000000E+01 0.  1.
         21   -1    0    0  501  502  0.00000000000E+00 -0.00000000000E+00 -0.16639628504E+02  0.16639628504E+02  0.00000000000E+00 0.  1.
         25    2    1    2    0    0  0.27927737396E+02  0.17741969371E+02  0.95560945087E+03  0.96431832003E+03  0.12500265501E+03 0.  0.
    9000005    1    3    3    0    0  0.60206660216E+02  0.14523000023E+02  0.87818706987E+03  0.88036883700E+03  0.10000000000E+01 0.  0.
    9000005    1    3    3    0    0 -0.32278922820E+02  0.32189693480E+01  0.77422380999E+02  0.83949483034E+02  0.10000000000E+01 0.  0.
         -4    1    1    2    0  502 -0.27927737396E+02 -0.17741969371E+02  0.10024020220E+02  0.34595229072E+02  0.12700000000E+01 0. -1.
<mgrwt>
<rscale>  1 0.12930738E+03</rscale>
<asrwt>0</asrwt>
<pdfrwt beam="2">  1       21 0.25599436E-02 0.12930738E+03</pdfrwt>
<pdfrwt beam="1">  1       -4 0.15112268E+00 0.12930738E+03</pdfrwt>
<totfact> 0.10439209E+04</totfact>
</mgrwt>
</event>
<event>
 6    4  0.6093247E-003  0.1269145E+03  0.7818608E-02  0.1232107E+00
         21   -1    0    0  501  502  0.00000000000E+00  0.00000000000E+00  0.11467121211E+03  0.11467121211E+03  0.00000000000E+00 0.  1.
          4   -1    0    0  502    0 -0.00000000000E+00 -0.00000000000E+00 -0.49623425177E+03  0.49623587690E+03  0.12700000000E+01 0. -1.
         25    2    1    2    0    0 -0.75548608809E+01  0.20638339337E+02 -0.48696446474E+03  0.50323123154E+03  0.12499706197E+03 0.  0.
    9000005    1    3    3    0    0  0.47008822421E+02 -0.13208595554E+02 -0.10371549153E+03  0.11463943285E+03  0.10000000000E+01 0.  0.
    9000005    1    3    3    0    0 -0.54563683302E+02  0.33846934891E+02 -0.38324897321E+03  0.38859179868E+03  0.10000000000E+01 0.  0.
          4    1    1    2  501    0  0.75548608809E+01 -0.20638339337E+02  0.10540142508E+03  0.10767585747E+03  0.12700000000E+01 0.  1.
<mgrwt>
<rscale>  1 0.12691447E+03</rscale>
<asrwt>0</asrwt>
<pdfrwt beam="1">  1       21 0.17641725E-01 0.12691447E+03</pdfrwt>
<pdfrwt beam="2">  1        4 0.76344397E-01 0.12691447E+03</pdfrwt>
<totfact> 0.18992951E+03</totfact>
</mgrwt>
</event>
<event>
 6    4  0.6093247E-003  0.1320644E+03  0.7818608E-02  0.1224424E+00
         21   -1    0    0  501  502  0.00000000000E+00  0.00000000000E+00  0.83414271305E+02  0.83414271305E+02  0.00000000000E+00 0. -1.
         -4   -1    0    0    0  501 -0.00000000000E+00 -0.00000000000E+00 -0.18012296900E+03  0.18012744617E+03  0.12700000000E+01 0.  1.
         25    2    1    2    0    0 -0.18665887175E+02  0.38304393622E+02 -0.14700211026E+03  0.19761234494E+03  0.12500150615E+03 0.  0.
    9000005    1    3    3    0    0  0.22794225295E+02  0.54695375785E+02 -0.19266809877E+02  0.62316697617E+02  0.10000000000E+01 0.  0.
    9000005    1    3    3    0    0 -0.41460112470E+02 -0.16390982163E+02 -0.12773530038E+03  0.13529564733E+03  0.10000000000E+01 0.  0.
         -4    1    1    2    0  502  0.18665887175E+02 -0.38304393622E+02  0.50293412560E+02  0.65929372526E+02  0.12700000000E+01 0. -1.
<mgrwt>
<rscale>  1 0.13206445E+03</rscale>
<asrwt>0</asrwt>
<pdfrwt beam="1">  1       21 0.12832965E-01 0.13206445E+03</pdfrwt>
<pdfrwt beam="2">  1       -4 0.27712314E-01 0.13206445E+03</pdfrwt>
<totfact> 0.26073047E+04</totfact>
</mgrwt>
</event>
<event>
 6    4  0.6093247E-003  0.1299898E+03  0.7818608E-02  0.1227471E+00
          4   -1    0    0  502    0 -0.00000000000E+00  0.00000000000E+00  0.22783451591E+03  0.22783805551E+03  0.12700000000E+01 0. -1.
         21   -1    0    0  501  502  0.00000000000E+00 -0.00000000000E+00 -0.32098202092E+02  0.32098202092E+02  0.00000000000E+00 0. -1.
         25    2    1    2    0    0  0.19157706824E+01  0.35653899438E+02  0.12328735157E+03  0.17915670726E+03  0.12498993551E+03 0.  0.
    9000005    1    3    3    0    0  0.30555519973E+02 -0.24449362500E+02  0.12364076796E+00  0.39146218394E+02  0.10000000000E+01 0.  0.
    9000005    1    3    3    0    0 -0.28639749291E+02  0.60103261938E+02  0.12316371080E+03  0.14001048887E+03  0.10000000000E+01 0.  0.
          4    1    1    2  501    0 -0.19157706824E+01 -0.35653899438E+02  0.72448962251E+02  0.80779550343E+02  0.12700000000E+01 0.  1.
<mgrwt>
<rscale>  1 0.12998983E+03</rscale>
<asrwt>0</asrwt>
<pdfrwt beam="2">  1       21 0.49381851E-02 0.12998983E+03</pdfrwt>
<pdfrwt beam="1">  1        4 0.35053668E-01 0.12998983E+03</pdfrwt>
<totfact> 0.86606417E+04</totfact>
</mgrwt>
</event>
<event>
 6    4  0.6093247E-003  0.2331727E+03  0.7818608E-02  0.1124426E+00
         21   -1    0    0  501  502  0.00000000000E+00  0.00000000000E+00  0.32487329392E+03  0.32487329392E+03  0.00000000000E+00 0. -1.
         -4   -1    0    0    0  501 -0.00000000000E+00 -0.00000000000E+00 -0.69900675026E+03  0.69900790397E+03  0.12700000000E+01 0.  1.
         25    2    1    2    0    0  0.15802137617E+01 -0.19684069420E+03 -0.64682022273E+03  0.68756521339E+03  0.12498306347E+03 0.  0.
    9000005    1    3    3    0    0  0.52484683553E+02 -0.34744327127E+02 -0.19120407396E+03  0.20130029353E+03  0.10000000000E+01 0.  0.
    9000005    1    3    3    0    0 -0.50904469792E+02 -0.16209636707E+03 -0.45561614877E+03  0.48626491985E+03  0.10000000000E+01 0.  0.
         -4    1    1    2    0  502 -0.15802137617E+01  0.19684069420E+03  0.27268676640E+03  0.33631598451E+03  0.12700000000E+01 0. -1.
<mgrwt>
<rscale>  1 0.23317273E+03</rscale>
<asrwt>0</asrwt>
<pdfrwt beam="1">  1       21 0.49980508E-01 0.23317273E+03</pdfrwt>
<pdfrwt beam="2">  1       -4 0.10753978E+00 0.23317273E+03</pdfrwt>
<totfact> 0.11453296E+02</totfact>
</mgrwt>
</event>
<event>
 6    4  0.6093247E-003  0.1538355E+03  0.7818608E-02  0.1195838E+00
         -4   -1    0    0    0  501 -0.00000000000E+00  0.00000000000E+00  0.11508016951E+04  0.11508023958E+04  0.12700000000E+01 0.  1.
         21   -1    0    0  501  502  0.00000000000E+00 -0.00000000000E+00 -0.12968508968E+02  0.12968508968E+02  0.00000000000E+00 0.  1.
         25    2    1    2    0    0 -0.82547419951E+02 -0.35021672202E+02  0.76372486045E+03  0.77906420317E+03  0.12499910451E+03 0.  0.
    9000005    1    3    3    0    0 -0.35932595012E+02  0.21845475415E+02  0.57471984114E+03  0.57625712314E+03  0.10000000000E+01 0.  0.
    9000005    1    3    3    0    0 -0.46614824939E+02 -0.56867147618E+02  0.18900501931E+03  0.20280708002E+03  0.10000000000E+01 0.  0.
         -4    1    1    2    0  502  0.82547419951E+02  0.35021672202E+02  0.37410832566E+03  0.38470670165E+03  0.12700000000E+01 0. -1.
<mgrwt>
<rscale>  1 0.15383553E+03</rscale>
<asrwt>0</asrwt>
<pdfrwt beam="2">  1       21 0.19951561E-02 0.15383553E+03</pdfrwt>
<pdfrwt beam="1">  1       -4 0.17705117E+00 0.15383553E+03</pdfrwt>
<totfact> 0.10473425E+04</totfact>
</mgrwt>
</event>
<event>
 6    4  0.6093247E-003  0.1268979E+03  0.7818608E-02  0.1232133E+00
         21   -1    0    0  501  502  0.00000000000E+00  0.00000000000E+00  0.64467772643E+03  0.64467772643E+03  0.00000000000E+00 0. -1.
         -4   -1    0    0    0  501 -0.00000000000E+00 -0.00000000000E+00 -0.86703910033E+01  0.87629093428E+01  0.12700000000E+01 0. -1.
         25    2    1    2    0    0  0.19769082656E+02  0.93724654426E+01  0.56744518193E+03  0.58146118364E+03  0.12499765536E+03 0.  0.
    9000005    1    3    3    0    0  0.13087818096E+02  0.52263842716E+02  0.48764274697E+03  0.49061109741E+03  0.10000000000E+01 0.  0.
    9000005    1    3    3    0    0  0.66812645599E+01 -0.42891377274E+02  0.79802434962E+02  0.90850086221E+02  0.10000000000E+01 0.  0.
         -4    1    1    2    0  502 -0.19769082656E+02 -0.93724654426E+01  0.68562153499E+02  0.71979452137E+02  0.12700000000E+01 0.  1.
<mgrwt>
<rscale>  1 0.12689789E+03</rscale>
<asrwt>0</asrwt>
<pdfrwt beam="1">  1       21 0.99181151E-01 0.12689789E+03</pdfrwt>
<pdfrwt beam="2">  1       -4 0.13411198E-02 0.12689789E+03</pdfrwt>
<totfact> 0.63997711E+04</totfact>
</mgrwt>
</event>
<event>
 6    4  0.6093247E-003  0.1293888E+03  0.7818608E-02  0.1228365E+00
          4   -1    0    0  502    0 -0.00000000000E+00  0.00000000000E+00  0.93271433170E+01  0.94132089351E+01  0.12700000000E+01 0.  1.
         21   -1    0    0  501  502  0.00000000000E+00 -0.00000000000E+00 -0.18949042062E+04  0.18949042062E+04  0.00000000000E+00 0. -1.
         25    2    1    2    0    0  0.30846158607E+02  0.12845988775E+02 -0.44695012146E+03  0.46530192029E+03  0.12499984408E+03 0.  0.
    9000005    1    3    3    0    0 -0.71274440413E+01 -0.32914316793E+02 -0.34962145469E+03  0.35124110563E+03  0.10000000000E+01 0.  0.
    9000005    1    3    3    0    0  0.37973602648E+02  0.45760305567E+02 -0.97328666778E+02  0.11406081466E+03  0.10000000000E+01 0.  0.
          4    1    1    2  501    0 -0.30846158607E+02 -0.12845988775E+02 -0.14386269414E+04  0.14390154948E+04  0.12700000000E+01 0. -1.
<mgrwt>
<rscale>  1 0.12938882E+03</rscale>
<asrwt>0</asrwt>
<pdfrwt beam="2">  1       21 0.29152360E+00 0.12938882E+03</pdfrwt>
<pdfrwt beam="1">  1        4 0.14415989E-02 0.12938882E+03</pdfrwt>
<totfact> 0.27782768E+03</totfact>
</mgrwt>
</event>
<event>
 6    4  0.6093247E-003  0.1342393E+03  0.7818608E-02  0.1221298E+00
          4   -1    0    0  502    0 -0.00000000000E+00  0.00000000000E+00  0.53389390804E+03  0.53389541854E+03  0.12700000000E+01 0.  1.
         21   -1    0    0  501  502  0.00000000000E+00 -0.00000000000E+00 -0.33650481068E+02  0.33650481068E+02  0.00000000000E+00 0.  1.
         25    2    1    2    0    0  0.11675721255E+02  0.47525559752E+02  0.50091055020E+03  0.51858612786E+03  0.12500076565E+03 0.  0.
    9000005    1    3    3    0    0 -0.41446270483E+02  0.26950391920E+01  0.34971954028E+03  0.35217866691E+03  0.10000000000E+01 0.  0.
    9000005    1    3    3    0    0  0.53121991737E+02  0.44830520560E+02  0.15119100992E+03  0.16640746095E+03  0.10000000000E+01 0.  0.
          4    1    1    2  501    0 -0.11675721255E+02 -0.47525559752E+02 -0.66712322653E+00  0.48959771752E+02  0.12700000000E+01 0. -1.
<mgrwt>
<rscale>  1 0.13423931E+03</rscale>
<asrwt>0</asrwt>
<pdfrwt beam="2">  1       21 0.51769975E-02 0.13423931E+03</pdfrwt>
<pdfrwt beam="1">  1        4 0.82139478E-01 0.13423931E+03</pdfrwt>
<totfact> 0.13841930E+04</totfact>
</mgrwt>
</event>
<event>
 6    4  0.6093247E-003  0.1273753E+03  0.7818608E-02  0.1231403E+00
         21   -1    0    0  501  502  0.00000000000E+00  0.00000000000E+00  0.84244662868E+03  0.84244662868E+03  0.00000000000E+00 0.  1.
         -4   -1    0    0    0  501 -0.00000000000E+00 -0.00000000000E+00 -0.15749632435E+02  0.15800753838E+02  0.12700000000E+01 0.  1.
         25    2    1    2    0    0 -0.25537129870E+01  0.24343188911E+02  0.24588612513E+03  0.27691959787E+03  0.12500145942E+03 0.  0.
    9000005    1    3    3    0    0 -0.58275858412E+02  0.35274364474E+02  0.16061715707E+03  0.17446841435E+03  0.10000000000E+01 0.  0.
    9000005    1    3    3    0    0  0.55722145425E+02 -0.10931175563E+02  0.85268968068E+02  0.10245118352E+03  0.10000000000E+01 0.  0.
         -4    1    1    2    0  502  0.25537129870E+01 -0.24343188911E+02  0.58081087111E+03  0.58132778464E+03  0.12700000000E+01 0.  1.
<mgrwt>
<rscale>  1 0.12737534E+03</rscale>
<asrwt>0</asrwt>
<pdfrwt beam="1">  1       21 0.12960714E+00 0.12737534E+03</pdfrwt>
<pdfrwt beam="2">  1       -4 0.24270271E-02 0.12737534E+03</pdfrwt>
<totfact> 0.13540675E+04</totfact>
</mgrwt>
</event>
<event>
 6    4  0.6093247E-003  0.1266739E+03  0.7818608E-02  0.1232476E+00
         21   -1    0    0  501  502  0.00000000000E+00  0.00000000000E+00  0.60312239116E+02  0.60312239116E+02  0.00000000000E+00 0.  1.
         -4   -1    0    0    0  501 -0.00000000000E+00 -0.00000000000E+00 -0.11107020909E+03  0.11107746957E+03  0.12700000000E+01 0. -1.
         25    2    1    2    0    0 -0.20507265756E+02  0.12169714526E+01 -0.68683023591E+02  0.14409594721E+03  0.12499702118E+03 0.  0.
    9000005    1    3    3    0    0 -0.10647659140E+02 -0.60432185202E+02 -0.18829690636E+02  0.64194851062E+02  0.10000000000E+01 0.  0.
    9000005    1    3    3    0    0 -0.98596066163E+01  0.61649156655E+02 -0.49853332955E+02  0.79901096147E+02  0.10000000000E+01 0.  0.
         -4    1    1    2    0  502  0.20507265756E+02 -0.12169714526E+01  0.17925053621E+02  0.27293761478E+02  0.12700000000E+01 0.  1.
<mgrwt>
<rscale>  1 0.12667393E+03</rscale>
<asrwt>0</asrwt>
<pdfrwt beam="1">  1       21 0.92788060E-02 0.12667393E+03</pdfrwt>
<pdfrwt beam="2">  1       -4 0.17089311E-01 0.12667393E+03</pdfrwt>
<totfact> 0.11037521E+05</totfact>
</mgrwt>
</event>
<event>
 6    4  0.6093247E-003  0.1290786E+03  0.7818608E-02  0.1228829E+00
         -4   -1    0    0    0  501 -0.00000000000E+00  0.00000000000E+00  0.45756595440E+02  0.45774216829E+02  0.12700000000E+01 0. -1.
         21   -1    0    0  501  502  0.00000000000E+00 -0.00000000000E+00 -0.23586036735E+03  0.23586036735E+03  0.00000000000E+00 0. -1.
         25    2    1    2    0    0  0.32193393333E+02  0.27694974415E+00 -0.50902009005E+02  0.13875269249E+03  0.12499921551E+03 0.  0.
    9000005    1    3    3    0    0 -0.42624835109E+01  0.57161614697E+02 -0.60435143729E+01  0.57646708721E+02  0.10000000000E+01 0.  0.
    9000005    1    3    3    0    0  0.36455876844E+02 -0.56884664953E+02 -0.44858494632E+02  0.81105983774E+02  0.10000000000E+01 0.  0.
         -4    1    1    2    0  502 -0.32193393333E+02 -0.27694974415E+00 -0.13920176290E+03  0.14288189168E+03  0.12700000000E+01 0.  1.
<mgrwt>
<rscale>  1 0.12907864E+03</rscale>
<asrwt>0</asrwt>
<pdfrwt beam="2">  1       21 0.36286210E-01 0.12907864E+03</pdfrwt>
<pdfrwt beam="1">  1       -4 0.70410947E-02 0.12907864E+03</pdfrwt>
<totfact> 0.40490687E+04</totfact>
</mgrwt>
</event>
<event>
 6    4  0.6093247E-003  0.1364724E+03  0.7818608E-02  0.1218156E+00
         21   -1    0    0  501  502  0.00000000000E+00  0.00000000000E+00  0.52265667836E+03  0.52265667836E+03  0.00000000000E+00 0. -1.
          4   -1    0    0  502    0 -0.00000000000E+00 -0.00000000000E+00 -0.32020940346E+02  0.32046115532E+02  0.12700000000E+01 0. -1.
         25    2    1    2    0    0 -0.53587939927E+02  0.11313791543E+02  0.12525904118E+03  0.18524181805E+03  0.12500013828E+03 0.  0.
    9000005    1    3    3    0    0  0.29254933270E+01 -0.24754977570E+02 -0.15471031611E+02  0.29355071876E+02  0.10000000000E+01 0.  0.
    9000005    1    3    3    0    0 -0.56513433254E+02  0.36068769114E+02  0.14073007280E+03  0.15588674617E+03  0.10000000000E+01 0.  0.
          4    1    1    2  501    0  0.53587939927E+02 -0.11313791543E+02  0.36537669683E+03  0.36946097584E+03  0.12700000000E+01 0.  1.
<mgrwt>
<rscale>  1 0.13647236E+03</rscale>
<asrwt>0</asrwt>
<pdfrwt beam="1">  1       21 0.80408714E-01 0.13647236E+03</pdfrwt>
<pdfrwt beam="2">  1        4 0.49283541E-02 0.13647236E+03</pdfrwt>
<totfact> 0.13707191E+04</totfact>
</mgrwt>
</event>
<event>
 6    4  0.6093247E-003  0.1267422E+03  0.7818608E-02  0.1232371E+00
          4   -1    0    0  502    0 -0.00000000000E+00  0.00000000000E+00  0.12763562595E+03  0.12764194417E+03  0.12700000000E+01 0.  1.
         21   -1    0    0  501  502  0.00000000000E+00 -0.00000000000E+00 -0.45662786062E+02  0.45662786062E+02  0.00000000000E+00 0.  1.
         25    2    1    2    0    0 -0.19864950224E+02 -0.66315027110E+01  0.52636324504E+02  0.13723761071E+03  0.12499994425E+03 0.  0.
    9000005    1    3    3    0    0 -0.76384541732E+01 -0.61078262408E+01 -0.41324549805E+02  0.42477875890E+02  0.10000000000E+01 0.  0.
    9000005    1    3    3    0    0 -0.12226496050E+02 -0.52367647026E+00  0.93960874310E+02  0.94759734823E+02  0.10000000000E+01 0.  0.
          4    1    1    2  501    0  0.19864950224E+02  0.66315027110E+01  0.29336515381E+02  0.36067119517E+02  0.12700000000E+01 0. -1.
<mgrwt>
<rscale>  1 0.12674218E+03</rscale>
<asrwt>0</asrwt>
<pdfrwt beam="2">  1       21 0.70250441E-02 0.12674218E+03</pdfrwt>
<pdfrwt beam="1">  1        4 0.19638094E-01 0.12674218E+03</pdfrwt>
<totfact> 0.13927843E+05</totfact>
</mgrwt>
</event>
<event>
 6    4  0.6093247E-003  0.1283817E+03  0.7818608E-02  0.1229877E+00
         21   -1    0    0  501  502  0.00000000000E+00  0.00000000000E+00  0.95421864567E+03  0.95421864567E+03  0.00000000000E+00 0. -1.
         -4   -1    0    0    0  501 -0.00000000000E+00 -0.00000000000E+00 -0.13055928839E+02  0.13117552281E+02  0.12700000000E+01 0.  1.
         25    2    1    2    0    0  0.11972162007E+02  0.26715261210E+02  0.31051516104E+03  0.33600824010E+03  0.12499933732E+03 0.  0.
    9000005    1    3    3    0    0 -0.24882423374E+02  0.61425949596E+02  0.10361255387E+03  0.12299936421E+03  0.10000000000E+01 0.  0.
    9000005    1    3    3    0    0  0.36854585381E+02 -0.34710688386E+02  0.20690260717E+03  0.21300887588E+03  0.10000000000E+01 0.  0.
         -4    1    1    2    0  502 -0.11972162007E+02 -0.26715261210E+02  0.63064755579E+03  0.63132795786E+03  0.12700000000E+01 0. -1.
<mgrwt>
<rscale>  1 0.12838174E+03</rscale>
<asrwt>0</asrwt>
<pdfrwt beam="1">  1       21 0.14680281E+00 0.12838174E+03</pdfrwt>
<pdfrwt beam="2">  1       -4 0.20134105E-02 0.12838174E+03</pdfrwt>
<totfact> 0.13193998E+04</totfact>
</mgrwt>
</event>
<event>
 6    4  0.6093247E-003  0.1312090E+03  0.7818608E-02  0.1225673E+00
         -4   -1    0    0    0  501 -0.00000000000E+00  0.00000000000E+00  0.35525805192E+02  0.35548498345E+02  0.12700000000E+01 0. -1.
         21   -1    0    0  501  502  0.00000000000E+00 -0.00000000000E+00 -0.21166928977E+03  0.21166928977E+03  0.00000000000E+00 0. -1.
         25    2    1    2    0    0 -0.15002311997E+02 -0.36950421656E+02 -0.11653910705E+03  0.17549123971E+03  0.12500163486E+03 0.  0.
    9000005    1    3    3    0    0 -0.61404472864E+02 -0.11629287633E+02 -0.20356980125E+02  0.65735502268E+02  0.10000000000E+01 0.  0.
    9000005    1    3    3    0    0  0.46402160868E+02 -0.25321134024E+02 -0.96182126929E+02  0.10975573745E+03  0.10000000000E+01 0.  0.
         -4    1    1    2    0  502  0.15002311997E+02  0.36950421656E+02 -0.59604377526E+02  0.71726548405E+02  0.12700000000E+01 0.  1.
<mgrwt>
<rscale>  1 0.13120904E+03</rscale>
<asrwt>0</asrwt>
<pdfrwt beam="2">  1       21 0.32564507E-01 0.13120904E+03</pdfrwt>
<pdfrwt beam="1">  1       -4 0.54675471E-02 0.13120904E+03</pdfrwt>
<totfact> 0.75700556E+04</totfact>
</mgrwt>
</event>
<event>
 6    4  0.6093247E-003  0.1280286E+03  0.7818608E-02  0.1230411E+00
         21   -1    0    0  501  502  0.00000000000E+00  0.00000000000E+00  0.61209976593E+02  0.61209976593E+02  0.00000000000E+00 0. -1.
         -4   -1    0    0    0  501 -0.00000000000E+00 -0.00000000000E+00 -0.13855263894E+03  0.13855845935E+03  0.12700000000E+01 0. -1.
         25    2    1    2    0    0 -0.24027293111E+02 -0.13754805621E+02 -0.10120310678E+03  0.16319742009E+03  0.12499929444E+03 0.  0.
    9000005    1    3    3    0    0  0.26299604778E+02 -0.61535811688E+01  0.18745698805E+02  0.32892810710E+02  0.10000000000E+01 0.  0.
    9000005    1    3    3    0    0 -0.50326897889E+02 -0.76012244518E+01 -0.11994880559E+03  0.13030460938E+03  0.10000000000E+01 0.  0.
         -4    1    1    2    0  502  0.24027293111E+02  0.13754805621E+02  0.23860444434E+02  0.36571015853E+02  0.12700000000E+01 0.  1.
<mgrwt>
<rscale>  1 0.12802863E+03</rscale>
<asrwt>0</asrwt>
<pdfrwt beam="1">  1       21 0.94169196E-02 0.12802863E+03</pdfrwt>
<pdfrwt beam="2">  1       -4 0.21317252E-01 0.12802863E+03</pdfrwt>
<totfact> 0.72567849E+04</totfact>
</mgrwt>
</event>
<event>
 6    4  0.6093247E-003  0.1413063E+03  0.7818608E-02  0.1211582E+00
         21   -1    0    0  501  502  0.00000000000E+00  0.00000000000E+00  0.17107486070E+02  0.17107486070E+02  0.00000000000E+00 0. -1.
          4   -1    0    0  502    0 -0.00000000000E+00 -0.00000000000E+00 -0.63021959183E+03  0.63022087146E+03  0.12700000000E+01 0.  1.
         25    2    1    2    0    0 -0.46306450759E+01  0.65727664587E+02 -0.39749821959E+03  0.42186765236E+03  0.12500365101E+03 0.  0.
    9000005    1    3    3    0    0  0.35923867287E+02  0.85124094028E+02 -0.21700239323E+03  0.23585519773E+03  0.10000000000E+01 0.  0.
    9000005    1    3    3    0    0 -0.40554512363E+02 -0.19396429441E+02 -0.18049582635E+03  0.18601245464E+03  0.10000000000E+01 0.  0.
          4    1    1    2  501    0  0.46306450759E+01 -0.65727664587E+02 -0.21561388617E+03  0.22546070516E+03  0.12700000000E+01 0. -1.
<mgrwt>
<rscale>  1 0.14130634E+03</rscale>
<asrwt>0</asrwt>
<pdfrwt beam="1">  1       21 0.26319215E-02 0.14130634E+03</pdfrwt>
<pdfrwt beam="2">  1        4 0.96960565E-01 0.14130634E+03</pdfrwt>
<totfact> 0.29382221E+04</totfact>
</mgrwt>
</event>
<event>
 6    4  0.6093247E-003  0.1322914E+03  0.7818608E-02  0.1224095E+00
         -4   -1    0    0    0  501 -0.00000000000E+00  0.00000000000E+00  0.10956068396E+03  0.10956804447E+03  0.12700000000E+01 0. -1.
         21   -1    0    0  501  502  0.00000000000E+00 -0.00000000000E+00 -0.70933935392E+02  0.70933935392E+02  0.00000000000E+00 0.  1.
         25    2    1    2    0    0 -0.34330967858E+02 -0.26413194876E+02  0.35928755601E+02  0.13708350126E+03  0.12499895448E+03 0.  0.
    9000005    1    3    3    0    0 -0.31956843010E+02 -0.68950090503E+02 -0.73362005773E+01  0.76355580244E+02  0.10000000000E+01 0.  0.
    9000005    1    3    3    0    0 -0.23741248480E+01  0.42536895627E+02  0.43264956179E+02  0.60727921021E+02  0.10000000000E+01 0.  0.
         -4    1    1    2    0  502  0.34330967858E+02  0.26413194876E+02  0.26979929623E+01  0.43418478597E+02  0.12700000000E+01 0.  1.
<mgrwt>
<rscale>  1 0.13229139E+03</rscale>
<asrwt>0</asrwt>
<pdfrwt beam="2">  1       21 0.10912913E-01 0.13229139E+03</pdfrwt>
<pdfrwt beam="1">  1       -4 0.16856930E-01 0.13229139E+03</pdfrwt>
<totfact> 0.85653677E+04</totfact>
</mgrwt>
</event>
<event>
 6    4  0.6093247E-003  0.1288487E+03  0.7818608E-02  0.1229174E+00
         21   -1    0    0  501  502  0.00000000000E+00  0.00000000000E+00  0.23518852400E+03  0.23518852400E+03  0.00000000000E+00 0.  1.
         -4   -1    0    0    0  501 -0.00000000000E+00 -0.00000000000E+00 -0.34308909052E+02  0.34332406562E+02  0.12700000000E+01 0. -1.
         25    2    1    2    0    0 -0.30370118363E+02 -0.74110011838E+01  0.97697638628E+02  0.16169978159E+03  0.12499889498E+03 0.  0.
    9000005    1    3    3    0    0 -0.73366577932E+02 -0.25437002730E+02  0.39507251640E+02  0.87129322260E+02  0.10000000000E+01 0.  0.
    9000005    1    3    3    0    0  0.42996459569E+02  0.18026001546E+02  0.58190386988E+02  0.74570459332E+02  0.10000000000E+01 0.  0.
         -4    1    1    2    0  502  0.30370118363E+02  0.74110011838E+01  0.10318197632E+03  0.10782114897E+03  0.12700000000E+01 0.  1.
<mgrwt>
<rscale>  1 0.12884871E+03</rscale>
<asrwt>0</asrwt>
<pdfrwt beam="1">  1       21 0.36182849E-01 0.12884871E+03</pdfrwt>
<pdfrwt beam="2">  1       -4 0.52803651E-02 0.12884871E+03</pdfrwt>
<totfact> 0.64988188E+04</totfact>
</mgrwt>
</event>
<event>
 6    4  0.6093247E-003  0.1273133E+03  0.7818608E-02  0.1231498E+00
          4   -1    0    0  502    0 -0.00000000000E+00  0.00000000000E+00  0.58055769525E+02  0.58069658817E+02  0.12700000000E+01 0.  1.
         21   -1    0    0  501  502  0.00000000000E+00 -0.00000000000E+00 -0.99559960240E+02  0.99559960240E+02  0.00000000000E+00 0.  1.
         25    2    1    2    0    0  0.20097558877E+02 -0.13323727336E+02 -0.39946318704E+02  0.13343306046E+03  0.12500895833E+03 0.  0.
    9000005    1    3    3    0    0 -0.91909732761E+01 -0.52533715575E+02  0.19169256156E+02  0.56680910750E+02  0.10000000000E+01 0.  0.
    9000005    1    3    3    0    0  0.29288532153E+02  0.39209988240E+02 -0.59115574860E+02  0.76752149706E+02  0.10000000000E+01 0.  0.
          4    1    1    2  501    0 -0.20097558877E+02  0.13323727336E+02 -0.15578720115E+01  0.24196558601E+02  0.12700000000E+01 0. -1.
<mgrwt>
<rscale>  1 0.12731329E+03</rscale>
<asrwt>0</asrwt>
<pdfrwt beam="2">  1       21 0.15316917E-01 0.12731329E+03</pdfrwt>
<pdfrwt beam="1">  1        4 0.89333484E-02 0.12731329E+03</pdfrwt>
<totfact> 0.13821606E+05</totfact>
</mgrwt>
</event>
<event>
 6    4  0.6093247E-003  0.1726023E+03  0.7818608E-02  0.1175161E+00
         -4   -1    0    0    0  501 -0.00000000000E+00  0.00000000000E+00  0.24099800745E+03  0.24100135372E+03  0.12700000000E+01 0. -1.
         21   -1    0    0  501  502  0.00000000000E+00 -0.00000000000E+00 -0.93053641180E+02  0.93053641180E+02  0.00000000000E+00 0.  1.
         25    2    1    2    0    0  0.59434524977E+02  0.10312206686E+03  0.12429278076E+03  0.21269753189E+03  0.12499968515E+03 0.  0.
    9000005    1    3    3    0    0  0.57855384538E+02  0.12489807998E+03  0.70543252779E+02  0.15467425906E+03  0.10000000000E+01 0.  0.
    9000005    1    3    3    0    0  0.15791404389E+01 -0.21776013116E+02  0.53749527981E+02  0.58023272831E+02  0.10000000000E+01 0.  0.
         -4    1    1    2    0  502 -0.59434524977E+02 -0.10312206686E+03  0.23651585512E+02  0.12135746302E+03  0.12700000000E+01 0.  1.
<mgrwt>
<rscale>  1 0.17260227E+03</rscale>
<asrwt>0</asrwt>
<pdfrwt beam="2">  1       21 0.14315945E-01 0.17260227E+03</pdfrwt>
<pdfrwt beam="1">  1       -4 0.37077540E-01 0.17260227E+03</pdfrwt>
<totfact> 0.12583154E+04</totfact>
</mgrwt>
</event>
<event>
 6    4  0.6093247E-003  0.1353965E+03  0.7818608E-02  0.1219661E+00
          4   -1    0    0  502    0 -0.00000000000E+00  0.00000000000E+00  0.38726184545E+02  0.38747003360E+02  0.12700000000E+01 0.  1.
         21   -1    0    0  501  502  0.00000000000E+00 -0.00000000000E+00 -0.37077159751E+03  0.37077159751E+03  0.00000000000E+00 0. -1.
         25    2    1    2    0    0  0.51615608874E+02  0.66534628691E+01 -0.91525114134E+02  0.16342905071E+03  0.12499507371E+03 0.  0.
    9000005    1    3    3    0    0 -0.11765317620E+02 -0.48144199305E+02 -0.20716131671E+02  0.53725643196E+02  0.10000000000E+01 0.  0.
    9000005    1    3    3    0    0  0.63380926494E+02  0.54797662174E+02 -0.70808982463E+02  0.10970340752E+03  0.10000000000E+01 0.  0.
          4    1    1    2  501    0 -0.51615608874E+02 -0.66534628691E+01 -0.24052029884E+03  0.24608955016E+03  0.12700000000E+01 0. -1.
<mgrwt>
<rscale>  1 0.13539648E+03</rscale>
<asrwt>0</asrwt>
<pdfrwt beam="2">  1       21 0.57041784E-01 0.13539648E+03</pdfrwt>
<pdfrwt beam="1">  1        4 0.59596434E-02 0.13539648E+03</pdfrwt>
<totfact> 0.21246671E+04</totfact>
</mgrwt>
</event>
<event>
 6    4  0.6093247E-003  0.1287621E+03  0.7818608E-02  0.1229304E+00
          4   -1    0    0  502    0 -0.00000000000E+00  0.00000000000E+00  0.94342352542E+02  0.94350900278E+02  0.12700000000E+01 0. -1.
         21   -1    0    0  501  502  0.00000000000E+00 -0.00000000000E+00 -0.86334629248E+02  0.86334629248E+02  0.00000000000E+00 0.  1.
         25    2    1    2    0    0  0.10041176837E+02 -0.29225983772E+02  0.41319463307E+02  0.13522930572E+03  0.12499873487E+03 0.  0.
    9000005    1    3    3    0    0 -0.33278428098E+02 -0.47417452066E+02  0.61134643956E+02  0.84227746193E+02  0.10000000000E+01 0.  0.
    9000005    1    3    3    0    0  0.43319604935E+02  0.18191468294E+02 -0.19815180649E+02  0.51001559531E+02  0.10000000000E+01 0.  0.
          4    1    1    2  501    0 -0.10041176837E+02  0.29225983772E+02 -0.33311740013E+02  0.45456223803E+02  0.12700000000E+01 0.  1.
<mgrwt>
<rscale>  1 0.12876206E+03</rscale>
<asrwt>0</asrwt>
<pdfrwt beam="2">  1       21 0.13282251E-01 0.12876206E+03</pdfrwt>
<pdfrwt beam="1">  1        4 0.14515584E-01 0.12876206E+03</pdfrwt>
<totfact> 0.78277666E+04</totfact>
</mgrwt>
</event>
<event>
 6    4  0.6093247E-003  0.1435411E+03  0.7818608E-02  0.1208642E+00
         21   -1    0    0  501  502  0.00000000000E+00  0.00000000000E+00  0.15244419047E+03  0.15244419047E+03  0.00000000000E+00 0.  1.
         -4   -1    0    0    0  501 -0.00000000000E+00 -0.00000000000E+00 -0.79397566119E+02  0.79407722582E+02  0.12700000000E+01 0. -1.
         25    2    1    2    0    0 -0.69870028351E+02  0.99125226553E+01  0.23104677215E+02  0.14538868416E+03  0.12499585755E+03 0.  0.
    9000005    1    3    3    0    0  0.29795547478E+01 -0.20580554829E+02 -0.39470014956E+02  0.44624198191E+02  0.10000000000E+01 0.  0.
    9000005    1    3    3    0    0 -0.72849583099E+02  0.30493077485E+02  0.62574692170E+02  0.10076448597E+03  0.10000000000E+01 0.  0.
         -4    1    1    2    0  502  0.69870028351E+02 -0.99125226553E+01  0.49941947141E+02  0.86463228898E+02  0.12700000000E+01 0.  1.
<mgrwt>
<rscale>  1 0.14354109E+03</rscale>
<asrwt>0</asrwt>
<pdfrwt beam="1">  1       21 0.23452952E-01 0.14354109E+03</pdfrwt>
<pdfrwt beam="2">  1       -4 0.12216198E-01 0.14354109E+03</pdfrwt>
<totfact> 0.37698091E+04</totfact>
</mgrwt>
</event>
<event>
 6    4  0.6093247E-003  0.1294001E+03  0.7818608E-02  0.1228349E+00
         21   -1    0    0  501  502  0.00000000000E+00  0.00000000000E+00  0.14329253874E+03  0.14329253874E+03  0.00000000000E+00 0.  1.
         -4   -1    0    0    0  501 -0.00000000000E+00 -0.00000000000E+00 -0.48365356970E+02  0.48382028222E+02  0.12700000000E+01 0.  1.
         25    2    1    2    0    0  0.25354794481E+02  0.21826554585E+02  0.57922282367E+02  0.14177226673E+03  0.12500048293E+03 0.  0.
    9000005    1    3    3    0    0  0.30470283101E+02  0.40374812208E+01  0.95252020645E+02  0.10009339061E+03  0.10000000000E+01 0.  0.
    9000005    1    3    3    0    0 -0.51154886194E+01  0.17789073364E+02 -0.37329738279E+02  0.41678876124E+02  0.10000000000E+01 0.  0.
         -4    1    1    2    0  502 -0.25354794481E+02 -0.21826554585E+02  0.37004899405E+02  0.49902300230E+02  0.12700000000E+01 0. -1.
<mgrwt>
<rscale>  1 0.12940010E+03</rscale>
<asrwt>0</asrwt>
<pdfrwt beam="1">  1       21 0.22045006E-01 0.12940010E+03</pdfrwt>
<pdfrwt beam="2">  1       -4 0.74425395E-02 0.12940010E+03</pdfrwt>
<totfact> 0.96123247E+04</totfact>
</mgrwt>
</event>
<event>
 6    4  0.6093247E-003  0.1488106E+03  0.7818608E-02  0.1201942E+00
         -4   -1    0    0    0  501 -0.00000000000E+00  0.00000000000E+00  0.13900974251E+02  0.13958867617E+02  0.12700000000E+01 0. -1.
         21   -1    0    0  501  502  0.00000000000E+00 -0.00000000000E+00 -0.13450403240E+04  0.13450403240E+04  0.00000000000E+00 0.  1.
         25    2    1    2    0    0  0.38061564357E+02 -0.71211904248E+02 -0.44572878290E+03  0.46991353614E+03  0.12499906221E+03 0.  0.
    9000005    1    3    3    0    0 -0.84248478407E+01 -0.32842857852E+02 -0.37687488570E+03  0.37839834943E+03  0.10000000000E+01 0.  0.
    9000005    1    3    3    0    0  0.46486412198E+02 -0.38369046396E+02 -0.68853897195E+02  0.91515186714E+02  0.10000000000E+01 0.  0.
         -4    1    1    2    0  502 -0.38061564357E+02  0.71211904248E+02 -0.88541056688E+03  0.88908565551E+03  0.12700000000E+01 0.  1.
<mgrwt>
<rscale>  1 0.14881056E+03</rscale>
<asrwt>0</asrwt>
<pdfrwt beam="2">  1       21 0.20692937E+00 0.14881056E+03</pdfrwt>
<pdfrwt beam="1">  1       -4 0.21431100E-02 0.14881056E+03</pdfrwt>
<totfact> 0.46823539E+03</totfact>
</mgrwt>
</event>
<event>
 6    4  0.6093247E-003  0.1279030E+03  0.7818608E-02  0.1230601E+00
         -4   -1    0    0    0  501 -0.00000000000E+00  0.00000000000E+00  0.14886015941E+02  0.14940092723E+02  0.12700000000E+01 0.  1.
         21   -1    0    0  501  502  0.00000000000E+00 -0.00000000000E+00 -0.42107061611E+03  0.42107061611E+03  0.00000000000E+00 0.  1.
         25    2    1    2    0    0 -0.22350776912E+02  0.15339523771E+02 -0.36432186875E+03  0.38612123700E+03  0.12499730954E+03 0.  0.
    9000005    1    3    3    0    0 -0.57713095088E+02  0.30387130609E+02 -0.32364033129E+03  0.33014881961E+03  0.10000000000E+01 0.  0.
    9000005    1    3    3    0    0  0.35362318176E+02 -0.15047606837E+02 -0.40681537459E+02  0.55972417388E+02  0.10000000000E+01 0.  0.
         -4    1    1    2    0  502  0.22350776912E+02 -0.15339523771E+02 -0.41862731418E+02  0.49889471834E+02  0.12700000000E+01 0. -1.
<mgrwt>
<rscale>  1 0.12790303E+03</rscale>
<asrwt>0</asrwt>
<pdfrwt beam="2">  1       21 0.64780095E-01 0.12790303E+03</pdfrwt>
<pdfrwt beam="1">  1       -4 0.22944634E-02 0.12790303E+03</pdfrwt>
<totfact> 0.72971788E+04</totfact>
</mgrwt>
</event>
<event>
 6    4  0.6093247E-003  0.1369250E+03  0.7818608E-02  0.1217527E+00
         21   -1    0    0  501  502  0.00000000000E+00  0.00000000000E+00  0.14491905383E+02  0.14491905383E+02  0.00000000000E+00 0. -1.
          4   -1    0    0  502    0 -0.00000000000E+00 -0.00000000000E+00 -0.94311891905E+03  0.94311977413E+03  0.12700000000E+01 0.  1.
         25    2    1    2    0    0  0.10903632725E+02 -0.54802354139E+02 -0.85106921731E+03  0.86201350014E+03  0.12500509804E+03 0.  0.
    9000005    1    3    3    0    0  0.15896644877E+02 -0.60506864025E+02 -0.17410861813E+03  0.18500971547E+03  0.10000000000E+01 0.  0.
    9000005    1    3    3    0    0 -0.49930121514E+01  0.57045098862E+01 -0.67696059918E+03  0.67700378467E+03  0.10000000000E+01 0.  0.
          4    1    1    2  501    0 -0.10903632725E+02  0.54802354139E+02 -0.77557796350E+02  0.95598179379E+02  0.12700000000E+01 0. -1.
<mgrwt>
<rscale>  1 0.13692502E+03</rscale>
<asrwt>0</asrwt>
<pdfrwt beam="1">  1       21 0.22295236E-02 0.13692502E+03</pdfrwt>
<pdfrwt beam="2">  1        4 0.14509958E+00 0.13692502E+03</pdfrwt>
<totfact> 0.14566285E+04</totfact>
</mgrwt>
</event>
<event>
 6    4  0.6093247E-003  0.1336013E+03  0.7818608E-02  0.1222208E+00
         21   -1    0    0  501  502  0.00000000000E+00  0.00000000000E+00  0.88752815551E+01  0.88752815551E+01  0.00000000000E+00 0. -1.
         -4   -1    0    0    0  501 -0.00000000000E+00 -0.00000000000E+00 -0.10464118887E+04  0.10464126594E+04  0.12700000000E+01 0. -1.
         25    2    1    2    0    0 -0.45804062270E+02 -0.11263366957E+02 -0.90046115942E+03  0.91031840336E+03  0.12499768127E+03 0.  0.
    9000005    1    3    3    0    0 -0.85697838619E+02 -0.12523614477E+02 -0.73605931885E+03  0.74113782883E+03  0.10000000000E+01 0.  0.
    9000005    1    3    3    0    0  0.39893776349E+02  0.12602475204E+01 -0.16440184057E+03  0.16918057453E+03  0.10000000000E+01 0.  0.
         -4    1    1    2    0  502  0.45804062270E+02  0.11263366957E+02 -0.13707544777E+03  0.14496953761E+03  0.12700000000E+01 0.  1.
<mgrwt>
<rscale>  1 0.13360126E+03</rscale>
<asrwt>0</asrwt>
<pdfrwt beam="1">  1       21 0.13654277E-02 0.13360126E+03</pdfrwt>
<pdfrwt beam="2">  1       -4 0.16099352E+00 0.13360126E+03</pdfrwt>
<totfact> 0.24483108E+04</totfact>
</mgrwt>
</event>
<event>
 6    4  0.6093247E-003  0.1289786E+03  0.7818608E-02  0.1228979E+00
         21   -1    0    0  501  502  0.00000000000E+00  0.00000000000E+00  0.12234607721E+02  0.12234607721E+02  0.00000000000E+00 0. -1.
          4   -1    0    0  502    0 -0.00000000000E+00 -0.00000000000E+00 -0.57744379202E+03  0.57744518860E+03  0.12700000000E+01 0. -1.
         25    2    1    2    0    0  0.20804958948E+02  0.23985601850E+02 -0.50923186127E+03  0.52531187724E+03  0.12500929738E+03 0.  0.
    9000005    1    3    3    0    0  0.55011504980E+02  0.21685764131E+02 -0.46780909826E+03  0.47153249141E+03  0.10000000000E+01 0.  0.
    9000005    1    3    3    0    0 -0.34206546032E+02  0.22998377191E+01 -0.41422763011E+02  0.53779385832E+02  0.10000000000E+01 0.  0.
          4    1    1    2  501    0 -0.20804958948E+02 -0.23985601850E+02 -0.55977323027E+02  0.64367919076E+02  0.12700000000E+01 0.  1.
<mgrwt>
<rscale>  1 0.12897860E+03</rscale>
<asrwt>0</asrwt>
<pdfrwt beam="1">  1       21 0.18822476E-02 0.12897860E+03</pdfrwt>
<pdfrwt beam="2">  1        4 0.88842671E-01 0.12897860E+03</pdfrwt>
<totfact> 0.61043486E+04</totfact>
</mgrwt>
</event>
<event>
 6    4  0.6093247E-003  0.1322347E+03  0.7818608E-02  0.1224177E+00
         21   -1    0    0  501  502  0.00000000000E+00  0.00000000000E+00  0.53215972857E+03  0.53215972857E+03  0.00000000000E+00 0.  1.
         -4   -1    0    0    0  501 -0.00000000000E+00 -0.00000000000E+00 -0.56066117080E+02  0.56080499145E+02  0.12700000000E+01 0. -1.
         25    2    1    2    0    0 -0.68656885729E+01 -0.42584438882E+02  0.24371855765E+02  0.13446194528E+03  0.12500182103E+03 0.  0.
    9000005    1    3    3    0    0 -0.42321287521E+02  0.26279795615E+02  0.27547185963E+02  0.56934756427E+02  0.10000000000E+01 0.  0.
    9000005    1    3    3    0    0  0.35455598948E+02 -0.68864234497E+02 -0.31753301975E+01  0.77527188853E+02  0.10000000000E+01 0.  0.
         -4    1    1    2    0  502  0.68656885729E+01  0.42584438882E+02  0.45172175572E+03  0.45377828243E+03  0.12700000000E+01 0.  1.
<mgrwt>
<rscale>  1 0.13223474E+03</rscale>
<asrwt>0</asrwt>
<pdfrwt beam="1">  1       21 0.81870724E-01 0.13223474E+03</pdfrwt>
<pdfrwt beam="2">  1       -4 0.86267797E-02 0.13223474E+03</pdfrwt>
<totfact> 0.52626726E+03</totfact>
</mgrwt>
</event>
<event>
 6    4  0.6093247E-003  0.1313739E+03  0.7818608E-02  0.1225431E+00
          4   -1    0    0  502    0 -0.00000000000E+00  0.00000000000E+00  0.11657987846E+04  0.11657994763E+04  0.12700000000E+01 0. -1.
         21   -1    0    0  501  502  0.00000000000E+00 -0.00000000000E+00 -0.63323014059E+01  0.63323014059E+01  0.00000000000E+00 0. -1.
         25    2    1    2    0    0 -0.30318790871E+02  0.26733881737E+02  0.87742909202E+03  0.88720962623E+03  0.12500071937E+03 0.  0.
    9000005    1    3    3    0    0  0.10482700675E+02  0.35307826465E+02  0.78434607455E+03  0.78521098712E+03  0.10000000000E+01 0.  0.
    9000005    1    3    3    0    0 -0.40801491546E+02 -0.85739447281E+01  0.93083017471E+02  0.10199863912E+03  0.10000000000E+01 0.  0.
          4    1    1    2  501    0  0.30318790871E+02 -0.26733881737E+02  0.28203739116E+03  0.28492215152E+03  0.12700000000E+01 0.  1.
<mgrwt>
<rscale>  1 0.13137393E+03</rscale>
<asrwt>0</asrwt>
<pdfrwt beam="2">  1       21 0.97420114E-03 0.13137393E+03</pdfrwt>
<pdfrwt beam="1">  1        4 0.17936334E+00 0.13137393E+03</pdfrwt>
<totfact> 0.31297989E+04</totfact>
</mgrwt>
</event>
<event>
 6    4  0.6093247E-003  0.1278276E+03  0.7818608E-02  0.1230715E+00
         21   -1    0    0  501  502  0.00000000000E+00  0.00000000000E+00  0.26008004709E+03  0.26008004709E+03  0.00000000000E+00 0. -1.
         -4   -1    0    0    0  501 -0.00000000000E+00 -0.00000000000E+00 -0.49483381952E+02  0.49499676660E+02  0.12700000000E+01 0. -1.
         25    2    1    2    0    0 -0.26727852566E+02 -0.12912943133E+01  0.35805502933E+02  0.13274757501E+03  0.12499535626E+03 0.  0.
    9000005    1    3    3    0    0  0.36282505641E+01 -0.40629330797E+01 -0.45538473344E+02  0.45874003334E+02  0.10000000000E+01 0.  0.
    9000005    1    3    3    0    0 -0.30356103130E+02  0.27716387663E+01  0.81343976278E+02  0.86873571674E+02  0.10000000000E+01 0.  0.
         -4    1    1    2    0  502  0.26727852566E+02  0.12912943133E+01  0.17479116220E+03  0.17683214874E+03  0.12700000000E+01 0.  1.
<mgrwt>
<rscale>  1 0.12782756E+03</rscale>
<asrwt>0</asrwt>
<pdfrwt beam="1">  1       21 0.40012314E-01 0.12782756E+03</pdfrwt>
<pdfrwt beam="2">  1       -4 0.76143201E-02 0.12782756E+03</pdfrwt>
<totfact> 0.29289592E+04</totfact>
</mgrwt>
</event>
<event>
 6    4  0.6093247E-003  0.1278362E+03  0.7818608E-02  0.1230702E+00
         21   -1    0    0  501  502  0.00000000000E+00  0.00000000000E+00  0.80876124389E+03  0.80876124389E+03  0.00000000000E+00 0. -1.
         -4   -1    0    0    0  501 -0.00000000000E+00 -0.00000000000E+00 -0.74564077106E+01  0.75637897873E+01  0.12700000000E+01 0. -1.
         25    2    1    2    0    0 -0.26069258890E+02  0.59782928904E+01  0.69778609320E+03  0.70939940862E+03  0.12500697120E+03 0.  0.
    9000005    1    3    3    0    0 -0.55488849608E+02  0.49662359941E+02  0.37190952162E+03  0.37929283502E+03  0.10000000000E+01 0.  0.
    9000005    1    3    3    0    0  0.29419590718E+02 -0.43684067051E+02  0.32587657157E+03  0.33010657360E+03  0.10000000000E+01 0.  0.
         -4    1    1    2    0  502  0.26069258890E+02 -0.59782928904E+01  0.10351874298E+03  0.10692562506E+03  0.12700000000E+01 0.  1.
<mgrwt>
<rscale>  1 0.12783618E+03</rscale>
<asrwt>0</asrwt>
<pdfrwt beam="1">  1       21 0.12442474E+00 0.12783618E+03</pdfrwt>
<pdfrwt beam="2">  1       -4 0.11554771E-02 0.12783618E+03</pdfrwt>
<totfact> 0.46607784E+04</totfact>
</mgrwt>
</event>
<event>
 6    4  0.6093247E-003  0.1364580E+03  0.7818608E-02  0.1218176E+00
         21   -1    0    0  501  502  0.00000000000E+00  0.00000000000E+00  0.47720680280E+03  0.47720680280E+03  0.00000000000E+00 0.  1.
          4   -1    0    0  502    0 -0.00000000000E+00 -0.00000000000E+00 -0.22058910100E+02  0.22095438778E+02  0.12700000000E+01 0.  1.
         25    2    1    2    0    0 -0.43564275047E+02  0.33124679486E+02  0.22856729391E+03  0.26620253952E+03  0.12500277497E+03 0.  0.
    9000005    1    3    3    0    0 -0.48516482819E+02  0.44211651260E+02  0.24040986809E+03  0.24921160464E+03  0.10000000000E+01 0.  0.
    9000005    1    3    3    0    0  0.49522077716E+01 -0.11086971773E+02 -0.11842574179E+02  0.16990934880E+02  0.10000000000E+01 0.  0.
          4    1    1    2  501    0  0.43564275047E+02 -0.33124679486E+02  0.22658059879E+03  0.23309970206E+03  0.12700000000E+01 0. -1.
<mgrwt>
<rscale>  1 0.13645799E+03</rscale>
<asrwt>0</asrwt>
<pdfrwt beam="1">  1       21 0.73416423E-01 0.13645799E+03</pdfrwt>
<pdfrwt beam="2">  1        4 0.33966187E-02 0.13645799E+03</pdfrwt>
<totfact> 0.30327251E+04</totfact>
</mgrwt>
</event>
<event>
 6    4  0.6093247E-003  0.1271047E+03  0.7818608E-02  0.1231816E+00
         21   -1    0    0  501  502  0.00000000000E+00  0.00000000000E+00  0.23268276081E+02  0.23268276081E+02  0.00000000000E+00 0.  1.
          4   -1    0    0  502    0 -0.00000000000E+00 -0.00000000000E+00 -0.26029804587E+03  0.26030114403E+03  0.12700000000E+01 0.  1.
         25    2    1    2    0    0  0.17900116222E+01 -0.22951788918E+02 -0.16717101203E+03  0.21000415866E+03  0.12500244253E+03 0.  0.
    9000005    1    3    3    0    0  0.27208450148E+02 -0.47537610514E+01 -0.17547904583E+03  0.17764231908E+03  0.10000000000E+01 0.  0.
    9000005    1    3    3    0    0 -0.25418438526E+02 -0.18198027866E+02  0.83080338033E+01  0.32361839580E+02  0.10000000000E+01 0.  0.
          4    1    1    2  501    0 -0.17900116222E+01  0.22951788918E+02 -0.69858757756E+02  0.73565261444E+02  0.12700000000E+01 0. -1.
<mgrwt>
<rscale>  1 0.12710468E+03</rscale>
<asrwt>0</asrwt>
<pdfrwt beam="1">  1       21 0.35797348E-02 0.12710468E+03</pdfrwt>
<pdfrwt beam="2">  1        4 0.40048757E-01 0.12710468E+03</pdfrwt>
<totfact> 0.11379551E+05</totfact>
</mgrwt>
</event>
<event>
 6    4  0.6093247E-003  0.1315616E+03  0.7818608E-02  0.1225157E+00
         21   -1    0    0  501  502  0.00000000000E+00  0.00000000000E+00  0.14753390652E+02  0.14753390652E+02  0.00000000000E+00 0.  1.
          4   -1    0    0  502    0 -0.00000000000E+00 -0.00000000000E+00 -0.93749790443E+03  0.93749876465E+03  0.12700000000E+01 0.  1.
         25    2    1    2    0    0 -0.37818547958E+02 -0.15874792116E+02 -0.89022513092E+03  0.89989401595E+03  0.12500481842E+03 0.  0.
    9000005    1    3    3    0    0  0.39637276199E+02  0.21762814734E+02 -0.33112757010E+03  0.33420233609E+03  0.10000000000E+01 0.  0.
    9000005    1    3    3    0    0 -0.77455824157E+02 -0.37637606850E+02 -0.55909756082E+03  0.56569167986E+03  0.10000000000E+01 0.  0.
          4    1    1    2  501    0  0.37818547958E+02  0.15874792116E+02 -0.32519382860E+02  0.52358139348E+02  0.12700000000E+01 0. -1.
<mgrwt>
<rscale>  1 0.13156161E+03</rscale>
<asrwt>0</asrwt>
<pdfrwt beam="1">  1       21 0.22697519E-02 0.13156161E+03</pdfrwt>
<pdfrwt beam="2">  1        4 0.14423475E+00 0.13156161E+03</pdfrwt>
<totfact> 0.14310229E+04</totfact>
</mgrwt>
</event>
<event>
 6    4  0.6093247E-003  0.1281831E+03  0.7818608E-02  0.1230177E+00
         -4   -1    0    0    0  501 -0.00000000000E+00  0.00000000000E+00  0.45826270881E+02  0.45843865487E+02  0.12700000000E+01 0.  1.
         21   -1    0    0  501  502  0.00000000000E+00 -0.00000000000E+00 -0.13988440302E+03  0.13988440302E+03  0.00000000000E+00 0.  1.
         25    2    1    2    0    0 -0.49364237230E+01 -0.27854721444E+02 -0.60276503345E+02  0.14164805605E+03  0.12502264252E+03 0.  0.
    9000005    1    3    3    0    0 -0.10079001173E+02  0.49563168978E+02 -0.23560398926E+02  0.55804895675E+02  0.10000000000E+01 0.  0.
    9000005    1    3    3    0    0  0.51425774500E+01 -0.77417890422E+02 -0.36716104419E+02  0.85843160380E+02  0.10000000000E+01 0.  0.
         -4    1    1    2    0  502  0.49364237230E+01  0.27854721444E+02 -0.33781628800E+02  0.44080212457E+02  0.12700000000E+01 0. -1.
<mgrwt>
<rscale>  1 0.12818313E+03</rscale>
<asrwt>0</asrwt>
<pdfrwt beam="2">  1       21 0.21520677E-01 0.12818313E+03</pdfrwt>
<pdfrwt beam="1">  1       -4 0.70519926E-02 0.12818313E+03</pdfrwt>
<totfact> 0.10970522E+05</totfact>
</mgrwt>
</event>
<event>
 6    4  0.6093247E-003  0.1815498E+03  0.7818608E-02  0.1166312E+00
          4   -1    0    0  502    0 -0.00000000000E+00  0.00000000000E+00  0.10610540588E+03  0.10611300607E+03  0.12700000000E+01 0. -1.
         21   -1    0    0  501  502  0.00000000000E+00 -0.00000000000E+00 -0.41196687907E+03  0.41196687907E+03  0.00000000000E+00 0.  1.
         25    2    1    2    0    0  0.13022263606E+03 -0.19432233841E+02  0.37974380475E+01  0.18158946795E+03  0.12499907071E+03 0.  0.
    9000005    1    3    3    0    0  0.16738212075E+02 -0.38683546511E+02  0.42773680489E+02  0.60059739066E+02  0.10000000000E+01 0.  0.
    9000005    1    3    3    0    0  0.11348442399E+03  0.19251312670E+02 -0.38976242441E+02  0.12152972888E+03  0.10000000000E+01 0.  0.
          4    1    1    2  501    0 -0.13022263606E+03  0.19432233841E+02 -0.30965891124E+03  0.33649041720E+03  0.12700000000E+01 0.  1.
<mgrwt>
<rscale>  1 0.18154976E+03</rscale>
<asrwt>0</asrwt>
<pdfrwt beam="2">  1       21 0.63379520E-01 0.18154976E+03</pdfrwt>
<pdfrwt beam="1">  1        4 0.16324644E-01 0.18154976E+03</pdfrwt>
<totfact> 0.31381099E+03</totfact>
</mgrwt>
</event>
<event>
 6    4  0.6093247E-003  0.1320393E+03  0.7818608E-02  0.1224461E+00
         21   -1    0    0  501  502  0.00000000000E+00  0.00000000000E+00  0.84781587924E+02  0.84781587924E+02  0.00000000000E+00 0. -1.
          4   -1    0    0  502    0 -0.00000000000E+00 -0.00000000000E+00 -0.10358082876E+03  0.10358861418E+03  0.12700000000E+01 0. -1.
         25    2    1    2    0    0  0.10384708004E+02 -0.41235441008E+02 -0.43692167255E+02  0.13908050296E+03  0.12500470819E+03 0.  0.
    9000005    1    3    3    0    0  0.37678040889E+02  0.23685187619E+02  0.15440276051E+02  0.47117141279E+02  0.10000000000E+01 0.  0.
    9000005    1    3    3    0    0 -0.27293332884E+02 -0.64920628627E+02 -0.59132443306E+02  0.91963361686E+02  0.10000000000E+01 0.  0.
          4    1    1    2  501    0 -0.10384708004E+02  0.41235441008E+02  0.24892926416E+02  0.49289699137E+02  0.12700000000E+01 0.  1.
<mgrwt>
<rscale>  1 0.13203932E+03</rscale>
<asrwt>0</asrwt>
<pdfrwt beam="1">  1       21 0.13043321E-01 0.13203932E+03</pdfrwt>
<pdfrwt beam="2">  1        4 0.15936843E-01 0.13203932E+03</pdfrwt>
<totfact> 0.68913570E+04</totfact>
</mgrwt>
</event>
<event>
 6    4  0.6093247E-003  0.1398765E+03  0.7818608E-02  0.1213495E+00
         21   -1    0    0  501  502  0.00000000000E+00  0.00000000000E+00  0.84836816846E+02  0.84836816846E+02  0.00000000000E+00 0.  1.
         -4   -1    0    0    0  501 -0.00000000000E+00 -0.00000000000E+00 -0.26825964512E+03  0.26826265133E+03  0.12700000000E+01 0. -1.
         25    2    1    2    0    0 -0.78630643612E+01 -0.62281959938E+02 -0.23390170789E+03  0.27253520500E+03  0.12499823477E+03 0.  0.
    9000005    1    3    3    0    0 -0.46707921686E+02 -0.57144773113E+02 -0.21813921071E+03  0.23028866731E+03  0.10000000000E+01 0.  0.
    9000005    1    3    3    0    0  0.38844857324E+02 -0.51371868255E+01 -0.15762497174E+02  0.42246537683E+02  0.10000000000E+01 0.  0.
         -4    1    1    2    0  502  0.78630643612E+01  0.62281959938E+02  0.50478879614E+02  0.80564263182E+02  0.12700000000E+01 0.  1.
<mgrwt>
<rscale>  1 0.13987648E+03</rscale>
<asrwt>0</asrwt>
<pdfrwt beam="1">  1       21 0.13051818E-01 0.13987648E+03</pdfrwt>
<pdfrwt beam="2">  1       -4 0.41271677E-01 0.13987648E+03</pdfrwt>
<totfact> 0.11831541E+04</totfact>
</mgrwt>
</event>
<event>
 6    4  0.6093247E-003  0.1292110E+03  0.7818608E-02  0.1228631E+00
          4   -1    0    0  502    0 -0.00000000000E+00  0.00000000000E+00  0.28291174008E+02  0.28319665018E+02  0.12700000000E+01 0. -1.
         21   -1    0    0  501  502  0.00000000000E+00 -0.00000000000E+00 -0.92284620154E+03  0.92284620154E+03  0.00000000000E+00 0.  1.
         25    2    1    2    0    0  0.15252117931E+02 -0.28955694258E+02 -0.12132789556E+03  0.17724541208E+03  0.12499767411E+03 0.  0.
    9000005    1    3    3    0    0 -0.59922643831E+01  0.48472431187E+02 -0.48600429727E+02  0.68909256180E+02  0.10000000000E+01 0.  0.
    9000005    1    3    3    0    0  0.21244382314E+02 -0.77428125446E+02 -0.72727465831E+02  0.10833615590E+03  0.10000000000E+01 0.  0.
          4    1    1    2  501    0 -0.15252117931E+02  0.28955694258E+02 -0.77322713197E+03  0.77392045447E+03  0.12700000000E+01 0.  1.
<mgrwt>
<rscale>  1 0.12921098E+03</rscale>
<asrwt>0</asrwt>
<pdfrwt beam="2">  1       21 0.14197632E+00 0.12921098E+03</pdfrwt>
<pdfrwt beam="1">  1        4 0.43547477E-02 0.12921098E+03</pdfrwt>
<totfact> 0.43003106E+03</totfact>
</mgrwt>
</event>
<event>
 6    4  0.6093247E-003  0.1337978E+03  0.7818608E-02  0.1221927E+00
         21   -1    0    0  501  502  0.00000000000E+00  0.00000000000E+00  0.25357759285E+02  0.25357759285E+02  0.00000000000E+00 0. -1.
         -4   -1    0    0    0  501 -0.00000000000E+00 -0.00000000000E+00 -0.40057421462E+03  0.40057622785E+03  0.12700000000E+01 0.  1.
         25    2    1    2    0    0 -0.44797820078E+02  0.16423638318E+02 -0.34346962453E+03  0.36860986703E+03  0.12500108207E+03 0.  0.
    9000005    1    3    3    0    0  0.36975142471E+02 -0.61008309049E+01 -0.46316136809E+02  0.59586624568E+02  0.10000000000E+01 0.  0.
    9000005    1    3    3    0    0 -0.81772962549E+02  0.22524469223E+02 -0.29715348772E+03  0.30902324247E+03  0.10000000000E+01 0.  0.
         -4    1    1    2    0  502  0.44797820078E+02 -0.16423638318E+02 -0.31746830802E+02  0.57324120101E+02  0.12700000000E+01 0. -1.
<mgrwt>
<rscale>  1 0.13379780E+03</rscale>
<asrwt>0</asrwt>
<pdfrwt beam="1">  1       21 0.39011939E-02 0.13379780E+03</pdfrwt>
<pdfrwt beam="2">  1       -4 0.61629400E-01 0.13379780E+03</pdfrwt>
<totfact> 0.41353593E+04</totfact>
</mgrwt>
</event>
<event>
 6    4  0.6093247E-003  0.1330349E+03  0.7818608E-02  0.1223021E+00
         21   -1    0    0  501  502  0.00000000000E+00  0.00000000000E+00  0.99623281525E+02  0.99623281525E+02  0.00000000000E+00 0.  1.
         -4   -1    0    0    0  501 -0.00000000000E+00 -0.00000000000E+00 -0.43187294025E+03  0.43187480758E+03  0.12700000000E+01 0. -1.
         25    2    1    2    0    0  0.10402847022E+02 -0.44319306006E+02 -0.41567879632E+03  0.43644834418E+03  0.12500350122E+03 0.  0.
    9000005    1    3    3    0    0 -0.37469705446E+02  0.26175151855E+02 -0.11023610072E+03  0.11934033393E+03  0.10000000000E+01 0.  0.
    9000005    1    3    3    0    0  0.47872552468E+02 -0.70494457860E+02 -0.30544269560E+03  0.31710801025E+03  0.10000000000E+01 0.  0.
         -4    1    1    2    0  502 -0.10402847022E+02  0.44319306006E+02  0.83429137592E+02  0.95049744925E+02  0.12700000000E+01 0.  1.
<mgrwt>
<rscale>  1 0.13303494E+03</rscale>
<asrwt>0</asrwt>
<pdfrwt beam="1">  1       21 0.15326659E-01 0.13303494E+03</pdfrwt>
<pdfrwt beam="2">  1       -4 0.66442756E-01 0.13303494E+03</pdfrwt>
<totfact> 0.33208641E+03</totfact>
</mgrwt>
</event>
<event>
 6    4  0.6093247E-003  0.1268455E+03  0.7818608E-02  0.1232213E+00
          4   -1    0    0  502    0 -0.00000000000E+00  0.00000000000E+00  0.52847995023E+03  0.52848147620E+03  0.12700000000E+01 0.  1.
         21   -1    0    0  501  502  0.00000000000E+00 -0.00000000000E+00 -0.14841787469E+02  0.14841787469E+02  0.00000000000E+00 0. -1.
         25    2    1    2    0    0 -0.17343396287E+02  0.12800834790E+02  0.50392803709E+03  0.51964723768E+03  0.12500052122E+03 0.  0.
    9000005    1    3    3    0    0 -0.18718757614E+02  0.66428610577E+02  0.34705850421E+03  0.35385556027E+03  0.10000000000E+01 0.  0.
    9000005    1    3    3    0    0  0.13753613270E+01 -0.53627775787E+02  0.15686953288E+03  0.16579167741E+03  0.10000000000E+01 0.  0.
          4    1    1    2  501    0  0.17343396287E+02 -0.12800834790E+02  0.97101256707E+01  0.23676025989E+02  0.12700000000E+01 0. -1.
<mgrwt>
<rscale>  1 0.12684552E+03</rscale>
<asrwt>0</asrwt>
<pdfrwt beam="2">  1       21 0.22833523E-02 0.12684552E+03</pdfrwt>
<pdfrwt beam="1">  1        4 0.81308890E-01 0.12684552E+03</pdfrwt>
<totfact> 0.54325217E+04</totfact>
</mgrwt>
</event>
<event>
 6    4  0.6093247E-003  0.1277219E+03  0.7818608E-02  0.1230876E+00
          4   -1    0    0  502    0 -0.00000000000E+00  0.00000000000E+00  0.10579622133E+04  0.10579629756E+04  0.12700000000E+01 0.  1.
         21   -1    0    0  501  502  0.00000000000E+00 -0.00000000000E+00 -0.87423955605E+01  0.87423955605E+01  0.00000000000E+00 0. -1.
         25    2    1    2    0    0 -0.14205007077E+02 -0.22184981259E+02  0.10173593531E+04  0.10253452729E+04  0.12497567643E+03 0.  0.
    9000005    1    3    3    0    0 -0.60027373206E+02 -0.41842441944E+02  0.73320557432E+03  0.73684834919E+03  0.10000000000E+01 0.  0.
    9000005    1    3    3    0    0  0.45822366129E+02  0.19657460685E+02  0.28415377873E+03  0.28849692366E+03  0.10000000000E+01 0.  0.
          4    1    1    2  501    0  0.14205007077E+02  0.22184981259E+02  0.31860464704E+02  0.41360098291E+02  0.12700000000E+01 0. -1.
<mgrwt>
<rscale>  1 0.12772187E+03</rscale>
<asrwt>0</asrwt>
<pdfrwt beam="2">  1       21 0.13449848E-02 0.12772187E+03</pdfrwt>
<pdfrwt beam="1">  1        4 0.16277047E+00 0.12772187E+03</pdfrwt>
<totfact> 0.24248821E+04</totfact>
</mgrwt>
</event>
<event>
 6    4  0.6093247E-003  0.1269181E+03  0.7818608E-02  0.1232102E+00
          4   -1    0    0  502    0 -0.00000000000E+00  0.00000000000E+00  0.17700522171E+02  0.17746024488E+02  0.12700000000E+01 0. -1.
         21   -1    0    0  501  502  0.00000000000E+00 -0.00000000000E+00 -0.31821025588E+03  0.31821025588E+03  0.00000000000E+00 0. -1.
         25    2    1    2    0    0  0.12685997055E+02 -0.17945664573E+02 -0.26990946614E+03  0.29826051570E+03  0.12500093567E+03 0.  0.
    9000005    1    3    3    0    0 -0.26688728799E+02 -0.55227440480E+02 -0.80326412134E+02  0.10107270113E+03  0.10000000000E+01 0.  0.
    9000005    1    3    3    0    0  0.39374725854E+02  0.37281775907E+02 -0.18958305401E+03  0.19718781458E+03  0.10000000000E+01 0.  0.
          4    1    1    2  501    0 -0.12685997055E+02  0.17945664573E+02 -0.30600267565E+02  0.37695764660E+02  0.12700000000E+01 0.  1.
<mgrwt>
<rscale>  1 0.12691814E+03</rscale>
<asrwt>0</asrwt>
<pdfrwt beam="2">  1       21 0.48955423E-01 0.12691814E+03</pdfrwt>
<pdfrwt beam="1">  1        4 0.27268525E-02 0.12691814E+03</pdfrwt>
<totfact> 0.10046225E+05</totfact>
</mgrwt>
</event>
<event>
 6    4  0.6093247E-003  0.1310489E+03  0.7818608E-02  0.1225908E+00
         21   -1    0    0  501  502  0.00000000000E+00  0.00000000000E+00  0.48988066908E+01  0.48988066908E+01  0.00000000000E+00 0.  1.
          4   -1    0    0  502    0 -0.00000000000E+00 -0.00000000000E+00 -0.15047298248E+04  0.15047303607E+04  0.12700000000E+01 0.  1.
         25    2    1    2    0    0 -0.17046921391E+02 -0.35475467973E+02 -0.12253334607E+04  0.12323213452E+04  0.12499880612E+03 0.  0.
    9000005    1    3    3    0    0 -0.27905694698E+01  0.46405887680E+02 -0.35620102005E+03  0.35922341290E+03  0.10000000000E+01 0.  0.
    9000005    1    3    3    0    0 -0.14256351921E+02 -0.81881355653E+02 -0.86913244063E+03  0.87309793227E+03  0.10000000000E+01 0.  0.
          4    1    1    2  501    0  0.17046921391E+02  0.35475467973E+02 -0.27449755740E+03  0.27730782224E+03  0.12700000000E+01 0. -1.
<mgrwt>
<rscale>  1 0.13104888E+03</rscale>
<asrwt>0</asrwt>
<pdfrwt beam="1">  1       21 0.75366241E-03 0.13104888E+03</pdfrwt>
<pdfrwt beam="2">  1        4 0.23150965E+00 0.13104888E+03</pdfrwt>
<totfact> 0.22355318E+04</totfact>
</mgrwt>
</event>
<event>
 6    4  0.6093247E-003  0.1266996E+03  0.7818608E-02  0.1232437E+00
         21   -1    0    0  501  502  0.00000000000E+00  0.00000000000E+00  0.14186538462E+03  0.14186538462E+03  0.00000000000E+00 0.  1.
         -4   -1    0    0    0  501 -0.00000000000E+00 -0.00000000000E+00 -0.46016729097E+02  0.46034250910E+02  0.12700000000E+01 0.  1.
         25    2    1    2    0    0 -0.20395688844E+02 -0.34264265391E+01  0.47522664470E+02  0.13531885165E+03  0.12500025380E+03 0.  0.
    9000005    1    3    3    0    0  0.23235359155E+02  0.19223553444E+02 -0.30623222400E+02  0.42990797530E+02  0.10000000000E+01 0.  0.
    9000005    1    3    3    0    0 -0.43631047999E+02 -0.22649979983E+02  0.78145886870E+02  0.92328054119E+02  0.10000000000E+01 0.  0.
         -4    1    1    2    0  502  0.20395688844E+02  0.34264265391E+01  0.48325991048E+02  0.52580783876E+02  0.12700000000E+01 0. -1.
<mgrwt>
<rscale>  1 0.12669960E+03</rscale>
<asrwt>0</asrwt>
<pdfrwt beam="1">  1       21 0.21825444E-01 0.12669960E+03</pdfrwt>
<pdfrwt beam="2">  1       -4 0.70812820E-02 0.12669960E+03</pdfrwt>
<totfact> 0.10597481E+05</totfact>
</mgrwt>
</event>
<event>
 6    4  0.6093247E-003  0.1361703E+03  0.7818608E-02  0.1218577E+00
          4   -1    0    0  502    0 -0.00000000000E+00  0.00000000000E+00  0.16043055388E+02  0.16093244737E+02  0.12700000000E+01 0.  1.
         21   -1    0    0  501  502  0.00000000000E+00 -0.00000000000E+00 -0.88958402227E+03  0.88958402227E+03  0.00000000000E+00 0. -1.
         25    2    1    2    0    0 -0.17765684170E+02 -0.51047699473E+02 -0.29840812132E+03  0.32800877202E+03  0.12498344089E+03 0.  0.
    9000005    1    3    3    0    0 -0.62507004509E+02  0.13972485474E+01 -0.99768697411E+02  0.11774494002E+03  0.10000000000E+01 0.  0.
    9000005    1    3    3    0    0  0.44741320340E+02 -0.52444948020E+02 -0.19863942391E+03  0.21026383201E+03  0.10000000000E+01 0.  0.
          4    1    1    2  501    0  0.17765684170E+02  0.51047699473E+02 -0.57513284556E+03  0.57766849498E+03  0.12700000000E+01 0. -1.
<mgrwt>
<rscale>  1 0.13617029E+03</rscale>
<asrwt>0</asrwt>
<pdfrwt beam="2">  1       21 0.13685906E+00 0.13617029E+03</pdfrwt>
<pdfrwt beam="1">  1        4 0.24720932E-02 0.13617029E+03</pdfrwt>
<totfact> 0.11527399E+04</totfact>
</mgrwt>
</event>
<event>
 6    4  0.6093247E-003  0.1370672E+03  0.7818608E-02  0.1217331E+00
         21   -1    0    0  501  502  0.00000000000E+00  0.00000000000E+00  0.31572744696E+03  0.31572744696E+03  0.00000000000E+00 0.  1.
          4   -1    0    0  502    0 -0.00000000000E+00 -0.00000000000E+00 -0.92879782822E+02  0.92888465145E+02  0.12700000000E+01 0. -1.
         25    2    1    2    0    0 -0.52881385413E+02  0.19040504055E+02 -0.37631323373E+02  0.14213908844E+03  0.12501368823E+03 0.  0.
    9000005    1    3    3    0    0 -0.61340671302E+02 -0.40318726841E+02 -0.43150231621E+01  0.73538405713E+02  0.10000000000E+01 0.  0.
    9000005    1    3    3    0    0  0.84592858899E+01  0.59359230896E+02 -0.33316300211E+02  0.68600682723E+02  0.10000000000E+01 0.  0.
          4    1    1    2  501    0  0.52881385413E+02 -0.19040504055E+02  0.26047898751E+03  0.26647682367E+03  0.12700000000E+01 0.  1.
<mgrwt>
<rscale>  1 0.13706715E+03</rscale>
<asrwt>0</asrwt>
<pdfrwt beam="1">  1       21 0.48573453E-01 0.13706715E+03</pdfrwt>
<pdfrwt beam="2">  1        4 0.14290062E-01 0.13706715E+03</pdfrwt>
<totfact> 0.68574328E+03</totfact>
</mgrwt>
</event>
<event>
 6    4  0.6093247E-003  0.1271662E+03  0.7818608E-02  0.1231722E+00
          4   -1    0    0  502    0 -0.00000000000E+00  0.00000000000E+00  0.44881923129E+01  0.46644153157E+01  0.12700000000E+01 0. -1.
         21   -1    0    0  501  502  0.00000000000E+00 -0.00000000000E+00 -0.20549700913E+04  0.20549700913E+04  0.00000000000E+00 0.  1.
         25    2    1    2    0    0  0.15695904973E+02  0.17321535524E+02 -0.90262122957E+03  0.91153515276E+03  0.12499941449E+03 0.  0.
    9000005    1    3    3    0    0 -0.47791021626E+02  0.36907958407E+02 -0.46251512073E+03  0.46644122464E+03  0.10000000000E+01 0.  0.
    9000005    1    3    3    0    0  0.63486926599E+02 -0.19586422883E+02 -0.44010610884E+03  0.44509392812E+03  0.10000000000E+01 0.  0.
          4    1    1    2  501    0 -0.15695904973E+02 -0.17321535524E+02 -0.11478606694E+04  0.11480993539E+04  0.12700000000E+01 0.  1.
<mgrwt>
<rscale>  1 0.12716623E+03</rscale>
<asrwt>0</asrwt>
<pdfrwt beam="2">  1       21 0.31614929E+00 0.12716623E+03</pdfrwt>
<pdfrwt beam="1">  1        4 0.70407683E-03 0.12716623E+03</pdfrwt>
<totfact> 0.59438095E+03</totfact>
</mgrwt>
</event>
<event>
 6    4  0.6093247E-003  0.1269520E+03  0.7818608E-02  0.1232050E+00
          4   -1    0    0  502    0 -0.00000000000E+00  0.00000000000E+00  0.98318733407E+02  0.98326935470E+02  0.12700000000E+01 0.  1.
         21   -1    0    0  501  502  0.00000000000E+00 -0.00000000000E+00 -0.70606763497E+02  0.70606763497E+02  0.00000000000E+00 0. -1.
         25    2    1    2    0    0 -0.18283234168E+02 -0.12543327511E+02  0.50945784019E+02  0.13679284125E+03  0.12500078716E+03 0.  0.
    9000005    1    3    3    0    0  0.21686133424E+02  0.46067116663E+02  0.40525484738E+02  0.65082889716E+02  0.10000000000E+01 0.  0.
    9000005    1    3    3    0    0 -0.39969367592E+02 -0.58610444174E+02  0.10420299281E+02  0.71709951535E+02  0.10000000000E+01 0.  0.
          4    1    1    2  501    0  0.18283234168E+02  0.12543327511E+02 -0.23233814108E+02  0.32140857716E+02  0.12700000000E+01 0. -1.
<mgrwt>
<rscale>  1 0.12695199E+03</rscale>
<asrwt>0</asrwt>
<pdfrwt beam="2">  1       21 0.10862579E-01 0.12695199E+03</pdfrwt>
<pdfrwt beam="1">  1        4 0.15127468E-01 0.12695199E+03</pdfrwt>
<totfact> 0.10381548E+05</totfact>
</mgrwt>
</event>
<event>
 6    4  0.6093247E-003  0.1367643E+03  0.7818608E-02  0.1217750E+00
         21   -1    0    0  501  502  0.00000000000E+00  0.00000000000E+00  0.69777379171E+02  0.69777379171E+02  0.00000000000E+00 0. -1.
          4   -1    0    0  502    0 -0.00000000000E+00 -0.00000000000E+00 -0.14077885443E+03  0.14078458281E+03  0.12700000000E+01 0.  1.
         25    2    1    2    0    0  0.45356321871E+02  0.31972940481E+02 -0.72982637697E+02  0.15501916081E+03  0.12500003983E+03 0.  0.
    9000005    1    3    3    0    0  0.80334677737E+02  0.23459720239E+02 -0.12496712203E+02  0.84623795334E+02  0.10000000000E+01 0.  0.
    9000005    1    3    3    0    0 -0.34978355866E+02  0.85132202424E+01 -0.60485925493E+02  0.70395365478E+02  0.10000000000E+01 0.  0.
          4    1    1    2  501    0 -0.45356321871E+02 -0.31972940481E+02  0.19811624325E+01  0.55542801165E+02  0.12700000000E+01 0. -1.
<mgrwt>
<rscale>  1 0.13676430E+03</rscale>
<asrwt>0</asrwt>
<pdfrwt beam="1">  1       21 0.10734981E-01 0.13676430E+03</pdfrwt>
<pdfrwt beam="2">  1        4 0.21659615E-01 0.13676430E+03</pdfrwt>
<totfact> 0.56529456E+04</totfact>
</mgrwt>
</event>
<event>
 6    4  0.6093247E-003  0.1283991E+03  0.7818608E-02  0.1229851E+00
         21   -1    0    0  501  502  0.00000000000E+00  0.00000000000E+00  0.12490740707E+03  0.12490740707E+03  0.00000000000E+00 0.  1.
          4   -1    0    0  502    0 -0.00000000000E+00 -0.00000000000E+00 -0.17309463287E+03  0.17309929182E+03  0.12700000000E+01 0. -1.
         25    2    1    2    0    0 -0.14472546260E+02  0.25550381383E+02 -0.14684514038E+03  0.19506363893E+03  0.12499620552E+03 0.  0.
    9000005    1    3    3    0    0  0.54519611362E+02 -0.78493622732E+00 -0.61154214016E+02  0.81938037809E+02  0.10000000000E+01 0.  0.
    9000005    1    3    3    0    0 -0.68992157622E+02  0.26335317611E+02 -0.85690926364E+02  0.11312560112E+03  0.10000000000E+01 0.  0.
          4    1    1    2  501    0  0.14472546260E+02 -0.25550381383E+02  0.98657914588E+02  0.10294305997E+03  0.12700000000E+01 0.  1.
<mgrwt>
<rscale>  1 0.12839910E+03</rscale>
<asrwt>0</asrwt>
<pdfrwt beam="1">  1       21 0.19216524E-01 0.12839910E+03</pdfrwt>
<pdfrwt beam="2">  1        4 0.26630798E-01 0.12839910E+03</pdfrwt>
<totfact> 0.13479933E+04</totfact>
</mgrwt>
</event>
<event>
 6    4  0.6093247E-003  0.1321506E+03  0.7818608E-02  0.1224299E+00
          4   -1    0    0  502    0 -0.00000000000E+00  0.00000000000E+00  0.24680942482E+02  0.24713595890E+02  0.12700000000E+01 0.  1.
         21   -1    0    0  501  502  0.00000000000E+00 -0.00000000000E+00 -0.43169446614E+03  0.43169446614E+03  0.00000000000E+00 0.  1.
         25    2    1    2    0    0 -0.40888683296E+02  0.12967899216E+02 -0.16888402717E+03  0.21444252558E+03  0.12499492514E+03 0.  0.
    9000005    1    3    3    0    0 -0.80510230030E+02  0.13938680794E+02 -0.68899746191E+02  0.10688479306E+03  0.10000000000E+01 0.  0.
    9000005    1    3    3    0    0  0.39621546734E+02 -0.97078157790E+00 -0.99984280977E+02  0.10755773252E+03  0.10000000000E+01 0.  0.
          4    1    1    2  501    0  0.40888683296E+02 -0.12967899216E+02 -0.23812949649E+03  0.24196553645E+03  0.12700000000E+01 0. -1.
<mgrwt>
<rscale>  1 0.13215060E+03</rscale>
<asrwt>0</asrwt>
<pdfrwt beam="2">  1       21 0.66414528E-01 0.13215060E+03</pdfrwt>
<pdfrwt beam="1">  1        4 0.37997239E-02 0.13215060E+03</pdfrwt>
<totfact> 0.31522642E+04</totfact>
</mgrwt>
</event>
<event>
 6    4  0.6093247E-003  0.1269359E+03  0.7818608E-02  0.1232074E+00
         -4   -1    0    0    0  501 -0.00000000000E+00  0.00000000000E+00  0.22356117799E+03  0.22356478525E+03  0.12700000000E+01 0.  1.
         21   -1    0    0  501  502  0.00000000000E+00 -0.00000000000E+00 -0.25635727800E+02  0.25635727800E+02  0.00000000000E+00 0.  1.
         25    2    1    2    0    0  0.21950822682E+02  0.17353348319E+01  0.18242661434E+03  0.22224356930E+03  0.12501153737E+03 0.  0.
    9000005    1    3    3    0    0 -0.27215294360E+02  0.34580557381E+02  0.14668121299E+03  0.15314328401E+03  0.10000000000E+01 0.  0.
    9000005    1    3    3    0    0  0.49166117042E+02 -0.32845222549E+02  0.35745401350E+02  0.69100285289E+02  0.10000000000E+01 0.  0.
         -4    1    1    2    0  502 -0.21950822682E+02 -0.17353348319E+01  0.15498835853E+02  0.26956943747E+02  0.12700000000E+01 0. -1.
<mgrwt>
<rscale>  1 0.12693595E+03</rscale>
<asrwt>0</asrwt>
<pdfrwt beam="2">  1       21 0.39439583E-02 0.12693595E+03</pdfrwt>
<pdfrwt beam="1">  1       -4 0.34396723E-01 0.12693595E+03</pdfrwt>
<totfact> 0.13025109E+05</totfact>
</mgrwt>
</event>
<event>
 6    4  0.6093247E-003  0.1599097E+03  0.7818608E-02  0.1188799E+00
         -4   -1    0    0    0  501 -0.00000000000E+00  0.00000000000E+00  0.44353179860E+02  0.44371358596E+02  0.12700000000E+01 0. -1.
         21   -1    0    0  501  502  0.00000000000E+00 -0.00000000000E+00 -0.53059197769E+03  0.53059197769E+03  0.00000000000E+00 0.  1.
         25    2    1    2    0    0 -0.27387375368E+02  0.95885456393E+02 -0.13322980979E+03  0.20813769976E+03  0.12500812280E+03 0.  0.
    9000005    1    3    3    0    0 -0.72868854672E+02  0.82960536492E+02 -0.76770442777E+02  0.13448799753E+03  0.10000000000E+01 0.  0.
    9000005    1    3    3    0    0  0.45481479304E+02  0.12924919900E+02 -0.56459367012E+02  0.73649702223E+02  0.10000000000E+01 0.  0.
         -4    1    1    2    0  502  0.27387375368E+02 -0.95885456393E+02 -0.35300898804E+03  0.36682563653E+03  0.12700000000E+01 0.  1.
<mgrwt>
<rscale>  1 0.15990972E+03</rscale>
<asrwt>0</asrwt>
<pdfrwt beam="2">  1       21 0.81629541E-01 0.15990972E+03</pdfrwt>
<pdfrwt beam="1">  1       -4 0.68250809E-02 0.15990972E+03</pdfrwt>
<totfact> 0.78841629E+03</totfact>
</mgrwt>
</event>
<event>
 6    4  0.6093247E-003  0.1346250E+03  0.7818608E-02  0.1220750E+00
          4   -1    0    0  502    0 -0.00000000000E+00  0.00000000000E+00  0.21806604610E+03  0.21806974426E+03  0.12700000000E+01 0. -1.
         21   -1    0    0  501  502  0.00000000000E+00 -0.00000000000E+00 -0.58113885414E+02  0.58113885414E+02  0.00000000000E+00 0.  1.
         25    2    1    2    0    0  0.13406249427E+02 -0.48164830103E+02  0.17785741589E+03  0.22306311155E+03  0.12499725183E+03 0.  0.
    9000005    1    3    3    0    0 -0.26637972166E+02 -0.28493894128E+02  0.17394302867E+03  0.17826570278E+03  0.10000000000E+01 0.  0.
    9000005    1    3    3    0    0  0.40044221592E+02 -0.19670935975E+02  0.39143872152E+01  0.44797408768E+02  0.10000000000E+01 0.  0.
          4    1    1    2  501    0 -0.13406249427E+02  0.48164830103E+02 -0.17905255198E+02  0.53120518129E+02  0.12700000000E+01 0.  1.
<mgrwt>
<rscale>  1 0.13462500E+03</rscale>
<asrwt>0</asrwt>
<pdfrwt beam="2">  1       21 0.89405979E-02 0.13462500E+03</pdfrwt>
<pdfrwt beam="1">  1        4 0.33549974E-01 0.13462500E+03</pdfrwt>
<totfact> 0.34359656E+04</totfact>
</mgrwt>
</event>
<event>
 6    4  0.6093247E-003  0.1269241E+03  0.7818608E-02  0.1232093E+00
          4   -1    0    0  502    0 -0.00000000000E+00  0.00000000000E+00  0.37745648173E+02  0.37767007507E+02  0.12700000000E+01 0.  1.
         21   -1    0    0  501  502  0.00000000000E+00 -0.00000000000E+00 -0.15006381123E+03  0.15006381123E+03  0.00000000000E+00 0.  1.
         25    2    1    2    0    0 -0.18544205307E+02  0.11865740495E+02 -0.10458529950E+03  0.16446217679E+03  0.12500015750E+03 0.  0.
    9000005    1    3    3    0    0 -0.26487168078E+02  0.10112857404E+02 -0.13243094805E+03  0.13543557863E+03  0.10000000000E+01 0.  0.
    9000005    1    3    3    0    0  0.79429627710E+01  0.17528830909E+01  0.27845648556E+02  0.29026598151E+02  0.10000000000E+01 0.  0.
          4    1    1    2  501    0  0.18544205307E+02 -0.11865740495E+02 -0.77328635632E+01  0.23368641956E+02  0.12700000000E+01 0. -1.
<mgrwt>
<rscale>  1 0.12692408E+03</rscale>
<asrwt>0</asrwt>
<pdfrwt beam="2">  1       21 0.23086740E-01 0.12692408E+03</pdfrwt>
<pdfrwt beam="1">  1        4 0.58090792E-02 0.12692408E+03</pdfrwt>
<totfact> 0.13179428E+05</totfact>
</mgrwt>
</event>
<event>
 6    4  0.6093247E-003  0.1316830E+03  0.7818608E-02  0.1224980E+00
          4   -1    0    0  502    0 -0.00000000000E+00  0.00000000000E+00  0.34610163599E+03  0.34610396608E+03  0.12700000000E+01 0.  1.
         21   -1    0    0  501  502  0.00000000000E+00 -0.00000000000E+00 -0.30655004273E+02  0.30655004273E+02  0.00000000000E+00 0. -1.
         25    2    1    2    0    0  0.47409978745E+01 -0.41127066471E+02  0.30760255010E+03  0.33460383812E+03  0.12500594784E+03 0.  0.
    9000005    1    3    3    0    0 -0.49584521936E+02  0.74760321243E+00  0.20686086162E+03  0.21272423415E+03  0.10000000000E+01 0.  0.
    9000005    1    3    3    0    0  0.54325519811E+02 -0.41874669683E+02  0.10074168848E+03  0.12187960396E+03  0.10000000000E+01 0.  0.
          4    1    1    2  501    0 -0.47409978745E+01  0.41127066471E+02  0.78440816147E+01  0.42155132234E+02  0.12700000000E+01 0. -1.
<mgrwt>
<rscale>  1 0.13168295E+03</rscale>
<asrwt>0</asrwt>
<pdfrwt beam="2">  1       21 0.47161547E-02 0.13168295E+03</pdfrwt>
<pdfrwt beam="1">  1        4 0.53248606E-01 0.13168295E+03</pdfrwt>
<totfact> 0.40778052E+04</totfact>
</mgrwt>
</event>
<event>
 6    4  0.6093247E-003  0.1431060E+03  0.7818608E-02  0.1209210E+00
         21   -1    0    0  501  502  0.00000000000E+00  0.00000000000E+00  0.16499021104E+02  0.16499021104E+02  0.00000000000E+00 0. -1.
         -4   -1    0    0    0  501 -0.00000000000E+00 -0.00000000000E+00 -0.77178122436E+03  0.77178226928E+03  0.12700000000E+01 0.  1.
         25    2    1    2    0    0 -0.37386821329E+02  0.58715221944E+02 -0.61802942433E+03  0.63438135562E+03  0.12503632802E+03 0.  0.
    9000005    1    3    3    0    0 -0.41385311278E+02 -0.23654762460E+02 -0.11276948602E+03  0.12243467137E+03  0.10000000000E+01 0.  0.
    9000005    1    3    3    0    0  0.39984899487E+01  0.82369984405E+02 -0.50525993831E+03  0.51194668425E+03  0.10000000000E+01 0.  0.
         -4    1    1    2    0  502  0.37386821329E+02 -0.58715221944E+02 -0.13725277892E+03  0.15389993476E+03  0.12700000000E+01 0. -1.
<mgrwt>
<rscale>  1 0.14310603E+03</rscale>
<asrwt>0</asrwt>
<pdfrwt beam="1">  1       21 0.25383113E-02 0.14310603E+03</pdfrwt>
<pdfrwt beam="2">  1       -4 0.11873940E+00 0.14310603E+03</pdfrwt>
<totfact> 0.19398142E+04</totfact>
</mgrwt>
</event>
<event>
 6    4  0.6093247E-003  0.1353134E+03  0.7818608E-02  0.1219778E+00
          4   -1    0    0  502    0 -0.00000000000E+00  0.00000000000E+00  0.31185148589E+02  0.31210997942E+02  0.12700000000E+01 0. -1.
         21   -1    0    0  501  502  0.00000000000E+00 -0.00000000000E+00 -0.85522011219E+03  0.85522011219E+03  0.00000000000E+00 0.  1.
         25    2    1    2    0    0 -0.43275530490E+02  0.28581041032E+02 -0.12111676761E+03  0.18160116568E+03  0.12498025658E+03 0.  0.
    9000005    1    3    3    0    0 -0.10912485400E+02  0.13850913837E+00 -0.13567110229E+03  0.13611300276E+03  0.10000000000E+01 0.  0.
    9000005    1    3    3    0    0 -0.32363045090E+02  0.28442531893E+02  0.14554334681E+02  0.45488162922E+02  0.10000000000E+01 0.  0.
          4    1    1    2  501    0  0.43275530490E+02 -0.28581041032E+02 -0.70291819599E+03  0.70482994446E+03  0.12700000000E+01 0.  1.
<mgrwt>
<rscale>  1 0.13531338E+03</rscale>
<asrwt>0</asrwt>
<pdfrwt beam="2">  1       21 0.13157235E+00 0.13531338E+03</pdfrwt>
<pdfrwt beam="1">  1        4 0.47997753E-02 0.13531338E+03</pdfrwt>
<totfact> 0.44671178E+03</totfact>
</mgrwt>
</event>
<event>
 6    4  0.6093247E-003  0.1266946E+03  0.7818608E-02  0.1232444E+00
         21   -1    0    0  501  502  0.00000000000E+00  0.00000000000E+00  0.33881410938E+03  0.33881410938E+03  0.00000000000E+00 0.  1.
         -4   -1    0    0    0  501 -0.00000000000E+00 -0.00000000000E+00 -0.17052130642E+02  0.17099358451E+02  0.12700000000E+01 0.  1.
         25    2    1    2    0    0 -0.13469854236E+02 -0.15561174480E+02  0.23766585716E+03  0.26932618419E+03  0.12501178626E+03 0.  0.
    9000005    1    3    3    0    0  0.35892775599E+01  0.19112969353E+02  0.22885049755E+03  0.22967746676E+03  0.10000000000E+01 0.  0.
    9000005    1    3    3    0    0 -0.17059131796E+02 -0.34674143833E+02  0.88153596103E+01  0.39648717422E+02  0.10000000000E+01 0.  0.
         -4    1    1    2    0  502  0.13469854236E+02  0.15561174480E+02  0.84096121581E+02  0.86587283646E+02  0.12700000000E+01 0. -1.
<mgrwt>
<rscale>  1 0.12669465E+03</rscale>
<asrwt>0</asrwt>
<pdfrwt beam="1">  1       21 0.52125242E-01 0.12669465E+03</pdfrwt>
<pdfrwt beam="2">  1       -4 0.26272210E-02 0.12669465E+03</pdfrwt>
<totfact> 0.93496262E+04</totfact>
</mgrwt>
</event>
<event>
 6    4  0.6093247E-003  0.1308136E+03  0.7818608E-02  0.1226253E+00
         21   -1    0    0  501  502  0.00000000000E+00  0.00000000000E+00  0.43159515559E+03  0.43159515559E+03  0.00000000000E+00 0.  1.
          4   -1    0    0  502    0 -0.00000000000E+00 -0.00000000000E+00 -0.19168107885E+02  0.19210134302E+02  0.12700000000E+01 0. -1.
         25    2    1    2    0    0 -0.10285539414E+01  0.38544138687E+02  0.23236229691E+03  0.26665416736E+03  0.12500199757E+03 0.  0.
    9000005    1    3    3    0    0 -0.23068454492E+02  0.35524884564E+02  0.23953959952E+03  0.24325786884E+03  0.10000000000E+01 0.  0.
    9000005    1    3    3    0    0  0.22039900550E+02  0.30192541224E+01 -0.71773026086E+01  0.23396298520E+02  0.10000000000E+01 0.  0.
          4    1    1    2  501    0  0.10285539414E+01 -0.38544138687E+02  0.18006475080E+03  0.18415112253E+03  0.12700000000E+01 0.  1.
<mgrwt>
<rscale>  1 0.13081364E+03</rscale>
<asrwt>0</asrwt>
<pdfrwt beam="1">  1       21 0.66399247E-01 0.13081364E+03</pdfrwt>
<pdfrwt beam="2">  1        4 0.29523165E-02 0.13081364E+03</pdfrwt>
<totfact> 0.46864251E+04</totfact>
</mgrwt>
</event>
<event>
 6    4  0.6093247E-003  0.1296201E+03  0.7818608E-02  0.1228021E+00
         -4   -1    0    0    0  501 -0.00000000000E+00  0.00000000000E+00  0.36356552678E+02  0.36378727612E+02  0.12700000000E+01 0.  1.
         21   -1    0    0  501  502  0.00000000000E+00 -0.00000000000E+00 -0.21740579863E+03  0.21740579863E+03  0.00000000000E+00 0.  1.
         25    2    1    2    0    0  0.30698517871E+02  0.15287440979E+02 -0.93714793346E+02  0.15994943492E+03  0.12500101755E+03 0.  0.
    9000005    1    3    3    0    0  0.72082208477E+02  0.33783035970E+02 -0.79312625501E+02  0.11237718123E+03  0.10000000000E+01 0.  0.
    9000005    1    3    3    0    0 -0.41383690606E+02 -0.18495594992E+02 -0.14402167845E+02  0.47572253687E+02  0.10000000000E+01 0.  0.
         -4    1    1    2    0  502 -0.30698517871E+02 -0.15287440979E+02 -0.87334452606E+02  0.93835091321E+02  0.12700000000E+01 0. -1.
<mgrwt>
<rscale>  1 0.12962006E+03</rscale>
<asrwt>0</asrwt>
<pdfrwt beam="2">  1       21 0.33447046E-01 0.12962006E+03</pdfrwt>
<pdfrwt beam="1">  1       -4 0.55953070E-02 0.12962006E+03</pdfrwt>
<totfact> 0.69115631E+04</totfact>
</mgrwt>
</event>
<event>
 6    4  0.6093247E-003  0.1296818E+03  0.7818608E-02  0.1227929E+00
         -4   -1    0    0    0  501 -0.00000000000E+00  0.00000000000E+00  0.63762580335E+02  0.63775226781E+02  0.12700000000E+01 0. -1.
         21   -1    0    0  501  502  0.00000000000E+00 -0.00000000000E+00 -0.10589190410E+03  0.10589190410E+03  0.00000000000E+00 0. -1.
         25    2    1    2    0    0  0.34406928818E+02 -0.31581722463E+01 -0.35620582075E+02  0.13448492770E+03  0.12499423630E+03 0.  0.
    9000005    1    3    3    0    0 -0.17516107337E+02  0.15076961642E+02  0.36833527710E+02  0.43495258962E+02  0.10000000000E+01 0.  0.
    9000005    1    3    3    0    0  0.51923036156E+02 -0.18235133889E+02 -0.72454109785E+02  0.90989668734E+02  0.10000000000E+01 0.  0.
         -4    1    1    2    0  502 -0.34406928818E+02  0.31581722463E+01 -0.65087416913E+01  0.35182203186E+02  0.12700000000E+01 0.  1.
<mgrwt>
<rscale>  1 0.12968180E+03</rscale>
<asrwt>0</asrwt>
<pdfrwt beam="2">  1       21 0.16291062E-01 0.12968180E+03</pdfrwt>
<pdfrwt beam="1">  1       -4 0.98111865E-02 0.12968180E+03</pdfrwt>
<totfact> 0.10594327E+05</totfact>
</mgrwt>
</event>
<event>
 6    4  0.6093247E-003  0.1283010E+03  0.7818608E-02  0.1229999E+00
         21   -1    0    0  501  502  0.00000000000E+00  0.00000000000E+00  0.27585811721E+03  0.27585811721E+03  0.00000000000E+00 0. -1.
          4   -1    0    0  502    0 -0.00000000000E+00 -0.00000000000E+00 -0.35722839679E+02  0.35745407743E+02  0.12700000000E+01 0.  1.
         25    2    1    2    0    0  0.56473722282E+01 -0.28371521367E+02  0.85264947882E+02  0.15404950900E+03  0.12499721536E+03 0.  0.
    9000005    1    3    3    0    0  0.38732066073E+02 -0.66375289031E+02  0.41740455409E+02  0.87459233669E+02  0.10000000000E+01 0.  0.
    9000005    1    3    3    0    0 -0.33084693845E+02  0.38003767664E+02  0.43524492472E+02  0.66590275329E+02  0.10000000000E+01 0.  0.
          4    1    1    2  501    0 -0.56473722282E+01  0.28371521367E+02  0.15487032965E+03  0.15755401596E+03  0.12700000000E+01 0. -1.
<mgrwt>
<rscale>  1 0.12830097E+03</rscale>
<asrwt>0</asrwt>
<pdfrwt beam="1">  1       21 0.42439709E-01 0.12830097E+03</pdfrwt>
<pdfrwt beam="2">  1        4 0.54977825E-02 0.12830097E+03</pdfrwt>
<totfact> 0.44287348E+04</totfact>
</mgrwt>
</event>
<event>
 6    4  0.6093247E-003  0.1280360E+03  0.7818608E-02  0.1230399E+00
         21   -1    0    0  501  502  0.00000000000E+00  0.00000000000E+00  0.14573445950E+03  0.14573445950E+03  0.00000000000E+00 0.  1.
         -4   -1    0    0    0  501 -0.00000000000E+00 -0.00000000000E+00 -0.74656505694E+02  0.74667307052E+02  0.12700000000E+01 0. -1.
         25    2    1    2    0    0  0.19610120810E+02 -0.19571872992E+02 -0.15983040401E+02  0.12902975408E+03  0.12500241921E+03 0.  0.
    9000005    1    3    3    0    0  0.31883688887E+02 -0.52414462644E+02 -0.50762422118E+02  0.79634596819E+02  0.10000000000E+01 0.  0.
    9000005    1    3    3    0    0 -0.12273568077E+02  0.32842589652E+02  0.34779381717E+02  0.49395157263E+02  0.10000000000E+01 0.  0.
         -4    1    1    2    0  502 -0.19610120810E+02  0.19571872992E+02  0.87060994210E+02  0.91372012473E+02  0.12700000000E+01 0.  1.
<mgrwt>
<rscale>  1 0.12803601E+03</rscale>
<asrwt>0</asrwt>
<pdfrwt beam="1">  1       21 0.22420686E-01 0.12803601E+03</pdfrwt>
<pdfrwt beam="2">  1       -4 0.11486873E-01 0.12803601E+03</pdfrwt>
<totfact> 0.44995133E+04</totfact>
</mgrwt>
</event>
<event>
 6    4  0.6093247E-003  0.1266061E+03  0.7818608E-02  0.1232580E+00
         21   -1    0    0  501  502  0.00000000000E+00  0.00000000000E+00  0.86787721355E+02  0.86787721355E+02  0.00000000000E+00 0. -1.
         -4   -1    0    0    0  501 -0.00000000000E+00 -0.00000000000E+00 -0.18449716146E+03  0.18450153248E+03  0.12700000000E+01 0.  1.
         25    2    1    2    0    0 -0.13541547483E+02 -0.14864906913E+02 -0.16102975774E+03  0.20484066851E+03  0.12499911052E+03 0.  0.
    9000005    1    3    3    0    0 -0.28615381830E+02 -0.51960649860E+02 -0.27422221913E+02  0.65358453667E+02  0.10000000000E+01 0.  0.
    9000005    1    3    3    0    0  0.15073834347E+02  0.37095742946E+02 -0.13360753583E+03  0.13948221484E+03  0.10000000000E+01 0.  0.
         -4    1    1    2    0  502  0.13541547483E+02  0.14864906913E+02  0.63320317637E+02  0.66448585324E+02  0.12700000000E+01 0. -1.
<mgrwt>
<rscale>  1 0.12660615E+03</rscale>
<asrwt>0</asrwt>
<pdfrwt beam="1">  1       21 0.13351957E-01 0.12660615E+03</pdfrwt>
<pdfrwt beam="2">  1       -4 0.28385230E-01 0.12660615E+03</pdfrwt>
<totfact> 0.23117774E+04</totfact>
</mgrwt>
</event>
<event>
 6    4  0.6093247E-003  0.1333300E+03  0.7818608E-02  0.1222597E+00
         21   -1    0    0  501  502  0.00000000000E+00  0.00000000000E+00  0.29894148762E+03  0.29894148762E+03  0.00000000000E+00 0. -1.
         -4   -1    0    0    0  501 -0.00000000000E+00 -0.00000000000E+00 -0.38291146064E+02  0.38312201280E+02  0.12700000000E+01 0.  1.
         25    2    1    2    0    0  0.27774411388E+02 -0.37155256487E+02  0.91134231020E+02  0.16150029450E+03  0.12499986419E+03 0.  0.
    9000005    1    3    3    0    0  0.46098768075E+02 -0.40891912384E+02  0.11541314086E+03  0.13083744877E+03  0.10000000000E+01 0.  0.
    9000005    1    3    3    0    0 -0.18324356687E+02  0.37366558969E+01 -0.24278909840E+02  0.30662845731E+02  0.10000000000E+01 0.  0.
         -4    1    1    2    0  502 -0.27774411388E+02  0.37155256487E+02  0.16951611054E+03  0.17575339440E+03  0.12700000000E+01 0. -1.
<mgrwt>
<rscale>  1 0.13333003E+03</rscale>
<asrwt>0</asrwt>
<pdfrwt beam="1">  1       21 0.45990997E-01 0.13333003E+03</pdfrwt>
<pdfrwt beam="2">  1       -4 0.58927729E-02 0.13333003E+03</pdfrwt>
<totfact> 0.33768976E+04</totfact>
</mgrwt>
</event>
<event>
 6    4  0.6093247E-003  0.1278818E+03  0.7818608E-02  0.1230633E+00
         -4   -1    0    0    0  501 -0.00000000000E+00  0.00000000000E+00  0.66430032792E+03  0.66430154190E+03  0.12700000000E+01 0. -1.
         21   -1    0    0  501  502  0.00000000000E+00 -0.00000000000E+00 -0.13822694511E+02  0.13822694511E+02  0.00000000000E+00 0.  1.
         25    2    1    2    0    0  0.17295477228E+02 -0.20728452530E+02  0.63334159440E+03  0.64612331440E+03  0.12499983974E+03 0.  0.
    9000005    1    3    3    0    0 -0.13924609154E+02  0.42075113516E+01  0.57623383160E+03  0.57641827398E+03  0.10000000000E+01 0.  0.
    9000005    1    3    3    0    0  0.31220086382E+02 -0.24935963882E+02  0.57107762796E+02  0.69705040420E+02  0.10000000000E+01 0.  0.
         -4    1    1    2    0  502 -0.17295477228E+02  0.20728452530E+02  0.17136039010E+02  0.32000922015E+02  0.12700000000E+01 0.  1.
<mgrwt>
<rscale>  1 0.12788183E+03</rscale>
<asrwt>0</asrwt>
<pdfrwt beam="2">  1       21 0.21265689E-02 0.12788183E+03</pdfrwt>
<pdfrwt beam="1">  1       -4 0.10220461E+00 0.12788183E+03</pdfrwt>
<totfact> 0.36359177E+04</totfact>
</mgrwt>
</event>
<event>
 6    4  0.6093247E-003  0.1463806E+03  0.7818608E-02  0.1204992E+00
          4   -1    0    0  502    0 -0.00000000000E+00  0.00000000000E+00  0.14862734559E+03  0.14863277148E+03  0.12700000000E+01 0.  1.
         21   -1    0    0  501  502  0.00000000000E+00 -0.00000000000E+00 -0.10843746870E+03  0.10843746870E+03  0.00000000000E+00 0. -1.
         25    2    1    2    0    0  0.26524590985E+02 -0.71422727014E+02  0.84404850880E+02  0.16897179135E+03  0.12499010985E+03 0.  0.
    9000005    1    3    3    0    0 -0.34999015782E+02 -0.37100903154E+02 -0.91764299946E+01  0.51832566867E+02  0.10000000000E+01 0.  0.
    9000005    1    3    3    0    0  0.61523606767E+02 -0.34321823859E+02  0.93581280874E+02  0.11713922448E+03  0.10000000000E+01 0.  0.
          4    1    1    2  501    0 -0.26524590985E+02  0.71422727014E+02 -0.44214973992E+02  0.88098448829E+02  0.12700000000E+01 0. -1.
<mgrwt>
<rscale>  1 0.14638063E+03</rscale>
<asrwt>0</asrwt>
<pdfrwt beam="2">  1       21 0.16682687E-01 0.14638063E+03</pdfrwt>
<pdfrwt beam="1">  1        4 0.22866735E-01 0.14638063E+03</pdfrwt>
<totfact> 0.23422541E+04</totfact>
</mgrwt>
</event>
<event>
 6    4  0.6093247E-003  0.1331289E+03  0.7818608E-02  0.1222885E+00
         21   -1    0    0  501  502  0.00000000000E+00  0.00000000000E+00  0.88767017710E+02  0.88767017710E+02  0.00000000000E+00 0. -1.
          4   -1    0    0  502    0 -0.00000000000E+00 -0.00000000000E+00 -0.28394988558E+03  0.28395272568E+03  0.12700000000E+01 0.  1.
         25    2    1    2    0    0  0.45045554396E+02  0.83131746240E+01 -0.26072513795E+03  0.29274716740E+03  0.12500038247E+03 0.  0.
    9000005    1    3    3    0    0  0.68081501102E+02  0.38037796059E+02 -0.95539125098E+02  0.12333162265E+03  0.10000000000E+01 0.  0.
    9000005    1    3    3    0    0 -0.23035946705E+02 -0.29724621435E+02 -0.16518601285E+03  0.16941554475E+03  0.10000000000E+01 0.  0.
          4    1    1    2  501    0 -0.45045554396E+02 -0.83131746240E+01  0.65542270081E+02  0.79972575991E+02  0.12700000000E+01 0. -1.
<mgrwt>
<rscale>  1 0.13312891E+03</rscale>
<asrwt>0</asrwt>
<pdfrwt beam="1">  1       21 0.13656464E-01 0.13312891E+03</pdfrwt>
<pdfrwt beam="2">  1        4 0.43685516E-01 0.13312891E+03</pdfrwt>
<totfact> 0.97055619E+03</totfact>
</mgrwt>
</event>
<event>
 6    4  0.6093247E-003  0.1276590E+03  0.7818608E-02  0.1230971E+00
         -4   -1    0    0    0  501 -0.00000000000E+00  0.00000000000E+00  0.50359209506E+02  0.50375220914E+02  0.12700000000E+01 0.  1.
         21   -1    0    0  501  502  0.00000000000E+00 -0.00000000000E+00 -0.86932628340E+03  0.86932628340E+03  0.00000000000E+00 0. -1.
         25    2    1    2    0    0 -0.30690931137E+01 -0.25716401672E+02 -0.31080051892E+02  0.13138790873E+03  0.12500424108E+03 0.  0.
    9000005    1    3    3    0    0  0.36210645409E+02 -0.59792698448E+02 -0.36903911534E+02  0.79052364387E+02  0.10000000000E+01 0.  0.
    9000005    1    3    3    0    0 -0.39279738522E+02  0.34076296776E+02  0.58238596417E+01  0.52335544341E+02  0.10000000000E+01 0.  0.
         -4    1    1    2    0  502  0.30690931137E+01  0.25716401672E+02 -0.78788702201E+03  0.78831359559E+03  0.12700000000E+01 0. -1.
<mgrwt>
<rscale>  1 0.12765897E+03</rscale>
<asrwt>0</asrwt>
<pdfrwt beam="2">  1       21 0.13374251E+00 0.12765897E+03</pdfrwt>
<pdfrwt beam="1">  1       -4 0.77488736E-02 0.12765897E+03</pdfrwt>
<totfact> 0.19647287E+03</totfact>
</mgrwt>
</event>
<event>
 6    4  0.6093247E-003  0.1329047E+03  0.7818608E-02  0.1223208E+00
         21   -1    0    0  501  502  0.00000000000E+00  0.00000000000E+00  0.43849685102E+03  0.43849685102E+03  0.00000000000E+00 0. -1.
          4   -1    0    0  502    0 -0.00000000000E+00 -0.00000000000E+00 -0.20229024716E+02  0.20268851496E+02  0.12700000000E+01 0. -1.
         25    2    1    2    0    0 -0.43089498598E+02 -0.13348528987E+02  0.23455798663E+03  0.26959433521E+03  0.12501507257E+03 0.  0.
    9000005    1    3    3    0    0 -0.67298919237E+02 -0.25565907281E+02  0.23132012307E+03  0.24226588592E+03  0.10000000000E+01 0.  0.
    9000005    1    3    3    0    0  0.24209420640E+02  0.12217378293E+02  0.32378635626E+01  0.27328449288E+02  0.10000000000E+01 0.  0.
          4    1    1    2  501    0  0.43089498598E+02  0.13348528987E+02  0.18370983968E+03  0.18917136731E+03  0.12700000000E+01 0.  1.
<mgrwt>
<rscale>  1 0.13290469E+03</rscale>
<asrwt>0</asrwt>
<pdfrwt beam="1">  1       21 0.67461047E-01 0.13290469E+03</pdfrwt>
<pdfrwt beam="2">  1        4 0.31153631E-02 0.13290469E+03</pdfrwt>
<totfact> 0.41692896E+04</totfact>
</mgrwt>
</event>
<event>
 6    4  0.6093247E-003  0.1289059E+03  0.7818608E-02  0.1229088E+00
          4   -1    0    0  502    0 -0.00000000000E+00  0.00000000000E+00  0.19162447398E+02  0.19204486202E+02  0.12700000000E+01 0. -1.
         21   -1    0    0  501  502  0.00000000000E+00 -0.00000000000E+00 -0.52271891948E+03  0.52271891948E+03  0.00000000000E+00 0.  1.
         25    2    1    2    0    0  0.30059596004E+02 -0.93835124340E+01 -0.20809698883E+03  0.24478783265E+03  0.12500038654E+03 0.  0.
    9000005    1    3    3    0    0  0.69883150704E+02 -0.29981160391E+02 -0.86460370573E+02  0.11514738560E+03  0.10000000000E+01 0.  0.
    9000005    1    3    3    0    0 -0.39823554700E+02  0.20597647957E+02 -0.12163661826E+03  0.12964044705E+03  0.10000000000E+01 0.  0.
          4    1    1    2  501    0 -0.30059596004E+02  0.93835124340E+01 -0.29545948325E+03  0.29713557303E+03  0.12700000000E+01 0.  1.
<mgrwt>
<rscale>  1 0.12890588E+03</rscale>
<asrwt>0</asrwt>
<pdfrwt beam="2">  1       21 0.80418286E-01 0.12890588E+03</pdfrwt>
<pdfrwt beam="1">  1        4 0.29514216E-02 0.12890588E+03</pdfrwt>
<totfact> 0.30730508E+04</totfact>
</mgrwt>
</event>
<event>
 6    4  0.6093247E-003  0.1279626E+03  0.7818608E-02  0.1230511E+00
         21   -1    0    0  501  502  0.00000000000E+00  0.00000000000E+00  0.72514634382E+03  0.72514634382E+03  0.00000000000E+00 0. -1.
         -4   -1    0    0    0  501 -0.00000000000E+00 -0.00000000000E+00 -0.84916417891E+01  0.85860864353E+01  0.12700000000E+01 0. -1.
         25    2    1    2    0    0  0.10162071730E+02  0.25455564565E+02  0.62897254959E+03  0.64185737257E+03  0.12499266021E+03 0.  0.
    9000005    1    3    3    0    0 -0.13806093032E+02 -0.46769578204E+02  0.31734128247E+03  0.32106773617E+03  0.10000000000E+01 0.  0.
    9000005    1    3    3    0    0  0.23968164762E+02  0.72225142769E+02  0.31163126712E+03  0.32078963639E+03  0.10000000000E+01 0.  0.
         -4    1    1    2    0  502 -0.10162071730E+02 -0.25455564565E+02  0.87682152439E+02  0.91875057690E+02  0.12700000000E+01 0.  1.
<mgrwt>
<rscale>  1 0.12796257E+03</rscale>
<asrwt>0</asrwt>
<pdfrwt beam="1">  1       21 0.11156093E+00 0.12796257E+03</pdfrwt>
<pdfrwt beam="2">  1       -4 0.13137575E-02 0.12796257E+03</pdfrwt>
<totfact> 0.50016094E+04</totfact>
</mgrwt>
</event>
<event>
 6    4  0.6093247E-003  0.1351957E+03  0.7818608E-02  0.1219944E+00
         -4   -1    0    0    0  501 -0.00000000000E+00  0.00000000000E+00  0.34810080687E+02  0.34833240123E+02  0.12700000000E+01 0.  1.
         21   -1    0    0  501  502  0.00000000000E+00 -0.00000000000E+00 -0.32719567657E+03  0.32719567657E+03  0.00000000000E+00 0.  1.
         25    2    1    2    0    0 -0.14713657610E+02 -0.49362455265E+02 -0.11557387272E+03  0.17786284474E+03  0.12499891109E+03 0.  0.
    9000005    1    3    3    0    0  0.13634151611E+02 -0.54542853458E+02 -0.13284227110E+03  0.14425284034E+03  0.10000000000E+01 0.  0.
    9000005    1    3    3    0    0 -0.28347809221E+02  0.51803981930E+01  0.17268398386E+02  0.33610004402E+02  0.10000000000E+01 0.  0.
         -4    1    1    2    0  502  0.14713657610E+02  0.49362455265E+02 -0.17681172316E+03  0.18416607195E+03  0.12700000000E+01 0. -1.
<mgrwt>
<rscale>  1 0.13519568E+03</rscale>
<asrwt>0</asrwt>
<pdfrwt beam="2">  1       21 0.50337795E-01 0.13519568E+03</pdfrwt>
<pdfrwt beam="1">  1       -4 0.53573683E-02 0.13519568E+03</pdfrwt>
<totfact> 0.32771356E+04</totfact>
</mgrwt>
</event>
<event>
 6    4  0.6093247E-003  0.1542588E+03  0.7818608E-02  0.1195335E+00
         21   -1    0    0  501  502  0.00000000000E+00  0.00000000000E+00  0.31655211284E+03  0.31655211284E+03  0.00000000000E+00 0.  1.
         -4   -1    0    0    0  501 -0.00000000000E+00 -0.00000000000E+00 -0.53901662577E+02  0.53916622007E+02  0.12700000000E+01 0. -1.
         25    2    1    2    0    0  0.90274989167E+02  0.46223273771E+01  0.98363030686E+02  0.18295097913E+03  0.12499934151E+03 0.  0.
    9000005    1    3    3    0    0  0.57055592480E+02  0.64088864844E+02  0.48929467411E+02  0.98781658274E+02  0.10000000000E+01 0.  0.
    9000005    1    3    3    0    0  0.33219396688E+02 -0.59466537467E+02  0.49433563275E+02  0.84169320852E+02  0.10000000000E+01 0.  0.
         -4    1    1    2    0  502 -0.90274989167E+02 -0.46223273771E+01  0.16428741958E+03  0.18751775572E+03  0.12700000000E+01 0.  1.
<mgrwt>
<rscale>  1 0.15425879E+03</rscale>
<asrwt>0</asrwt>
<pdfrwt beam="1">  1       21 0.48700324E-01 0.15425879E+03</pdfrwt>
<pdfrwt beam="2">  1       -4 0.82939103E-02 0.15425879E+03</pdfrwt>
<totfact> 0.17344225E+04</totfact>
</mgrwt>
</event>
<event>
 6    4  0.6093247E-003  0.1688692E+03  0.7818608E-02  0.1179032E+00
         21   -1    0    0  501  502  0.00000000000E+00  0.00000000000E+00  0.11488300064E+03  0.11488300064E+03  0.00000000000E+00 0. -1.
         -4   -1    0    0    0  501 -0.00000000000E+00 -0.00000000000E+00 -0.29751855997E+03  0.29752127055E+03  0.12700000000E+01 0.  1.
         25    2    1    2    0    0  0.11880873583E+02 -0.11290890350E+03 -0.23335814294E+03  0.28805006325E+03  0.12500896133E+03 0.  0.
    9000005    1    3    3    0    0 -0.48072431676E+02 -0.82944513597E+02 -0.98523114121E+02  0.13747201548E+03  0.10000000000E+01 0.  0.
    9000005    1    3    3    0    0  0.59953305259E+02 -0.29964389900E+02 -0.13483502882E+03  0.15057804777E+03  0.10000000000E+01 0.  0.
         -4    1    1    2    0  502 -0.11880873583E+02  0.11290890350E+03  0.50722583605E+02  0.12435420795E+03  0.12700000000E+01 0. -1.
<mgrwt>
<rscale>  1 0.16886923E+03</rscale>
<asrwt>0</asrwt>
<pdfrwt beam="1">  1       21 0.17674308E-01 0.16886923E+03</pdfrwt>
<pdfrwt beam="2">  1       -4 0.45772834E-01 0.16886923E+03</pdfrwt>
<totfact> 0.56298905E+03</totfact>
</mgrwt>
</event>
<event>
 6    4  0.6093247E-003  0.1266854E+03  0.7818608E-02  0.1232458E+00
          4   -1    0    0  502    0 -0.00000000000E+00  0.00000000000E+00  0.41235424475E+03  0.41235620046E+03  0.12700000000E+01 0. -1.
         21   -1    0    0  501  502  0.00000000000E+00 -0.00000000000E+00 -0.60933206269E+02  0.60933206269E+02  0.00000000000E+00 0.  1.
         25    2    1    2    0    0 -0.19938962343E+02  0.51285019369E+01  0.40049633932E+03  0.42005537810E+03  0.12500135645E+03 0.  0.
    9000005    1    3    3    0    0 -0.22559521326E+02  0.19366972868E+02  0.40402634697E+03  0.40512010650E+03  0.10000000000E+01 0.  0.
    9000005    1    3    3    0    0  0.26205589830E+01 -0.14238470932E+02 -0.35300076543E+01  0.14935271604E+02  0.10000000000E+01 0.  0.
          4    1    1    2  501    0  0.19938962343E+02 -0.51285019369E+01 -0.49075300842E+02  0.53234028630E+02  0.12700000000E+01 0.  1.
<mgrwt>
<rscale>  1 0.12668545E+03</rscale>
<asrwt>0</asrwt>
<pdfrwt beam="2">  1       21 0.93743397E-02 0.12668545E+03</pdfrwt>
<pdfrwt beam="1">  1        4 0.63440281E-01 0.12668545E+03</pdfrwt>
<totfact> 0.87252447E+03</totfact>
</mgrwt>
</event>
<event>
 6    4  0.6093247E-003  0.1289161E+03  0.7818608E-02  0.1229073E+00
         21   -1    0    0  501  502  0.00000000000E+00  0.00000000000E+00  0.20706650542E+03  0.20706650542E+03  0.00000000000E+00 0. -1.
          4   -1    0    0  502    0 -0.00000000000E+00 -0.00000000000E+00 -0.31655694011E+02  0.31681159438E+02  0.12700000000E+01 0. -1.
         25    2    1    2    0    0  0.30175367174E+02 -0.91290192502E+01  0.12701795923E+03  0.18097766556E+03  0.12500184674E+03 0.  0.
    9000005    1    3    3    0    0  0.56808697978E+01 -0.21395894094E+02  0.14597577087E+03  0.14764817048E+03  0.10000000000E+01 0.  0.
    9000005    1    3    3    0    0  0.24494497376E+02  0.12266874844E+02 -0.18957811640E+02  0.33329495081E+02  0.10000000000E+01 0.  0.
          4    1    1    2  501    0 -0.30175367174E+02  0.91290192502E+01  0.48392852179E+02  0.57769999295E+02  0.12700000000E+01 0.  1.
<mgrwt>
<rscale>  1 0.12891607E+03</rscale>
<asrwt>0</asrwt>
<pdfrwt beam="1">  1       21 0.31856385E-01 0.12891607E+03</pdfrwt>
<pdfrwt beam="2">  1        4 0.48723654E-02 0.12891607E+03</pdfrwt>
<totfact> 0.94893831E+04</totfact>
</mgrwt>
</event>
<event>
 6    4  0.6093247E-003  0.1366623E+03  0.7818608E-02  0.1217892E+00
          4   -1    0    0  502    0 -0.00000000000E+00  0.00000000000E+00  0.35160110971E+03  0.35160340335E+03  0.12700000000E+01 0. -1.
         21   -1    0    0  501  502  0.00000000000E+00 -0.00000000000E+00 -0.31147580482E+02  0.31147580482E+02  0.00000000000E+00 0.  1.
         25    2    1    2    0    0 -0.76244079517E+00 -0.55239383195E+02  0.28771336134E+03  0.31852091093E+03  0.12499848653E+03 0.  0.
    9000005    1    3    3    0    0 -0.59344032181E+02 -0.43316316592E+02  0.19299864098E+03  0.20651269418E+03  0.10000000000E+01 0.  0.
    9000005    1    3    3    0    0  0.58581591385E+02 -0.11923066603E+02  0.94714720365E+02  0.11200821675E+03  0.10000000000E+01 0.  0.
          4    1    1    2  501    0  0.76244079517E+00  0.55239383195E+02  0.32740167886E+02  0.64230072902E+02  0.12700000000E+01 0.  1.
<mgrwt>
<rscale>  1 0.13666233E+03</rscale>
<asrwt>0</asrwt>
<pdfrwt beam="2">  1       21 0.47919357E-02 0.13666233E+03</pdfrwt>
<pdfrwt beam="1">  1        4 0.54094644E-01 0.13666233E+03</pdfrwt>
<totfact> 0.38605704E+04</totfact>
</mgrwt>
</event>
<event>
 6    4  0.6093247E-003  0.1299887E+03  0.7818608E-02  0.1227473E+00
         21   -1    0    0  501  502  0.00000000000E+00  0.00000000000E+00  0.16760682156E+03  0.16760682156E+03  0.00000000000E+00 0. -1.
         -4   -1    0    0    0  501 -0.00000000000E+00 -0.00000000000E+00 -0.76110256968E+02  0.76120852043E+02  0.12700000000E+01 0.  1.
         25    2    1    2    0    0  0.63547488446E+01 -0.35107700895E+02 -0.15521290841E+02  0.13091203738E+03  0.12499647022E+03 0.  0.
    9000005    1    3    3    0    0 -0.18690190380E+02 -0.32133617885E+02 -0.65273488197E+02  0.75123371038E+02  0.10000000000E+01 0.  0.
    9000005    1    3    3    0    0  0.25044939224E+02 -0.29740830094E+01  0.49752197356E+02  0.55788666342E+02  0.10000000000E+01 0.  0.
         -4    1    1    2    0  502 -0.63547488446E+01  0.35107700895E+02  0.10701785543E+03  0.11281563622E+03  0.12700000000E+01 0. -1.
<mgrwt>
<rscale>  1 0.12998866E+03</rscale>
<asrwt>0</asrwt>
<pdfrwt beam="1">  1       21 0.25785665E-01 0.12998866E+03</pdfrwt>
<pdfrwt beam="2">  1       -4 0.11710456E-01 0.12998866E+03</pdfrwt>
<totfact> 0.33523222E+04</totfact>
</mgrwt>
</event>
<event>
 6    4  0.6093247E-003  0.1309503E+03  0.7818608E-02  0.1226052E+00
         21   -1    0    0  501  502  0.00000000000E+00  0.00000000000E+00  0.96153803733E+01  0.96153803733E+01  0.00000000000E+00 0. -1.
         -4   -1    0    0    0  501 -0.00000000000E+00 -0.00000000000E+00 -0.21576353676E+04  0.21576357414E+04  0.12700000000E+01 0.  1.
         25    2    1    2    0    0  0.23453724174E+02  0.31194684288E+02 -0.21053194440E+04  0.21093880524E+04  0.12499923448E+03 0.  0.
    9000005    1    3    3    0    0  0.10175204564E+02  0.52578933155E+02 -0.20124467544E+04  0.20131594617E+04  0.10000000000E+01 0.  0.
    9000005    1    3    3    0    0  0.13278519611E+02 -0.21384248867E+02 -0.92872689621E+02  0.96228590658E+02  0.10000000000E+01 0.  0.
         -4    1    1    2    0  502 -0.23453724174E+02 -0.31194684288E+02 -0.42700543179E+02  0.57863069338E+02  0.12700000000E+01 0. -1.
<mgrwt>
<rscale>  1 0.13095035E+03</rscale>
<asrwt>0</asrwt>
<pdfrwt beam="1">  1       21 0.14792892E-02 0.13095035E+03</pdfrwt>
<pdfrwt beam="2">  1       -4 0.33195040E+00 0.13095035E+03</pdfrwt>
<totfact> 0.20204030E+03</totfact>
</mgrwt>
</event>
<event>
 6    4  0.6093247E-003  0.1300161E+03  0.7818608E-02  0.1227432E+00
         21   -1    0    0  501  502  0.00000000000E+00  0.00000000000E+00  0.83882645903E+02  0.83882645903E+02  0.00000000000E+00 0. -1.
          4   -1    0    0  502    0 -0.00000000000E+00 -0.00000000000E+00 -0.82957092383E+02  0.82966813104E+02  0.12700000000E+01 0. -1.
         25    2    1    2    0    0  0.30238889999E+02  0.19195834011E+02  0.82173720123E+01  0.13027550614E+03  0.12498524627E+03 0.  0.
    9000005    1    3    3    0    0  0.51685746833E+02  0.20465445408E+02 -0.45863799678E+02  0.72074537823E+02  0.10000000000E+01 0.  0.
    9000005    1    3    3    0    0 -0.21446856835E+02 -0.12696113976E+01  0.54081171690E+02  0.58200968313E+02  0.10000000000E+01 0.  0.
          4    1    1    2  501    0 -0.30238889999E+02 -0.19195834011E+02 -0.72918184917E+01  0.36573952871E+02  0.12700000000E+01 0.  1.
<mgrwt>
<rscale>  1 0.13001608E+03</rscale>
<asrwt>0</asrwt>
<pdfrwt beam="1">  1       21 0.12905022E-01 0.13001608E+03</pdfrwt>
<pdfrwt beam="2">  1        4 0.12764117E-01 0.13001608E+03</pdfrwt>
<totfact> 0.10305446E+05</totfact>
</mgrwt>
</event>
<event>
 6    4  0.6093247E-003  0.1272540E+03  0.7818608E-02  0.1231588E+00
         -4   -1    0    0    0  501 -0.00000000000E+00  0.00000000000E+00  0.93954541722E+03  0.93954627556E+03  0.12700000000E+01 0.  1.
         21   -1    0    0  501  502  0.00000000000E+00 -0.00000000000E+00 -0.61660350910E+01  0.61660350910E+01  0.00000000000E+00 0.  1.
         25    2    1    2    0    0 -0.90092315010E+01 -0.22084006258E+02  0.82284081208E+03  0.83262270922E+03  0.12499881715E+03 0.  0.
    9000005    1    3    3    0    0  0.55676299375E+02 -0.24118346517E+02  0.46913829624E+03  0.47304681158E+03  0.10000000000E+01 0.  0.
    9000005    1    3    3    0    0 -0.64685530876E+02  0.20343402587E+01  0.35370251584E+03  0.35957589763E+03  0.10000000000E+01 0.  0.
         -4    1    1    2    0  502  0.90092315010E+01  0.22084006258E+02  0.11053857004E+03  0.11308960143E+03  0.12700000000E+01 0. -1.
<mgrwt>
<rscale>  1 0.12725397E+03</rscale>
<asrwt>0</asrwt>
<pdfrwt beam="2">  1       21 0.94862153E-03 0.12725397E+03</pdfrwt>
<pdfrwt beam="1">  1       -4 0.14455546E+00 0.12725397E+03</pdfrwt>
<totfact> 0.57062363E+04</totfact>
</mgrwt>
</event>
<event>
 6    4  0.6093247E-003  0.1361195E+03  0.7818608E-02  0.1218648E+00
         21   -1    0    0  501  502  0.00000000000E+00  0.00000000000E+00  0.18079743941E+04  0.18079743941E+04  0.00000000000E+00 0.  1.
          4   -1    0    0  502    0 -0.00000000000E+00 -0.00000000000E+00 -0.54037073610E+01  0.55509416538E+01  0.12700000000E+01 0. -1.
         25    2    1    2    0    0  0.47422501507E+02  0.25581289070E+02  0.10110659421E+04  0.10201876588E+04  0.12500089551E+03 0.  0.
    9000005    1    3    3    0    0  0.49892654696E+02 -0.43973642050E+02  0.49240948505E+03  0.49688133308E+03  0.10000000000E+01 0.  0.
    9000005    1    3    3    0    0 -0.24701531890E+01  0.69554931121E+02  0.51865645703E+03  0.52330632570E+03  0.10000000000E+01 0.  0.
          4    1    1    2  501    0 -0.47422501507E+02 -0.25581289070E+02  0.79150474461E+03  0.79333767693E+03  0.12700000000E+01 0.  1.
<mgrwt>
<rscale>  1 0.13611951E+03</rscale>
<asrwt>0</asrwt>
<pdfrwt beam="1">  1       21 0.27814943E+00 0.13611951E+03</pdfrwt>
<pdfrwt beam="2">  1        4 0.84270106E-03 0.13611951E+03</pdfrwt>
<totfact> 0.74164873E+03</totfact>
</mgrwt>
</event>
<event>
 6    4  0.6093247E-003  0.1295842E+03  0.7818608E-02  0.1228074E+00
          4   -1    0    0  502    0 -0.00000000000E+00  0.00000000000E+00  0.65890515546E+02  0.65902753652E+02  0.12700000000E+01 0. -1.
         21   -1    0    0  501  502  0.00000000000E+00 -0.00000000000E+00 -0.19029107157E+03  0.19029107157E+03  0.00000000000E+00 0.  1.
         25    2    1    2    0    0 -0.29426735821E+02 -0.17297286741E+02 -0.25108569408E+01  0.12960851584E+03  0.12500773602E+03 0.  0.
    9000005    1    3    3    0    0  0.46634133473E+02 -0.23868509603E+02 -0.82492818609E+01  0.53042424593E+02  0.10000000000E+01 0.  0.
    9000005    1    3    3    0    0 -0.76060869294E+02  0.65712228624E+01  0.57384249201E+01  0.76566091243E+02  0.10000000000E+01 0.  0.
          4    1    1    2  501    0  0.29426735821E+02  0.17297286741E+02 -0.12188969908E+03  0.12658530938E+03  0.12700000000E+01 0.  1.
<mgrwt>
<rscale>  1 0.12958419E+03</rscale>
<asrwt>0</asrwt>
<pdfrwt beam="2">  1       21 0.29275549E-01 0.12958419E+03</pdfrwt>
<pdfrwt beam="1">  1        4 0.10138270E-01 0.12958419E+03</pdfrwt>
<totfact> 0.33576645E+04</totfact>
</mgrwt>
</event>
<event>
 6    4  0.6093247E-003  0.1272303E+03  0.7818608E-02  0.1231624E+00
         21   -1    0    0  501  502  0.00000000000E+00  0.00000000000E+00  0.51473489247E+02  0.51473489247E+02  0.00000000000E+00 0. -1.
         -4   -1    0    0    0  501 -0.00000000000E+00 -0.00000000000E+00 -0.12873446190E+03  0.12874072619E+03  0.12700000000E+01 0. -1.
         25    2    1    2    0    0 -0.20366110554E+02 -0.12204714870E+02 -0.87408334010E+02  0.15436241924E+03  0.12499522429E+03 0.  0.
    9000005    1    3    3    0    0 -0.26920352923E+02  0.51490773082E+02 -0.20183993793E+02  0.61517466784E+02  0.10000000000E+01 0.  0.
    9000005    1    3    3    0    0  0.65542423682E+01 -0.63695487952E+02 -0.67224340217E+02  0.92844952454E+02  0.10000000000E+01 0.  0.
         -4    1    1    2    0  502  0.20366110554E+02  0.12204714870E+02  0.10147361360E+02  0.25851796200E+02  0.12700000000E+01 0.  1.
<mgrwt>
<rscale>  1 0.12723026E+03</rscale>
<asrwt>0</asrwt>
<pdfrwt beam="1">  1       21 0.79189984E-02 0.12723026E+03</pdfrwt>
<pdfrwt beam="2">  1       -4 0.19806989E-01 0.12723026E+03</pdfrwt>
<totfact> 0.11173281E+05</totfact>
</mgrwt>
</event>
<event>
 6    4  0.6093247E-003  0.1373242E+03  0.7818608E-02  0.1216975E+00
         21   -1    0    0  501  502  0.00000000000E+00  0.00000000000E+00  0.28548556967E+02  0.28548556967E+02  0.00000000000E+00 0. -1.
          4   -1    0    0  502    0 -0.00000000000E+00 -0.00000000000E+00 -0.83006955250E+03  0.83007052404E+03  0.12700000000E+01 0.  1.
         25    2    1    2    0    0 -0.22909420130E+02 -0.52042026797E+02 -0.78837292001E+03  0.80024358209E+03  0.12499886234E+03 0.  0.
    9000005    1    3    3    0    0 -0.47526851557E+02 -0.47993226942E+02 -0.75764504768E+03  0.76065049117E+03  0.10000000000E+01 0.  0.
    9000005    1    3    3    0    0  0.24617431427E+02 -0.40487998552E+01 -0.30727872338E+02  0.39593090922E+02  0.10000000000E+01 0.  0.
          4    1    1    2  501    0  0.22909420130E+02  0.52042026797E+02 -0.13148075515E+02  0.58375498915E+02  0.12700000000E+01 0. -1.
<mgrwt>
<rscale>  1 0.13732418E+03</rscale>
<asrwt>0</asrwt>
<pdfrwt beam="1">  1       21 0.43920859E-02 0.13732418E+03</pdfrwt>
<pdfrwt beam="2">  1        4 0.12770525E+00 0.13732418E+03</pdfrwt>
<totfact> 0.65515089E+03</totfact>
</mgrwt>
</event>
<event>
 6    4  0.6093247E-003  0.1266224E+03  0.7818608E-02  0.1232555E+00
         21   -1    0    0  501  502  0.00000000000E+00  0.00000000000E+00  0.34737865156E+02  0.34737865156E+02  0.00000000000E+00 0. -1.
          4   -1    0    0  502    0 -0.00000000000E+00 -0.00000000000E+00 -0.36202181445E+03  0.36202404207E+03  0.12700000000E+01 0.  1.
         25    2    1    2    0    0  0.52977974647E+01  0.19475860651E+02 -0.34647153435E+03  0.36888445887E+03  0.12500337624E+03 0.  0.
    9000005    1    3    3    0    0 -0.50749932002E+02  0.41934315077E+02 -0.16616312390E+03  0.17873227499E+03  0.10000000000E+01 0.  0.
    9000005    1    3    3    0    0  0.56047729466E+02 -0.22458454426E+02 -0.18030841045E+03  0.19015218388E+03  0.10000000000E+01 0.  0.
          4    1    1    2  501    0 -0.52977974647E+01 -0.19475860651E+02  0.19187585064E+02  0.27877448353E+02  0.12700000000E+01 0. -1.
<mgrwt>
<rscale>  1 0.12662235E+03</rscale>
<asrwt>0</asrwt>
<pdfrwt beam="1">  1       21 0.53442870E-02 0.12662235E+03</pdfrwt>
<pdfrwt beam="2">  1        4 0.55697621E-01 0.12662235E+03</pdfrwt>
<totfact> 0.29975978E+04</totfact>
</mgrwt>
</event>
<event>
 6    4  0.6093247E-003  0.1314963E+03  0.7818608E-02  0.1225252E+00
         21   -1    0    0  501  502  0.00000000000E+00  0.00000000000E+00  0.21203306541E+02  0.21203306541E+02  0.00000000000E+00 0.  1.
         -4   -1    0    0    0  501 -0.00000000000E+00 -0.00000000000E+00 -0.41832077837E+03  0.41832270619E+03  0.12700000000E+01 0.  1.
         25    2    1    2    0    0 -0.22521873939E+02  0.34074002397E+02 -0.36368751923E+03  0.38672973373E+03  0.12499201122E+03 0.  0.
    9000005    1    3    3    0    0 -0.16117233121E+02  0.93565423394E+01 -0.36049497486E+03  0.36097775138E+03  0.10000000000E+01 0.  0.
    9000005    1    3    3    0    0 -0.64046408179E+01  0.24717460058E+02 -0.31925443620E+01  0.25751982355E+02  0.10000000000E+01 0.  0.
         -4    1    1    2    0  502  0.22521873939E+02 -0.34074002397E+02 -0.33429952600E+02  0.52796278997E+02  0.12700000000E+01 0. -1.
<mgrwt>
<rscale>  1 0.13149629E+03</rscale>
<asrwt>0</asrwt>
<pdfrwt beam="1">  1       21 0.32620477E-02 0.13149629E+03</pdfrwt>
<pdfrwt beam="2">  1       -4 0.64360107E-01 0.13149629E+03</pdfrwt>
<totfact> 0.50605734E+04</totfact>
</mgrwt>
</event>
<event>
 6    4  0.6093247E-003  0.1286987E+03  0.7818608E-02  0.1229399E+00
         -4   -1    0    0    0  501 -0.00000000000E+00  0.00000000000E+00  0.10430140247E+02  0.10507174956E+02  0.12700000000E+01 0.  1.
         21   -1    0    0  501  502  0.00000000000E+00 -0.00000000000E+00 -0.91719441079E+03  0.91719441079E+03  0.00000000000E+00 0.  1.
         25    2    1    2    0    0  0.68775742653E+01 -0.29860316233E+02 -0.40402546137E+03  0.42402821672E+03  0.12499766250E+03 0.  0.
    9000005    1    3    3    0    0 -0.36632153590E+02 -0.56655173113E+01 -0.32885459902E+02  0.49562750489E+02  0.10000000000E+01 0.  0.
    9000005    1    3    3    0    0  0.43509727856E+02 -0.24194798921E+02 -0.37114000146E+03  0.37446546623E+03  0.10000000000E+01 0.  0.
         -4    1    1    2    0  502 -0.68775742653E+01  0.29860316233E+02 -0.50273880918E+03  0.50367336903E+03  0.12700000000E+01 0. -1.
<mgrwt>
<rscale>  1 0.12869870E+03</rscale>
<asrwt>0</asrwt>
<pdfrwt beam="2">  1       21 0.14110689E+00 0.12869870E+03</pdfrwt>
<pdfrwt beam="1">  1       -4 0.16106297E-02 0.12869870E+03</pdfrwt>
<totfact> 0.20561126E+04</totfact>
</mgrwt>
</event>
<event>
 6    4  0.6093247E-003  0.1869598E+03  0.7818608E-02  0.1161232E+00
         21   -1    0    0  501  502  0.00000000000E+00  0.00000000000E+00  0.69703439194E+02  0.69703439194E+02  0.00000000000E+00 0. -1.
         -4   -1    0    0    0  501 -0.00000000000E+00 -0.00000000000E+00 -0.45980091860E+03  0.45980267251E+03  0.12700000000E+01 0.  1.
         25    2    1    2    0    0 -0.10637631213E+03  0.89521632323E+02 -0.32732199291E+03  0.37695311422E+03  0.12499568328E+03 0.  0.
    9000005    1    3    3    0    0 -0.12199329254E+03  0.10609744094E+03 -0.26311557669E+03  0.30882007236E+03  0.10000000000E+01 0.  0.
    9000005    1    3    3    0    0  0.15616980407E+02 -0.16575808614E+02 -0.64206416224E+02  0.68133041856E+02  0.10000000000E+01 0.  0.
         -4    1    1    2    0  502  0.10637631213E+03 -0.89521632323E+02 -0.62775486491E+02  0.15255299748E+03  0.12700000000E+01 0. -1.
<mgrwt>
<rscale>  1 0.18695979E+03</rscale>
<asrwt>0</asrwt>
<pdfrwt beam="1">  1       21 0.10723606E-01 0.18695979E+03</pdfrwt>
<pdfrwt beam="2">  1       -4 0.70739628E-01 0.18695979E+03</pdfrwt>
<totfact> 0.56082897E+03</totfact>
</mgrwt>
</event>
<event>
 6    4  0.6093247E-003  0.1273207E+03  0.7818608E-02  0.1231486E+00
         21   -1    0    0  501  502  0.00000000000E+00  0.00000000000E+00  0.46199411327E+01  0.46199411327E+01  0.00000000000E+00 0. -1.
         -4   -1    0    0    0  501 -0.00000000000E+00 -0.00000000000E+00 -0.12551206268E+04  0.12551212693E+04  0.12700000000E+01 0. -1.
         25    2    1    2    0    0  0.55689672383E+01 -0.23549042210E+02 -0.10004370758E+04  0.10085062752E+04  0.12499997528E+03 0.  0.
    9000005    1    3    3    0    0 -0.13186264806E+02 -0.30034377107E+02 -0.64593569742E+02  0.72451850492E+02  0.10000000000E+01 0.  0.
    9000005    1    3    3    0    0  0.18755232044E+02  0.64853348966E+01 -0.93584350601E+03  0.93605442472E+03  0.10000000000E+01 0.  0.
         -4    1    1    2    0  502 -0.55689672383E+01  0.23549042210E+02 -0.25006360990E+03  0.25123493524E+03  0.12700000000E+01 0.  1.
<mgrwt>
<rscale>  1 0.12732072E+03</rscale>
<asrwt>0</asrwt>
<pdfrwt beam="1">  1       21 0.71076031E-03 0.12732072E+03</pdfrwt>
<pdfrwt beam="2">  1       -4 0.19310892E+00 0.12732072E+03</pdfrwt>
<totfact> 0.41696246E+04</totfact>
</mgrwt>
</event>
<event>
 6    4  0.6093247E-003  0.1268535E+03  0.7818608E-02  0.1232201E+00
         21   -1    0    0  501  502  0.00000000000E+00  0.00000000000E+00  0.52043211831E+02  0.52043211831E+02  0.00000000000E+00 0. -1.
          4   -1    0    0  502    0 -0.00000000000E+00 -0.00000000000E+00 -0.11610243749E+03  0.11610938331E+03  0.12700000000E+01 0. -1.
         25    2    1    2    0    0 -0.21419107394E+02 -0.29124052583E+01 -0.71053633620E+02  0.14539748783E+03  0.12499820139E+03 0.  0.
    9000005    1    3    3    0    0  0.51702941566E+02 -0.64233482937E+01 -0.40789414501E+02  0.66175750130E+02  0.10000000000E+01 0.  0.
    9000005    1    3    3    0    0 -0.73122048960E+02  0.35109430354E+01 -0.30264219119E+02  0.79221737699E+02  0.10000000000E+01 0.  0.
          4    1    1    2  501    0  0.21419107394E+02  0.29124052583E+01  0.69944079584E+01  0.22755107309E+02  0.12700000000E+01 0.  1.
<mgrwt>
<rscale>  1 0.12685350E+03</rscale>
<asrwt>0</asrwt>
<pdfrwt beam="1">  1       21 0.80066480E-02 0.12685350E+03</pdfrwt>
<pdfrwt beam="2">  1        4 0.17863640E-01 0.12685350E+03</pdfrwt>
<totfact> 0.13175840E+05</totfact>
</mgrwt>
</event>
<event>
 6    4  0.6093247E-003  0.1466600E+03  0.7818608E-02  0.1204638E+00
         21   -1    0    0  501  502  0.00000000000E+00  0.00000000000E+00  0.29430502337E+03  0.29430502337E+03  0.00000000000E+00 0.  1.
         -4   -1    0    0    0  501 -0.00000000000E+00 -0.00000000000E+00 -0.82628993017E+02  0.82638752332E+02  0.12700000000E+01 0. -1.
         25    2    1    2    0    0 -0.61728321598E+02  0.45535349951E+02 -0.53498853440E+01  0.14675751467E+03  0.12500117222E+03 0.  0.
    9000005    1    3    3    0    0 -0.89711733476E+02  0.42101432223E+02  0.28088650638E+02  0.10300824245E+03  0.10000000000E+01 0.  0.
    9000005    1    3    3    0    0  0.27983411878E+02  0.34339177281E+01 -0.33438535982E+02  0.43749272221E+02  0.10000000000E+01 0.  0.
         -4    1    1    2    0  502  0.61728321598E+02 -0.45535349951E+02  0.21702591570E+03  0.23018626103E+03  0.12700000000E+01 0.  1.
<mgrwt>
<rscale>  1 0.14665997E+03</rscale>
<asrwt>0</asrwt>
<pdfrwt beam="1">  1       21 0.45277695E-01 0.14665997E+03</pdfrwt>
<pdfrwt beam="2">  1       -4 0.12713114E-01 0.14665997E+03</pdfrwt>
<totfact> 0.97388740E+03</totfact>
</mgrwt>
</event>
<event>
 6    4  0.6093247E-003  0.1310481E+03  0.7818608E-02  0.1225909E+00
         21   -1    0    0  501  502  0.00000000000E+00  0.00000000000E+00  0.12820082511E+03  0.12820082511E+03  0.00000000000E+00 0.  1.
         -4   -1    0    0    0  501 -0.00000000000E+00 -0.00000000000E+00 -0.65174488753E+02  0.65186861285E+02  0.12700000000E+01 0.  1.
         25    2    1    2    0    0 -0.13984665186E+02 -0.36792551145E+02  0.76527406642E+02  0.15175651443E+03  0.12499733207E+03 0.  0.
    9000005    1    3    3    0    0  0.16017168826E+02 -0.15627775441E+02 -0.30933265920E+02  0.38192198194E+02  0.10000000000E+01 0.  0.
    9000005    1    3    3    0    0 -0.30001834011E+02 -0.21164775704E+02  0.10746067256E+03  0.11356431624E+03  0.10000000000E+01 0.  0.
         -4    1    1    2    0  502  0.13984665186E+02  0.36792551145E+02 -0.13501070288E+02  0.41631171963E+02  0.12700000000E+01 0. -1.
<mgrwt>
<rscale>  1 0.13104807E+03</rscale>
<asrwt>0</asrwt>
<pdfrwt beam="1">  1       21 0.19723204E-01 0.13104807E+03</pdfrwt>
<pdfrwt beam="2">  1       -4 0.10028280E-01 0.13104807E+03</pdfrwt>
<totfact> 0.72060565E+04</totfact>
</mgrwt>
</event>
<event>
 6    4  0.6093247E-003  0.1281554E+03  0.7818608E-02  0.1230219E+00
         21   -1    0    0  501  502  0.00000000000E+00  0.00000000000E+00  0.12515143160E+03  0.12515143160E+03  0.00000000000E+00 0.  1.
          4   -1    0    0  502    0 -0.00000000000E+00 -0.00000000000E+00 -0.55096068791E+02  0.55110704008E+02  0.12700000000E+01 0.  1.
         25    2    1    2    0    0 -0.27536391213E+02  0.63112551614E+01  0.30667018516E+02  0.13177358697E+03  0.12500290963E+03 0.  0.
    9000005    1    3    3    0    0 -0.36823062074E+02  0.23133082444E+02  0.73167318823E+02  0.85120702227E+02  0.10000000000E+01 0.  0.
    9000005    1    3    3    0    0  0.92866708608E+01 -0.16821827283E+02 -0.42500300307E+02  0.46652884744E+02  0.10000000000E+01 0.  0.
          4    1    1    2  501    0  0.27536391213E+02 -0.63112551614E+01  0.39388344292E+02  0.48488548636E+02  0.12700000000E+01 0. -1.
<mgrwt>
<rscale>  1 0.12815542E+03</rscale>
<asrwt>0</asrwt>
<pdfrwt beam="1">  1       21 0.19254066E-01 0.12815542E+03</pdfrwt>
<pdfrwt beam="2">  1        4 0.84779398E-02 0.12815542E+03</pdfrwt>
<totfact> 0.99469888E+04</totfact>
</mgrwt>
</event>
<event>
 6    4  0.6093247E-003  0.1281766E+03  0.7818608E-02  0.1230187E+00
         -4   -1    0    0    0  501 -0.00000000000E+00  0.00000000000E+00  0.14137245254E+03  0.14137815686E+03  0.12700000000E+01 0. -1.
         21   -1    0    0  501  502  0.00000000000E+00 -0.00000000000E+00 -0.51186102793E+03  0.51186102793E+03  0.00000000000E+00 0.  1.
         25    2    1    2    0    0 -0.11473425450E+01  0.28334120094E+02  0.11181948948E+03  0.17009653391E+03  0.12500037545E+03 0.  0.
    9000005    1    3    3    0    0  0.86207064007E+01  0.76600222815E+02  0.81862064021E+02  0.11244691299E+03  0.10000000000E+01 0.  0.
    9000005    1    3    3    0    0 -0.97680489457E+01 -0.48266102721E+02  0.29957425463E+02  0.57649620922E+02  0.10000000000E+01 0.  0.
         -4    1    1    2    0  502  0.11473425450E+01 -0.28334120094E+02 -0.48230806488E+03  0.48314265088E+03  0.12700000000E+01 0.  1.
<mgrwt>
<rscale>  1 0.12817657E+03</rscale>
<asrwt>0</asrwt>
<pdfrwt beam="2">  1       21 0.78747850E-01 0.12817657E+03</pdfrwt>
<pdfrwt beam="1">  1       -4 0.21750168E-01 0.12817657E+03</pdfrwt>
<totfact> 0.11548823E+03</totfact>
</mgrwt>
</event>
<event>
 6    4  0.6093247E-003  0.1288732E+03  0.7818608E-02  0.1229137E+00
         -4   -1    0    0    0  501 -0.00000000000E+00  0.00000000000E+00  0.14620393744E+02  0.14675449336E+02  0.12700000000E+01 0. -1.
         21   -1    0    0  501  502  0.00000000000E+00 -0.00000000000E+00 -0.51424456128E+03  0.51424456128E+03  0.00000000000E+00 0.  1.
         25    2    1    2    0    0  0.54142240068E+01  0.30876659266E+02 -0.29523024001E+03  0.32213226335E+03  0.12500247424E+03 0.  0.
    9000005    1    3    3    0    0 -0.32667178905E+02  0.11819202531E+02 -0.13633949683E+02  0.37332595812E+02  0.10000000000E+01 0.  0.
    9000005    1    3    3    0    0  0.38081402912E+02  0.19057456735E+02 -0.28159629033E+03  0.28479966754E+03  0.10000000000E+01 0.  0.
         -4    1    1    2    0  502 -0.54142240068E+01 -0.30876659266E+02 -0.20439392753E+03  0.20678774727E+03  0.12700000000E+01 0.  1.
<mgrwt>
<rscale>  1 0.12887320E+03</rscale>
<asrwt>0</asrwt>
<pdfrwt beam="2">  1       21 0.79114554E-01 0.12887320E+03</pdfrwt>
<pdfrwt beam="1">  1       -4 0.22536468E-02 0.12887320E+03</pdfrwt>
<totfact> 0.48474752E+04</totfact>
</mgrwt>
</event>
<event>
 6    4  0.6093247E-003  0.1731070E+03  0.7818608E-02  0.1174646E+00
         21   -1    0    0  501  502  0.00000000000E+00  0.00000000000E+00  0.96109748415E+02  0.96109748415E+02  0.00000000000E+00 0. -1.
          4   -1    0    0  502    0 -0.00000000000E+00 -0.00000000000E+00 -0.22446997670E+03  0.22447356936E+03  0.12700000000E+01 0.  1.
         25    2    1    2    0    0 -0.61951565385E+02 -0.10248528138E+03 -0.63501095153E+02  0.18438658726E+03  0.12499918049E+03 0.  0.
    9000005    1    3    3    0    0 -0.80993897927E+02 -0.19686664078E+02 -0.99428551481E+01  0.83949011980E+02  0.10000000000E+01 0.  0.
    9000005    1    3    3    0    0  0.19042332542E+02 -0.82798617297E+02 -0.53558240005E+02  0.10043757528E+03  0.10000000000E+01 0.  0.
          4    1    1    2  501    0  0.61951565385E+02  0.10248528138E+03 -0.64859133134E+02  0.13619673052E+03  0.12700000000E+01 0. -1.
<mgrwt>
<rscale>  1 0.17310697E+03</rscale>
<asrwt>0</asrwt>
<pdfrwt beam="1">  1       21 0.14786115E-01 0.17310697E+03</pdfrwt>
<pdfrwt beam="2">  1        4 0.34534764E-01 0.17310697E+03</pdfrwt>
<totfact> 0.13629801E+04</totfact>
</mgrwt>
</event>
<event>
 6    4  0.6093247E-003  0.1370622E+03  0.7818608E-02  0.1217338E+00
         21   -1    0    0  501  502  0.00000000000E+00  0.00000000000E+00  0.14200552049E+03  0.14200552049E+03  0.00000000000E+00 0. -1.
         -4   -1    0    0    0  501 -0.00000000000E+00 -0.00000000000E+00 -0.62946115440E+03  0.62946243557E+03  0.12700000000E+01 0.  1.
         25    2    1    2    0    0  0.45759767747E+02 -0.32678273112E+02 -0.61604916405E+03  0.63111221242E+03  0.12499690503E+03 0.  0.
    9000005    1    3    3    0    0  0.53390952727E+02 -0.73888909569E+02 -0.48587483587E+03  0.49435363953E+03  0.10000000000E+01 0.  0.
    9000005    1    3    3    0    0 -0.76311849804E+01  0.41210636457E+02 -0.13017432818E+03  0.13675857289E+03  0.10000000000E+01 0.  0.
         -4    1    1    2    0  502 -0.45759767747E+02  0.32678273112E+02  0.12859353014E+03  0.14035574363E+03  0.12700000000E+01 0. -1.
<mgrwt>
<rscale>  1 0.13706222E+03</rscale>
<asrwt>0</asrwt>
<pdfrwt beam="1">  1       21 0.21847003E-01 0.13706222E+03</pdfrwt>
<pdfrwt beam="2">  1       -4 0.96840715E-01 0.13706222E+03</pdfrwt>
<totfact> 0.75352619E+02</totfact>
</mgrwt>
</event>
<event>
 6    4  0.6093247E-003  0.1292760E+03  0.7818608E-02  0.1228534E+00
         -4   -1    0    0    0  501 -0.00000000000E+00  0.00000000000E+00  0.67778280037E+02  0.67790177347E+02  0.12700000000E+01 0. -1.
         21   -1    0    0  501  502  0.00000000000E+00 -0.00000000000E+00 -0.10053441212E+03  0.10053441212E+03  0.00000000000E+00 0. -1.
         25    2    1    2    0    0  0.26341580821E+02 -0.19871106513E+02 -0.13201341915E+02  0.12994826248E+03  0.12499414282E+03 0.  0.
    9000005    1    3    3    0    0  0.44873574853E+02 -0.80162102528E+01 -0.61679591794E+02  0.76702473172E+02  0.10000000000E+01 0.  0.
    9000005    1    3    3    0    0 -0.18531994032E+02 -0.11854896261E+02  0.48478249879E+02  0.53245789312E+02  0.10000000000E+01 0.  0.
         -4    1    1    2    0  502 -0.26341580821E+02  0.19871106513E+02 -0.19554790169E+02  0.38376326984E+02  0.12700000000E+01 0.  1.
<mgrwt>
<rscale>  1 0.12927597E+03</rscale>
<asrwt>0</asrwt>
<pdfrwt beam="2">  1       21 0.15466833E-01 0.12927597E+03</pdfrwt>
<pdfrwt beam="1">  1       -4 0.10428960E-01 0.12927597E+03</pdfrwt>
<totfact> 0.10496426E+05</totfact>
</mgrwt>
</event>
<event>
 6    4  0.6093247E-003  0.1272416E+03  0.7818608E-02  0.1231607E+00
         21   -1    0    0  501  502  0.00000000000E+00  0.00000000000E+00  0.98469819254E+02  0.98469819254E+02  0.00000000000E+00 0. -1.
         -4   -1    0    0    0  501 -0.00000000000E+00 -0.00000000000E+00 -0.86108945008E+02  0.86118309960E+02  0.12700000000E+01 0.  1.
         25    2    1    2    0    0  0.85325307053E+01 -0.22192570017E+02 -0.34664095796E+02  0.13187878515E+03  0.12500040076E+03 0.  0.
    9000005    1    3    3    0    0  0.32653270692E+02 -0.39979065641E+01  0.39721543717E+02  0.51585079035E+02  0.10000000000E+01 0.  0.
    9000005    1    3    3    0    0 -0.24120739987E+02 -0.18194663453E+02 -0.74385639514E+02  0.80293706114E+02  0.10000000000E+01 0.  0.
         -4    1    1    2    0  502 -0.85325307053E+01  0.22192570017E+02  0.47024970042E+02  0.52709344064E+02  0.12700000000E+01 0. -1.
<mgrwt>
<rscale>  1 0.12724156E+03</rscale>
<asrwt>0</asrwt>
<pdfrwt beam="1">  1       21 0.15149203E-01 0.12724156E+03</pdfrwt>
<pdfrwt beam="2">  1       -4 0.13248880E-01 0.12724156E+03</pdfrwt>
<totfact> 0.72292443E+04</totfact>
</mgrwt>
</event>
<event>
 6    4  0.6093247E-003  0.1298334E+03  0.7818608E-02  0.1227703E+00
          4   -1    0    0  502    0 -0.00000000000E+00  0.00000000000E+00  0.10042930674E+04  0.10042938704E+04  0.12700000000E+01 0.  1.
         21   -1    0    0  501  502  0.00000000000E+00 -0.00000000000E+00 -0.43070069799E+02  0.43070069799E+02  0.00000000000E+00 0. -1.
         25    2    1    2    0    0 -0.31783955077E+02 -0.14858583912E+02  0.99213018082E+03  0.10005893297E+04  0.12500285451E+03 0.  0.
    9000005    1    3    3    0    0  0.38037337152E+02 -0.17378996024E+02  0.65284359711E+03  0.65418241402E+03  0.10000000000E+01 0.  0.
    9000005    1    3    3    0    0 -0.69821292229E+02  0.25204121127E+01  0.33928658371E+03  0.34640691565E+03  0.10000000000E+01 0.  0.
          4    1    1    2  501    0  0.31783955077E+02  0.14858583912E+02 -0.30907183219E+02  0.46774610535E+02  0.12700000000E+01 0. -1.
<mgrwt>
<rscale>  1 0.12983340E+03</rscale>
<asrwt>0</asrwt>
<pdfrwt beam="2">  1       21 0.66261653E-02 0.12983340E+03</pdfrwt>
<pdfrwt beam="1">  1        4 0.15450811E+00 0.12983340E+03</pdfrwt>
<totfact> 0.20256210E+03</totfact>
</mgrwt>
</event>
<event>
 6    4  0.6093247E-003  0.1274619E+03  0.7818608E-02  0.1231271E+00
         21   -1    0    0  501  502  0.00000000000E+00  0.00000000000E+00  0.50599546170E+02  0.50599546170E+02  0.00000000000E+00 0.  1.
         -4   -1    0    0    0  501 -0.00000000000E+00 -0.00000000000E+00 -0.12994433052E+03  0.12995053649E+03  0.12700000000E+01 0.  1.
         25    2    1    2    0    0  0.99199960746E+01 -0.22877784967E+02 -0.87130151156E+02  0.15439622628E+03  0.12499892833E+03 0.  0.
    9000005    1    3    3    0    0  0.30232792665E+02 -0.58211712068E+02 -0.92366487910E+02  0.11329251195E+03  0.10000000000E+01 0.  0.
    9000005    1    3    3    0    0 -0.20312796590E+02  0.35333927101E+02  0.52363367538E+01  0.41103714337E+02  0.10000000000E+01 0.  0.
         -4    1    1    2    0  502 -0.99199960746E+01  0.22877784967E+02  0.77853668071E+01  0.26153856378E+02  0.12700000000E+01 0. -1.
<mgrwt>
<rscale>  1 0.12746188E+03</rscale>
<asrwt>0</asrwt>
<pdfrwt beam="1">  1       21 0.77845455E-02 0.12746188E+03</pdfrwt>
<pdfrwt beam="2">  1       -4 0.19993139E-01 0.12746188E+03</pdfrwt>
<totfact> 0.11318940E+05</totfact>
</mgrwt>
</event>
<event>
 6    4  0.6093247E-003  0.1308578E+03  0.7818608E-02  0.1226189E+00
          4   -1    0    0  502    0 -0.00000000000E+00  0.00000000000E+00  0.12513928336E+04  0.12513934780E+04  0.12700000000E+01 0.  1.
         21   -1    0    0  501  502  0.00000000000E+00 -0.00000000000E+00 -0.17009628429E+03  0.17009628429E+03  0.00000000000E+00 0. -1.
         25    2    1    2    0    0  0.29706314306E+02  0.24817021885E+02  0.12457161512E+04  0.12525703494E+04  0.12500160429E+03 0.  0.
    9000005    1    3    3    0    0  0.70397866235E+02  0.25871955398E+02  0.48506584039E+03  0.49083101691E+03  0.10000000000E+01 0.  0.
    9000005    1    3    3    0    0 -0.40691551929E+02 -0.10549335129E+01  0.76065031082E+03  0.76173933247E+03  0.10000000000E+01 0.  0.
          4    1    1    2  501    0 -0.29706314306E+02 -0.24817021885E+02 -0.16441960189E+03  0.16891941295E+03  0.12700000000E+01 0. -1.
<mgrwt>
<rscale>  1 0.13085775E+03</rscale>
<asrwt>0</asrwt>
<pdfrwt beam="2">  1       21 0.26168660E-01 0.13085775E+03</pdfrwt>
<pdfrwt beam="1">  1        4 0.19252238E+00 0.13085775E+03</pdfrwt>
<totfact> 0.96106002E+01</totfact>
</mgrwt>
</event>
<event>
 6    4  0.6093247E-003  0.1328086E+03  0.7818608E-02  0.1223347E+00
         -4   -1    0    0    0  501 -0.00000000000E+00  0.00000000000E+00  0.44772899703E+03  0.44773079822E+03  0.12700000000E+01 0. -1.
         21   -1    0    0  501  502  0.00000000000E+00 -0.00000000000E+00 -0.44505590620E+02  0.44505590620E+02  0.00000000000E+00 0.  1.
         25    2    1    2    0    0 -0.40689962062E+02 -0.18885559474E+02  0.42287909892E+03  0.44324356776E+03  0.12500316273E+03 0.  0.
    9000005    1    3    3    0    0  0.85903622564E-01 -0.37548027546E+01  0.38653847451E+03  0.38655801401E+03  0.10000000000E+01 0.  0.
    9000005    1    3    3    0    0 -0.40775865685E+02 -0.15130756719E+02  0.36340624410E+02  0.56685553749E+02  0.10000000000E+01 0.  0.
         -4    1    1    2    0  502  0.40689962062E+02  0.18885559474E+02 -0.19655692513E+02  0.48992821081E+02  0.12700000000E+01 0.  1.
<mgrwt>
<rscale>  1 0.13280861E+03</rscale>
<asrwt>0</asrwt>
<pdfrwt beam="2">  1       21 0.68470142E-02 0.13280861E+03</pdfrwt>
<pdfrwt beam="1">  1       -4 0.68882914E-01 0.13280861E+03</pdfrwt>
<totfact> 0.12641741E+04</totfact>
</mgrwt>
</event>
<event>
 6    4  0.6093247E-003  0.1294321E+03  0.7818608E-02  0.1228301E+00
         -4   -1    0    0    0  501 -0.00000000000E+00  0.00000000000E+00  0.99668281751E+02  0.99676372763E+02  0.12700000000E+01 0.  1.
         21   -1    0    0  501  502  0.00000000000E+00 -0.00000000000E+00 -0.75869417809E+02  0.75869417809E+02  0.00000000000E+00 0.  1.
         25    2    1    2    0    0 -0.22100837659E+02 -0.25215882885E+02  0.43607467679E+02  0.13658065928E+03  0.12501350917E+03 0.  0.
    9000005    1    3    3    0    0  0.47606743459E+02 -0.31343253401E+02  0.32794119979E+02  0.65766677442E+02  0.10000000000E+01 0.  0.
    9000005    1    3    3    0    0 -0.69707581118E+02  0.61273705169E+01  0.10813347700E+02  0.70813981834E+02  0.10000000000E+01 0.  0.
         -4    1    1    2    0  502  0.22100837659E+02  0.25215882885E+02 -0.19808603737E+02  0.38965131295E+02  0.12700000000E+01 0. -1.
<mgrwt>
<rscale>  1 0.12943209E+03</rscale>
<asrwt>0</asrwt>
<pdfrwt beam="2">  1       21 0.11672218E-01 0.12943209E+03</pdfrwt>
<pdfrwt beam="1">  1       -4 0.15335022E-01 0.12943209E+03</pdfrwt>
<totfact> 0.89549945E+04</totfact>
</mgrwt>
</event>
<event>
 6    4  0.6093247E-003  0.1367200E+03  0.7818608E-02  0.1217812E+00
         21   -1    0    0  501  502  0.00000000000E+00  0.00000000000E+00  0.24477107499E+03  0.24477107499E+03  0.00000000000E+00 0.  1.
         -4   -1    0    0    0  501 -0.00000000000E+00 -0.00000000000E+00 -0.10182165280E+03  0.10182957271E+03  0.12700000000E+01 0. -1.
         25    2    1    2    0    0  0.53226327751E+02 -0.15295271749E+02 -0.50215175153E+02  0.14565000234E+03  0.12500148824E+03 0.  0.
    9000005    1    3    3    0    0  0.61109909703E+02 -0.57722206306E+02 -0.66621316578E+01  0.84330647827E+02  0.10000000000E+01 0.  0.
    9000005    1    3    3    0    0 -0.78835819519E+01  0.42426934557E+02 -0.43553043495E+02  0.61319354514E+02  0.10000000000E+01 0.  0.
         -4    1    1    2    0  502 -0.53226327751E+02  0.15295271749E+02  0.19316459734E+03  0.20095064536E+03  0.12700000000E+01 0.  1.
<mgrwt>
<rscale>  1 0.13672000E+03</rscale>
<asrwt>0</asrwt>
<pdfrwt beam="1">  1       21 0.37657088E-01 0.13672000E+03</pdfrwt>
<pdfrwt beam="2">  1       -4 0.15665732E-01 0.13672000E+03</pdfrwt>
<totfact> 0.97686521E+03</totfact>
</mgrwt>
</event>
<event>
 6    4  0.6093247E-003  0.1334044E+03  0.7818608E-02  0.1222490E+00
         21   -1    0    0  501  502  0.00000000000E+00  0.00000000000E+00  0.17707561202E+02  0.17707561202E+02  0.00000000000E+00 0.  1.
          4   -1    0    0  502    0 -0.00000000000E+00 -0.00000000000E+00 -0.46287823212E+03  0.46287997437E+03  0.12700000000E+01 0.  1.
         25    2    1    2    0    0  0.38281270841E+02 -0.26563417520E+02 -0.35140234060E+03  0.37587276336E+03  0.12500263362E+03 0.  0.
    9000005    1    3    3    0    0  0.45664312532E+02  0.35002801854E+02 -0.25374600902E+03  0.26018928239E+03  0.10000000000E+01 0.  0.
    9000005    1    3    3    0    0 -0.73830416916E+01 -0.61566219374E+02 -0.97656331584E+02  0.11568348098E+03  0.10000000000E+01 0.  0.
          4    1    1    2  501    0 -0.38281270841E+02  0.26563417520E+02 -0.93768330315E+02  0.10471477220E+03  0.12700000000E+01 0. -1.
<mgrwt>
<rscale>  1 0.13340438E+03</rscale>
<asrwt>0</asrwt>
<pdfrwt beam="1">  1       21 0.27242403E-02 0.13340438E+03</pdfrwt>
<pdfrwt beam="2">  1        4 0.71215671E-01 0.13340438E+03</pdfrwt>
<totfact> 0.54848010E+04</totfact>
</mgrwt>
</event>
<event>
 6    4  0.6093247E-003  0.1293172E+03  0.7818608E-02  0.1228472E+00
          4   -1    0    0  502    0 -0.00000000000E+00  0.00000000000E+00  0.20287498656E+02  0.20327210869E+02  0.12700000000E+01 0. -1.
         21   -1    0    0  501  502  0.00000000000E+00 -0.00000000000E+00 -0.56084667591E+03  0.56084667591E+03  0.00000000000E+00 0.  1.
         25    2    1    2    0    0  0.26253340792E+02 -0.20257919872E+02 -0.19473988719E+03  0.23376603497E+03  0.12499325670E+03 0.  0.
    9000005    1    3    3    0    0  0.40801981423E+02 -0.58887776527E+02 -0.17267433621E+03  0.18694918640E+03  0.10000000000E+01 0.  0.
    9000005    1    3    3    0    0 -0.14548640631E+02  0.38629856655E+02 -0.22065550986E+02  0.46816848567E+02  0.10000000000E+01 0.  0.
          4    1    1    2  501    0 -0.26253340792E+02  0.20257919872E+02 -0.34581929007E+03  0.34740785182E+03  0.12700000000E+01 0.  1.
<mgrwt>
<rscale>  1 0.12931719E+03</rscale>
<asrwt>0</asrwt>
<pdfrwt beam="2">  1       21 0.86284108E-01 0.12931719E+03</pdfrwt>
<pdfrwt beam="1">  1        4 0.31243189E-02 0.12931719E+03</pdfrwt>
<totfact> 0.23995496E+04</totfact>
</mgrwt>
</event>
<event>
 6    4  0.6093247E-003  0.1296034E+03  0.7818608E-02  0.1228045E+00
          4   -1    0    0  502    0 -0.00000000000E+00  0.00000000000E+00  0.12183515206E+03  0.12184177107E+03  0.12700000000E+01 0.  1.
         21   -1    0    0  501  502  0.00000000000E+00 -0.00000000000E+00 -0.75412894014E+02  0.75412894014E+02  0.00000000000E+00 0. -1.
         25    2    1    2    0    0  0.12795379123E+01 -0.34213849896E+02  0.77492050956E+02  0.15100350646E+03  0.12499926504E+03 0.  0.
    9000005    1    3    3    0    0  0.46855577914E+02  0.25488464302E+02  0.22455443625E+02  0.57882242030E+02  0.10000000000E+01 0.  0.
    9000005    1    3    3    0    0 -0.45576040001E+02 -0.59702314198E+02  0.55036607331E+02  0.93121264431E+02  0.10000000000E+01 0.  0.
          4    1    1    2  501    0 -0.12795379123E+01  0.34213849896E+02 -0.31069792913E+02  0.46251158620E+02  0.12700000000E+01 0. -1.
<mgrwt>
<rscale>  1 0.12960340E+03</rscale>
<asrwt>0</asrwt>
<pdfrwt beam="2">  1       21 0.11601984E-01 0.12960340E+03</pdfrwt>
<pdfrwt beam="1">  1        4 0.18745201E-01 0.12960340E+03</pdfrwt>
<totfact> 0.63503652E+04</totfact>
</mgrwt>
</event>
<event>
 6    4  0.6093247E-003  0.1647793E+03  0.7818608E-02  0.1183404E+00
         -4   -1    0    0    0  501 -0.00000000000E+00  0.00000000000E+00  0.10264777870E+04  0.10264785726E+04  0.12700000000E+01 0.  1.
         21   -1    0    0  501  502  0.00000000000E+00 -0.00000000000E+00 -0.45876806182E+02  0.45876806182E+02  0.00000000000E+00 0. -1.
         25    2    1    2    0    0 -0.73785831598E+02  0.77990311912E+02  0.94496692020E+03  0.95922608610E+03  0.12500146517E+03 0.  0.
    9000005    1    3    3    0    0 -0.44506099711E+02  0.42969530188E+02  0.86447072099E+03  0.86668206447E+03  0.10000000000E+01 0.  0.
    9000005    1    3    3    0    0 -0.29279731887E+02  0.35020781725E+02  0.80496199213E+02  0.92544021632E+02  0.10000000000E+01 0.  0.
         -4    1    1    2    0  502  0.73785831598E+02 -0.77990311912E+02  0.35634060621E+02  0.11312929273E+03  0.12700000000E+01 0. -1.
<mgrwt>
<rscale>  1 0.16477926E+03</rscale>
<asrwt>0</asrwt>
<pdfrwt beam="2">  1       21 0.70579710E-02 0.16477926E+03</pdfrwt>
<pdfrwt beam="1">  1       -4 0.15792105E+00 0.16477926E+03</pdfrwt>
<totfact> 0.17352222E+03</totfact>
</mgrwt>
</event>
<event>
 6    4  0.6093247E-003  0.1310004E+03  0.7818608E-02  0.1225979E+00
         21   -1    0    0  501  502  0.00000000000E+00  0.00000000000E+00  0.73098154430E+02  0.73098154430E+02  0.00000000000E+00 0.  1.
         -4   -1    0    0    0  501 -0.00000000000E+00 -0.00000000000E+00 -0.29065771971E+03  0.29066049427E+03  0.12700000000E+01 0. -1.
         25    2    1    2    0    0 -0.21642116594E+02  0.32676312168E+02 -0.26892530974E+03  0.29913531553E+03  0.12499996876E+03 0.  0.
    9000005    1    3    3    0    0  0.13329530905E+02  0.61557238031E+02 -0.23271458349E+03  0.24108929324E+03  0.10000000000E+01 0.  0.
    9000005    1    3    3    0    0 -0.34971647499E+02 -0.28880925862E+02 -0.36210726245E+02  0.58046022282E+02  0.10000000000E+01 0.  0.
         -4    1    1    2    0  502  0.21642116594E+02 -0.32676312168E+02  0.51365744451E+02  0.64623333174E+02  0.12700000000E+01 0.  1.
<mgrwt>
<rscale>  1 0.13100044E+03</rscale>
<asrwt>0</asrwt>
<pdfrwt beam="1">  1       21 0.11245870E-01 0.13100044E+03</pdfrwt>
<pdfrwt beam="2">  1       -4 0.44717634E-01 0.13100044E+03</pdfrwt>
<totfact> 0.13062130E+04</totfact>
</mgrwt>
</event>
<event>
 6    4  0.6093247E-003  0.1332922E+03  0.7818608E-02  0.1222651E+00
         -4   -1    0    0    0  501 -0.00000000000E+00  0.00000000000E+00  0.19395461884E+03  0.19395877673E+03  0.12700000000E+01 0.  1.
         21   -1    0    0  501  502  0.00000000000E+00 -0.00000000000E+00 -0.16667707061E+03  0.16667707061E+03  0.00000000000E+00 0. -1.
         25    2    1    2    0    0 -0.40935901857E+02  0.21587638411E+02  0.16686751806E+03  0.21356869679E+03  0.12500018189E+03 0.  0.
    9000005    1    3    3    0    0  0.34984054411E+02  0.69632532842E+01  0.75432883164E+01  0.36472896211E+02  0.10000000000E+01 0.  0.
    9000005    1    3    3    0    0 -0.75919956268E+02  0.14624385127E+02  0.15932422975E+03  0.17709580058E+03  0.10000000000E+01 0.  0.
         -4    1    1    2    0  502  0.40935901857E+02 -0.21587638411E+02 -0.13958996983E+03  0.14706715055E+03  0.12700000000E+01 0. -1.
<mgrwt>
<rscale>  1 0.13329223E+03</rscale>
<asrwt>0</asrwt>
<pdfrwt beam="2">  1       21 0.25642626E-01 0.13329223E+03</pdfrwt>
<pdfrwt beam="1">  1       -4 0.29839864E-01 0.13329223E+03</pdfrwt>
<totfact> 0.63738183E+03</totfact>
</mgrwt>
</event>
<event>
 6    4  0.6093247E-003  0.1266218E+03  0.7818608E-02  0.1232556E+00
         21   -1    0    0  501  502  0.00000000000E+00  0.00000000000E+00  0.25969203567E+03  0.25969203567E+03  0.00000000000E+00 0.  1.
          4   -1    0    0  502    0 -0.00000000000E+00 -0.00000000000E+00 -0.93044535284E+02  0.93053202235E+02  0.12700000000E+01 0. -1.
         25    2    1    2    0    0 -0.12572751938E+02 -0.15827866470E+02 -0.49277404687E+02  0.13587252644E+03  0.12499794150E+03 0.  0.
    9000005    1    3    3    0    0 -0.20544870402E+02  0.40155077500E+02  0.17474593119E+02  0.48382676172E+02  0.10000000000E+01 0.  0.
    9000005    1    3    3    0    0  0.79721184643E+01 -0.55982943970E+02 -0.66751997807E+02  0.87489850266E+02  0.10000000000E+01 0.  0.
          4    1    1    2  501    0  0.12572751938E+02  0.15827866470E+02  0.21592490507E+03  0.21687271147E+03  0.12700000000E+01 0.  1.
<mgrwt>
<rscale>  1 0.12662180E+03</rscale>
<asrwt>0</asrwt>
<pdfrwt beam="1">  1       21 0.39952621E-01 0.12662180E+03</pdfrwt>
<pdfrwt beam="2">  1        4 0.14315450E-01 0.12662180E+03</pdfrwt>
<totfact> 0.10101218E+04</totfact>
</mgrwt>
</event>
<event>
 6    4  0.6093247E-003  0.1282797E+03  0.7818608E-02  0.1230031E+00
         21   -1    0    0  501  502  0.00000000000E+00  0.00000000000E+00  0.90994407606E+01  0.90994407606E+01  0.00000000000E+00 0. -1.
         -4   -1    0    0    0  501 -0.00000000000E+00 -0.00000000000E+00 -0.13970273283E+04  0.13970279056E+04  0.12700000000E+01 0.  1.
         25    2    1    2    0    0 -0.27199190224E+02  0.91775401036E+01 -0.13600698202E+04  0.13661060019E+04  0.12502667518E+03 0.  0.
    9000005    1    3    3    0    0 -0.31687071463E+02 -0.51169404926E+02 -0.90947491752E+03  0.91146475746E+03  0.10000000000E+01 0.  0.
    9000005    1    3    3    0    0  0.44878812389E+01  0.60346945030E+02 -0.45059490267E+03  0.45464124446E+03  0.10000000000E+01 0.  0.
         -4    1    1    2    0  502  0.27199190224E+02 -0.91775401036E+01 -0.27858067356E+02  0.40021344405E+02  0.12700000000E+01 0. -1.
<mgrwt>
<rscale>  1 0.12827974E+03</rscale>
<asrwt>0</asrwt>
<pdfrwt beam="1">  1       21 0.13999144E-02 0.12827974E+03</pdfrwt>
<pdfrwt beam="2">  1       -4 0.21493407E+00 0.12827974E+03</pdfrwt>
<totfact> 0.10532824E+04</totfact>
</mgrwt>
</event>
<event>
 6    4  0.6093247E-003  0.1273804E+03  0.7818608E-02  0.1231395E+00
         -4   -1    0    0    0  501 -0.00000000000E+00  0.00000000000E+00  0.69735560493E+02  0.69747123935E+02  0.12700000000E+01 0. -1.
         21   -1    0    0  501  502  0.00000000000E+00 -0.00000000000E+00 -0.99584483721E+02  0.99584483721E+02  0.00000000000E+00 0. -1.
         25    2    1    2    0    0  0.13869998375E+02 -0.20191745542E+02  0.41021452610E+01  0.12744639076E+03  0.12500268589E+03 0.  0.
    9000005    1    3    3    0    0  0.39721495503E+02 -0.86687866269E+00  0.54583970703E+02  0.67520060288E+02  0.10000000000E+01 0.  0.
    9000005    1    3    3    0    0 -0.25851497128E+02 -0.19324866880E+02 -0.50481825442E+02  0.59926330470E+02  0.10000000000E+01 0.  0.
         -4    1    1    2    0  502 -0.13869998375E+02  0.20191745542E+02 -0.33951068490E+02  0.41885216898E+02  0.12700000000E+01 0.  1.
<mgrwt>
<rscale>  1 0.12738036E+03</rscale>
<asrwt>0</asrwt>
<pdfrwt beam="2">  1       21 0.15320690E-01 0.12738036E+03</pdfrwt>
<pdfrwt beam="1">  1       -4 0.10730060E-01 0.12738036E+03</pdfrwt>
<totfact> 0.10155291E+05</totfact>
</mgrwt>
</event>
<event>
 6    4  0.6093247E-003  0.1319237E+03  0.7818608E-02  0.1224629E+00
         21   -1    0    0  501  502  0.00000000000E+00  0.00000000000E+00  0.89716649971E+02  0.89716649971E+02  0.00000000000E+00 0. -1.
          4   -1    0    0  502    0 -0.00000000000E+00 -0.00000000000E+00 -0.12250130343E+03  0.12250788644E+03  0.12700000000E+01 0.  1.
         25    2    1    2    0    0 -0.38834880085E+02 -0.16467157174E+02 -0.75647346156E+02  0.15207357215E+03  0.12499814074E+03 0.  0.
    9000005    1    3    3    0    0  0.13476163759E+02 -0.48883856648E+02 -0.74978595418E+02  0.90520871634E+02  0.10000000000E+01 0.  0.
    9000005    1    3    3    0    0 -0.52311043844E+02  0.32416699475E+02 -0.66875073758E+00  0.61552700513E+02  0.10000000000E+01 0.  0.
          4    1    1    2  501    0  0.38834880085E+02  0.16467157174E+02  0.42862692701E+02  0.60150964267E+02  0.12700000000E+01 0. -1.
<mgrwt>
<rscale>  1 0.13192365E+03</rscale>
<asrwt>0</asrwt>
<pdfrwt beam="1">  1       21 0.13802562E-01 0.13192365E+03</pdfrwt>
<pdfrwt beam="2">  1        4 0.18847552E-01 0.13192365E+03</pdfrwt>
<totfact> 0.46274734E+04</totfact>
</mgrwt>
</event>
<event>
 6    4  0.6093247E-003  0.1307966E+03  0.7818608E-02  0.1226278E+00
          4   -1    0    0  502    0 -0.00000000000E+00  0.00000000000E+00  0.50522099069E+03  0.50522258692E+03  0.12700000000E+01 0.  1.
         21   -1    0    0  501  502  0.00000000000E+00 -0.00000000000E+00 -0.56631715695E+02  0.56631715695E+02  0.00000000000E+00 0. -1.
         25    2    1    2    0    0  0.32464334637E+02  0.20704935025E+02  0.48890018959E+03  0.50609401125E+03  0.12500050194E+03 0.  0.
    9000005    1    3    3    0    0  0.10927690769E+02 -0.52906069453E+02  0.20971854288E+03  0.21656715780E+03  0.10000000000E+01 0.  0.
    9000005    1    3    3    0    0  0.21536643867E+02  0.73611004478E+02  0.27918164671E+03  0.28952685345E+03  0.10000000000E+01 0.  0.
          4    1    1    2  501    0 -0.32464334637E+02 -0.20704935025E+02 -0.40310914593E+02  0.55760291365E+02  0.12700000000E+01 0. -1.
<mgrwt>
<rscale>  1 0.13079661E+03</rscale>
<asrwt>0</asrwt>
<pdfrwt beam="2">  1       21 0.87125720E-02 0.13079661E+03</pdfrwt>
<pdfrwt beam="1">  1        4 0.77727521E-01 0.13079661E+03</pdfrwt>
<totfact> 0.64122722E+03</totfact>
</mgrwt>
</event>
<event>
 6    4  0.6093247E-003  0.1275389E+03  0.7818608E-02  0.1231154E+00
         21   -1    0    0  501  502  0.00000000000E+00  0.00000000000E+00  0.19818251861E+02  0.19818251861E+02  0.00000000000E+00 0. -1.
         -4   -1    0    0    0  501 -0.00000000000E+00 -0.00000000000E+00 -0.31548290489E+03  0.31548546112E+03  0.12700000000E+01 0.  1.
         25    2    1    2    0    0  0.23563702094E+02  0.92750160867E+01 -0.27288649560E+03  0.30121953284E+03  0.12499957402E+03 0.  0.
    9000005    1    3    3    0    0  0.23362119803E+02 -0.48615341340E+02 -0.20507877245E+03  0.21205551860E+03  0.10000000000E+01 0.  0.
    9000005    1    3    3    0    0  0.20158229130E+00  0.57890357426E+02 -0.67807723146E+02  0.89164014247E+02  0.10000000000E+01 0.  0.
         -4    1    1    2    0  502 -0.23563702094E+02 -0.92750160867E+01 -0.22778157425E+02  0.34084180135E+02  0.12700000000E+01 0. -1.
<mgrwt>
<rscale>  1 0.12753889E+03</rscale>
<asrwt>0</asrwt>
<pdfrwt beam="1">  1       21 0.30489621E-02 0.12753889E+03</pdfrwt>
<pdfrwt beam="2">  1       -4 0.48539153E-01 0.12753889E+03</pdfrwt>
<totfact> 0.10105405E+05</totfact>
</mgrwt>
</event>
<event>
 6    4  0.6093247E-003  0.1331534E+03  0.7818608E-02  0.1222850E+00
         21   -1    0    0  501  502  0.00000000000E+00  0.00000000000E+00  0.85700608345E+02  0.85700608345E+02  0.00000000000E+00 0. -1.
         -4   -1    0    0    0  501 -0.00000000000E+00 -0.00000000000E+00 -0.10294591461E+03  0.10295374804E+03  0.12700000000E+01 0. -1.
         25    2    1    2    0    0 -0.26678703852E+02  0.37298695634E+02 -0.37755473660E+02  0.13840273152E+03  0.12500757723E+03 0.  0.
    9000005    1    3    3    0    0 -0.51977453363E+02  0.44746298339E+02  0.22851906410E+02  0.72298661812E+02  0.10000000000E+01 0.  0.
    9000005    1    3    3    0    0  0.25298749511E+02 -0.74476027053E+01 -0.60607380070E+02  0.66104069707E+02  0.10000000000E+01 0.  0.
         -4    1    1    2    0  502  0.26678703852E+02 -0.37298695634E+02  0.20510167392E+02  0.50251624866E+02  0.12700000000E+01 0.  1.
<mgrwt>
<rscale>  1 0.13315345E+03</rscale>
<asrwt>0</asrwt>
<pdfrwt beam="1">  1       21 0.13184709E-01 0.13315345E+03</pdfrwt>
<pdfrwt beam="2">  1       -4 0.15839159E-01 0.13315345E+03</pdfrwt>
<totfact> 0.68406747E+04</totfact>
</mgrwt>
</event>
<event>
 6    4  0.6093247E-003  0.1836747E+03  0.7818608E-02  0.1164293E+00
         21   -1    0    0  501  502  0.00000000000E+00  0.00000000000E+00  0.75686879052E+03  0.75686879052E+03  0.00000000000E+00 0. -1.
          4   -1    0    0  502    0 -0.00000000000E+00 -0.00000000000E+00 -0.66865734829E+02  0.66877794478E+02  0.12700000000E+01 0.  1.
         25    2    1    2    0    0 -0.74280611118E+02 -0.11222325041E+03  0.82214224653E+02  0.20123510466E+03  0.12499888596E+03 0.  0.
    9000005    1    3    3    0    0 -0.98469701340E+02 -0.57645839757E+02  0.83695656088E+02  0.14151073377E+03  0.10000000000E+01 0.  0.
    9000005    1    3    3    0    0  0.24189090222E+02 -0.54577410652E+02 -0.14814314351E+01  0.59724370891E+02  0.10000000000E+01 0.  0.
          4    1    1    2  501    0  0.74280611118E+02  0.11222325041E+03  0.60778883104E+03  0.62251148034E+03  0.12700000000E+01 0. -1.
<mgrwt>
<rscale>  1 0.18367468E+03</rscale>
<asrwt>0</asrwt>
<pdfrwt beam="1">  1       21 0.11644135E+00 0.18367468E+03</pdfrwt>
<pdfrwt beam="2">  1        4 0.10288046E-01 0.18367468E+03</pdfrwt>
<totfact> 0.17299402E+03</totfact>
</mgrwt>
</event>
<event>
 6    4  0.6093247E-003  0.1276012E+03  0.7818608E-02  0.1231059E+00
         21   -1    0    0  501  502  0.00000000000E+00  0.00000000000E+00  0.16129048329E+02  0.16129048329E+02  0.00000000000E+00 0.  1.
         -4   -1    0    0    0  501 -0.00000000000E+00 -0.00000000000E+00 -0.89996613455E+03  0.89996703064E+03  0.12700000000E+01 0.  1.
         25    2    1    2    0    0  0.10598069665E+02 -0.23331319671E+02 -0.88110203850E+03  0.89029369643E+03  0.12500157642E+03 0.  0.
    9000005    1    3    3    0    0 -0.11340306634E+02  0.47438276671E+02 -0.47391969572E+03  0.47642404498E+03  0.10000000000E+01 0.  0.
    9000005    1    3    3    0    0  0.21938376300E+02 -0.70769596342E+02 -0.40718234278E+03  0.41386965145E+03  0.10000000000E+01 0.  0.
         -4    1    1    2    0  502 -0.10598069665E+02  0.23331319671E+02 -0.27350477196E+01  0.25802382531E+02  0.12700000000E+01 0. -1.
<mgrwt>
<rscale>  1 0.12760119E+03</rscale>
<asrwt>0</asrwt>
<pdfrwt beam="1">  1       21 0.24813909E-02 0.12760119E+03</pdfrwt>
<pdfrwt beam="2">  1       -4 0.13846031E+00 0.12760119E+03</pdfrwt>
<totfact> 0.13672184E+04</totfact>
</mgrwt>
</event>
<event>
 6    4  0.6093247E-003  0.1330073E+03  0.7818608E-02  0.1223060E+00
          4   -1    0    0  502    0 -0.00000000000E+00  0.00000000000E+00  0.63257679326E+02  0.63270426692E+02  0.12700000000E+01 0.  1.
         21   -1    0    0  501  502  0.00000000000E+00 -0.00000000000E+00 -0.22017920996E+03  0.22017920996E+03  0.00000000000E+00 0. -1.
         25    2    1    2    0    0  0.80186285541E+01 -0.44737846665E+02 -0.14321444599E+02  0.13377608934E+03  0.12500065990E+03 0.  0.
    9000005    1    3    3    0    0  0.50051195382E+02 -0.55866187791E+02 -0.38177775695E+02  0.84170634158E+02  0.10000000000E+01 0.  0.
    9000005    1    3    3    0    0 -0.42032566828E+02  0.11128341126E+02  0.23856331096E+02  0.49605455181E+02  0.10000000000E+01 0.  0.
          4    1    1    2  501    0 -0.80186285541E+01  0.44737846665E+02 -0.14260008604E+03  0.14967354731E+03  0.12700000000E+01 0. -1.
<mgrwt>
<rscale>  1 0.13300729E+03</rscale>
<asrwt>0</asrwt>
<pdfrwt beam="2">  1       21 0.33873724E-01 0.13300729E+03</pdfrwt>
<pdfrwt beam="1">  1        4 0.97332131E-02 0.13300729E+03</pdfrwt>
<totfact> 0.27168489E+04</totfact>
</mgrwt>
</event>
<event>
 6    4  0.6093247E-003  0.1633970E+03  0.7818608E-02  0.1184914E+00
         -4   -1    0    0    0  501 -0.00000000000E+00  0.00000000000E+00  0.20688370330E+03  0.20688760134E+03  0.12700000000E+01 0.  1.
         21   -1    0    0  501  502  0.00000000000E+00 -0.00000000000E+00 -0.24167877517E+03  0.24167877517E+03  0.00000000000E+00 0. -1.
         25    2    1    2    0    0  0.64332339417E+02  0.83278038334E+02  0.15903133724E+03  0.22801213979E+03  0.12499875241E+03 0.  0.
    9000005    1    3    3    0    0  0.10162769109E+03  0.71018060436E+02  0.11669267313E+03  0.17026430179E+03  0.10000000000E+01 0.  0.
    9000005    1    3    3    0    0 -0.37295351671E+02  0.12259977898E+02  0.42338664116E+02  0.57747837998E+02  0.10000000000E+01 0.  0.
         -4    1    1    2    0  502 -0.64332339417E+02 -0.83278038334E+02 -0.19382640912E+03  0.22055423672E+03  0.12700000000E+01 0. -1.
<mgrwt>
<rscale>  1 0.16339697E+03</rscale>
<asrwt>0</asrwt>
<pdfrwt beam="2">  1       21 0.37181350E-01 0.16339697E+03</pdfrwt>
<pdfrwt beam="1">  1       -4 0.31828819E-01 0.16339697E+03</pdfrwt>
<totfact> 0.27706320E+03</totfact>
</mgrwt>
</event>
<event>
 6    4  0.6093247E-003  0.1341377E+03  0.7818608E-02  0.1221442E+00
         21   -1    0    0  501  502  0.00000000000E+00  0.00000000000E+00  0.22190319932E+02  0.22190319932E+02  0.00000000000E+00 0. -1.
         -4   -1    0    0    0  501 -0.00000000000E+00 -0.00000000000E+00 -0.45440882958E+03  0.45441060430E+03  0.12700000000E+01 0. -1.
         25    2    1    2    0    0  0.47954946553E+02  0.83800938733E+01 -0.38904566425E+03  0.41152089387E+03  0.12499205714E+03 0.  0.
    9000005    1    3    3    0    0  0.83963577419E+02 -0.21617500457E+02 -0.23422487748E+03  0.24975886749E+03  0.10000000000E+01 0.  0.
    9000005    1    3    3    0    0 -0.36008630866E+02  0.29997594331E+02 -0.15482078678E+03  0.16176202639E+03  0.10000000000E+01 0.  0.
         -4    1    1    2    0  502 -0.47954946553E+02 -0.83800938733E+01 -0.43172845397E+02  0.65080030362E+02  0.12700000000E+01 0.  1.
<mgrwt>
<rscale>  1 0.13413768E+03</rscale>
<asrwt>0</asrwt>
<pdfrwt beam="1">  1       21 0.34138951E-02 0.13413768E+03</pdfrwt>
<pdfrwt beam="2">  1       -4 0.69911989E-01 0.13413768E+03</pdfrwt>
<totfact> 0.39427689E+04</totfact>
</mgrwt>
</event>
<event>
 6    4  0.6093247E-003  0.1275325E+03  0.7818608E-02  0.1231164E+00
         -4   -1    0    0    0  501 -0.00000000000E+00  0.00000000000E+00  0.93170424492E+02  0.93179079734E+02  0.12700000000E+01 0. -1.
         21   -1    0    0  501  502  0.00000000000E+00 -0.00000000000E+00 -0.62686703420E+02  0.62686703420E+02  0.00000000000E+00 0. -1.
         25    2    1    2    0    0 -0.24976210023E+02  0.39597426459E+01  0.25808978267E+02  0.13011783665E+03  0.12500022970E+03 0.  0.
    9000005    1    3    3    0    0 -0.69543329245E+02 -0.25443023865E+02  0.17158125011E+02  0.76019887923E+02  0.10000000000E+01 0.  0.
    9000005    1    3    3    0    0  0.44567119222E+02  0.29402766511E+02  0.86508532558E+01  0.54097948726E+02  0.10000000000E+01 0.  0.
         -4    1    1    2    0  502  0.24976210023E+02 -0.39597426459E+01  0.46747428054E+01  0.25747946505E+02  0.12700000000E+01 0.  1.
<mgrwt>
<rscale>  1 0.12753254E+03</rscale>
<asrwt>0</asrwt>
<pdfrwt beam="2">  1       21 0.96441083E-02 0.12753254E+03</pdfrwt>
<pdfrwt beam="1">  1       -4 0.14335567E-01 0.12753254E+03</pdfrwt>
<totfact> 0.14050791E+05</totfact>
</mgrwt>
</event>
<event>
 6    4  0.6093247E-003  0.1274492E+03  0.7818608E-02  0.1231290E+00
          4   -1    0    0  502    0 -0.00000000000E+00  0.00000000000E+00  0.22630627552E+02  0.22666234875E+02  0.12700000000E+01 0. -1.
         21   -1    0    0  501  502  0.00000000000E+00 -0.00000000000E+00 -0.26576637695E+03  0.26576637695E+03  0.00000000000E+00 0. -1.
         25    2    1    2    0    0  0.24792481141E+02 -0.18368209509E+01 -0.17987352415E+03  0.22044906179E+03  0.12500105248E+03 0.  0.
    9000005    1    3    3    0    0  0.63507813697E+02  0.32769499482E+02 -0.76072881822E+02  0.10437991112E+03  0.10000000000E+01 0.  0.
    9000005    1    3    3    0    0 -0.38715332556E+02 -0.34606320433E+02 -0.10380064233E+03  0.11606915067E+03  0.10000000000E+01 0.  0.
          4    1    1    2  501    0 -0.24792481141E+02  0.18368209509E+01 -0.63262225244E+02  0.67983550033E+02  0.12700000000E+01 0.  1.
<mgrwt>
<rscale>  1 0.12744922E+03</rscale>
<asrwt>0</asrwt>
<pdfrwt beam="2">  1       21 0.40887135E-01 0.12744922E+03</pdfrwt>
<pdfrwt beam="1">  1        4 0.34846075E-02 0.12744922E+03</pdfrwt>
<totfact> 0.98669261E+04</totfact>
</mgrwt>
</event>
<event>
 6    4  0.6093247E-003  0.1464616E+03  0.7818608E-02  0.1204890E+00
         21   -1    0    0  501  502  0.00000000000E+00  0.00000000000E+00  0.17034288437E+03  0.17034288437E+03  0.00000000000E+00 0. -1.
         -4   -1    0    0    0  501 -0.00000000000E+00 -0.00000000000E+00 -0.73092866965E+02  0.73103899357E+02  0.12700000000E+01 0.  1.
         25    2    1    2    0    0 -0.67346669800E+02 -0.35913787673E+02  0.70640456358E+02  0.16260709226E+03  0.12500247317E+03 0.  0.
    9000005    1    3    3    0    0 -0.72811021613E+02 -0.65268864568E+02  0.14289866699E+02  0.98826463261E+02  0.10000000000E+01 0.  0.
    9000005    1    3    3    0    0  0.54643518130E+01  0.29355076896E+02  0.56350589659E+02  0.63780628996E+02  0.10000000000E+01 0.  0.
         -4    1    1    2    0  502  0.67346669800E+02  0.35913787673E+02  0.26609561051E+02  0.80839691474E+02  0.12700000000E+01 0. -1.
<mgrwt>
<rscale>  1 0.14646157E+03</rscale>
<asrwt>0</asrwt>
<pdfrwt beam="1">  1       21 0.26206597E-01 0.14646157E+03</pdfrwt>
<pdfrwt beam="2">  1       -4 0.11246269E-01 0.14646157E+03</pdfrwt>
<totfact> 0.35264026E+04</totfact>
</mgrwt>
</event>
<event>
 6    4  0.6093247E-003  0.1385763E+03  0.7818608E-02  0.1215258E+00
          4   -1    0    0  502    0 -0.00000000000E+00  0.00000000000E+00  0.81115060845E+02  0.81125002286E+02  0.12700000000E+01 0.  1.
         21   -1    0    0  501  502  0.00000000000E+00 -0.00000000000E+00 -0.12788676518E+03  0.12788676518E+03  0.00000000000E+00 0. -1.
         25    2    1    2    0    0  0.38710388267E+02 -0.45606545328E+02 -0.54035589102E+02  0.14873882114E+03  0.12499976355E+03 0.  0.
    9000005    1    3    3    0    0  0.79343227633E+02 -0.42702786909E+02 -0.13239245265E+02  0.91077732713E+02  0.10000000000E+01 0.  0.
    9000005    1    3    3    0    0 -0.40632839366E+02 -0.29037584186E+01 -0.40796343837E+02  0.57661088425E+02  0.10000000000E+01 0.  0.
          4    1    1    2  501    0 -0.38710388267E+02  0.45606545328E+02  0.72638847718E+01  0.60272946323E+02  0.12700000000E+01 0. -1.
<mgrwt>
<rscale>  1 0.13857630E+03</rscale>
<asrwt>0</asrwt>
<pdfrwt beam="2">  1       21 0.19674887E-01 0.13857630E+03</pdfrwt>
<pdfrwt beam="1">  1        4 0.12480490E-01 0.13857630E+03</pdfrwt>
<totfact> 0.50238626E+04</totfact>
</mgrwt>
</event>
<event>
 6    4  0.6093247E-003  0.1311056E+03  0.7818608E-02  0.1225824E+00
         21   -1    0    0  501  502  0.00000000000E+00  0.00000000000E+00  0.42091685918E+02  0.42091685918E+02  0.00000000000E+00 0. -1.
          4   -1    0    0  502    0 -0.00000000000E+00 -0.00000000000E+00 -0.13256733621E+04  0.13256739704E+04  0.12700000000E+01 0.  1.
         25    2    1    2    0    0 -0.38116039567E+02  0.10655561025E+02 -0.13123109507E+04  0.13188437024E+04  0.12498922583E+03 0.  0.
    9000005    1    3    3    0    0  0.32756869139E+02 -0.24690402488E+02 -0.73245232460E+03  0.73360073355E+03  0.10000000000E+01 0.  0.
    9000005    1    3    3    0    0 -0.70872908706E+02  0.35345963513E+02 -0.57985862615E+03  0.58524296890E+03  0.10000000000E+01 0.  0.
          4    1    1    2  501    0  0.38116039567E+02 -0.10655561025E+02  0.28729274590E+02  0.48921953881E+02  0.12700000000E+01 0. -1.
<mgrwt>
<rscale>  1 0.13110561E+03</rscale>
<asrwt>0</asrwt>
<pdfrwt beam="1">  1       21 0.64756448E-02 0.13110561E+03</pdfrwt>
<pdfrwt beam="2">  1        4 0.20395124E+00 0.13110561E+03</pdfrwt>
<totfact> 0.99267926E+02</totfact>
</mgrwt>
</event>
<event>
 6    4  0.6093247E-003  0.1878199E+03  0.7818608E-02  0.1160442E+00
         21   -1    0    0  501  502  0.00000000000E+00  0.00000000000E+00  0.13401816458E+03  0.13401816458E+03  0.00000000000E+00 0.  1.
          4   -1    0    0  502    0 -0.00000000000E+00 -0.00000000000E+00 -0.38741438838E+03  0.38741647000E+03  0.12700000000E+01 0. -1.
         25    2    1    2    0    0  0.10792453764E+02 -0.13976467197E+03 -0.31623742152E+03  0.36780758742E+03  0.12500269600E+03 0.  0.
    9000005    1    3    3    0    0  0.16292429823E+02 -0.13366505667E+03 -0.15083315046E+03  0.20219651313E+03  0.10000000000E+01 0.  0.
    9000005    1    3    3    0    0 -0.54999760595E+01 -0.60996152965E+01 -0.16540427106E+03  0.16561107429E+03  0.10000000000E+01 0.  0.
          4    1    1    2  501    0 -0.10792453764E+02  0.13976467197E+03  0.62841197716E+02  0.15362704716E+03  0.12700000000E+01 0.  1.
<mgrwt>
<rscale>  1 0.18781990E+03</rscale>
<asrwt>0</asrwt>
<pdfrwt beam="1">  1       21 0.20618179E-01 0.18781990E+03</pdfrwt>
<pdfrwt beam="2">  1        4 0.59602836E-01 0.18781990E+03</pdfrwt>
<totfact> 0.24648035E+03</totfact>
</mgrwt>
</event>
<event>
 6    4  0.6093247E-003  0.1294349E+03  0.7818608E-02  0.1228297E+00
         21   -1    0    0  501  502  0.00000000000E+00  0.00000000000E+00  0.17930186823E+03  0.17930186823E+03  0.00000000000E+00 0. -1.
         -4   -1    0    0    0  501 -0.00000000000E+00 -0.00000000000E+00 -0.40914070665E+02  0.40933776742E+02  0.12700000000E+01 0.  1.
         25    2    1    2    0    0  0.31158267699E+01  0.33438351205E+02  0.77984305156E+02  0.15111237463E+03  0.12500226481E+03 0.  0.
    9000005    1    3    3    0    0  0.34974988519E+02 -0.35791474826E+02  0.47571787388E+02  0.69053272533E+02  0.10000000000E+01 0.  0.
    9000005    1    3    3    0    0 -0.31859161749E+02  0.69229826032E+02  0.30412517767E+02  0.82059102095E+02  0.10000000000E+01 0.  0.
         -4    1    1    2    0  502 -0.31158267699E+01 -0.33438351205E+02  0.60403492406E+02  0.69123270341E+02  0.12700000000E+01 0. -1.
<mgrwt>
<rscale>  1 0.12943492E+03</rscale>
<asrwt>0</asrwt>
<pdfrwt beam="1">  1       21 0.27584902E-01 0.12943492E+03</pdfrwt>
<pdfrwt beam="2">  1       -4 0.62963343E-02 0.12943492E+03</pdfrwt>
<totfact> 0.82796250E+04</totfact>
</mgrwt>
</event>
<event>
 6    4  0.6093247E-003  0.1273105E+03  0.7818608E-02  0.1231502E+00
         21   -1    0    0  501  502  0.00000000000E+00  0.00000000000E+00  0.13400493189E+02  0.13400493189E+02  0.00000000000E+00 0.  1.
          4   -1    0    0  502    0 -0.00000000000E+00 -0.00000000000E+00 -0.44447944738E+03  0.44448126174E+03  0.12700000000E+01 0.  1.
         25    2    1    2    0    0 -0.20978199998E+01 -0.24042103187E+02 -0.38963255431E+03  0.40990425461E+03  0.12500218795E+03 0.  0.
    9000005    1    3    3    0    0 -0.31777762146E+02  0.23799144380E+01 -0.35715116267E+03  0.35857139199E+03  0.10000000000E+01 0.  0.
    9000005    1    3    3    0    0  0.29679942147E+02 -0.26422017625E+02 -0.32481391637E+02  0.51332862611E+02  0.10000000000E+01 0.  0.
          4    1    1    2  501    0  0.20978199998E+01  0.24042103187E+02 -0.41446399879E+02  0.47977500324E+02  0.12700000000E+01 0. -1.
<mgrwt>
<rscale>  1 0.12731053E+03</rscale>
<asrwt>0</asrwt>
<pdfrwt beam="1">  1       21 0.20616148E-02 0.12731053E+03</pdfrwt>
<pdfrwt beam="2">  1        4 0.68386206E-01 0.12731053E+03</pdfrwt>
<totfact> 0.93508568E+04</totfact>
</mgrwt>
</event>
<event>
 6    4  0.6093247E-003  0.1343450E+03  0.7818608E-02  0.1221147E+00
          4   -1    0    0  502    0 -0.00000000000E+00  0.00000000000E+00  0.55591094993E+02  0.55605599920E+02  0.12700000000E+01 0.  1.
         21   -1    0    0  501  502  0.00000000000E+00 -0.00000000000E+00 -0.49966063644E+03  0.49966063644E+03  0.00000000000E+00 0.  1.
         25    2    1    2    0    0  0.15833213454E+02 -0.46608666735E+02 -0.29196126846E+02  0.13748085904E+03  0.12500205725E+03 0.  0.
    9000005    1    3    3    0    0 -0.12160547407E+01  0.19276176920E+02 -0.59803526808E+02  0.62853095424E+02  0.10000000000E+01 0.  0.
    9000005    1    3    3    0    0  0.17049268194E+02 -0.65884843655E+02  0.30607399961E+02  0.74627763613E+02  0.10000000000E+01 0.  0.
          4    1    1    2  501    0 -0.15833213454E+02  0.46608666735E+02 -0.41487341460E+03  0.41778537733E+03  0.12700000000E+01 0. -1.
<mgrwt>
<rscale>  1 0.13434498E+03</rscale>
<asrwt>0</asrwt>
<pdfrwt beam="2">  1       21 0.76870866E-01 0.13434498E+03</pdfrwt>
<pdfrwt beam="1">  1        4 0.85537162E-02 0.13434498E+03</pdfrwt>
<totfact> 0.61493391E+03</totfact>
</mgrwt>
</event>
<event>
 6    4  0.6093247E-003  0.1266069E+03  0.7818608E-02  0.1232579E+00
         -4   -1    0    0    0  501 -0.00000000000E+00  0.00000000000E+00  0.39656206869E+03  0.39656410229E+03  0.12700000000E+01 0. -1.
         21   -1    0    0  501  502  0.00000000000E+00 -0.00000000000E+00 -0.70577411560E+02  0.70577411560E+02  0.00000000000E+00 0.  1.
         25    2    1    2    0    0 -0.25915517896E+01 -0.19952285242E+02  0.38473354522E+03  0.40502988387E+03  0.12499798470E+03 0.  0.
    9000005    1    3    3    0    0  0.24493534591E+02 -0.60184467420E+02  0.12582266867E+03  0.14161372570E+03  0.10000000000E+01 0.  0.
    9000005    1    3    3    0    0 -0.27085086380E+02  0.40232182178E+02  0.25891087655E+03  0.26341615817E+03  0.10000000000E+01 0.  0.
         -4    1    1    2    0  502  0.25915517896E+01  0.19952285242E+02 -0.58748888091E+02  0.62111629982E+02  0.12700000000E+01 0.  1.
<mgrwt>
<rscale>  1 0.12660690E+03</rscale>
<asrwt>0</asrwt>
<pdfrwt beam="2">  1       21 0.10858064E-01 0.12660690E+03</pdfrwt>
<pdfrwt beam="1">  1       -4 0.61010583E-01 0.12660690E+03</pdfrwt>
<totfact> 0.73264037E+03</totfact>
</mgrwt>
</event>
<event>
 6    4  0.6093247E-003  0.1877528E+03  0.7818608E-02  0.1160504E+00
         21   -1    0    0  501  502  0.00000000000E+00  0.00000000000E+00  0.11922305042E+03  0.11922305042E+03  0.00000000000E+00 0.  1.
          4   -1    0    0  502    0 -0.00000000000E+00 -0.00000000000E+00 -0.47137481581E+03  0.47137652665E+03  0.12700000000E+01 0. -1.
         25    2    1    2    0    0 -0.70528056022E+02 -0.12104575079E+03 -0.40055455502E+03  0.44237433153E+03  0.12499926872E+03 0.  0.
    9000005    1    3    3    0    0  0.21959781131E+02 -0.71214498356E+02 -0.23276453160E+03  0.24440553172E+03  0.10000000000E+01 0.  0.
    9000005    1    3    3    0    0 -0.92487837153E+02 -0.49831252432E+02 -0.16779002342E+03  0.19796879982E+03  0.10000000000E+01 0.  0.
          4    1    1    2  501    0  0.70528056022E+02  0.12104575079E+03  0.48402789641E+02  0.14822524554E+03  0.12700000000E+01 0.  1.
<mgrwt>
<rscale>  1 0.18775276E+03</rscale>
<asrwt>0</asrwt>
<pdfrwt beam="1">  1       21 0.18342007E-01 0.18775276E+03</pdfrwt>
<pdfrwt beam="2">  1        4 0.72519856E-01 0.18775276E+03</pdfrwt>
<totfact> 0.20105711E+03</totfact>
</mgrwt>
</event>
<event>
 6    4  0.6093247E-003  0.1337850E+03  0.7818608E-02  0.1221945E+00
         21   -1    0    0  501  502  0.00000000000E+00  0.00000000000E+00  0.92240524802E+03  0.92240524802E+03  0.00000000000E+00 0. -1.
          4   -1    0    0  502    0 -0.00000000000E+00 -0.00000000000E+00 -0.21171049580E+02  0.21209107485E+02  0.12700000000E+01 0.  1.
         25    2    1    2    0    0  0.44114484230E+02  0.18090109637E+02  0.19916776393E+03  0.23992960283E+03  0.12500030535E+03 0.  0.
    9000005    1    3    3    0    0  0.77068875984E+02  0.14606355954E+02  0.18996135148E+03  0.20552195098E+03  0.10000000000E+01 0.  0.
    9000005    1    3    3    0    0 -0.32954391754E+02  0.34837536824E+01  0.92064124576E+01  0.34407651851E+02  0.10000000000E+01 0.  0.
          4    1    1    2  501    0 -0.44114484230E+02 -0.18090109637E+02  0.70206643451E+03  0.70368475267E+03  0.12700000000E+01 0. -1.
<mgrwt>
<rscale>  1 0.13378496E+03</rscale>
<asrwt>0</asrwt>
<pdfrwt beam="1">  1       21 0.14190847E+00 0.13378496E+03</pdfrwt>
<pdfrwt beam="2">  1        4 0.32600801E-02 0.13378496E+03</pdfrwt>
<totfact> 0.68164323E+03</totfact>
</mgrwt>
</event>
<event>
 6    4  0.6093247E-003  0.1279732E+03  0.7818608E-02  0.1230494E+00
          4   -1    0    0  502    0 -0.00000000000E+00  0.00000000000E+00  0.52799556766E+02  0.52814828360E+02  0.12700000000E+01 0. -1.
         21   -1    0    0  501  502  0.00000000000E+00 -0.00000000000E+00 -0.15220816548E+03  0.15220816548E+03  0.00000000000E+00 0. -1.
         25    2    1    2    0    0  0.20495666064E+02 -0.18306811751E+02 -0.31557280568E+02  0.13180668886E+03  0.12498771774E+03 0.  0.
    9000005    1    3    3    0    0  0.17596191842E+02 -0.68754276929E+01 -0.79862494956E+02  0.82072623778E+02  0.10000000000E+01 0.  0.
    9000005    1    3    3    0    0  0.28994742226E+01 -0.11431384058E+02  0.48305214388E+02  0.49734065080E+02  0.10000000000E+01 0.  0.
          4    1    1    2  501    0 -0.20495666064E+02  0.18306811751E+02 -0.67851328149E+02  0.73216304984E+02  0.12700000000E+01 0.  1.
<mgrwt>
<rscale>  1 0.12797321E+03</rscale>
<asrwt>0</asrwt>
<pdfrwt beam="2">  1       21 0.23416640E-01 0.12797321E+03</pdfrwt>
<pdfrwt beam="1">  1        4 0.81245912E-02 0.12797321E+03</pdfrwt>
<totfact> 0.74172452E+04</totfact>
</mgrwt>
</event>
<event>
 6    4  0.6093247E-003  0.1311319E+03  0.7818608E-02  0.1225786E+00
         21   -1    0    0  501  502  0.00000000000E+00  0.00000000000E+00  0.16358273099E+04  0.16358273099E+04  0.00000000000E+00 0.  1.
         -4   -1    0    0    0  501 -0.00000000000E+00 -0.00000000000E+00 -0.49264694617E+01  0.50875339170E+01  0.12700000000E+01 0.  1.
         25    2    1    2    0    0  0.37086447961E+02 -0.13967003289E+02  0.96970182974E+03  0.97852807882E+03  0.12500032249E+03 0.  0.
    9000005    1    3    3    0    0  0.19463487255E+01  0.45150377055E+01  0.88460439141E+03  0.88461862016E+03  0.10000000000E+01 0.  0.
    9000005    1    3    3    0    0  0.35140099236E+02 -0.18482040994E+02  0.85097438333E+02  0.93909458652E+02  0.10000000000E+01 0.  0.
         -4    1    1    2    0  502 -0.37086447961E+02  0.13967003289E+02  0.66119901072E+03  0.66238676502E+03  0.12700000000E+01 0. -1.
<mgrwt>
<rscale>  1 0.13113185E+03</rscale>
<asrwt>0</asrwt>
<pdfrwt beam="1">  1       21 0.25166531E+00 0.13113185E+03</pdfrwt>
<pdfrwt beam="2">  1       -4 0.77034718E-03 0.13113185E+03</pdfrwt>
<totfact> 0.12002256E+04</totfact>
</mgrwt>
</event>
<event>
 6    4  0.6093247E-003  0.1270443E+03  0.7818608E-02  0.1231909E+00
         21   -1    0    0  501  502  0.00000000000E+00  0.00000000000E+00  0.11091909016E+02  0.11091909016E+02  0.00000000000E+00 0.  1.
          4   -1    0    0  502    0 -0.00000000000E+00 -0.00000000000E+00 -0.51235992984E+03  0.51236150383E+03  0.12700000000E+01 0.  1.
         25    2    1    2    0    0  0.22115487996E+02  0.52829626841E+01 -0.44415751354E+03  0.46196985857E+03  0.12499299536E+03 0.  0.
    9000005    1    3    3    0    0 -0.46440152723E+02 -0.65587723971E+01 -0.95049295310E+02  0.10599563113E+03  0.10000000000E+01 0.  0.
    9000005    1    3    3    0    0  0.68555640719E+02  0.11841735081E+02 -0.34910821823E+03  0.35597422744E+03  0.10000000000E+01 0.  0.
          4    1    1    2  501    0 -0.22115487996E+02 -0.52829626841E+01 -0.57110507285E+02  0.61483554276E+02  0.12700000000E+01 0. -1.
<mgrwt>
<rscale>  1 0.12704430E+03</rscale>
<asrwt>0</asrwt>
<pdfrwt beam="1">  1       21 0.17064475E-02 0.12704430E+03</pdfrwt>
<pdfrwt beam="2">  1        4 0.78830319E-01 0.12704430E+03</pdfrwt>
<totfact> 0.93046271E+04</totfact>
</mgrwt>
</event>
<event>
 6    4  0.6093247E-003  0.1310937E+03  0.7818608E-02  0.1225842E+00
         -4   -1    0    0    0  501 -0.00000000000E+00  0.00000000000E+00  0.16260106278E+02  0.16309627715E+02  0.12700000000E+01 0. -1.
         21   -1    0    0  501  502  0.00000000000E+00 -0.00000000000E+00 -0.12033930860E+04  0.12033930860E+04  0.00000000000E+00 0.  1.
         25    2    1    2    0    0  0.40743775304E+01  0.39293636779E+02 -0.25492440731E+03  0.28665661313E+03  0.12499987985E+03 0.  0.
    9000005    1    3    3    0    0 -0.27952790014E+02  0.15965689278E+02 -0.24320088528E+03  0.24532413722E+03  0.10000000000E+01 0.  0.
    9000005    1    3    3    0    0  0.32027167544E+02  0.23327947501E+02 -0.11723522030E+02  0.41332475903E+02  0.10000000000E+01 0.  0.
         -4    1    1    2    0  502 -0.40743775304E+01 -0.39293636779E+02 -0.93220857239E+03  0.93304610057E+03  0.12700000000E+01 0.  1.
<mgrwt>
<rscale>  1 0.13109371E+03</rscale>
<asrwt>0</asrwt>
<pdfrwt beam="2">  1       21 0.18513731E+00 0.13109371E+03</pdfrwt>
<pdfrwt beam="1">  1       -4 0.25054169E-02 0.13109371E+03</pdfrwt>
<totfact> 0.50571496E+03</totfact>
</mgrwt>
</event>
<event>
 6    4  0.6093247E-003  0.1276267E+03  0.7818608E-02  0.1231020E+00
          4   -1    0    0  502    0 -0.00000000000E+00  0.00000000000E+00  0.66387421276E+03  0.66387542752E+03  0.12700000000E+01 0.  1.
         21   -1    0    0  501  502  0.00000000000E+00 -0.00000000000E+00 -0.15550742492E+02  0.15550742492E+02  0.00000000000E+00 0.  1.
         25    2    1    2    0    0 -0.16754132201E+02  0.19369695603E+02  0.63979949023E+03  0.65240474908E+03  0.12503072771E+03 0.  0.
    9000005    1    3    3    0    0 -0.23349076825E+01 -0.48382971825E+02  0.14746616857E+03  0.15522124413E+03  0.10000000000E+01 0.  0.
    9000005    1    3    3    0    0 -0.14419224518E+02  0.67752667428E+02  0.49233332166E+03  0.49718350495E+03  0.10000000000E+01 0.  0.
          4    1    1    2  501    0  0.16754132201E+02 -0.19369695603E+02  0.85239800390E+01  0.27021420933E+02  0.12700000000E+01 0. -1.
<mgrwt>
<rscale>  1 0.12762668E+03</rscale>
<asrwt>0</asrwt>
<pdfrwt beam="2">  1       21 0.23924224E-02 0.12762668E+03</pdfrwt>
<pdfrwt beam="1">  1        4 0.10213856E+00 0.12762668E+03</pdfrwt>
<totfact> 0.30077553E+04</totfact>
</mgrwt>
</event>
<event>
 6    4  0.6093247E-003  0.1501276E+03  0.7818608E-02  0.1200316E+00
          4   -1    0    0  502    0 -0.00000000000E+00  0.00000000000E+00  0.14667071647E+03  0.14667621474E+03  0.12700000000E+01 0.  1.
         21   -1    0    0  501  502  0.00000000000E+00 -0.00000000000E+00 -0.24340085356E+03  0.24340085356E+03  0.00000000000E+00 0. -1.
         25    2    1    2    0    0  0.65427838405E+02  0.51302918511E+02  0.97353726966E+02  0.17893031679E+03  0.12500207448E+03 0.  0.
    9000005    1    3    3    0    0  0.87348134351E+02  0.33827822946E+02  0.18833131186E+02  0.95549489848E+02  0.10000000000E+01 0.  0.
    9000005    1    3    3    0    0 -0.21920295946E+02  0.17475095565E+02  0.78520595780E+02  0.83380826939E+02  0.10000000000E+01 0.  0.
          4    1    1    2  501    0 -0.65427838405E+02 -0.51302918511E+02 -0.19408386406E+03  0.21114675151E+03  0.12700000000E+01 0. -1.
<mgrwt>
<rscale>  1 0.15012765E+03</rscale>
<asrwt>0</asrwt>
<pdfrwt beam="2">  1       21 0.37446285E-01 0.15012765E+03</pdfrwt>
<pdfrwt beam="1">  1        4 0.22565403E-01 0.15012765E+03</pdfrwt>
<totfact> 0.51731584E+03</totfact>
</mgrwt>
</event>
<event>
 6    4  0.6093247E-003  0.1288058E+03  0.7818608E-02  0.1229238E+00
         -4   -1    0    0    0  501 -0.00000000000E+00  0.00000000000E+00  0.27972720855E+02  0.28001535887E+02  0.12700000000E+01 0.  1.
         21   -1    0    0  501  502  0.00000000000E+00 -0.00000000000E+00 -0.29787013785E+03  0.29787013785E+03  0.00000000000E+00 0. -1.
         25    2    1    2    0    0 -0.18719256037E+02 -0.24817062744E+02 -0.13170454399E+03  0.18422005815E+03  0.12499858306E+03 0.  0.
    9000005    1    3    3    0    0 -0.86668092008E+01 -0.63027818034E+02 -0.12991024571E+03  0.14465576852E+03  0.10000000000E+01 0.  0.
    9000005    1    3    3    0    0 -0.10052446837E+02  0.38210755291E+02 -0.17942982884E+01  0.39564289627E+02  0.10000000000E+01 0.  0.
         -4    1    1    2    0  502  0.18719256037E+02  0.24817062744E+02 -0.13819287300E+03  0.14165161559E+03  0.12700000000E+01 0. -1.
<mgrwt>
<rscale>  1 0.12880583E+03</rscale>
<asrwt>0</asrwt>
<pdfrwt beam="2">  1       21 0.45826177E-01 0.12880583E+03</pdfrwt>
<pdfrwt beam="1">  1       -4 0.43059202E-02 0.12880583E+03</pdfrwt>
<totfact> 0.56116163E+04</totfact>
</mgrwt>
</event>
<event>
 6    4  0.6093247E-003  0.1290557E+03  0.7818608E-02  0.1228864E+00
         -4   -1    0    0    0  501 -0.00000000000E+00  0.00000000000E+00  0.15703915547E+03  0.15704429073E+03  0.12700000000E+01 0.  1.
         21   -1    0    0  501  502  0.00000000000E+00 -0.00000000000E+00 -0.63352638776E+02  0.63352638776E+02  0.00000000000E+00 0. -1.
         25    2    1    2    0    0 -0.92257053698E+01  0.30744398238E+02  0.12198749077E+03  0.17758466846E+03  0.12500013962E+03 0.  0.
    9000005    1    3    3    0    0 -0.17958849142E+02  0.72951365862E+02  0.40404864732E+02  0.85311049329E+02  0.10000000000E+01 0.  0.
    9000005    1    3    3    0    0  0.87331437718E+01 -0.42206967624E+02  0.81582626040E+02  0.92273619132E+02  0.10000000000E+01 0.  0.
         -4    1    1    2    0  502  0.92257053698E+01 -0.30744398238E+02 -0.28300974073E+02  0.42812261048E+02  0.12700000000E+01 0. -1.
<mgrwt>
<rscale>  1 0.12905567E+03</rscale>
<asrwt>0</asrwt>
<pdfrwt beam="2">  1       21 0.97465599E-02 0.12905567E+03</pdfrwt>
<pdfrwt beam="1">  1       -4 0.24161244E-01 0.12905567E+03</pdfrwt>
<totfact> 0.54449740E+04</totfact>
</mgrwt>
</event>
<event>
 6    4  0.6093247E-003  0.1341671E+03  0.7818608E-02  0.1221400E+00
         21   -1    0    0  501  502  0.00000000000E+00  0.00000000000E+00  0.37035361304E+02  0.37035361304E+02  0.00000000000E+00 0. -1.
         -4   -1    0    0    0  501 -0.00000000000E+00 -0.00000000000E+00 -0.30029204333E+03  0.30029472887E+03  0.12700000000E+01 0. -1.
         25    2    1    2    0    0 -0.45169403968E+02 -0.18302454739E+02 -0.25463707510E+03  0.28782084429E+03  0.12500217394E+03 0.  0.
    9000005    1    3    3    0    0  0.18042319143E+02 -0.49124814184E+02 -0.53962750455E+02  0.75178129036E+02  0.10000000000E+01 0.  0.
    9000005    1    3    3    0    0 -0.63211723112E+02  0.30822359445E+02 -0.20067432464E+03  0.21264271526E+03  0.10000000000E+01 0.  0.
         -4    1    1    2    0  502  0.45169403968E+02  0.18302454739E+02 -0.86196069299E+01  0.49509245884E+02  0.12700000000E+01 0.  1.
<mgrwt>
<rscale>  1 0.13416705E+03</rscale>
<asrwt>0</asrwt>
<pdfrwt beam="1">  1       21 0.56977481E-02 0.13416705E+03</pdfrwt>
<pdfrwt beam="2">  1       -4 0.46200656E-01 0.13416705E+03</pdfrwt>
<totfact> 0.39676803E+04</totfact>
</mgrwt>
</event>
<event>
 6    4  0.6093247E-003  0.1302744E+03  0.7818608E-02  0.1227049E+00
         21   -1    0    0  501  502  0.00000000000E+00  0.00000000000E+00  0.31623075196E+03  0.31623075196E+03  0.00000000000E+00 0.  1.
         -4   -1    0    0    0  501 -0.00000000000E+00 -0.00000000000E+00 -0.12613981504E+03  0.12614620818E+03  0.12700000000E+01 0. -1.
         25    2    1    2    0    0  0.33448637555E+02 -0.15077197951E+02 -0.90992809999E+02  0.15890594057E+03  0.12500109290E+03 0.  0.
    9000005    1    3    3    0    0  0.13458144684E+02 -0.58444991772E+02 -0.45628216665E+01  0.60156114096E+02  0.10000000000E+01 0.  0.
    9000005    1    3    3    0    0  0.19990492872E+02  0.43367793821E+02 -0.86429988332E+02  0.98749826477E+02  0.10000000000E+01 0.  0.
         -4    1    1    2    0  502 -0.33448637555E+02  0.15077197951E+02  0.28108374692E+03  0.28347101956E+03  0.12700000000E+01 0.  1.
<mgrwt>
<rscale>  1 0.13027435E+03</rscale>
<asrwt>0</asrwt>
<pdfrwt beam="1">  1       21 0.48650885E-01 0.13027435E+03</pdfrwt>
<pdfrwt beam="2">  1       -4 0.19406813E-01 0.13027435E+03</pdfrwt>
<totfact> 0.39715863E+03</totfact>
</mgrwt>
</event>
<event>
 6    4  0.6093247E-003  0.1315752E+03  0.7818608E-02  0.1225137E+00
          4   -1    0    0  502    0 -0.00000000000E+00  0.00000000000E+00  0.62054897624E+02  0.62067892015E+02  0.12700000000E+01 0. -1.
         21   -1    0    0  501  502  0.00000000000E+00 -0.00000000000E+00 -0.16377491332E+03  0.16377491332E+03  0.00000000000E+00 0. -1.
         25    2    1    2    0    0  0.37873405735E+02  0.15889991805E+02 -0.18287252286E+02  0.13283997951E+03  0.12500059943E+03 0.  0.
    9000005    1    3    3    0    0 -0.27378339009E+02 -0.14023596183E+02  0.32609179967E+02  0.44839639995E+02  0.10000000000E+01 0.  0.
    9000005    1    3    3    0    0  0.65251744743E+02  0.29913587987E+02 -0.50896432254E+02  0.88000339513E+02  0.10000000000E+01 0.  0.
          4    1    1    2  501    0 -0.37873405735E+02 -0.15889991805E+02 -0.83432763410E+02  0.93002825827E+02  0.12700000000E+01 0.  1.
<mgrwt>
<rscale>  1 0.13157521E+03</rscale>
<asrwt>0</asrwt>
<pdfrwt beam="2">  1       21 0.25196140E-01 0.13157521E+03</pdfrwt>
<pdfrwt beam="1">  1        4 0.95482857E-02 0.13157521E+03</pdfrwt>
<totfact> 0.49534313E+04</totfact>
</mgrwt>
</event>
<event>
 6    4  0.6093247E-003  0.1337633E+03  0.7818608E-02  0.1221976E+00
         -4   -1    0    0    0  501 -0.00000000000E+00  0.00000000000E+00  0.14985499199E+03  0.14986037342E+03  0.12700000000E+01 0.  1.
         21   -1    0    0  501  502  0.00000000000E+00 -0.00000000000E+00 -0.15964143162E+03  0.15964143162E+03  0.00000000000E+00 0. -1.
         25    2    1    2    0    0 -0.43671165068E+02  0.18988614489E+02  0.11470336916E+03  0.17620865619E+03  0.12499955792E+03 0.  0.
    9000005    1    3    3    0    0  0.31726559798E+02 -0.27259276091E+02  0.56557886978E+02  0.70352237413E+02  0.10000000000E+01 0.  0.
    9000005    1    3    3    0    0 -0.75397724866E+02  0.46247890580E+02  0.58145482181E+02  0.10585641878E+03  0.10000000000E+01 0.  0.
         -4    1    1    2    0  502  0.43671165068E+02 -0.18988614489E+02 -0.12448980879E+03  0.13329314885E+03  0.12700000000E+01 0. -1.
<mgrwt>
<rscale>  1 0.13376333E+03</rscale>
<asrwt>0</asrwt>
<pdfrwt beam="2">  1       21 0.24560220E-01 0.13376333E+03</pdfrwt>
<pdfrwt beam="1">  1       -4 0.23055417E-01 0.13376333E+03</pdfrwt>
<totfact> 0.11168199E+04</totfact>
</mgrwt>
</event>
<event>
 6    4  0.6093247E-003  0.1519611E+03  0.7818608E-02  0.1198084E+00
          4   -1    0    0  502    0 -0.00000000000E+00  0.00000000000E+00  0.19986441799E+03  0.19986845294E+03  0.12700000000E+01 0.  1.
         21   -1    0    0  501  502  0.00000000000E+00 -0.00000000000E+00 -0.83704157276E+02  0.83704157276E+02  0.00000000000E+00 0. -1.
         25    2    1    2    0    0 -0.86184187857E+02 -0.62762339787E+01  0.12490921874E+03  0.19670913966E+03  0.12500026941E+03 0.  0.
    9000005    1    3    3    0    0  0.26778088038E+02 -0.22291561628E+01  0.61449318374E+02  0.67074986879E+02  0.10000000000E+01 0.  0.
    9000005    1    3    3    0    0 -0.11296227589E+03 -0.40470778158E+01  0.63459900361E+02  0.12963415278E+03  0.10000000000E+01 0.  0.
          4    1    1    2  501    0  0.86184187857E+02  0.62762339787E+01 -0.87489580186E+01  0.86863470549E+02  0.12700000000E+01 0. -1.
<mgrwt>
<rscale>  1 0.15196109E+03</rscale>
<asrwt>0</asrwt>
<pdfrwt beam="2">  1       21 0.12877563E-01 0.15196109E+03</pdfrwt>
<pdfrwt beam="1">  1        4 0.30749423E-01 0.15196109E+03</pdfrwt>
<totfact> 0.21604920E+04</totfact>
</mgrwt>
</event>
<event>
 6    4  0.6093247E-003  0.1388219E+03  0.7818608E-02  0.1214923E+00
         21   -1    0    0  501  502  0.00000000000E+00  0.00000000000E+00  0.19694659867E+03  0.19694659867E+03  0.00000000000E+00 0.  1.
          4   -1    0    0  502    0 -0.00000000000E+00 -0.00000000000E+00 -0.57199932533E+02  0.57214029588E+02  0.12700000000E+01 0.  1.
         25    2    1    2    0    0  0.13755727710E+02  0.58794948223E+02  0.53292485208E+02  0.14869971473E+03  0.12500180079E+03 0.  0.
    9000005    1    3    3    0    0  0.17310075107E+02  0.51379149291E+02  0.93261988506E+02  0.10788074055E+03  0.10000000000E+01 0.  0.
    9000005    1    3    3    0    0 -0.35543473977E+01  0.74157989315E+01 -0.39969503298E+02  0.40818974180E+02  0.10000000000E+01 0.  0.
          4    1    1    2  501    0 -0.13755727710E+02 -0.58794948223E+02  0.86454180929E+02  0.10546091352E+03  0.12700000000E+01 0. -1.
<mgrwt>
<rscale>  1 0.13882189E+03</rscale>
<asrwt>0</asrwt>
<pdfrwt beam="1">  1       21 0.30299476E-01 0.13882189E+03</pdfrwt>
<pdfrwt beam="2">  1        4 0.88013891E-02 0.13882189E+03</pdfrwt>
<totfact> 0.40123654E+04</totfact>
</mgrwt>
</event>
<event>
 6    4  0.6093247E-003  0.1644162E+03  0.7818608E-02  0.1183799E+00
         21   -1    0    0  501  502  0.00000000000E+00  0.00000000000E+00  0.97526395120E+03  0.97526395120E+03  0.00000000000E+00 0. -1.
         -4   -1    0    0    0  501 -0.00000000000E+00 -0.00000000000E+00 -0.26309521047E+02  0.26340155613E+02  0.12700000000E+01 0.  1.
         25    2    1    2    0    0 -0.54623472349E+02  0.91785736766E+02  0.28428529355E+03  0.32840649893E+03  0.12499742080E+03 0.  0.
    9000005    1    3    3    0    0 -0.20456823107E+02  0.17971131242E+02 -0.51738461010E+01  0.27734668796E+02  0.10000000000E+01 0.  0.
    9000005    1    3    3    0    0 -0.34166649242E+02  0.73814605525E+02  0.28945913965E+03  0.30067183013E+03  0.10000000000E+01 0.  0.
         -4    1    1    2    0  502  0.54623472349E+02 -0.91785736766E+02  0.66466913661E+03  0.67319760789E+03  0.12700000000E+01 0. -1.
<mgrwt>
<rscale>  1 0.16441624E+03</rscale>
<asrwt>0</asrwt>
<pdfrwt beam="1">  1       21 0.15004058E+00 0.16441624E+03</pdfrwt>
<pdfrwt beam="2">  1       -4 0.40500395E-02 0.16441624E+03</pdfrwt>
<totfact> 0.42104888E+03</totfact>
</mgrwt>
</event>
<event>
 6    4  0.6093247E-003  0.1847279E+03  0.7818608E-02  0.1163304E+00
         21   -1    0    0  501  502  0.00000000000E+00  0.00000000000E+00  0.33575563037E+03  0.33575563037E+03  0.00000000000E+00 0. -1.
         -4   -1    0    0    0  501 -0.00000000000E+00 -0.00000000000E+00 -0.76646285127E+02  0.76656806116E+02  0.12700000000E+01 0.  1.
         25    2    1    2    0    0  0.11061974265E+03 -0.79135825103E+02  0.14395354663E+03  0.23419437586E+03  0.12500070327E+03 0.  0.
    9000005    1    3    3    0    0  0.83937322054E+02 -0.10989730293E+03  0.84292431842E+02  0.16195402215E+03  0.10000000000E+01 0.  0.
    9000005    1    3    3    0    0  0.26682420596E+02  0.30761477825E+02  0.59661114787E+02  0.72240353712E+02  0.10000000000E+01 0.  0.
         -4    1    1    2    0  502 -0.11061974265E+03  0.79135825103E+02  0.11515579862E+03  0.17821806063E+03  0.12700000000E+01 0. -1.
<mgrwt>
<rscale>  1 0.18472786E+03</rscale>
<asrwt>0</asrwt>
<pdfrwt beam="1">  1       21 0.51654712E-01 0.18472786E+03</pdfrwt>
<pdfrwt beam="2">  1       -4 0.11792730E-01 0.18472786E+03</pdfrwt>
<totfact> 0.85564413E+03</totfact>
</mgrwt>
</event>
<event>
 6    4  0.6093247E-003  0.1310449E+03  0.7818608E-02  0.1225913E+00
         -4   -1    0    0    0  501 -0.00000000000E+00  0.00000000000E+00  0.13437223585E+03  0.13437823733E+03  0.12700000000E+01 0.  1.
         21   -1    0    0  501  502  0.00000000000E+00 -0.00000000000E+00 -0.54456190391E+02  0.54456190391E+02  0.00000000000E+00 0.  1.
         25    2    1    2    0    0 -0.23089160355E+02  0.31854614111E+02  0.54172323594E+02  0.14180063262E+03  0.12499981201E+03 0.  0.
    9000005    1    3    3    0    0 -0.55927727061E+02 -0.22475937981E+02  0.31798146616E+01  0.60367124030E+02  0.10000000000E+01 0.  0.
    9000005    1    3    3    0    0  0.32838566706E+02  0.54330552093E+02  0.50992508932E+02  0.81433508590E+02  0.10000000000E+01 0.  0.
         -4    1    1    2    0  502  0.23089160355E+02 -0.31854614111E+02  0.25743721868E+02  0.47033795101E+02  0.12700000000E+01 0. -1.
<mgrwt>
<rscale>  1 0.13104495E+03</rscale>
<asrwt>0</asrwt>
<pdfrwt beam="2">  1       21 0.83778755E-02 0.13104495E+03</pdfrwt>
<pdfrwt beam="1">  1       -4 0.20674252E-01 0.13104495E+03</pdfrwt>
<totfact> 0.94260275E+04</totfact>
</mgrwt>
</event>
<event>
 6    4  0.6093247E-003  0.1284424E+03  0.7818608E-02  0.1229785E+00
         -4   -1    0    0    0  501 -0.00000000000E+00  0.00000000000E+00  0.40674034234E+02  0.40693856549E+02  0.12700000000E+01 0.  1.
         21   -1    0    0  501  502  0.00000000000E+00 -0.00000000000E+00 -0.37831114371E+03  0.37831114371E+03  0.00000000000E+00 0. -1.
         25    2    1    2    0    0 -0.80570266850E+00 -0.29381967851E+02 -0.63478484472E+02  0.14327231494E+03  0.12503395157E+03 0.  0.
    9000005    1    3    3    0    0  0.56153254514E+02 -0.39402295670E+02 -0.46888595888E+02  0.83097950161E+02  0.10000000000E+01 0.  0.
    9000005    1    3    3    0    0 -0.56958957182E+02  0.10020327819E+02 -0.16589888585E+02  0.60174364776E+02  0.10000000000E+01 0.  0.
         -4    1    1    2    0  502  0.80570266850E+00  0.29381967851E+02 -0.27415862500E+03  0.27573268532E+03  0.12700000000E+01 0. -1.
<mgrwt>
<rscale>  1 0.12844235E+03</rscale>
<asrwt>0</asrwt>
<pdfrwt beam="2">  1       21 0.58201716E-01 0.12844235E+03</pdfrwt>
<pdfrwt beam="1">  1       -4 0.62592323E-02 0.12844235E+03</pdfrwt>
<totfact> 0.18715656E+04</totfact>
</mgrwt>
</event>
<event>
 6    4  0.6093247E-003  0.1276243E+03  0.7818608E-02  0.1231024E+00
          4   -1    0    0  502    0 -0.00000000000E+00  0.00000000000E+00  0.24840687687E+03  0.24841012333E+03  0.12700000000E+01 0. -1.
         21   -1    0    0  501  502  0.00000000000E+00 -0.00000000000E+00 -0.26113902163E+02  0.26113902163E+02  0.00000000000E+00 0. -1.
         25    2    1    2    0    0  0.18798437088E+02 -0.17597747776E+02  0.21051481327E+03  0.24617971477E+03  0.12499961358E+03 0.  0.
    9000005    1    3    3    0    0  0.66803244439E+02 -0.36107647422E+02  0.11830618497E+03  0.14058374398E+03  0.10000000000E+01 0.  0.
    9000005    1    3    3    0    0 -0.48004807351E+02  0.18509899646E+02  0.92208628304E+02  0.10559597079E+03  0.10000000000E+01 0.  0.
          4    1    1    2  501    0 -0.18798437088E+02  0.17597747776E+02  0.11778161432E+02  0.28344310725E+02  0.12700000000E+01 0.  1.
<mgrwt>
<rscale>  1 0.12762431E+03</rscale>
<asrwt>0</asrwt>
<pdfrwt beam="2">  1       21 0.40175236E-02 0.12762431E+03</pdfrwt>
<pdfrwt beam="1">  1        4 0.38219066E-01 0.12762431E+03</pdfrwt>
<totfact> 0.10307831E+05</totfact>
</mgrwt>
</event>
<event>
 6    4  0.6093247E-003  0.1627449E+03  0.7818608E-02  0.1185632E+00
         -4   -1    0    0    0  501 -0.00000000000E+00  0.00000000000E+00  0.17162930139E+03  0.17163400012E+03  0.12700000000E+01 0. -1.
         21   -1    0    0  501  502  0.00000000000E+00 -0.00000000000E+00 -0.19217206933E+03  0.19217206933E+03  0.00000000000E+00 0.  1.
         25    2    1    2    0    0 -0.82403560884E+02  0.63801760387E+02  0.11024448028E+03  0.19656992303E+03  0.12499951092E+03 0.  0.
    9000005    1    3    3    0    0 -0.66379837356E+01 -0.34053756785E+02  0.70235425768E+01  0.35412587163E+02  0.10000000000E+01 0.  0.
    9000005    1    3    3    0    0 -0.75765577149E+02  0.97855517172E+02  0.10322093770E+03  0.16115733586E+03  0.10000000000E+01 0.  0.
         -4    1    1    2    0  502  0.82403560884E+02 -0.63801760387E+02 -0.13078724822E+03  0.16723614643E+03  0.12700000000E+01 0.  1.
<mgrwt>
<rscale>  1 0.16274486E+03</rscale>
<asrwt>0</asrwt>
<pdfrwt beam="2">  1       21 0.29564933E-01 0.16274486E+03</pdfrwt>
<pdfrwt beam="1">  1       -4 0.26405192E-01 0.16274486E+03</pdfrwt>
<totfact> 0.61836205E+03</totfact>
</mgrwt>
</event>
<event>
 6    4  0.6093247E-003  0.1269407E+03  0.7818608E-02  0.1232067E+00
          4   -1    0    0  502    0 -0.00000000000E+00  0.00000000000E+00  0.61405879653E+01  0.62705438807E+01  0.12700000000E+01 0. -1.
         21   -1    0    0  501  502  0.00000000000E+00 -0.00000000000E+00 -0.10256506625E+04  0.10256506625E+04  0.00000000000E+00 0.  1.
         25    2    1    2    0    0  0.17828498064E+02  0.13121932666E+02 -0.68401666090E+03  0.69569585940E+03  0.12499558367E+03 0.  0.
    9000005    1    3    3    0    0  0.21496572269E+02 -0.10941457947E+02 -0.66323525823E+03  0.66367448789E+03  0.10000000000E+01 0.  0.
    9000005    1    3    3    0    0 -0.36680742042E+01  0.24063390613E+02 -0.20781402668E+02  0.32021371504E+02  0.10000000000E+01 0.  0.
          4    1    1    2  501    0 -0.17828498064E+02 -0.13121932666E+02 -0.33549341362E+03  0.33622534697E+03  0.12700000000E+01 0.  1.
<mgrwt>
<rscale>  1 0.12694068E+03</rscale>
<asrwt>0</asrwt>
<pdfrwt beam="2">  1       21 0.15779255E+00 0.12694068E+03</pdfrwt>
<pdfrwt beam="1">  1        4 0.95476208E-03 0.12694068E+03</pdfrwt>
<totfact> 0.33950418E+04</totfact>
</mgrwt>
</event>
<event>
 6    4  0.6093247E-003  0.1294716E+03  0.7818608E-02  0.1228242E+00
         21   -1    0    0  501  502  0.00000000000E+00  0.00000000000E+00  0.39997474014E+03  0.39997474014E+03  0.00000000000E+00 0.  1.
          4   -1    0    0  502    0 -0.00000000000E+00 -0.00000000000E+00 -0.25463046592E+02  0.25494698306E+02  0.12700000000E+01 0.  1.
         25    2    1    2    0    0  0.31748961560E+02 -0.11369766402E+02  0.14877006953E+03  0.19721922079E+03  0.12500247722E+03 0.  0.
    9000005    1    3    3    0    0  0.79983966478E+02 -0.13349554959E+01  0.86791307595E+02  0.11803790948E+03  0.10000000000E+01 0.  0.
    9000005    1    3    3    0    0 -0.48235004918E+02 -0.10034810906E+02  0.61978761938E+02  0.79181311310E+02  0.10000000000E+01 0.  0.
          4    1    1    2  501    0 -0.31748961560E+02  0.11369766402E+02  0.22574162402E+03  0.22825021766E+03  0.12700000000E+01 0. -1.
<mgrwt>
<rscale>  1 0.12947157E+03</rscale>
<asrwt>0</asrwt>
<pdfrwt beam="1">  1       21 0.61534571E-01 0.12947157E+03</pdfrwt>
<pdfrwt beam="2">  1        4 0.39199819E-02 0.12947157E+03</pdfrwt>
<totfact> 0.35276602E+04</totfact>
</mgrwt>
</event>
<event>
 6    4  0.6093247E-003  0.1277923E+03  0.7818608E-02  0.1230769E+00
          4   -1    0    0  502    0 -0.00000000000E+00  0.00000000000E+00  0.28555696388E+03  0.28555978800E+03  0.12700000000E+01 0. -1.
         21   -1    0    0  501  502  0.00000000000E+00 -0.00000000000E+00 -0.43799181742E+02  0.43799181742E+02  0.00000000000E+00 0.  1.
         25    2    1    2    0    0  0.26533368790E+02  0.13504362126E+01  0.26489279872E+03  0.29410722894E+03  0.12500009586E+03 0.  0.
    9000005    1    3    3    0    0  0.62139293769E+02 -0.30497824452E+02  0.94513174457E+02  0.11715438222E+03  0.10000000000E+01 0.  0.
    9000005    1    3    3    0    0 -0.35605924979E+02  0.31848260665E+02  0.17037962426E+03  0.17695284672E+03  0.10000000000E+01 0.  0.
          4    1    1    2  501    0 -0.26533368790E+02 -0.13504362126E+01 -0.23135016577E+02  0.35251740799E+02  0.12700000000E+01 0.  1.
<mgrwt>
<rscale>  1 0.12779228E+03</rscale>
<asrwt>0</asrwt>
<pdfrwt beam="2">  1       21 0.67383358E-02 0.12779228E+03</pdfrwt>
<pdfrwt beam="1">  1        4 0.43933473E-01 0.12779228E+03</pdfrwt>
<totfact> 0.32801981E+04</totfact>
</mgrwt>
</event>
<event>
 6    4  0.6093247E-003  0.1287283E+03  0.7818608E-02  0.1229355E+00
         -4   -1    0    0    0  501 -0.00000000000E+00  0.00000000000E+00  0.10078532639E+03  0.10079332773E+03  0.12700000000E+01 0.  1.
         21   -1    0    0  501  502  0.00000000000E+00 -0.00000000000E+00 -0.64463878922E+02  0.64463878922E+02  0.00000000000E+00 0.  1.
         25    2    1    2    0    0 -0.16072828342E+02 -0.26212773662E+02  0.19534314515E+02  0.13020202092E+03  0.12500212596E+03 0.  0.
    9000005    1    3    3    0    0 -0.62120336660E+02  0.12594742114E+02 -0.81541195823E+01  0.63914422643E+02  0.10000000000E+01 0.  0.
    9000005    1    3    3    0    0  0.46047508318E+02 -0.38807515776E+02  0.27688434098E+02  0.66287598280E+02  0.10000000000E+01 0.  0.
         -4    1    1    2    0  502  0.16072828342E+02  0.26212773662E+02  0.16787132954E+02  0.35055185733E+02  0.12700000000E+01 0. -1.
<mgrwt>
<rscale>  1 0.12872831E+03</rscale>
<asrwt>0</asrwt>
<pdfrwt beam="2">  1       21 0.99175199E-02 0.12872831E+03</pdfrwt>
<pdfrwt beam="1">  1       -4 0.15507012E-01 0.12872831E+03</pdfrwt>
<totfact> 0.11685361E+05</totfact>
</mgrwt>
</event>
<event>
 6    4  0.6093247E-003  0.1298151E+03  0.7818608E-02  0.1227730E+00
          4   -1    0    0  502    0 -0.00000000000E+00  0.00000000000E+00  0.33141468624E+02  0.33165793260E+02  0.12700000000E+01 0.  1.
         21   -1    0    0  501  502  0.00000000000E+00 -0.00000000000E+00 -0.39155765912E+03  0.39155765912E+03  0.00000000000E+00 0. -1.
         25    2    1    2    0    0  0.14550220811E+02  0.31862957319E+02 -0.99802365856E+02  0.16374513878E+03  0.12500000508E+03 0.  0.
    9000005    1    3    3    0    0 -0.36709488079E+02  0.56395312736E+02 -0.77622939466E+02  0.10273431046E+03  0.10000000000E+01 0.  0.
    9000005    1    3    3    0    0  0.51259708890E+02 -0.24532355417E+02 -0.22179426390E+02  0.61010828324E+02  0.10000000000E+01 0.  0.
          4    1    1    2  501    0 -0.14550220811E+02 -0.31862957319E+02 -0.25861382464E+03  0.26097831360E+03  0.12700000000E+01 0. -1.
<mgrwt>
<rscale>  1 0.12981509E+03</rscale>
<asrwt>0</asrwt>
<pdfrwt beam="2">  1       21 0.60239640E-01 0.12981509E+03</pdfrwt>
<pdfrwt beam="1">  1        4 0.51007170E-02 0.12981509E+03</pdfrwt>
<totfact> 0.24251030E+04</totfact>
</mgrwt>
</event>
<event>
 6    4  0.6093247E-003  0.1281452E+03  0.7818608E-02  0.1230234E+00
         21   -1    0    0  501  502  0.00000000000E+00  0.00000000000E+00  0.15270786993E+03  0.15270786993E+03  0.00000000000E+00 0. -1.
         -4   -1    0    0    0  501 -0.00000000000E+00 -0.00000000000E+00 -0.44868152755E+02  0.44886122930E+02  0.12700000000E+01 0.  1.
         25    2    1    2    0    0 -0.10592044016E+01 -0.28201314606E+02  0.58782459878E+02  0.14098424588E+03  0.12499897575E+03 0.  0.
    9000005    1    3    3    0    0  0.10957824062E+02  0.38473660647E+02  0.61272273230E+02  0.73181882584E+02  0.10000000000E+01 0.  0.
    9000005    1    3    3    0    0 -0.12017028463E+02 -0.66674975254E+02 -0.24898133513E+01  0.67802363297E+02  0.10000000000E+01 0.  0.
         -4    1    1    2    0  502  0.10592044016E+01  0.28201314606E+02  0.49057257292E+02  0.56609746975E+02  0.12700000000E+01 0. -1.
<mgrwt>
<rscale>  1 0.12814515E+03</rscale>
<asrwt>0</asrwt>
<pdfrwt beam="1">  1       21 0.23493518E-01 0.12814515E+03</pdfrwt>
<pdfrwt beam="2">  1       -4 0.69045814E-02 0.12814515E+03</pdfrwt>
<totfact> 0.96391344E+04</totfact>
</mgrwt>
</event>
<event>
 6    4  0.6093247E-003  0.1295385E+03  0.7818608E-02  0.1228142E+00
         -4   -1    0    0    0  501 -0.00000000000E+00  0.00000000000E+00  0.10455082262E+03  0.10455853581E+03  0.12700000000E+01 0. -1.
         21   -1    0    0  501  502  0.00000000000E+00 -0.00000000000E+00 -0.79336718977E+02  0.79336718977E+02  0.00000000000E+00 0.  1.
         25    2    1    2    0    0 -0.33669591133E+02 -0.48206882143E+01  0.52995805905E+02  0.13995988995E+03  0.12499333962E+03 0.  0.
    9000005    1    3    3    0    0 -0.40486230579E+02  0.12363286136E+02 -0.31934069678E+02  0.53035558984E+02  0.10000000000E+01 0.  0.
    9000005    1    3    3    0    0  0.68166394457E+01 -0.17183974350E+02  0.84929875584E+02  0.86924330969E+02  0.10000000000E+01 0.  0.
         -4    1    1    2    0  502  0.33669591133E+02  0.48206882143E+01 -0.27781702265E+02  0.43935364829E+02  0.12700000000E+01 0.  1.
<mgrwt>
<rscale>  1 0.12953847E+03</rscale>
<asrwt>0</asrwt>
<pdfrwt beam="2">  1       21 0.12205649E-01 0.12953847E+03</pdfrwt>
<pdfrwt beam="1">  1       -4 0.16086117E-01 0.12953847E+03</pdfrwt>
<totfact> 0.76095431E+04</totfact>
</mgrwt>
</event>
<event>
 6    4  0.6093247E-003  0.1274625E+03  0.7818608E-02  0.1231270E+00
         -4   -1    0    0    0  501 -0.00000000000E+00  0.00000000000E+00  0.15752828382E+03  0.15753340313E+03  0.12700000000E+01 0. -1.
         21   -1    0    0  501  502  0.00000000000E+00 -0.00000000000E+00 -0.56937179854E+02  0.56937179854E+02  0.00000000000E+00 0.  1.
         25    2    1    2    0    0  0.13725380848E+02 -0.20832914693E+02  0.12572472371E+03  0.17903461037E+03  0.12499715655E+03 0.  0.
    9000005    1    3    3    0    0  0.28913084336E+01 -0.13328843805E+02 -0.24591613926E+02  0.28138322926E+02  0.10000000000E+01 0.  0.
    9000005    1    3    3    0    0  0.10834072414E+02 -0.75040708877E+01  0.15031633763E+03  0.15089628744E+03  0.10000000000E+01 0.  0.
         -4    1    1    2    0  502 -0.13725380848E+02  0.20832914693E+02 -0.25133619743E+02  0.35435972618E+02  0.12700000000E+01 0.  1.
<mgrwt>
<rscale>  1 0.12746249E+03</rscale>
<asrwt>0</asrwt>
<pdfrwt beam="2">  1       21 0.87595662E-02 0.12746249E+03</pdfrwt>
<pdfrwt beam="1">  1       -4 0.24236604E-01 0.12746249E+03</pdfrwt>
<totfact> 0.65084475E+04</totfact>
</mgrwt>
</event>
<event>
 6    4  0.6093247E-003  0.1279775E+03  0.7818608E-02  0.1230488E+00
         21   -1    0    0  501  502  0.00000000000E+00  0.00000000000E+00  0.26657107669E+03  0.26657107669E+03  0.00000000000E+00 0.  1.
         -4   -1    0    0    0  501 -0.00000000000E+00 -0.00000000000E+00 -0.23608665410E+02  0.23642799801E+02  0.12700000000E+01 0.  1.
         25    2    1    2    0    0  0.20717317478E+02 -0.17948532321E+02  0.21962495463E+03  0.25419156619E+03  0.12500749807E+03 0.  0.
    9000005    1    3    3    0    0  0.21995422113E+02 -0.48002723549E+02  0.21771973545E+03  0.22403335302E+03  0.10000000000E+01 0.  0.
    9000005    1    3    3    0    0 -0.12781046341E+01  0.30054191228E+02  0.19052191782E+01  0.30158213175E+02  0.10000000000E+01 0.  0.
         -4    1    1    2    0  502 -0.20717317478E+02  0.17948532321E+02  0.23337456658E+02  0.36022310298E+02  0.12700000000E+01 0. -1.
<mgrwt>
<rscale>  1 0.12797747E+03</rscale>
<asrwt>0</asrwt>
<pdfrwt beam="1">  1       21 0.41010933E-01 0.12797747E+03</pdfrwt>
<pdfrwt beam="2">  1       -4 0.36349610E-02 0.12797747E+03</pdfrwt>
<totfact> 0.91800714E+04</totfact>
</mgrwt>
</event>
<event>
 6    4  0.6093247E-003  0.1323002E+03  0.7818608E-02  0.1224082E+00
         -4   -1    0    0    0  501 -0.00000000000E+00  0.00000000000E+00  0.21168128090E+02  0.21206191239E+02  0.12700000000E+01 0. -1.
         21   -1    0    0  501  502  0.00000000000E+00 -0.00000000000E+00 -0.44123999976E+03  0.44123999976E+03  0.00000000000E+00 0.  1.
         25    2    1    2    0    0  0.20060667463E+02  0.38418326261E+02 -0.21192383014E+03  0.24983006210E+03  0.12499980792E+03 0.  0.
    9000005    1    3    3    0    0 -0.34441359864E+02 -0.24974648461E+02 -0.38857416737E+02  0.57626722712E+02  0.10000000000E+01 0.  0.
    9000005    1    3    3    0    0  0.54502027327E+02  0.63392974721E+02 -0.17306641340E+03  0.19220333939E+03  0.10000000000E+01 0.  0.
         -4    1    1    2    0  502 -0.20060667463E+02 -0.38418326261E+02 -0.20814804154E+03  0.21261612890E+03  0.12700000000E+01 0.  1.
<mgrwt>
<rscale>  1 0.13230023E+03</rscale>
<asrwt>0</asrwt>
<pdfrwt beam="2">  1       21 0.67883067E-01 0.13230023E+03</pdfrwt>
<pdfrwt beam="1">  1       -4 0.32597041E-02 0.13230023E+03</pdfrwt>
<totfact> 0.38292035E+04</totfact>
</mgrwt>
</event>
<event>
 6    4  0.6093247E-003  0.1345818E+03  0.7818608E-02  0.1220811E+00
         -4   -1    0    0    0  501 -0.00000000000E+00  0.00000000000E+00  0.10457756232E+03  0.10458527353E+03  0.12700000000E+01 0.  1.
         21   -1    0    0  501  502  0.00000000000E+00 -0.00000000000E+00 -0.10032412973E+03  0.10032412973E+03  0.00000000000E+00 0. -1.
         25    2    1    2    0    0  0.45399042237E+02  0.20700041382E+02  0.43476502005E+02  0.14143006155E+03  0.12499076500E+03 0.  0.
    9000005    1    3    3    0    0  0.30583268156E+02  0.29430785725E+02 -0.38712201422E+02  0.57455565252E+02  0.10000000000E+01 0.  0.
    9000005    1    3    3    0    0  0.14815774081E+02 -0.87307443425E+01  0.82188703426E+02  0.83974496303E+02  0.10000000000E+01 0.  0.
         -4    1    1    2    0  502 -0.45399042237E+02 -0.20700041382E+02 -0.39223069418E+02  0.63479341710E+02  0.12700000000E+01 0. -1.
<mgrwt>
<rscale>  1 0.13458178E+03</rscale>
<asrwt>0</asrwt>
<pdfrwt beam="2">  1       21 0.15434481E-01 0.13458178E+03</pdfrwt>
<pdfrwt beam="1">  1       -4 0.16090067E-01 0.13458178E+03</pdfrwt>
<totfact> 0.50198034E+04</totfact>
</mgrwt>
</event>
<event>
 6    4  0.6093247E-003  0.1278288E+03  0.7818608E-02  0.1230713E+00
          4   -1    0    0  502    0 -0.00000000000E+00  0.00000000000E+00  0.26535485652E+02  0.26565859647E+02  0.12700000000E+01 0.  1.
         21   -1    0    0  501  502  0.00000000000E+00 -0.00000000000E+00 -0.39313332985E+03  0.39313332985E+03  0.00000000000E+00 0. -1.
         25    2    1    2    0    0  0.25017222864E+02 -0.94373767037E+01 -0.13262427373E+03  0.18419935915E+03  0.12500112163E+03 0.  0.
    9000005    1    3    3    0    0  0.62790553158E+02  0.16035835422E+02 -0.29016401765E+02  0.71012345088E+02  0.10000000000E+01 0.  0.
    9000005    1    3    3    0    0 -0.37773330294E+02 -0.25473212126E+02 -0.10360787197E+03  0.11318701406E+03  0.10000000000E+01 0.  0.
          4    1    1    2  501    0 -0.25017222864E+02  0.94373767037E+01 -0.23397357046E+03  0.23549983035E+03  0.12700000000E+01 0. -1.
<mgrwt>
<rscale>  1 0.12782881E+03</rscale>
<asrwt>0</asrwt>
<pdfrwt beam="2">  1       21 0.60482048E-01 0.12782881E+03</pdfrwt>
<pdfrwt beam="1">  1        4 0.40848769E-02 0.12782881E+03</pdfrwt>
<totfact> 0.34237149E+04</totfact>
</mgrwt>
</event>
<event>
 6    4  0.6093247E-003  0.1329578E+03  0.7818608E-02  0.1223132E+00
         -4   -1    0    0    0  501 -0.00000000000E+00  0.00000000000E+00  0.68181132927E+01  0.69353852721E+01  0.12700000000E+01 0. -1.
         21   -1    0    0  501  502  0.00000000000E+00 -0.00000000000E+00 -0.11827288970E+04  0.11827288970E+04  0.00000000000E+00 0.  1.
         25    2    1    2    0    0 -0.28564334914E+01 -0.45192763548E+02 -0.79093867768E+03  0.80203600621E+03  0.12500887291E+03 0.  0.
    9000005    1    3    3    0    0  0.60680541726E+02 -0.28460038055E+02 -0.42224564136E+03  0.42753302042E+03  0.10000000000E+01 0.  0.
    9000005    1    3    3    0    0 -0.63536975218E+02 -0.16732725493E+02 -0.36869303633E+03  0.37450298578E+03  0.10000000000E+01 0.  0.
         -4    1    1    2    0  502  0.28564334914E+01  0.45192763548E+02 -0.38497210605E+03  0.38762827609E+03  0.12700000000E+01 0.  1.
<mgrwt>
<rscale>  1 0.13295775E+03</rscale>
<asrwt>0</asrwt>
<pdfrwt beam="2">  1       21 0.18195838E+00 0.13295775E+03</pdfrwt>
<pdfrwt beam="1">  1       -4 0.10580133E-02 0.13295775E+03</pdfrwt>
<totfact> 0.19837084E+04</totfact>
</mgrwt>
</event>
<event>
 6    4  0.6093247E-003  0.1683755E+03  0.7818608E-02  0.1179553E+00
          4   -1    0    0  502    0 -0.00000000000E+00  0.00000000000E+00  0.22965641578E+03  0.22965992730E+03  0.12700000000E+01 0.  1.
         21   -1    0    0  501  502  0.00000000000E+00 -0.00000000000E+00 -0.11482112514E+03  0.11482112514E+03  0.00000000000E+00 0. -1.
         25    2    1    2    0    0 -0.38940614263E+02 -0.10586851657E+03  0.15084490531E+03  0.22606306611E+03  0.12500324061E+03 0.  0.
    9000005    1    3    3    0    0  0.28505469527E+01  0.16827980690E+02  0.72752537839E+02  0.74734451989E+02  0.10000000000E+01 0.  0.
    9000005    1    3    3    0    0 -0.41791161216E+02 -0.12269649726E+03  0.78092367469E+02  0.15132861412E+03  0.10000000000E+01 0.  0.
          4    1    1    2  501    0  0.38940614263E+02  0.10586851657E+03 -0.36009614666E+02  0.11841798633E+03  0.12700000000E+01 0. -1.
<mgrwt>
<rscale>  1 0.16837555E+03</rscale>
<asrwt>0</asrwt>
<pdfrwt beam="2">  1       21 0.17664788E-01 0.16837555E+03</pdfrwt>
<pdfrwt beam="1">  1        4 0.35332567E-01 0.16837555E+03</pdfrwt>
<totfact> 0.94039930E+03</totfact>
</mgrwt>
</event>
<event>
 6    4  0.6093247E-003  0.1287389E+03  0.7818608E-02  0.1229339E+00
         -4   -1    0    0    0  501 -0.00000000000E+00  0.00000000000E+00  0.75680336200E+03  0.75680442760E+03  0.12700000000E+01 0. -1.
         21   -1    0    0  501  502  0.00000000000E+00 -0.00000000000E+00 -0.10232047779E+02  0.10232047779E+02  0.00000000000E+00 0.  1.
         25    2    1    2    0    0 -0.13166256249E+02  0.27886296539E+02  0.69587944786E+03  0.70768772599E+03  0.12499086259E+03 0.  0.
    9000005    1    3    3    0    0  0.46416547996E+02 -0.18655828298E+02  0.35600662362E+03  0.35950556591E+03  0.10000000000E+01 0.  0.
    9000005    1    3    3    0    0 -0.59582804245E+02  0.46542124837E+02  0.33987282424E+03  0.34818216009E+03  0.10000000000E+01 0.  0.
         -4    1    1    2    0  502  0.13166256249E+02 -0.27886296539E+02  0.50691866358E+02  0.59348749381E+02  0.12700000000E+01 0.  1.
<mgrwt>
<rscale>  1 0.12873893E+03</rscale>
<asrwt>0</asrwt>
<pdfrwt beam="2">  1       21 0.15741618E-02 0.12873893E+03</pdfrwt>
<pdfrwt beam="1">  1       -4 0.11643739E+00 0.12873893E+03</pdfrwt>
<totfact> 0.43451696E+04</totfact>
</mgrwt>
</event>
<event>
 6    4  0.6093247E-003  0.1354111E+03  0.7818608E-02  0.1219641E+00
         21   -1    0    0  501  502  0.00000000000E+00  0.00000000000E+00  0.87330726229E+02  0.87330726229E+02  0.00000000000E+00 0.  1.
          4   -1    0    0  502    0 -0.00000000000E+00 -0.00000000000E+00 -0.11230716203E+03  0.11231434255E+03  0.12700000000E+01 0. -1.
         25    2    1    2    0    0  0.48538832051E+02 -0.18849160755E+02 -0.46661933408E+02  0.14322536668E+03  0.12499944222E+03 0.  0.
    9000005    1    3    3    0    0 -0.17299595049E+02 -0.18342475859E+02 -0.69176276602E+02  0.73634772045E+02  0.10000000000E+01 0.  0.
    9000005    1    3    3    0    0  0.65838427101E+02 -0.50668489561E+00  0.22514343194E+02  0.69590594638E+02  0.10000000000E+01 0.  0.
          4    1    1    2  501    0 -0.48538832051E+02  0.18849160755E+02  0.21685497609E+02  0.56419702096E+02  0.12700000000E+01 0.  1.
<mgrwt>
<rscale>  1 0.13541111E+03</rscale>
<asrwt>0</asrwt>
<pdfrwt beam="1">  1       21 0.13435496E-01 0.13541111E+03</pdfrwt>
<pdfrwt beam="2">  1        4 0.17279288E-01 0.13541111E+03</pdfrwt>
<totfact> 0.56852007E+04</totfact>
</mgrwt>
</event>
<event>
 6    4  0.6093247E-003  0.1357694E+03  0.7818608E-02  0.1219138E+00
          4   -1    0    0  502    0 -0.00000000000E+00  0.00000000000E+00  0.31004957294E+03  0.31005217397E+03  0.12700000000E+01 0. -1.
         21   -1    0    0  501  502  0.00000000000E+00 -0.00000000000E+00 -0.11907097690E+03  0.11907097690E+03  0.00000000000E+00 0.  1.
         25    2    1    2    0    0  0.16292001885E+02  0.50431823748E+02  0.28809249985E+03  0.31848174187E+03  0.12499813305E+03 0.  0.
    9000005    1    3    3    0    0  0.42220748776E+02  0.83171873360E+02  0.21349070518E+03  0.23297946979E+03  0.10000000000E+01 0.  0.
    9000005    1    3    3    0    0 -0.25928746891E+02 -0.32740049612E+02  0.74601794670E+02  0.85502272086E+02  0.10000000000E+01 0.  0.
          4    1    1    2  501    0 -0.16292001885E+02 -0.50431823748E+02 -0.97113903800E+02  0.11064140899E+03  0.12700000000E+01 0.  1.
<mgrwt>
<rscale>  1 0.13576941E+03</rscale>
<asrwt>0</asrwt>
<pdfrwt beam="2">  1       21 0.18318612E-01 0.13576941E+03</pdfrwt>
<pdfrwt beam="1">  1        4 0.47700655E-01 0.13576941E+03</pdfrwt>
<totfact> 0.47837517E+03</totfact>
</mgrwt>
</event>
<event>
 6    4  0.6093247E-003  0.1266131E+03  0.7818608E-02  0.1232570E+00
         21   -1    0    0  501  502  0.00000000000E+00  0.00000000000E+00  0.13426931722E+02  0.13426931722E+02  0.00000000000E+00 0.  1.
          4   -1    0    0  502    0 -0.00000000000E+00 -0.00000000000E+00 -0.42076499473E+03  0.42076691135E+03  0.12700000000E+01 0.  1.
         25    2    1    2    0    0 -0.11525598962E+02 -0.16496012590E+02 -0.37761996067E+03  0.39828094331E+03  0.12500366893E+03 0.  0.
    9000005    1    3    3    0    0  0.40274261281E+02  0.22707088617E+02 -0.70150331756E+02  0.84022003313E+02  0.10000000000E+01 0.  0.
    9000005    1    3    3    0    0 -0.51799860243E+02 -0.39203101206E+02 -0.30746962891E+03  0.31425894000E+03  0.10000000000E+01 0.  0.
          4    1    1    2  501    0  0.11525598962E+02  0.16496012590E+02 -0.29718102335E+02  0.35912899760E+02  0.12700000000E+01 0. -1.
<mgrwt>
<rscale>  1 0.12661309E+03</rscale>
<asrwt>0</asrwt>
<pdfrwt beam="1">  1       21 0.20656815E-02 0.12661309E+03</pdfrwt>
<pdfrwt beam="2">  1        4 0.64737852E-01 0.12661309E+03</pdfrwt>
<totfact> 0.10469933E+05</totfact>
</mgrwt>
</event>
<event>
 6    4  0.6093247E-003  0.1271986E+03  0.7818608E-02  0.1231673E+00
         21   -1    0    0  501  502  0.00000000000E+00  0.00000000000E+00  0.23352631687E+03  0.23352631687E+03  0.00000000000E+00 0.  1.
          4   -1    0    0  502    0 -0.00000000000E+00 -0.00000000000E+00 -0.14654869392E+03  0.14655419676E+03  0.12700000000E+01 0. -1.
         25    2    1    2    0    0 -0.13244101002E+02  0.19479746553E+02 -0.11814721389E+03  0.17360369090E+03  0.12499844242E+03 0.  0.
    9000005    1    3    3    0    0  0.22254210426E+02 -0.42872493935E+02 -0.20638455746E+02  0.52538047865E+02  0.10000000000E+01 0.  0.
    9000005    1    3    3    0    0 -0.35498311428E+02  0.62352240488E+02 -0.97508758146E+02  0.12106564303E+03  0.10000000000E+01 0.  0.
          4    1    1    2  501    0  0.13244101002E+02 -0.19479746553E+02  0.20512483684E+03  0.20647682274E+03  0.12700000000E+01 0.  1.
<mgrwt>
<rscale>  1 0.12719857E+03</rscale>
<asrwt>0</asrwt>
<pdfrwt beam="1">  1       21 0.35927126E-01 0.12719857E+03</pdfrwt>
<pdfrwt beam="2">  1        4 0.22546642E-01 0.12719857E+03</pdfrwt>
<totfact> 0.55658893E+03</totfact>
</mgrwt>
</event>
<event>
 6    4  0.6093247E-003  0.1271393E+03  0.7818608E-02  0.1231763E+00
          4   -1    0    0  502    0 -0.00000000000E+00  0.00000000000E+00  0.64528456591E+02  0.64540952968E+02  0.12700000000E+01 0. -1.
         21   -1    0    0  501  502  0.00000000000E+00 -0.00000000000E+00 -0.29291613932E+03  0.29291613932E+03  0.00000000000E+00 0.  1.
         25    2    1    2    0    0  0.73741643222E+01 -0.22033480645E+02  0.74940523985E+00  0.12714150326E+03  0.12499819068E+03 0.  0.
    9000005    1    3    3    0    0  0.55490874060E+02 -0.29534089379E+01  0.34429885665E+02  0.65378717907E+02  0.10000000000E+01 0.  0.
    9000005    1    3    3    0    0 -0.48116709737E+02 -0.19080071707E+02 -0.33680480426E+02  0.61762785348E+02  0.10000000000E+01 0.  0.
          4    1    1    2  501    0 -0.73741643222E+01  0.22033480645E+02 -0.22913708797E+03  0.23031558903E+03  0.12700000000E+01 0.  1.
<mgrwt>
<rscale>  1 0.12713929E+03</rscale>
<asrwt>0</asrwt>
<pdfrwt beam="2">  1       21 0.45064022E-01 0.12713929E+03</pdfrwt>
<pdfrwt beam="1">  1        4 0.99286278E-02 0.12713929E+03</pdfrwt>
<totfact> 0.14810039E+04</totfact>
</mgrwt>
</event>
<event>
 6    4  0.6093247E-003  0.1271203E+03  0.7818608E-02  0.1231792E+00
         21   -1    0    0  501  502  0.00000000000E+00  0.00000000000E+00  0.33083240431E+03  0.33083240431E+03  0.00000000000E+00 0.  1.
          4   -1    0    0  502    0 -0.00000000000E+00 -0.00000000000E+00 -0.19403127408E+02  0.19444645875E+02  0.12700000000E+01 0. -1.
         25    2    1    2    0    0 -0.18843301524E+01 -0.22981726660E+02  0.20378222323E+03  0.24018067638E+03  0.12501140885E+03 0.  0.
    9000005    1    3    3    0    0 -0.58646273644E+02  0.97860470455E+01  0.11883959375E+03  0.13288717459E+03  0.10000000000E+01 0.  0.
    9000005    1    3    3    0    0  0.56761943492E+02 -0.32767773705E+02  0.84942629481E+02  0.10729350179E+03  0.10000000000E+01 0.  0.
          4    1    1    2  501    0  0.18843301524E+01  0.22981726660E+02  0.10764705368E+03  0.11009637381E+03  0.12700000000E+01 0.  1.
<mgrwt>
<rscale>  1 0.12712027E+03</rscale>
<asrwt>0</asrwt>
<pdfrwt beam="1">  1       21 0.50897289E-01 0.12712027E+03</pdfrwt>
<pdfrwt beam="2">  1        4 0.29884780E-02 0.12712027E+03</pdfrwt>
<totfact> 0.80382023E+04</totfact>
</mgrwt>
</event>
<event>
 6    4  0.6093247E-003  0.1531402E+03  0.7818608E-02  0.1196667E+00
          4   -1    0    0  502    0 -0.00000000000E+00  0.00000000000E+00  0.82002312194E+01  0.82979932545E+01  0.12700000000E+01 0. -1.
         21   -1    0    0  501  502  0.00000000000E+00 -0.00000000000E+00 -0.18492883003E+04  0.18492883003E+04  0.00000000000E+00 0.  1.
         25    2    1    2    0    0  0.12442192200E+02  0.87574790869E+02 -0.96949733951E+03  0.98151770895E+03  0.12501107767E+03 0.  0.
    9000005    1    3    3    0    0  0.43197372446E+02  0.60410254462E+02 -0.87916963650E+03  0.88230134397E+03  0.10000000000E+01 0.  0.
    9000005    1    3    3    0    0 -0.30755180246E+02  0.27164536407E+02 -0.90327703010E+02  0.99216364987E+02  0.10000000000E+01 0.  0.
          4    1    1    2  501    0 -0.12442192200E+02 -0.87574790869E+02 -0.87159072954E+03  0.87606858456E+03  0.12700000000E+01 0.  1.
<mgrwt>
<rscale>  1 0.15314020E+03</rscale>
<asrwt>0</asrwt>
<pdfrwt beam="2">  1       21 0.28450550E+00 0.15314020E+03</pdfrwt>
<pdfrwt beam="1">  1        4 0.12691295E-02 0.15314020E+03</pdfrwt>
<totfact> 0.36646148E+03</totfact>
</mgrwt>
</event>
<event>
 6    4  0.6093247E-003  0.1360816E+03  0.7818608E-02  0.1218701E+00
         21   -1    0    0  501  502  0.00000000000E+00  0.00000000000E+00  0.10992169049E+03  0.10992169049E+03  0.00000000000E+00 0.  1.
          4   -1    0    0  502    0 -0.00000000000E+00 -0.00000000000E+00 -0.91120137603E+02  0.91128987577E+02  0.12700000000E+01 0.  1.
         25    2    1    2    0    0 -0.87933135391E+01 -0.53078828730E+02  0.42044493519E+02  0.14242874010E+03  0.12499408845E+03 0.  0.
    9000005    1    3    3    0    0  0.15867198159E+02  0.36937674844E+02  0.38664171012E+00  0.40215784117E+02  0.10000000000E+01 0.  0.
    9000005    1    3    3    0    0 -0.24660511698E+02 -0.90016503574E+02  0.41657851809E+02  0.10221295598E+03  0.10000000000E+01 0.  0.
          4    1    1    2  501    0  0.87933135391E+01  0.53078828730E+02 -0.23242940631E+02  0.58621937972E+02  0.12700000000E+01 0. -1.
<mgrwt>
<rscale>  1 0.13608162E+03</rscale>
<asrwt>0</asrwt>
<pdfrwt beam="1">  1       21 0.16911029E-01 0.13608162E+03</pdfrwt>
<pdfrwt beam="2">  1        4 0.14019728E-01 0.13608162E+03</pdfrwt>
<totfact> 0.54156507E+04</totfact>
</mgrwt>
</event>
<event>
 6    4  0.6093247E-003  0.1306149E+03  0.7818608E-02  0.1226546E+00
         -4   -1    0    0    0  501 -0.00000000000E+00  0.00000000000E+00  0.48896720605E+03  0.48896885534E+03  0.12700000000E+01 0.  1.
         21   -1    0    0  501  502  0.00000000000E+00 -0.00000000000E+00 -0.52200542001E+02  0.52200542001E+02  0.00000000000E+00 0. -1.
         25    2    1    2    0    0  0.18247737263E+02 -0.33193877589E+02  0.47180703341E+03  0.48955298706E+03  0.12500174772E+03 0.  0.
    9000005    1    3    3    0    0  0.70002869330E+01 -0.33120738803E+02  0.23776227561E+02  0.41379902768E+02  0.10000000000E+01 0.  0.
    9000005    1    3    3    0    0  0.11247450330E+02 -0.73138785762E-01  0.44803080585E+03  0.44817308429E+03  0.10000000000E+01 0.  0.
         -4    1    1    2    0  502 -0.18247737263E+02  0.33193877589E+02 -0.35040369370E+02  0.51616410280E+02  0.12700000000E+01 0. -1.
<mgrwt>
<rscale>  1 0.13061489E+03</rscale>
<asrwt>0</asrwt>
<pdfrwt beam="2">  1       21 0.80308529E-02 0.13061489E+03</pdfrwt>
<pdfrwt beam="1">  1       -4 0.75227036E-01 0.13061489E+03</pdfrwt>
<totfact> 0.79297716E+03</totfact>
</mgrwt>
</event>
<event>
 6    4  0.6093247E-003  0.1284219E+03  0.7818608E-02  0.1229816E+00
         21   -1    0    0  501  502  0.00000000000E+00  0.00000000000E+00  0.10705491414E+02  0.10705491414E+02  0.00000000000E+00 0.  1.
          4   -1    0    0  502    0 -0.00000000000E+00 -0.00000000000E+00 -0.18061101680E+04  0.18061106145E+04  0.12700000000E+01 0. -1.
         25    2    1    2    0    0 -0.14119646727E+02  0.25846042203E+02 -0.17778995785E+04  0.17825316535E+04  0.12499920820E+03 0.  0.
    9000005    1    3    3    0    0 -0.26848601364E+02  0.40698830654E+02 -0.17312541310E+04  0.17319408501E+04  0.10000000000E+01 0.  0.
    9000005    1    3    3    0    0  0.12728954637E+02 -0.14852788451E+02 -0.46645447552E+02  0.50590803396E+02  0.10000000000E+01 0.  0.
          4    1    1    2  501    0  0.14119646727E+02 -0.25846042203E+02 -0.17505098076E+02  0.34284452452E+02  0.12700000000E+01 0.  1.
<mgrwt>
<rscale>  1 0.12842190E+03</rscale>
<asrwt>0</asrwt>
<pdfrwt beam="1">  1       21 0.16469996E-02 0.12842190E+03</pdfrwt>
<pdfrwt beam="2">  1        4 0.27786878E+00 0.12842190E+03</pdfrwt>
<totfact> 0.35046892E+03</totfact>
</mgrwt>
</event>
<event>
 6    4  0.6093247E-003  0.1597044E+03  0.7818608E-02  0.1189031E+00
         21   -1    0    0  501  502  0.00000000000E+00  0.00000000000E+00  0.14860701431E+02  0.14860701431E+02  0.00000000000E+00 0.  1.
         -4   -1    0    0    0  501 -0.00000000000E+00 -0.00000000000E+00 -0.18214446097E+04  0.18214450525E+04  0.12700000000E+01 0. -1.
         25    2    1    2    0    0 -0.99054680773E+02  0.82933569346E+01 -0.15899658457E+04  0.15979664842E+04  0.12499953807E+03 0.  0.
    9000005    1    3    3    0    0 -0.97874359840E+02 -0.29499306754E+02 -0.72475332500E+03  0.73192757942E+03  0.10000000000E+01 0.  0.
    9000005    1    3    3    0    0 -0.11803209326E+01  0.37792663689E+02 -0.86521252072E+03  0.86603890478E+03  0.10000000000E+01 0.  0.
         -4    1    1    2    0  502  0.99054680773E+02 -0.82933569346E+01 -0.21661806257E+03  0.23833926971E+03  0.12700000000E+01 0.  1.
<mgrwt>
<rscale>  1 0.15970440E+03</rscale>
<asrwt>0</asrwt>
<pdfrwt beam="1">  1       21 0.22862628E-02 0.15970440E+03</pdfrwt>
<pdfrwt beam="2">  1       -4 0.28022633E+00 0.15970440E+03</pdfrwt>
<totfact> 0.20108708E+03</totfact>
</mgrwt>
</event>
<event>
 6    4  0.6093247E-003  0.1362017E+03  0.7818608E-02  0.1218533E+00
         21   -1    0    0  501  502  0.00000000000E+00  0.00000000000E+00  0.55165993500E+02  0.55165993500E+02  0.00000000000E+00 0. -1.
          4   -1    0    0  502    0 -0.00000000000E+00 -0.00000000000E+00 -0.32750314675E+03  0.32750560916E+03  0.12700000000E+01 0.  1.
         25    2    1    2    0    0  0.21925139725E+01 -0.54047016528E+02 -0.29429102111E+03  0.32428091568E+03  0.12500008022E+03 0.  0.
    9000005    1    3    3    0    0  0.15529764655E+02  0.13696880558E+02  0.12611929199E+01  0.20769418259E+02  0.10000000000E+01 0.  0.
    9000005    1    3    3    0    0 -0.13337250682E+02 -0.67743897086E+02 -0.29555221403E+03  0.30351149742E+03  0.10000000000E+01 0.  0.
          4    1    1    2  501    0 -0.21925139725E+01  0.54047016528E+02  0.21953867854E+02  0.58390686987E+02  0.12700000000E+01 0. -1.
<mgrwt>
<rscale>  1 0.13620171E+03</rscale>
<asrwt>0</asrwt>
<pdfrwt beam="1">  1       21 0.84870760E-02 0.13620171E+03</pdfrwt>
<pdfrwt beam="2">  1        4 0.50386413E-01 0.13620171E+03</pdfrwt>
<totfact> 0.16852263E+04</totfact>
</mgrwt>
</event>
<event>
 6    4  0.6093247E-003  0.1268635E+03  0.7818608E-02  0.1232185E+00
         -4   -1    0    0    0  501 -0.00000000000E+00  0.00000000000E+00  0.70805882697E+02  0.70817271371E+02  0.12700000000E+01 0.  1.
         21   -1    0    0  501  502  0.00000000000E+00 -0.00000000000E+00 -0.78771223759E+02  0.78771223759E+02  0.00000000000E+00 0.  1.
         25    2    1    2    0    0 -0.20653732043E+02 -0.64457676133E+01 -0.11498501885E+01  0.12686871557E+03  0.12500489697E+03 0.  0.
    9000005    1    3    3    0    0  0.40747345566E+02  0.17160637220E+02 -0.31619065754E+02  0.54365420624E+02  0.10000000000E+01 0.  0.
    9000005    1    3    3    0    0 -0.61401077609E+02 -0.23606404833E+02  0.30469215566E+02  0.72503294945E+02  0.10000000000E+01 0.  0.
         -4    1    1    2    0  502  0.20653732043E+02  0.64457676133E+01 -0.68154908741E+01  0.22719779561E+02  0.12700000000E+01 0. -1.
<mgrwt>
<rscale>  1 0.12686350E+03</rscale>
<asrwt>0</asrwt>
<pdfrwt beam="2">  1       21 0.12118650E-01 0.12686350E+03</pdfrwt>
<pdfrwt beam="1">  1       -4 0.10894876E-01 0.12686350E+03</pdfrwt>
<totfact> 0.15042996E+05</totfact>
</mgrwt>
</event>
<event>
 6    4  0.6093247E-003  0.1286295E+03  0.7818608E-02  0.1229504E+00
         -4   -1    0    0    0  501 -0.00000000000E+00  0.00000000000E+00  0.13840022735E+03  0.13840605417E+03  0.12700000000E+01 0. -1.
         21   -1    0    0  501  502  0.00000000000E+00 -0.00000000000E+00 -0.48302436728E+02  0.48302436728E+02  0.00000000000E+00 0. -1.
         25    2    1    2    0    0  0.37258777434E+01  0.30080919859E+02  0.88874446527E+02  0.15634645250E+03  0.12500720803E+03 0.  0.
    9000005    1    3    3    0    0  0.59508384583E+02  0.19615862262E+02  0.75330910268E+02  0.97988652046E+02  0.10000000000E+01 0.  0.
    9000005    1    3    3    0    0 -0.55782506840E+02  0.10465057598E+02  0.13543536259E+02  0.58357800458E+02  0.10000000000E+01 0.  0.
         -4    1    1    2    0  502 -0.37258777434E+01 -0.30080919859E+02  0.12233440933E+01  0.30362038392E+02  0.12700000000E+01 0.  1.
<mgrwt>
<rscale>  1 0.12862949E+03</rscale>
<asrwt>0</asrwt>
<pdfrwt beam="2">  1       21 0.74311442E-02 0.12862949E+03</pdfrwt>
<pdfrwt beam="1">  1       -4 0.21294075E-01 0.12862949E+03</pdfrwt>
<totfact> 0.10957273E+05</totfact>
</mgrwt>
</event>
<event>
 6    4  0.6093247E-003  0.1587947E+03  0.7818608E-02  0.1190064E+00
          4   -1    0    0  502    0 -0.00000000000E+00  0.00000000000E+00  0.13414541977E+04  0.13414547989E+04  0.12700000000E+01 0.  1.
         21   -1    0    0  501  502  0.00000000000E+00 -0.00000000000E+00 -0.14446311133E+02  0.14446311133E+02  0.00000000000E+00 0. -1.
         25    2    1    2    0    0  0.94216437994E+02 -0.26815779129E+02  0.10530145870E+04  0.10649204160E+04  0.12497979322E+03 0.  0.
    9000005    1    3    3    0    0 -0.16002483140E+02  0.29937123531E+02  0.27519941058E+03  0.27728690271E+03  0.10000000000E+01 0.  0.
    9000005    1    3    3    0    0  0.11021892113E+03 -0.56752902660E+02  0.77781517640E+03  0.78763351324E+03  0.10000000000E+01 0.  0.
          4    1    1    2  501    0 -0.94216437994E+02  0.26815779129E+02  0.27399329962E+03  0.29098069409E+03  0.12700000000E+01 0. -1.
<mgrwt>
<rscale>  1 0.15879475E+03</rscale>
<asrwt>0</asrwt>
<pdfrwt beam="2">  1       21 0.22225105E-02 0.15879475E+03</pdfrwt>
<pdfrwt beam="1">  1        4 0.20638181E+00 0.15879475E+03</pdfrwt>
<totfact> 0.57224583E+03</totfact>
</mgrwt>
</event>
<event>
 6    4  0.6093247E-003  0.1288049E+03  0.7818608E-02  0.1229240E+00
         -4   -1    0    0    0  501 -0.00000000000E+00  0.00000000000E+00  0.59734713418E+03  0.59734848423E+03  0.12700000000E+01 0.  1.
         21   -1    0    0  501  502  0.00000000000E+00 -0.00000000000E+00 -0.49905710465E+02  0.49905710465E+02  0.00000000000E+00 0. -1.
         25    2    1    2    0    0  0.84191505765E+01  0.29909941473E+02  0.58470198146E+03  0.59872122900E+03  0.12500086494E+03 0.  0.
    9000005    1    3    3    0    0  0.64051323606E+02  0.16742825900E+02  0.22630757893E+03  0.23579443284E+03  0.10000000000E+01 0.  0.
    9000005    1    3    3    0    0 -0.55632173030E+02  0.13167115573E+02  0.35839440253E+03  0.36292679616E+03  0.10000000000E+01 0.  0.
         -4    1    1    2    0  502 -0.84191505765E+01 -0.29909941473E+02 -0.37260557749E+02  0.48532965695E+02  0.12700000000E+01 0. -1.
<mgrwt>
<rscale>  1 0.12880490E+03</rscale>
<asrwt>0</asrwt>
<pdfrwt beam="2">  1       21 0.76778020E-02 0.12880490E+03</pdfrwt>
<pdfrwt beam="1">  1       -4 0.91900901E-01 0.12880490E+03</pdfrwt>
<totfact> 0.54823746E+03</totfact>
</mgrwt>
</event>
<event>
 6    4  0.6093247E-003  0.1268864E+03  0.7818608E-02  0.1232150E+00
          4   -1    0    0  502    0 -0.00000000000E+00  0.00000000000E+00  0.10590146967E+03  0.10590908449E+03  0.12700000000E+01 0. -1.
         21   -1    0    0  501  502  0.00000000000E+00 -0.00000000000E+00 -0.13977709017E+03  0.13977709017E+03  0.00000000000E+00 0.  1.
         25    2    1    2    0    0  0.14090690416E+02  0.16631207486E+02  0.66296437258E+02  0.14316203762E+03  0.12500002722E+03 0.  0.
    9000005    1    3    3    0    0 -0.48221528951E+02 -0.97283419694E+01  0.11258807998E+01  0.49216095938E+02  0.10000000000E+01 0.  0.
    9000005    1    3    3    0    0  0.62312219366E+02  0.26359549456E+02  0.65170556458E+02  0.93945941684E+02  0.10000000000E+01 0.  0.
          4    1    1    2  501    0 -0.14090690416E+02 -0.16631207486E+02 -0.10017205777E+03  0.10252413704E+03  0.12700000000E+01 0.  1.
<mgrwt>
<rscale>  1 0.12688637E+03</rscale>
<asrwt>0</asrwt>
<pdfrwt beam="2">  1       21 0.21504168E-01 0.12688637E+03</pdfrwt>
<pdfrwt beam="1">  1        4 0.16293563E-01 0.12688637E+03</pdfrwt>
<totfact> 0.26548423E+04</totfact>
</mgrwt>
</event>
<event>
 6    4  0.6093247E-003  0.1286912E+03  0.7818608E-02  0.1229411E+00
          4   -1    0    0  502    0 -0.00000000000E+00  0.00000000000E+00  0.19530122059E+03  0.19530534981E+03  0.12700000000E+01 0.  1.
         21   -1    0    0  501  502  0.00000000000E+00 -0.00000000000E+00 -0.52587449290E+02  0.52587449290E+02  0.00000000000E+00 0.  1.
         25    2    1    2    0    0 -0.30133459557E+02 -0.53748858331E+01  0.16554751621E+03  0.20968406201E+03  0.12499804381E+03 0.  0.
    9000005    1    3    3    0    0  0.35131372485E+02  0.36561470615E+02  0.73557054849E+02  0.89345368006E+02  0.10000000000E+01 0.  0.
    9000005    1    3    3    0    0 -0.65264832042E+02 -0.41936356448E+02  0.91990461364E+02  0.12033869401E+03  0.10000000000E+01 0.  0.
          4    1    1    2  501    0  0.30133459557E+02  0.53748858331E+01 -0.22833744915E+02  0.38208737083E+02  0.12700000000E+01 0. -1.
<mgrwt>
<rscale>  1 0.12869120E+03</rscale>
<asrwt>0</asrwt>
<pdfrwt beam="2">  1       21 0.80903769E-02 0.12869120E+03</pdfrwt>
<pdfrwt beam="1">  1        4 0.30047838E-01 0.12869120E+03</pdfrwt>
<totfact> 0.50108651E+04</totfact>
</mgrwt>
</event>
<event>
 6    4  0.6093247E-003  0.2615225E+03  0.7818608E-02  0.1106232E+00
         -4   -1    0    0    0  501 -0.00000000000E+00  0.00000000000E+00  0.71207510665E+02  0.71218835114E+02  0.12700000000E+01 0. -1.
         21   -1    0    0  501  502  0.00000000000E+00 -0.00000000000E+00 -0.10505909355E+04  0.10505909355E+04  0.00000000000E+00 0.  1.
         25    2    1    2    0    0 -0.22959349555E+03  0.74481355549E+01 -0.76166012214E+03  0.80530748414E+03  0.12500141768E+03 0.  0.
    9000005    1    3    3    0    0 -0.18257470906E+03 -0.44374437078E+02 -0.60996558841E+03  0.63824888100E+03  0.10000000000E+01 0.  0.
    9000005    1    3    3    0    0 -0.47018786485E+02  0.51822572633E+02 -0.15169453374E+03  0.16705860314E+03  0.10000000000E+01 0.  0.
         -4    1    1    2    0  502  0.22959349555E+03 -0.74481355549E+01 -0.21772330274E+03  0.31650228652E+03  0.12700000000E+01 0.  1.
<mgrwt>
<rscale>  1 0.26152247E+03</rscale>
<asrwt>0</asrwt>
<pdfrwt beam="2">  1       21 0.16162937E+00 0.26152247E+03</pdfrwt>
<pdfrwt beam="1">  1       -4 0.10955932E-01 0.26152247E+03</pdfrwt>
<totfact> 0.66081070E+02</totfact>
</mgrwt>
</event>
<event>
 6    4  0.6093247E-003  0.1491091E+03  0.7818608E-02  0.1201572E+00
          4   -1    0    0  502    0 -0.00000000000E+00  0.00000000000E+00  0.37364810781E+03  0.37365026612E+03  0.12700000000E+01 0.  1.
         21   -1    0    0  501  502  0.00000000000E+00 -0.00000000000E+00 -0.55918574764E+02  0.55918574764E+02  0.00000000000E+00 0. -1.
         25    2    1    2    0    0  0.20209526329E+02  0.78743330524E+02  0.31466453590E+03  0.34820580158E+03  0.12499829217E+03 0.  0.
    9000005    1    3    3    0    0  0.18380892073E+02 -0.32709495547E+02  0.84993400590E+02  0.92912036014E+02  0.10000000000E+01 0.  0.
    9000005    1    3    3    0    0  0.18286342559E+01  0.11145282607E+03  0.22967113531E+03  0.25529376557E+03  0.10000000000E+01 0.  0.
          4    1    1    2  501    0 -0.20209526329E+02 -0.78743330524E+02  0.30649971433E+01  0.81363039299E+02  0.12700000000E+01 0. -1.
<mgrwt>
<rscale>  1 0.14910905E+03</rscale>
<asrwt>0</asrwt>
<pdfrwt beam="2">  1       21 0.86028579E-02 0.14910905E+03</pdfrwt>
<pdfrwt beam="1">  1        4 0.57485598E-01 0.14910905E+03</pdfrwt>
<totfact> 0.12646936E+04</totfact>
</mgrwt>
</event>
<event>
 6    4  0.6093247E-003  0.1273699E+03  0.7818608E-02  0.1231411E+00
         -4   -1    0    0    0  501 -0.00000000000E+00  0.00000000000E+00  0.14147021392E+02  0.14203911935E+02  0.12700000000E+01 0. -1.
         21   -1    0    0  501  502  0.00000000000E+00 -0.00000000000E+00 -0.58370265942E+03  0.58370265942E+03  0.00000000000E+00 0. -1.
         25    2    1    2    0    0 -0.62035910428E+01 -0.23602164857E+02 -0.28336793671E+03  0.31067746417E+03  0.12501020943E+03 0.  0.
    9000005    1    3    3    0    0 -0.38488465527E+02 -0.53337409886E+02 -0.84850040853E+02  0.10736279945E+03  0.10000000000E+01 0.  0.
    9000005    1    3    3    0    0  0.32284874484E+02  0.29735245028E+02 -0.19851789585E+03  0.20331466472E+03  0.10000000000E+01 0.  0.
         -4    1    1    2    0  502  0.62035910428E+01  0.23602164857E+02 -0.28618770132E+03  0.28722910719E+03  0.12700000000E+01 0.  1.
<mgrwt>
<rscale>  1 0.12736993E+03</rscale>
<asrwt>0</asrwt>
<pdfrwt beam="2">  1       21 0.89800418E-01 0.12736993E+03</pdfrwt>
<pdfrwt beam="1">  1       -4 0.21809471E-02 0.12736993E+03</pdfrwt>
<totfact> 0.38269561E+04</totfact>
</mgrwt>
</event>
<event>
 6    4  0.6093247E-003  0.1271135E+03  0.7818608E-02  0.1231803E+00
         21   -1    0    0  501  502  0.00000000000E+00  0.00000000000E+00  0.64373446158E+02  0.64373446158E+02  0.00000000000E+00 0. -1.
         -4   -1    0    0    0  501 -0.00000000000E+00 -0.00000000000E+00 -0.92064188252E+02  0.92072947484E+02  0.12700000000E+01 0. -1.
         25    2    1    2    0    0 -0.27910856875E+01 -0.22895549886E+02 -0.35642668141E+02  0.13201603565E+03  0.12500335000E+03 0.  0.
    9000005    1    3    3    0    0  0.29044753223E+02 -0.55804095490E+01 -0.73721406333E+02  0.79439186881E+02  0.10000000000E+01 0.  0.
    9000005    1    3    3    0    0 -0.31835838910E+02 -0.17315140337E+02  0.38078738192E+02  0.52576848767E+02  0.10000000000E+01 0.  0.
         -4    1    1    2    0  502  0.27910856875E+01  0.22895549886E+02  0.79519260480E+01  0.24430357995E+02  0.12700000000E+01 0.  1.
<mgrwt>
<rscale>  1 0.12711347E+03</rscale>
<asrwt>0</asrwt>
<pdfrwt beam="1">  1       21 0.99036071E-02 0.12711347E+03</pdfrwt>
<pdfrwt beam="2">  1       -4 0.14165359E-01 0.12711347E+03</pdfrwt>
<totfact> 0.13688360E+05</totfact>
</mgrwt>
</event>
<event>
 6    4  0.6093247E-003  0.1275534E+03  0.7818608E-02  0.1231132E+00
         21   -1    0    0  501  502  0.00000000000E+00  0.00000000000E+00  0.17636594864E+03  0.17636594864E+03  0.00000000000E+00 0. -1.
         -4   -1    0    0    0  501 -0.00000000000E+00 -0.00000000000E+00 -0.34943194610E+02  0.34966265880E+02  0.12700000000E+01 0.  1.
         25    2    1    2    0    0  0.99671128114E+01  0.23353970326E+02  0.13364504798E+03  0.18474543437E+03  0.12500050160E+03 0.  0.
    9000005    1    3    3    0    0 -0.14027162379E+02 -0.89867562940E+01  0.14252284783E+03  0.14349663838E+03  0.10000000000E+01 0.  0.
    9000005    1    3    3    0    0  0.23994275190E+02  0.32340726620E+02 -0.88777998460E+01  0.41248795986E+02  0.10000000000E+01 0.  0.
         -4    1    1    2    0  502 -0.99671128114E+01 -0.23353970326E+02  0.77777060518E+01  0.26586780159E+02  0.12700000000E+01 0. -1.
<mgrwt>
<rscale>  1 0.12755343E+03</rscale>
<asrwt>0</asrwt>
<pdfrwt beam="1">  1       21 0.27133222E-01 0.12755343E+03</pdfrwt>
<pdfrwt beam="2">  1       -4 0.53780026E-02 0.12755343E+03</pdfrwt>
<totfact> 0.11009999E+05</totfact>
</mgrwt>
</event>
<event>
 6    4  0.6093247E-003  0.1267363E+03  0.7818608E-02  0.1232380E+00
         21   -1    0    0  501  502  0.00000000000E+00  0.00000000000E+00  0.27036403334E+03  0.27036403334E+03  0.00000000000E+00 0. -1.
         -4   -1    0    0    0  501 -0.00000000000E+00 -0.00000000000E+00 -0.40018309671E+02  0.40038456625E+02  0.12700000000E+01 0.  1.
         25    2    1    2    0    0 -0.19216499714E+02 -0.83704495898E+01  0.62611109455E+02  0.14135855487E+03  0.12499100656E+03 0.  0.
    9000005    1    3    3    0    0 -0.11739915321E+02 -0.64846052230E+02  0.16195680549E+02  0.67868521201E+02  0.10000000000E+01 0.  0.
    9000005    1    3    3    0    0 -0.74765843933E+01  0.56475602641E+02  0.46415428906E+02  0.73490033667E+02  0.10000000000E+01 0.  0.
         -4    1    1    2    0  502  0.19216499714E+02  0.83704495898E+01  0.16773461422E+03  0.16904393510E+03  0.12700000000E+01 0. -1.
<mgrwt>
<rscale>  1 0.12673630E+03</rscale>
<asrwt>0</asrwt>
<pdfrwt beam="1">  1       21 0.41594465E-01 0.12673630E+03</pdfrwt>
<pdfrwt beam="2">  1       -4 0.61584424E-02 0.12673630E+03</pdfrwt>
<totfact> 0.38321319E+04</totfact>
</mgrwt>
</event>
<event>
 6    4  0.6093247E-003  0.1436538E+03  0.7818608E-02  0.1208495E+00
          4   -1    0    0  502    0 -0.00000000000E+00  0.00000000000E+00  0.12666136171E+02  0.12729646715E+02  0.12700000000E+01 0.  1.
         21   -1    0    0  501  502  0.00000000000E+00 -0.00000000000E+00 -0.95394209709E+03  0.95394209709E+03  0.00000000000E+00 0.  1.
         25    2    1    2    0    0  0.55108358604E+02 -0.44439159520E+02 -0.72517952656E+03  0.73927110192E+03  0.12499858522E+03 0.  0.
    9000005    1    3    3    0    0  0.65638142847E+02  0.27308482713E+02 -0.35127616244E+03  0.35839930431E+03  0.10000000000E+01 0.  0.
    9000005    1    3    3    0    0 -0.10529784242E+02 -0.71747642233E+02 -0.37390336411E+03  0.38087179761E+03  0.10000000000E+01 0.  0.
          4    1    1    2  501    0 -0.55108358604E+02  0.44439159520E+02 -0.21609643437E+03  0.22740064189E+03  0.12700000000E+01 0. -1.
<mgrwt>
<rscale>  1 0.14365381E+03</rscale>
<asrwt>0</asrwt>
<pdfrwt beam="2">  1       21 0.14676029E+00 0.14365381E+03</pdfrwt>
<pdfrwt beam="1">  1        4 0.19535872E-02 0.14365381E+03</pdfrwt>
<totfact> 0.13912749E+04</totfact>
</mgrwt>
</event>
<event>
 6    4  0.6093247E-003  0.1266185E+03  0.7818608E-02  0.1232561E+00
         21   -1    0    0  501  502  0.00000000000E+00  0.00000000000E+00  0.15192725155E+03  0.15192725155E+03  0.00000000000E+00 0.  1.
          4   -1    0    0  502    0 -0.00000000000E+00 -0.00000000000E+00 -0.70194002270E+02  0.70205490203E+02  0.12700000000E+01 0. -1.
         25    2    1    2    0    0  0.14584332849E+02  0.13920547457E+02 -0.11121396016E+02  0.12710599573E+03  0.12500305715E+03 0.  0.
    9000005    1    3    3    0    0 -0.36280391649E+02 -0.98441492094E+01  0.37295193595E+02  0.52963247230E+02  0.10000000000E+01 0.  0.
    9000005    1    3    3    0    0  0.50864724498E+02  0.23764696666E+02 -0.48416589611E+02  0.74142748502E+02  0.10000000000E+01 0.  0.
          4    1    1    2  501    0 -0.14584332849E+02 -0.13920547457E+02  0.92854645295E+02  0.95026746019E+02  0.12700000000E+01 0.  1.
<mgrwt>
<rscale>  1 0.12661852E+03</rscale>
<asrwt>0</asrwt>
<pdfrwt beam="1">  1       21 0.23373423E-01 0.12661852E+03</pdfrwt>
<pdfrwt beam="2">  1        4 0.10800369E-01 0.12661852E+03</pdfrwt>
<totfact> 0.46150642E+04</totfact>
</mgrwt>
</event>
<event>
 6    4  0.6093247E-003  0.1272088E+03  0.7818608E-02  0.1231657E+00
         -4   -1    0    0    0  501 -0.00000000000E+00  0.00000000000E+00  0.15157376777E+04  0.15157382097E+04  0.12700000000E+01 0.  1.
         21   -1    0    0  501  502  0.00000000000E+00 -0.00000000000E+00 -0.57175418104E+01  0.57175418104E+01  0.00000000000E+00 0. -1.
         25    2    1    2    0    0 -0.21702160227E+02 -0.92798415881E+01  0.14658445970E+04  0.14713539516E+04  0.12499987708E+03 0.  0.
    9000005    1    3    3    0    0  0.24681944856E+02  0.47706674908E+02  0.62287715433E+03  0.62518963093E+03  0.10000000000E+01 0.  0.
    9000005    1    3    3    0    0 -0.46384105083E+02 -0.56986516496E+02  0.84296744262E+03  0.84616432067E+03  0.10000000000E+01 0.  0.
         -4    1    1    2    0  502  0.21702160227E+02  0.92798415881E+01  0.44175538931E+02  0.50101799950E+02  0.12700000000E+01 0. -1.
<mgrwt>
<rscale>  1 0.12720876E+03</rscale>
<asrwt>0</asrwt>
<pdfrwt beam="2">  1       21 0.87962303E-03 0.12720876E+03</pdfrwt>
<pdfrwt beam="1">  1       -4 0.23320098E+00 0.12720876E+03</pdfrwt>
<totfact> 0.17108725E+04</totfact>
</mgrwt>
</event>
<event>
 6    4  0.6093247E-003  0.1273585E+03  0.7818608E-02  0.1231429E+00
         -4   -1    0    0    0  501 -0.00000000000E+00  0.00000000000E+00  0.10547215765E+02  0.10623401545E+02  0.12700000000E+01 0.  1.
         21   -1    0    0  501  502  0.00000000000E+00 -0.00000000000E+00 -0.55693149590E+03  0.55693149590E+03  0.00000000000E+00 0.  1.
         25    2    1    2    0    0 -0.19642865429E+02  0.14474556406E+02 -0.42224488682E+03  0.44103392361E+03  0.12499928956E+03 0.  0.
    9000005    1    3    3    0    0  0.22492108835E+02 -0.42168705023E+02 -0.25588777331E+03  0.26031451587E+03  0.10000000000E+01 0.  0.
    9000005    1    3    3    0    0 -0.42134974264E+02  0.56643261429E+02 -0.16635711351E+03  0.18071940775E+03  0.10000000000E+01 0.  0.
         -4    1    1    2    0  502  0.19642865429E+02 -0.14474556406E+02 -0.12413939332E+03  0.12652097383E+03  0.12700000000E+01 0. -1.
<mgrwt>
<rscale>  1 0.12735846E+03</rscale>
<asrwt>0</asrwt>
<pdfrwt beam="2">  1       21 0.85681776E-01 0.12735846E+03</pdfrwt>
<pdfrwt beam="1">  1       -4 0.16286203E-02 0.12735846E+03</pdfrwt>
<totfact> 0.66665698E+04</totfact>
</mgrwt>
</event>
<event>
 6    4  0.6093247E-003  0.1282331E+03  0.7818608E-02  0.1230101E+00
          4   -1    0    0  502    0 -0.00000000000E+00  0.00000000000E+00  0.19074590830E+03  0.19075013613E+03  0.12700000000E+01 0. -1.
         21   -1    0    0  501  502  0.00000000000E+00 -0.00000000000E+00 -0.86388335752E+02  0.86388335752E+02  0.00000000000E+00 0.  1.
         25    2    1    2    0    0  0.22049599397E+02  0.18089507829E+02  0.16567311197E+03  0.20950250954E+03  0.12502122358E+03 0.  0.
    9000005    1    3    3    0    0  0.31401243627E+02  0.15395862208E+02 -0.77243664659E+01  0.35829268926E+02  0.10000000000E+01 0.  0.
    9000005    1    3    3    0    0 -0.93516442305E+01  0.26936456212E+01  0.17339747844E+03  0.17367324061E+03  0.10000000000E+01 0.  0.
          4    1    1    2  501    0 -0.22049599397E+02 -0.18089507829E+02 -0.61315539424E+02  0.67635962342E+02  0.12700000000E+01 0.  1.
<mgrwt>
<rscale>  1 0.12823307E+03</rscale>
<asrwt>0</asrwt>
<pdfrwt beam="2">  1       21 0.13290513E-01 0.12823307E+03</pdfrwt>
<pdfrwt beam="1">  1        4 0.29346568E-01 0.12823307E+03</pdfrwt>
<totfact> 0.21926280E+04</totfact>
</mgrwt>
</event>
<event>
 6    4  0.6093247E-003  0.1275152E+03  0.7818608E-02  0.1231190E+00
          4   -1    0    0  502    0 -0.00000000000E+00  0.00000000000E+00  0.30625757235E+03  0.30626020558E+03  0.12700000000E+01 0. -1.
         21   -1    0    0  501  502  0.00000000000E+00 -0.00000000000E+00 -0.19047926595E+02  0.19047926595E+02  0.00000000000E+00 0. -1.
         25    2    1    2    0    0  0.23418766289E+02 -0.93175527152E+01  0.24111786488E+03  0.27275986324E+03  0.12499945132E+03 0.  0.
    9000005    1    3    3    0    0 -0.35418811319E+02 -0.65569768333E+01  0.14893826990E+02  0.38991181347E+02  0.10000000000E+01 0.  0.
    9000005    1    3    3    0    0  0.58837577608E+02 -0.27605758819E+01  0.22622403789E+03  0.23376868190E+03  0.10000000000E+01 0.  0.
          4    1    1    2  501    0 -0.23418766289E+02  0.93175527152E+01  0.46091780882E+02  0.52548268934E+02  0.12700000000E+01 0.  1.
<mgrwt>
<rscale>  1 0.12751517E+03</rscale>
<asrwt>0</asrwt>
<pdfrwt beam="2">  1       21 0.29304505E-02 0.12751517E+03</pdfrwt>
<pdfrwt beam="1">  1        4 0.47120005E-01 0.12751517E+03</pdfrwt>
<totfact> 0.11449848E+05</totfact>
</mgrwt>
</event>
<event>
 6    4  0.6093247E-003  0.1268115E+03  0.7818608E-02  0.1232265E+00
         21   -1    0    0  501  502  0.00000000000E+00  0.00000000000E+00  0.12373552921E+02  0.12373552921E+02  0.00000000000E+00 0.  1.
          4   -1    0    0  502    0 -0.00000000000E+00 -0.00000000000E+00 -0.63375569459E+03  0.63375696708E+03  0.12700000000E+01 0.  1.
         25    2    1    2    0    0 -0.21112772564E+02 -0.31667643059E+01 -0.60758947054E+03  0.62068197902E+03  0.12500150721E+03 0.  0.
    9000005    1    3    3    0    0  0.17209208652E+02 -0.15570929314E+02 -0.54947691695E+03  0.54996771992E+03  0.10000000000E+01 0.  0.
    9000005    1    3    3    0    0 -0.38321981216E+02  0.12404165008E+02 -0.58112553592E+02  0.70714259092E+02  0.10000000000E+01 0.  0.
          4    1    1    2  501    0  0.21112772564E+02  0.31667643059E+01 -0.13792671134E+02  0.25448540990E+02  0.12700000000E+01 0. -1.
<mgrwt>
<rscale>  1 0.12681149E+03</rscale>
<asrwt>0</asrwt>
<pdfrwt beam="1">  1       21 0.19036235E-02 0.12681149E+03</pdfrwt>
<pdfrwt beam="2">  1        4 0.97505989E-01 0.12681149E+03</pdfrwt>
<totfact> 0.48409076E+04</totfact>
</mgrwt>
</event>
<event>
 6    4  0.6093247E-003  0.1291834E+03  0.7818608E-02  0.1228672E+00
         21   -1    0    0  501  502  0.00000000000E+00  0.00000000000E+00  0.27079360005E+02  0.27079360005E+02  0.00000000000E+00 0. -1.
         -4   -1    0    0    0  501 -0.00000000000E+00 -0.00000000000E+00 -0.24192378551E+03  0.24192711897E+03  0.12700000000E+01 0. -1.
         25    2    1    2    0    0 -0.24503398453E+02 -0.21500525177E+02 -0.17479017984E+03  0.21734755318E+03  0.12500265112E+03 0.  0.
    9000005    1    3    3    0    0  0.27730752657E+02 -0.49991784307E+02 -0.39343757883E+02  0.69405363089E+02  0.10000000000E+01 0.  0.
    9000005    1    3    3    0    0 -0.52234151110E+02  0.28491259131E+02 -0.13544642195E+03  0.14794219009E+03  0.10000000000E+01 0.  0.
         -4    1    1    2    0  502  0.24503398453E+02  0.21500525177E+02 -0.40054245667E+02  0.51658925798E+02  0.12700000000E+01 0.  1.
<mgrwt>
<rscale>  1 0.12918340E+03</rscale>
<asrwt>0</asrwt>
<pdfrwt beam="1">  1       21 0.41660555E-02 0.12918340E+03</pdfrwt>
<pdfrwt beam="2">  1       -4 0.37221590E-01 0.12918340E+03</pdfrwt>
<totfact> 0.10235764E+05</totfact>
</mgrwt>
</event>
<event>
 6    4  0.6093247E-003  0.1304461E+03  0.7818608E-02  0.1226795E+00
         -4   -1    0    0    0  501 -0.00000000000E+00  0.00000000000E+00  0.20152667666E+03  0.20153067833E+03  0.12700000000E+01 0.  1.
         21   -1    0    0  501  502  0.00000000000E+00 -0.00000000000E+00 -0.36186387670E+02  0.36186387670E+02  0.00000000000E+00 0. -1.
         25    2    1    2    0    0 -0.35757245127E+02  0.10640958245E+02  0.14560819142E+03  0.19549409658E+03  0.12499754325E+03 0.  0.
    9000005    1    3    3    0    0  0.24524342562E+02  0.84111333732E+01  0.13083192744E+03  0.13337984773E+03  0.10000000000E+01 0.  0.
    9000005    1    3    3    0    0 -0.60281587689E+02  0.22298248720E+01  0.14776263979E+02  0.62114248852E+02  0.10000000000E+01 0.  0.
         -4    1    1    2    0  502  0.35757245127E+02 -0.10640958245E+02  0.19732097570E+02  0.42222969412E+02  0.12700000000E+01 0. -1.
<mgrwt>
<rscale>  1 0.13044614E+03</rscale>
<asrwt>0</asrwt>
<pdfrwt beam="2">  1       21 0.55671367E-02 0.13044614E+03</pdfrwt>
<pdfrwt beam="1">  1       -4 0.31006126E-01 0.13044614E+03</pdfrwt>
<totfact> 0.89536940E+04</totfact>
</mgrwt>
</event>
<event>
 6    4  0.6093247E-003  0.1276742E+03  0.7818608E-02  0.1230948E+00
         21   -1    0    0  501  502  0.00000000000E+00  0.00000000000E+00  0.11183481328E+03  0.11183481328E+03  0.00000000000E+00 0. -1.
          4   -1    0    0  502    0 -0.00000000000E+00 -0.00000000000E+00 -0.52947917245E+02  0.52963146060E+02  0.12700000000E+01 0. -1.
         25    2    1    2    0    0  0.16476183217E+02 -0.20121172398E+02  0.45656863505E+02  0.13559226036E+03  0.12499754275E+03 0.  0.
    9000005    1    3    3    0    0  0.37988266741E+02  0.34021521305E+02 -0.13288544426E+02  0.52708232135E+02  0.10000000000E+01 0.  0.
    9000005    1    3    3    0    0 -0.21512083524E+02 -0.54142693703E+02  0.58945407932E+02  0.82884028227E+02  0.10000000000E+01 0.  0.
          4    1    1    2  501    0 -0.16476183217E+02  0.20121172398E+02  0.13230032532E+02  0.29205698979E+02  0.12700000000E+01 0.  1.
<mgrwt>
<rscale>  1 0.12767424E+03</rscale>
<asrwt>0</asrwt>
<pdfrwt beam="1">  1       21 0.17205356E-01 0.12767424E+03</pdfrwt>
<pdfrwt beam="2">  1        4 0.81475596E-02 0.12767424E+03</pdfrwt>
<totfact> 0.13050112E+05</totfact>
</mgrwt>
</event>
<event>
 6    4  0.6093247E-003  0.1268046E+03  0.7818608E-02  0.1232276E+00
         -4   -1    0    0    0  501 -0.00000000000E+00  0.00000000000E+00  0.20588293330E+03  0.20588685029E+03  0.12700000000E+01 0.  1.
         21   -1    0    0  501  502  0.00000000000E+00 -0.00000000000E+00 -0.11881608737E+03  0.11881608737E+03  0.00000000000E+00 0. -1.
         25    2    1    2    0    0 -0.72913247749E+01  0.19915031180E+02  0.18511390219E+03  0.22438040767E+03  0.12501855333E+03 0.  0.
    9000005    1    3    3    0    0  0.39715225143E+02  0.34875507718E+02  0.16101234522E+03  0.16946850876E+03  0.10000000000E+01 0.  0.
    9000005    1    3    3    0    0 -0.47006549918E+02 -0.14960476538E+02  0.24101556969E+02  0.54911898909E+02  0.10000000000E+01 0.  0.
         -4    1    1    2    0  502  0.72913247749E+01 -0.19915031180E+02 -0.98047056260E+02  0.10032253000E+03  0.12700000000E+01 0. -1.
<mgrwt>
<rscale>  1 0.12680462E+03</rscale>
<asrwt>0</asrwt>
<pdfrwt beam="2">  1       21 0.18279398E-01 0.12680462E+03</pdfrwt>
<pdfrwt beam="1">  1       -4 0.31675121E-01 0.12680462E+03</pdfrwt>
<totfact> 0.10653179E+04</totfact>
</mgrwt>
</event>
<event>
 6    4  0.6093247E-003  0.1280501E+03  0.7818608E-02  0.1230378E+00
         21   -1    0    0  501  502  0.00000000000E+00  0.00000000000E+00  0.26844830701E+03  0.26844830701E+03  0.00000000000E+00 0. -1.
          4   -1    0    0  502    0 -0.00000000000E+00 -0.00000000000E+00 -0.71340323023E+02  0.71351626394E+02  0.12700000000E+01 0.  1.
         25    2    1    2    0    0  0.37818372752E+01 -0.27486903047E+02 -0.12225025908E+02  0.12863233631E+03  0.12500797796E+03 0.  0.
    9000005    1    3    3    0    0  0.42434102741E+02 -0.52351560137E+02  0.22464622941E+02  0.71042228344E+02  0.10000000000E+01 0.  0.
    9000005    1    3    3    0    0 -0.38652265466E+02  0.24864657091E+02 -0.34689648849E+02  0.57590107962E+02  0.10000000000E+01 0.  0.
          4    1    1    2  501    0 -0.37818372752E+01  0.27486903047E+02  0.20933300989E+03  0.21116759710E+03  0.12700000000E+01 0. -1.
<mgrwt>
<rscale>  1 0.12805009E+03</rscale>
<asrwt>0</asrwt>
<pdfrwt beam="1">  1       21 0.41299739E-01 0.12805009E+03</pdfrwt>
<pdfrwt beam="2">  1        4 0.10976535E-01 0.12805009E+03</pdfrwt>
<totfact> 0.14919457E+04</totfact>
</mgrwt>
</event>
<event>
 6    4  0.6093247E-003  0.1280345E+03  0.7818608E-02  0.1230402E+00
          4   -1    0    0  502    0 -0.00000000000E+00  0.00000000000E+00  0.54244378996E+02  0.54259243937E+02  0.12700000000E+01 0. -1.
         21   -1    0    0  501  502  0.00000000000E+00 -0.00000000000E+00 -0.19646937284E+03  0.19646937284E+03  0.00000000000E+00 0.  1.
         25    2    1    2    0    0  0.27076228480E+02  0.58599610954E+01 -0.25236320441E+02  0.13049790565E+03  0.12500148086E+03 0.  0.
    9000005    1    3    3    0    0 -0.18453577494E+02  0.37156841149E+02  0.30890998946E+02  0.51734120099E+02  0.10000000000E+01 0.  0.
    9000005    1    3    3    0    0  0.45529805975E+02 -0.31296880054E+02 -0.56127319387E+02  0.78763785554E+02  0.10000000000E+01 0.  0.
          4    1    1    2  501    0 -0.27076228480E+02 -0.58599610954E+01 -0.11698867340E+03  0.12023071112E+03  0.12700000000E+01 0.  1.
<mgrwt>
<rscale>  1 0.12803449E+03</rscale>
<asrwt>0</asrwt>
<pdfrwt beam="2">  1       21 0.30226057E-01 0.12803449E+03</pdfrwt>
<pdfrwt beam="1">  1        4 0.83467484E-02 0.12803449E+03</pdfrwt>
<totfact> 0.43643870E+04</totfact>
</mgrwt>
</event>
<event>
 6    4  0.6093247E-003  0.1286939E+03  0.7818608E-02  0.1229407E+00
         21   -1    0    0  501  502  0.00000000000E+00  0.00000000000E+00  0.13156805739E+02  0.13156805739E+02  0.00000000000E+00 0. -1.
          4   -1    0    0  502    0 -0.00000000000E+00 -0.00000000000E+00 -0.68603965625E+03  0.68604083176E+03  0.12700000000E+01 0. -1.
         25    2    1    2    0    0 -0.20894800995E+02  0.22380909144E+02 -0.64517048075E+03  0.65788073853E+03  0.12499847638E+03 0.  0.
    9000005    1    3    3    0    0  0.23327724903E+02  0.60167174869E+02 -0.23881661577E+03  0.24738360424E+03  0.10000000000E+01 0.  0.
    9000005    1    3    3    0    0 -0.44222525897E+02 -0.37786265725E+02 -0.40635386498E+03  0.41049713429E+03  0.10000000000E+01 0.  0.
          4    1    1    2  501    0  0.20894800995E+02 -0.22380909144E+02 -0.27712369753E+02  0.41316898965E+02  0.12700000000E+01 0.  1.
<mgrwt>
<rscale>  1 0.12869389E+03</rscale>
<asrwt>0</asrwt>
<pdfrwt beam="1">  1       21 0.20241240E-02 0.12869389E+03</pdfrwt>
<pdfrwt beam="2">  1        4 0.10554936E+00 0.12869389E+03</pdfrwt>
<totfact> 0.36559930E+04</totfact>
</mgrwt>
</event>
<event>
 6    4  0.6093247E-003  0.1271491E+03  0.7818608E-02  0.1231748E+00
         21   -1    0    0  501  502  0.00000000000E+00  0.00000000000E+00  0.19142816974E+03  0.19142816974E+03  0.00000000000E+00 0. -1.
         -4   -1    0    0    0  501 -0.00000000000E+00 -0.00000000000E+00 -0.29819269987E+02  0.29846302327E+02  0.12700000000E+01 0. -1.
         25    2    1    2    0    0  0.12517685298E+02  0.19637819887E+02  0.12848128313E+03  0.18076042144E+03  0.12499821370E+03 0.  0.
    9000005    1    3    3    0    0  0.30857681976E+02 -0.32736513460E+02  0.11522177423E+03  0.12369694058E+03  0.10000000000E+01 0.  0.
    9000005    1    3    3    0    0 -0.18339996678E+02  0.52374333347E+02  0.13259508893E+02  0.57063480859E+02  0.10000000000E+01 0.  0.
         -4    1    1    2    0  502 -0.12517685298E+02 -0.19637819887E+02  0.33127616627E+02  0.40514050631E+02  0.12700000000E+01 0.  1.
<mgrwt>
<rscale>  1 0.12714909E+03</rscale>
<asrwt>0</asrwt>
<pdfrwt beam="1">  1       21 0.29450487E-01 0.12714909E+03</pdfrwt>
<pdfrwt beam="2">  1       -4 0.45899836E-02 0.12714909E+03</pdfrwt>
<totfact> 0.12130248E+05</totfact>
</mgrwt>
</event>
<event>
 6    4  0.6093247E-003  0.1272923E+03  0.7818608E-02  0.1231530E+00
         -4   -1    0    0    0  501 -0.00000000000E+00  0.00000000000E+00  0.66805910055E+01  0.68002350093E+01  0.12700000000E+01 0. -1.
         21   -1    0    0  501  502  0.00000000000E+00 -0.00000000000E+00 -0.85516203859E+03  0.85516203859E+03  0.00000000000E+00 0. -1.
         25    2    1    2    0    0 -0.20056644539E+02  0.13245519732E+02 -0.73701783759E+03  0.74792955007E+03  0.12500242460E+03 0.  0.
    9000005    1    3    3    0    0 -0.13592234944E+02 -0.11915083133E+02 -0.10461773312E+02  0.20908533130E+02  0.10000000000E+01 0.  0.
    9000005    1    3    3    0    0 -0.64644095955E+01  0.25160602865E+02 -0.72655606428E+03  0.72702101694E+03  0.10000000000E+01 0.  0.
         -4    1    1    2    0  502  0.20056644539E+02 -0.13245519732E+02 -0.11146360999E+03  0.11403272353E+03  0.12700000000E+01 0.  1.
<mgrwt>
<rscale>  1 0.12729226E+03</rscale>
<asrwt>0</asrwt>
<pdfrwt beam="2">  1       21 0.13156348E+00 0.12729226E+03</pdfrwt>
<pdfrwt beam="1">  1       -4 0.10370584E-02 0.12729226E+03</pdfrwt>
<totfact> 0.47761131E+04</totfact>
</mgrwt>
</event>
<event>
 6    4  0.6093247E-003  0.1298676E+03  0.7818608E-02  0.1227652E+00
         21   -1    0    0  501  502  0.00000000000E+00  0.00000000000E+00  0.42307169118E+03  0.42307169118E+03  0.00000000000E+00 0. -1.
         -4   -1    0    0    0  501 -0.00000000000E+00 -0.00000000000E+00 -0.46360345443E+02  0.46377737435E+02  0.12700000000E+01 0.  1.
         25    2    1    2    0    0 -0.17346962300E+01 -0.35105612987E+02  0.47372732800E+02  0.13823809411E+03  0.12502072474E+03 0.  0.
    9000005    1    3    3    0    0  0.23860229623E+01 -0.23403263091E+02  0.90415861917E+02  0.93431439649E+02  0.10000000000E+01 0.  0.
    9000005    1    3    3    0    0 -0.41207191924E+01 -0.11702349896E+02 -0.43043129116E+02  0.44806654460E+02  0.10000000000E+01 0.  0.
         -4    1    1    2    0  502  0.17346962300E+01  0.35105612987E+02  0.32933861294E+03  0.33121133451E+03  0.12700000000E+01 0. -1.
<mgrwt>
<rscale>  1 0.12986761E+03</rscale>
<asrwt>0</asrwt>
<pdfrwt beam="1">  1       21 0.65087950E-01 0.12986761E+03</pdfrwt>
<pdfrwt beam="2">  1       -4 0.71338456E-02 0.12986761E+03</pdfrwt>
<totfact> 0.11916283E+04</totfact>
</mgrwt>
</event>
<event>
 6    4  0.6093247E-003  0.1271312E+03  0.7818608E-02  0.1231776E+00
         21   -1    0    0  501  502  0.00000000000E+00  0.00000000000E+00  0.18928069115E+03  0.18928069115E+03  0.00000000000E+00 0.  1.
          4   -1    0    0  502    0 -0.00000000000E+00 -0.00000000000E+00 -0.51017811696E+02  0.51033616472E+02  0.12700000000E+01 0. -1.
         25    2    1    2    0    0  0.60322989870E+00 -0.23170376738E+02  0.31389468688E+02  0.13094900657E+03  0.12500045333E+03 0.  0.
    9000005    1    3    3    0    0 -0.33845831385E+02  0.13209707126E+02 -0.33181089760E+02  0.49214036435E+02  0.10000000000E+01 0.  0.
    9000005    1    3    3    0    0  0.34449061284E+02 -0.36380083864E+02  0.64570558448E+02  0.81734970139E+02  0.10000000000E+01 0.  0.
          4    1    1    2  501    0 -0.60322989870E+00  0.23170376738E+02  0.10687341077E+03  0.10936530105E+03  0.12700000000E+01 0.  1.
<mgrwt>
<rscale>  1 0.12713121E+03</rscale>
<asrwt>0</asrwt>
<pdfrwt beam="1">  1       21 0.29120106E-01 0.12713121E+03</pdfrwt>
<pdfrwt beam="2">  1        4 0.78504377E-02 0.12713121E+03</pdfrwt>
<totfact> 0.51859116E+04</totfact>
</mgrwt>
</event>
<event>
 6    4  0.6093247E-003  0.1294075E+03  0.7818608E-02  0.1228338E+00
         21   -1    0    0  501  502  0.00000000000E+00  0.00000000000E+00  0.42099873171E+03  0.42099873171E+03  0.00000000000E+00 0. -1.
         -4   -1    0    0    0  501 -0.00000000000E+00 -0.00000000000E+00 -0.29097753697E+02  0.29125455709E+02  0.12700000000E+01 0.  1.
         25    2    1    2    0    0  0.24069091914E+02  0.23312001459E+02  0.12102830260E+03  0.17718391963E+03  0.12499408285E+03 0.  0.
    9000005    1    3    3    0    0  0.32255527480E+02  0.19496032033E+02 -0.15200904243E+02  0.40651959459E+02  0.10000000000E+01 0.  0.
    9000005    1    3    3    0    0 -0.81864355658E+01  0.38159694261E+01  0.13622920685E+03  0.13653196017E+03  0.10000000000E+01 0.  0.
         -4    1    1    2    0  502 -0.24069091914E+02 -0.23312001459E+02  0.27087267541E+03  0.27294026779E+03  0.12700000000E+01 0. -1.
<mgrwt>
<rscale>  1 0.12940746E+03</rscale>
<asrwt>0</asrwt>
<pdfrwt beam="1">  1       21 0.64769031E-01 0.12940746E+03</pdfrwt>
<pdfrwt beam="2">  1       -4 0.44788561E-02 0.12940746E+03</pdfrwt>
<totfact> 0.25570433E+04</totfact>
</mgrwt>
</event>
<event>
 6    4  0.6093247E-003  0.1506363E+03  0.7818608E-02  0.1199693E+00
         21   -1    0    0  501  502  0.00000000000E+00  0.00000000000E+00  0.20398317531E+04  0.20398317531E+04  0.00000000000E+00 0.  1.
         -4   -1    0    0    0  501 -0.00000000000E+00 -0.00000000000E+00 -0.68407049491E+01  0.69575961510E+01  0.12700000000E+01 0. -1.
         25    2    1    2    0    0 -0.70481781876E+02 -0.45820798222E+02  0.11549338174E+04  0.11647160300E+04  0.12499632348E+03 0.  0.
    9000005    1    3    3    0    0 -0.31125410298E+01  0.36786699351E+02  0.47968430556E+03  0.48110392034E+03  0.10000000000E+01 0.  0.
    9000005    1    3    3    0    0 -0.67369240846E+02 -0.82607497573E+02  0.67524951183E+03  0.68361210967E+03  0.10000000000E+01 0.  0.
         -4    1    1    2    0  502  0.70481781876E+02  0.45820798222E+02  0.87805723076E+03  0.88207331924E+03  0.12700000000E+01 0.  1.
<mgrwt>
<rscale>  1 0.15063634E+03</rscale>
<asrwt>0</asrwt>
<pdfrwt beam="1">  1       21 0.31381979E+00 0.15063634E+03</pdfrwt>
<pdfrwt beam="2">  1       -4 0.10614398E-02 0.15063634E+03</pdfrwt>
<totfact> 0.32781072E+03</totfact>
</mgrwt>
</event>
<event>
 6    4  0.6093247E-003  0.1291054E+03  0.7818608E-02  0.1228789E+00
          4   -1    0    0  502    0 -0.00000000000E+00  0.00000000000E+00  0.30552805356E+03  0.30553069307E+03  0.12700000000E+01 0. -1.
         21   -1    0    0  501  502  0.00000000000E+00 -0.00000000000E+00 -0.26931080038E+02  0.26931080038E+02  0.00000000000E+00 0. -1.
         25    2    1    2    0    0 -0.26348369590E+02 -0.18661641454E+02  0.26960207721E+03  0.29892053728E+03  0.12500285647E+03 0.  0.
    9000005    1    3    3    0    0  0.30291713318E+02 -0.10208510485E+02  0.10647151355E+02  0.33707023215E+02  0.10000000000E+01 0.  0.
    9000005    1    3    3    0    0 -0.56640082908E+02 -0.84531309695E+01  0.25895492586E+03  0.26521351406E+03  0.10000000000E+01 0.  0.
          4    1    1    2  501    0  0.26348369590E+02  0.18661641454E+02  0.89948963055E+01  0.33541235835E+02  0.12700000000E+01 0.  1.
<mgrwt>
<rscale>  1 0.12910541E+03</rscale>
<asrwt>0</asrwt>
<pdfrwt beam="2">  1       21 0.41432433E-02 0.12910541E+03</pdfrwt>
<pdfrwt beam="1">  1        4 0.47006820E-01 0.12910541E+03</pdfrwt>
<totfact> 0.65075926E+04</totfact>
</mgrwt>
</event>
<event>
 6    4  0.6093247E-003  0.1330354E+03  0.7818608E-02  0.1223020E+00
         -4   -1    0    0    0  501 -0.00000000000E+00  0.00000000000E+00  0.40540725662E+03  0.40540924585E+03  0.12700000000E+01 0. -1.
         21   -1    0    0  501  502  0.00000000000E+00 -0.00000000000E+00 -0.26713303785E+02  0.26713303785E+02  0.00000000000E+00 0.  1.
         25    2    1    2    0    0 -0.26762823123E+02  0.36840450033E+02  0.35832285770E+03  0.38222202983E+03  0.12499976910E+03 0.  0.
    9000005    1    3    3    0    0 -0.30332029603E+02  0.79049621136E+02  0.28731927872E+03  0.29953671319E+03  0.10000000000E+01 0.  0.
    9000005    1    3    3    0    0  0.35692064799E+01 -0.42209171103E+02  0.71003578976E+02  0.82685316638E+02  0.10000000000E+01 0.  0.
         -4    1    1    2    0  502  0.26762823123E+02 -0.36840450033E+02  0.20371095137E+02  0.49900519809E+02  0.12700000000E+01 0.  1.
<mgrwt>
<rscale>  1 0.13303537E+03</rscale>
<asrwt>0</asrwt>
<pdfrwt beam="2">  1       21 0.41097393E-02 0.13303537E+03</pdfrwt>
<pdfrwt beam="1">  1       -4 0.62372818E-01 0.13303537E+03</pdfrwt>
<totfact> 0.36950960E+04</totfact>
</mgrwt>
</event>
<event>
 6    4  0.6093247E-003  0.1289735E+03  0.7818608E-02  0.1228987E+00
         21   -1    0    0  501  502  0.00000000000E+00  0.00000000000E+00  0.44874771267E+02  0.44874771267E+02  0.00000000000E+00 0. -1.
          4   -1    0    0  502    0 -0.00000000000E+00 -0.00000000000E+00 -0.14510388422E+03  0.14510944185E+03  0.12700000000E+01 0.  1.
         25    2    1    2    0    0  0.24335941280E+02 -0.20491368267E+02 -0.86600730533E+02  0.15535070451E+03  0.12498808203E+03 0.  0.
    9000005    1    3    3    0    0  0.48953547298E+02  0.21164997744E+02  0.30939797244E+01  0.53432009443E+02  0.10000000000E+01 0.  0.
    9000005    1    3    3    0    0 -0.24617606017E+02 -0.41656366012E+02 -0.89694710257E+02  0.10191869506E+03  0.10000000000E+01 0.  0.
          4    1    1    2  501    0 -0.24335941280E+02  0.20491368267E+02 -0.13628382416E+02  0.34633508611E+02  0.12700000000E+01 0. -1.
<mgrwt>
<rscale>  1 0.12897347E+03</rscale>
<asrwt>0</asrwt>
<pdfrwt beam="1">  1       21 0.69038109E-02 0.12897347E+03</pdfrwt>
<pdfrwt beam="2">  1        4 0.22325485E-01 0.12897347E+03</pdfrwt>
<totfact> 0.11411783E+05</totfact>
</mgrwt>
</event>
<event>
 6    4  0.6093247E-003  0.1295894E+03  0.7818608E-02  0.1228066E+00
          4   -1    0    0  502    0 -0.00000000000E+00  0.00000000000E+00  0.79943320782E+02  0.79953407918E+02  0.12700000000E+01 0. -1.
         21   -1    0    0  501  502  0.00000000000E+00 -0.00000000000E+00 -0.33269515572E+03  0.33269515572E+03  0.00000000000E+00 0.  1.
         25    2    1    2    0    0 -0.20603747092E+02 -0.27285688322E+02  0.25691038128E+02  0.13211145443E+03  0.12499753506E+03 0.  0.
    9000005    1    3    3    0    0 -0.60837718733E+02 -0.47671833404E+02  0.36857959303E+02  0.85634927948E+02  0.10000000000E+01 0.  0.
    9000005    1    3    3    0    0  0.40233971640E+02  0.20386145082E+02 -0.11166921175E+02  0.46476526482E+02  0.10000000000E+01 0.  0.
          4    1    1    2  501    0  0.20603747092E+02  0.27285688322E+02 -0.27844287307E+03  0.28053710921E+03  0.12700000000E+01 0.  1.
<mgrwt>
<rscale>  1 0.12958938E+03</rscale>
<asrwt>0</asrwt>
<pdfrwt beam="2">  1       21 0.51183870E-01 0.12958938E+03</pdfrwt>
<pdfrwt beam="1">  1        4 0.12299935E-01 0.12958938E+03</pdfrwt>
<totfact> 0.79429584E+03</totfact>
</mgrwt>
</event>
<event>
 6    4  0.6093247E-003  0.1297652E+03  0.7818608E-02  0.1227805E+00
         -4   -1    0    0    0  501 -0.00000000000E+00  0.00000000000E+00  0.14273110609E+03  0.14273675612E+03  0.12700000000E+01 0. -1.
         21   -1    0    0  501  502  0.00000000000E+00 -0.00000000000E+00 -0.47754949755E+02  0.47754949755E+02  0.00000000000E+00 0. -1.
         25    2    1    2    0    0  0.32848949476E+02  0.11604350019E+02  0.68641482596E+02  0.14680140532E+03  0.12500114020E+03 0.  0.
    9000005    1    3    3    0    0 -0.25022320414E+02 -0.22054748456E+02 -0.17515048931E+02  0.37686939215E+02  0.10000000000E+01 0.  0.
    9000005    1    3    3    0    0  0.57871269890E+02  0.33659098475E+02  0.86156531528E+02  0.10911446611E+03  0.10000000000E+01 0.  0.
         -4    1    1    2    0  502 -0.32848949476E+02 -0.11604350019E+02  0.26334673743E+02  0.43690300551E+02  0.12700000000E+01 0.  1.
<mgrwt>
<rscale>  1 0.12976517E+03</rscale>
<asrwt>0</asrwt>
<pdfrwt beam="2">  1       21 0.73469154E-02 0.12976517E+03</pdfrwt>
<pdfrwt beam="1">  1       -4 0.21960365E-01 0.12976517E+03</pdfrwt>
<totfact> 0.10580340E+05</totfact>
</mgrwt>
</event>
<event>
 6    4  0.6093247E-003  0.1283694E+03  0.7818608E-02  0.1229896E+00
         21   -1    0    0  501  502  0.00000000000E+00  0.00000000000E+00  0.59052900368E+03  0.59052900368E+03  0.00000000000E+00 0. -1.
         -4   -1    0    0    0  501 -0.00000000000E+00 -0.00000000000E+00 -0.15188255449E+02  0.15241259909E+02  0.12700000000E+01 0.  1.
         25    2    1    2    0    0 -0.28507990095E+02 -0.64240059098E+01  0.26925481904E+03  0.29828988649E+03  0.12499890182E+03 0.  0.
    9000005    1    3    3    0    0 -0.66743552402E+02 -0.28598271563E+02  0.22200926530E+03  0.23358441045E+03  0.10000000000E+01 0.  0.
    9000005    1    3    3    0    0  0.38235562307E+02  0.22174265654E+02  0.47245553737E+02  0.64705476045E+02  0.10000000000E+01 0.  0.
         -4    1    1    2    0  502  0.28507990095E+02  0.64240059098E+01  0.30608592919E+03  0.30748037710E+03  0.12700000000E+01 0. -1.
<mgrwt>
<rscale>  1 0.12836938E+03</rscale>
<asrwt>0</asrwt>
<pdfrwt beam="1">  1       21 0.90850598E-01 0.12836938E+03</pdfrwt>
<pdfrwt beam="2">  1       -4 0.23408375E-02 0.12836938E+03</pdfrwt>
<totfact> 0.33428619E+04</totfact>
</mgrwt>
</event>
<event>
 6    4  0.6093247E-003  0.1301417E+03  0.7818608E-02  0.1227246E+00
         21   -1    0    0  501  502  0.00000000000E+00  0.00000000000E+00  0.24036523113E+02  0.24036523113E+02  0.00000000000E+00 0. -1.
          4   -1    0    0  502    0 -0.00000000000E+00 -0.00000000000E+00 -0.96151915518E+03  0.96151999390E+03  0.12700000000E+01 0.  1.
         25    2    1    2    0    0 -0.36127263561E+02  0.26837053587E+01 -0.94023887171E+03  0.94920282114E+03  0.12499791329E+03 0.  0.
    9000005    1    3    3    0    0  0.43113042791E+02 -0.17532227163E+02 -0.42043935284E+03  0.42300870306E+03  0.10000000000E+01 0.  0.
    9000005    1    3    3    0    0 -0.79240306352E+02  0.20215932522E+02 -0.51979951887E+03  0.52619411808E+03  0.10000000000E+01 0.  0.
          4    1    1    2  501    0  0.36127263561E+02 -0.26837053587E+01  0.27562396495E+01  0.36353695876E+02  0.12700000000E+01 0. -1.
<mgrwt>
<rscale>  1 0.13014169E+03</rscale>
<asrwt>0</asrwt>
<pdfrwt beam="1">  1       21 0.36979264E-02 0.13014169E+03</pdfrwt>
<pdfrwt beam="2">  1        4 0.14792868E+00 0.13014169E+03</pdfrwt>
<totfact> 0.60281195E+03</totfact>
</mgrwt>
</event>
<event>
 6    4  0.6093247E-003  0.1361909E+03  0.7818608E-02  0.1218548E+00
         21   -1    0    0  501  502  0.00000000000E+00  0.00000000000E+00  0.39168798599E+03  0.39168798599E+03  0.00000000000E+00 0.  1.
         -4   -1    0    0    0  501 -0.00000000000E+00 -0.00000000000E+00 -0.28818137007E+02  0.28846107546E+02  0.12700000000E+01 0.  1.
         25    2    1    2    0    0 -0.50559546650E+02 -0.19156726829E+02  0.15775732277E+03  0.20841146568E+03  0.12499887279E+03 0.  0.
    9000005    1    3    3    0    0 -0.35724175424E+02 -0.20953973090E+02  0.17826575994E+03  0.18301630219E+03  0.10000000000E+01 0.  0.
    9000005    1    3    3    0    0 -0.14835371225E+02  0.17972462610E+01 -0.20508437172E+02  0.25395163492E+02  0.10000000000E+01 0.  0.
         -4    1    1    2    0  502  0.50559546650E+02  0.19156726829E+02  0.20511252621E+03  0.21212262785E+03  0.12700000000E+01 0. -1.
<mgrwt>
<rscale>  1 0.13619092E+03</rscale>
<asrwt>0</asrwt>
<pdfrwt beam="1">  1       21 0.60259686E-01 0.13619092E+03</pdfrwt>
<pdfrwt beam="2">  1       -4 0.44358698E-02 0.13619092E+03</pdfrwt>
<totfact> 0.30446698E+04</totfact>
</mgrwt>
</event>
<event>
 6    4  0.6093247E-003  0.2397625E+03  0.7818608E-02  0.1119951E+00
         21   -1    0    0  501  502  0.00000000000E+00  0.00000000000E+00  0.36813503565E+03  0.36813503565E+03  0.00000000000E+00 0. -1.
          4   -1    0    0  502    0 -0.00000000000E+00 -0.00000000000E+00 -0.42826078584E+03  0.42826266892E+03  0.12700000000E+01 0.  1.
         25    2    1    2    0    0  0.12737073116E+01  0.20459533300E+03 -0.36050544792E+03  0.43295520798E+03  0.12500064609E+03 0.  0.
    9000005    1    3    3    0    0  0.20578354655E+02  0.59438878703E+01 -0.11292290639E+03  0.11494077288E+03  0.10000000000E+01 0.  0.
    9000005    1    3    3    0    0 -0.19304647344E+02  0.19865144513E+03 -0.24758254153E+03  0.31801443510E+03  0.10000000000E+01 0.  0.
          4    1    1    2  501    0 -0.12737073116E+01 -0.20459533300E+03  0.30037969773E+03  0.36344249658E+03  0.12700000000E+01 0. -1.
<mgrwt>
<rscale>  1 0.23976245E+03</rscale>
<asrwt>0</asrwt>
<pdfrwt beam="1">  1       21 0.56636159E-01 0.23976245E+03</pdfrwt>
<pdfrwt beam="2">  1        4 0.65886588E-01 0.23976245E+03</pdfrwt>
<totfact> 0.26609413E+02</totfact>
</mgrwt>
</event>
<event>
 6    4  0.6093247E-003  0.1266924E+03  0.7818608E-02  0.1232448E+00
         21   -1    0    0  501  502  0.00000000000E+00  0.00000000000E+00  0.25751424840E+02  0.25751424840E+02  0.00000000000E+00 0. -1.
         -4   -1    0    0    0  501 -0.00000000000E+00 -0.00000000000E+00 -0.82092074671E+03  0.82092172908E+03  0.12700000000E+01 0.  1.
         25    2    1    2    0    0  0.63337425926E+01 -0.19608426903E+02 -0.81088782504E+03  0.82072530348E+03  0.12500540900E+03 0.  0.
    9000005    1    3    3    0    0  0.27666527007E+00  0.30686278366E+02 -0.67501032931E+03  0.67570827203E+03  0.10000000000E+01 0.  0.
    9000005    1    3    3    0    0  0.60570773225E+01 -0.50294705270E+02 -0.13587749573E+03  0.14501703145E+03  0.10000000000E+01 0.  0.
         -4    1    1    2    0  502 -0.63337425926E+01  0.19608426903E+02  0.15718503165E+02  0.25947850443E+02  0.12700000000E+01 0. -1.
<mgrwt>
<rscale>  1 0.12669238E+03</rscale>
<asrwt>0</asrwt>
<pdfrwt beam="1">  1       21 0.39617570E-02 0.12669238E+03</pdfrwt>
<pdfrwt beam="2">  1       -4 0.12629801E+00 0.12669238E+03</pdfrwt>
<totfact> 0.79378582E+03</totfact>
</mgrwt>
</event>
<event>
 6    4  0.6093247E-003  0.1330747E+03  0.7818608E-02  0.1222964E+00
         21   -1    0    0  501  502  0.00000000000E+00  0.00000000000E+00  0.79949909837E+02  0.79949909837E+02  0.00000000000E+00 0.  1.
         -4   -1    0    0    0  501 -0.00000000000E+00 -0.00000000000E+00 -0.13947120924E+03  0.13947699132E+03  0.12700000000E+01 0.  1.
         25    2    1    2    0    0 -0.45045938933E+02 -0.72764207398E+01  0.13028885433E+02  0.13371094504E+03  0.12500712801E+03 0.  0.
    9000005    1    3    3    0    0 -0.10469195125E+02  0.44825976047E+02  0.44207641864E+02  0.63830147848E+02  0.10000000000E+01 0.  0.
    9000005    1    3    3    0    0 -0.34576743809E+02 -0.52102396787E+02 -0.31178756431E+02  0.69880797190E+02  0.10000000000E+01 0.  0.
         -4    1    1    2    0  502  0.45045938933E+02  0.72764207398E+01 -0.72550184836E+02  0.85715956116E+02  0.12700000000E+01 0. -1.
<mgrwt>
<rscale>  1 0.13307466E+03</rscale>
<asrwt>0</asrwt>
<pdfrwt beam="1">  1       21 0.12299986E-01 0.13307466E+03</pdfrwt>
<pdfrwt beam="2">  1       -4 0.21458330E-01 0.13307466E+03</pdfrwt>
<totfact> 0.45052970E+04</totfact>
</mgrwt>
</event>
<event>
 6    4  0.6093247E-003  0.1311771E+03  0.7818608E-02  0.1225719E+00
         21   -1    0    0  501  502  0.00000000000E+00  0.00000000000E+00  0.24514081512E+02  0.24514081512E+02  0.00000000000E+00 0. -1.
         -4   -1    0    0    0  501 -0.00000000000E+00 -0.00000000000E+00 -0.30511957054E+03  0.30512221359E+03  0.12700000000E+01 0.  1.
         25    2    1    2    0    0 -0.19373982752E+02  0.34731387480E+02 -0.23483217723E+03  0.26898623775E+03  0.12500329656E+03 0.  0.
    9000005    1    3    3    0    0 -0.43009276864E+02 -0.35230638106E+02 -0.12278202976E+03  0.13478658164E+03  0.10000000000E+01 0.  0.
    9000005    1    3    3    0    0  0.23635294111E+02  0.69962025586E+02 -0.11205014747E+03  0.13419965611E+03  0.10000000000E+01 0.  0.
         -4    1    1    2    0  502  0.19373982752E+02 -0.34731387480E+02 -0.45773311789E+02  0.60650057347E+02  0.12700000000E+01 0. -1.
<mgrwt>
<rscale>  1 0.13117715E+03</rscale>
<asrwt>0</asrwt>
<pdfrwt beam="1">  1       21 0.37713973E-02 0.13117715E+03</pdfrwt>
<pdfrwt beam="2">  1       -4 0.46944205E-01 0.13117715E+03</pdfrwt>
<totfact> 0.76449575E+04</totfact>
</mgrwt>
</event>
<event>
 6    4  0.6093247E-003  0.1378112E+03  0.7818608E-02  0.1216305E+00
          4   -1    0    0  502    0 -0.00000000000E+00  0.00000000000E+00  0.48955758505E+02  0.48972228771E+02  0.12700000000E+01 0. -1.
         21   -1    0    0  501  502  0.00000000000E+00 -0.00000000000E+00 -0.21056301072E+03  0.21056301072E+03  0.00000000000E+00 0.  1.
         25    2    1    2    0    0  0.27191838652E+02  0.51255073428E+02 -0.79847700286E+02  0.15927200659E+03  0.12500175279E+03 0.  0.
    9000005    1    3    3    0    0  0.17072990961E+02 -0.40822401857E+02 -0.17428703593E+02  0.47568006292E+02  0.10000000000E+01 0.  0.
    9000005    1    3    3    0    0  0.10118847691E+02  0.92077475284E+02 -0.62418996693E+02  0.11170400029E+03  0.10000000000E+01 0.  0.
          4    1    1    2  501    0 -0.27191838652E+02 -0.51255073428E+02 -0.81759551934E+02  0.10026323291E+03  0.12700000000E+01 0.  1.
<mgrwt>
<rscale>  1 0.13781116E+03</rscale>
<asrwt>0</asrwt>
<pdfrwt beam="2">  1       21 0.32394310E-01 0.13781116E+03</pdfrwt>
<pdfrwt beam="1">  1        4 0.75332166E-02 0.13781116E+03</pdfrwt>
<totfact> 0.45583059E+04</totfact>
</mgrwt>
</event>
<event>
 6    4  0.6093247E-003  0.1318826E+03  0.7818608E-02  0.1224689E+00
          4   -1    0    0  502    0 -0.00000000000E+00  0.00000000000E+00  0.27549620473E+03  0.27549913198E+03  0.12700000000E+01 0.  1.
         21   -1    0    0  501  502  0.00000000000E+00 -0.00000000000E+00 -0.61260969570E+02  0.61260969570E+02  0.00000000000E+00 0. -1.
         25    2    1    2    0    0 -0.26810629591E+02  0.32395473277E+02  0.24927276060E+03  0.28201051127E+03  0.12499897096E+03 0.  0.
    9000005    1    3    3    0    0 -0.61701896901E+02 -0.17119528952E+02  0.81601662418E+02  0.10373058210E+03  0.10000000000E+01 0.  0.
    9000005    1    3    3    0    0  0.34891267309E+02  0.49515002229E+02  0.16767109818E+03  0.17827992917E+03  0.10000000000E+01 0.  0.
          4    1    1    2  501    0  0.26810629591E+02 -0.32395473277E+02 -0.35037525433E+02  0.54749590285E+02  0.12700000000E+01 0. -1.
<mgrwt>
<rscale>  1 0.13188260E+03</rscale>
<asrwt>0</asrwt>
<pdfrwt beam="2">  1       21 0.94247647E-02 0.13188260E+03</pdfrwt>
<pdfrwt beam="1">  1        4 0.42385268E-01 0.13188260E+03</pdfrwt>
<totfact> 0.19824472E+04</totfact>
</mgrwt>
</event>
<event>
 6    4  0.6093247E-003  0.1268156E+03  0.7818608E-02  0.1232259E+00
          4   -1    0    0  502    0 -0.00000000000E+00  0.00000000000E+00  0.51468285016E+01  0.53012020925E+01  0.12700000000E+01 0.  1.
         21   -1    0    0  501  502  0.00000000000E+00 -0.00000000000E+00 -0.20596260817E+04  0.20596260817E+04  0.00000000000E+00 0.  1.
         25    2    1    2    0    0 -0.16422311331E+02  0.13467499158E+02 -0.77777702829E+03  0.78804778680E+03  0.12502456842E+03 0.  0.
    9000005    1    3    3    0    0 -0.32638144610E+02  0.56177424001E+02 -0.63063142412E+03  0.63397014483E+03  0.10000000000E+01 0.  0.
    9000005    1    3    3    0    0  0.16215833280E+02 -0.42709924843E+02 -0.14714560417E+03  0.15407764197E+03  0.10000000000E+01 0.  0.
          4    1    1    2  501    0  0.16422311331E+02 -0.13467499158E+02 -0.12767022249E+04  0.12768794970E+04  0.12700000000E+01 0. -1.
<mgrwt>
<rscale>  1 0.12681565E+03</rscale>
<asrwt>0</asrwt>
<pdfrwt beam="2">  1       21 0.31686513E+00 0.12681565E+03</pdfrwt>
<pdfrwt beam="1">  1        4 0.80372584E-03 0.12681565E+03</pdfrwt>
<totfact> 0.48343182E+03</totfact>
</mgrwt>
</event>
<event>
 6    4  0.6093247E-003  0.1361118E+03  0.7818608E-02  0.1218659E+00
         21   -1    0    0  501  502  0.00000000000E+00  0.00000000000E+00  0.18878612357E+04  0.18878612357E+04  0.00000000000E+00 0.  1.
         -4   -1    0    0    0  501 -0.00000000000E+00 -0.00000000000E+00 -0.87644864032E+01  0.88560217881E+01  0.12700000000E+01 0. -1.
         25    2    1    2    0    0  0.29641457292E+02 -0.44983180045E+02  0.55223433372E+03  0.56876108907E+03  0.12499725845E+03 0.  0.
    9000005    1    3    3    0    0  0.21143766147E+02 -0.20720271771E+02  0.53902961044E+03  0.53984285624E+03  0.10000000000E+01 0.  0.
    9000005    1    3    3    0    0  0.84976911444E+01 -0.24262908274E+02  0.13204723285E+02  0.28918232825E+02  0.10000000000E+01 0.  0.
         -4    1    1    2    0  502 -0.29641457292E+02  0.44983180045E+02  0.13268624155E+04  0.13279561684E+04  0.12700000000E+01 0.  1.
<mgrwt>
<rscale>  1 0.13611178E+03</rscale>
<asrwt>0</asrwt>
<pdfrwt beam="1">  1       21 0.29043987E+00 0.13611178E+03</pdfrwt>
<pdfrwt beam="2">  1       -4 0.13554581E-02 0.13611178E+03</pdfrwt>
<totfact> 0.30862888E+03</totfact>
</mgrwt>
</event>
<event>
 6    4  0.6093247E-003  0.1273956E+03  0.7818608E-02  0.1231372E+00
         21   -1    0    0  501  502  0.00000000000E+00  0.00000000000E+00  0.26011316988E+02  0.26011316988E+02  0.00000000000E+00 0.  1.
         -4   -1    0    0    0  501 -0.00000000000E+00 -0.00000000000E+00 -0.32332390019E+03  0.32332639443E+03  0.12700000000E+01 0.  1.
         25    2    1    2    0    0  0.24586042236E+02 -0.19227066357E+00 -0.29864498285E+03  0.32468211104E+03  0.12500054804E+03 0.  0.
    9000005    1    3    3    0    0 -0.31366776837E+02  0.42473925063E+02 -0.17043398378E+03  0.17842828203E+03  0.10000000000E+01 0.  0.
    9000005    1    3    3    0    0  0.55952819072E+02 -0.42666195727E+02 -0.12821099907E+03  0.14625382902E+03  0.10000000000E+01 0.  0.
         -4    1    1    2    0  502 -0.24586042236E+02  0.19227066357E+00  0.13323996489E+01  0.24655600371E+02  0.12700000000E+01 0. -1.
<mgrwt>
<rscale>  1 0.12739563E+03</rscale>
<asrwt>0</asrwt>
<pdfrwt beam="1">  1       21 0.40017411E-02 0.12739563E+03</pdfrwt>
<pdfrwt beam="2">  1       -4 0.49744715E-01 0.12739563E+03</pdfrwt>
<totfact> 0.61368306E+04</totfact>
</mgrwt>
</event>
<event>
 6    4  0.6093247E-003  0.1273740E+03  0.7818608E-02  0.1231405E+00
         21   -1    0    0  501  502  0.00000000000E+00  0.00000000000E+00  0.45212605026E+02  0.45212605026E+02  0.00000000000E+00 0. -1.
         -4   -1    0    0    0  501 -0.00000000000E+00 -0.00000000000E+00 -0.14025106057E+03  0.14025681049E+03  0.12700000000E+01 0. -1.
         25    2    1    2    0    0  0.20838263069E+02  0.12852954336E+02 -0.98086984328E+02  0.16076439436E+03  0.12499880942E+03 0.  0.
    9000005    1    3    3    0    0  0.72410365893E+02  0.47681796604E+01 -0.72639532244E+02  0.10268153812E+03  0.10000000000E+01 0.  0.
    9000005    1    3    3    0    0 -0.51572102824E+02  0.80847746753E+01 -0.25447452084E+02  0.58082856238E+02  0.10000000000E+01 0.  0.
         -4    1    1    2    0  502 -0.20838263069E+02 -0.12852954336E+02  0.30485287877E+01  0.24705021163E+02  0.12700000000E+01 0.  1.
<mgrwt>
<rscale>  1 0.12737399E+03</rscale>
<asrwt>0</asrwt>
<pdfrwt beam="1">  1       21 0.69557854E-02 0.12737399E+03</pdfrwt>
<pdfrwt beam="2">  1       -4 0.21578900E-01 0.12737399E+03</pdfrwt>
<totfact> 0.11961862E+05</totfact>
</mgrwt>
</event>
<event>
 6    4  0.6093247E-003  0.1271567E+03  0.7818608E-02  0.1231737E+00
         21   -1    0    0  501  502  0.00000000000E+00  0.00000000000E+00  0.86973124962E+02  0.86973124962E+02  0.00000000000E+00 0. -1.
          4   -1    0    0  502    0 -0.00000000000E+00 -0.00000000000E+00 -0.69868454263E+02  0.69879995714E+02  0.12700000000E+01 0.  1.
         25    2    1    2    0    0  0.88750010638E+01  0.21550726032E+02 -0.12447313107E+01  0.12716283791E+03  0.12500255419E+03 0.  0.
    9000005    1    3    3    0    0 -0.31829161744E+02 -0.34466136825E+02 -0.25967063567E+02  0.53631133824E+02  0.10000000000E+01 0.  0.
    9000005    1    3    3    0    0  0.40704162808E+02  0.56016862857E+02  0.24722332256E+02  0.73531704090E+02  0.10000000000E+01 0.  0.
          4    1    1    2  501    0 -0.88750010638E+01 -0.21550726032E+02  0.18349402010E+02  0.29690282763E+02  0.12700000000E+01 0. -1.
<mgrwt>
<rscale>  1 0.12715675E+03</rscale>
<asrwt>0</asrwt>
<pdfrwt beam="1">  1       21 0.13380481E-01 0.12715675E+03</pdfrwt>
<pdfrwt beam="2">  1        4 0.10750594E-01 0.12715675E+03</pdfrwt>
<totfact> 0.12905274E+05</totfact>
</mgrwt>
</event>
<event>
 6    4  0.6093247E-003  0.1361093E+03  0.7818608E-02  0.1218662E+00
         -4   -1    0    0    0  501 -0.00000000000E+00  0.00000000000E+00  0.24842930588E+02  0.24875371358E+02  0.12700000000E+01 0. -1.
         21   -1    0    0  501  502  0.00000000000E+00 -0.00000000000E+00 -0.36969831368E+03  0.36969831368E+03  0.00000000000E+00 0.  1.
         25    2    1    2    0    0  0.31180512134E+02 -0.43915411070E+02 -0.22165345277E+03  0.26010764397E+03  0.12499978263E+03 0.  0.
    9000005    1    3    3    0    0 -0.65516653871E+01 -0.80013499353E+02 -0.16212019827E+03  0.18091169969E+03  0.10000000000E+01 0.  0.
    9000005    1    3    3    0    0  0.37732177522E+02  0.36098088283E+02 -0.59533254502E+02  0.79195944276E+02  0.10000000000E+01 0.  0.
         -4    1    1    2    0  502 -0.31180512134E+02  0.43915411070E+02 -0.12320193032E+03  0.13446604107E+03  0.12700000000E+01 0.  1.
<mgrwt>
<rscale>  1 0.13610927E+03</rscale>
<asrwt>0</asrwt>
<pdfrwt beam="2">  1       21 0.56876663E-01 0.13610927E+03</pdfrwt>
<pdfrwt beam="1">  1       -4 0.38246526E-02 0.13610927E+03</pdfrwt>
<totfact> 0.43561575E+04</totfact>
</mgrwt>
</event>
<event>
 6    4  0.6093247E-003  0.1397706E+03  0.7818608E-02  0.1213638E+00
          4   -1    0    0  502    0 -0.00000000000E+00  0.00000000000E+00  0.53350429390E+03  0.53350580550E+03  0.12700000000E+01 0.  1.
         21   -1    0    0  501  502  0.00000000000E+00 -0.00000000000E+00 -0.55123335089E+02  0.55123335089E+02  0.00000000000E+00 0. -1.
         25    2    1    2    0    0 -0.44651716796E+02  0.43785745455E+02  0.50250982994E+03  0.52158600045E+03  0.12499943743E+03 0.  0.
    9000005    1    3    3    0    0 -0.44401070858E+02  0.64872336913E+02  0.49155284201E+03  0.49780023270E+03  0.10000000000E+01 0.  0.
    9000005    1    3    3    0    0 -0.25064593829E+00 -0.21086591459E+02  0.10956987933E+02  0.23785767747E+02  0.10000000000E+01 0.  0.
          4    1    1    2  501    0  0.44651716796E+02 -0.43785745455E+02 -0.24128871137E+02  0.67043140143E+02  0.12700000000E+01 0. -1.
<mgrwt>
<rscale>  1 0.13977062E+03</rscale>
<asrwt>0</asrwt>
<pdfrwt beam="2">  1       21 0.84805135E-02 0.13977062E+03</pdfrwt>
<pdfrwt beam="1">  1        4 0.82078822E-01 0.13977062E+03</pdfrwt>
<totfact> 0.59879792E+03</totfact>
</mgrwt>
</event>
<event>
 6    4  0.6093247E-003  0.1383547E+03  0.7818608E-02  0.1215560E+00
         21   -1    0    0  501  502  0.00000000000E+00  0.00000000000E+00  0.49082647915E+02  0.49082647915E+02  0.00000000000E+00 0. -1.
         -4   -1    0    0    0  501 -0.00000000000E+00 -0.00000000000E+00 -0.32638104316E+03  0.32638351404E+03  0.12700000000E+01 0.  1.
         25    2    1    2    0    0  0.55431329953E+02 -0.21061681300E+02 -0.28387042854E+03  0.31579178486E+03  0.12500321768E+03 0.  0.
    9000005    1    3    3    0    0  0.92809223910E+02  0.46143059360E+01 -0.18608882925E+03  0.20800215439E+03  0.10000000000E+01 0.  0.
    9000005    1    3    3    0    0 -0.37377893956E+02 -0.25675987236E+02 -0.97781599291E+02  0.10778963047E+03  0.10000000000E+01 0.  0.
         -4    1    1    2    0  502 -0.55431329953E+02  0.21061681300E+02  0.65720332890E+01  0.59674377091E+02  0.12700000000E+01 0. -1.
<mgrwt>
<rscale>  1 0.13835473E+03</rscale>
<asrwt>0</asrwt>
<pdfrwt beam="1">  1       21 0.75511765E-02 0.13835473E+03</pdfrwt>
<pdfrwt beam="2">  1       -4 0.50213923E-01 0.13835473E+03</pdfrwt>
<totfact> 0.20796976E+04</totfact>
</mgrwt>
</event>
<event>
 6    4  0.6093247E-003  0.1286140E+03  0.7818608E-02  0.1229527E+00
         -4   -1    0    0    0  501 -0.00000000000E+00  0.00000000000E+00  0.37855892232E+03  0.37856105263E+03  0.12700000000E+01 0.  1.
         21   -1    0    0  501  502  0.00000000000E+00 -0.00000000000E+00 -0.28257675230E+02  0.28257675230E+02  0.00000000000E+00 0.  1.
         25    2    1    2    0    0  0.24102775576E+02  0.18351185155E+02  0.35365297644E+03  0.37631369915E+03  0.12499545047E+03 0.  0.
    9000005    1    3    3    0    0  0.18337361682E-01  0.24605781149E+02  0.35032432956E+03  0.35118881059E+03  0.10000000000E+01 0.  0.
    9000005    1    3    3    0    0  0.24084438214E+02 -0.62545959945E+01  0.33286468800E+01  0.25124888561E+02  0.10000000000E+01 0.  0.
         -4    1    1    2    0  502 -0.24102775576E+02 -0.18351185155E+02 -0.33517293469E+01  0.30505028711E+02  0.12700000000E+01 0. -1.
<mgrwt>
<rscale>  1 0.12861404E+03</rscale>
<asrwt>0</asrwt>
<pdfrwt beam="2">  1       21 0.43473349E-02 0.12861404E+03</pdfrwt>
<pdfrwt beam="1">  1       -4 0.58242190E-01 0.12861404E+03</pdfrwt>
<totfact> 0.38688827E+04</totfact>
</mgrwt>
</event>
<event>
 6    4  0.6093247E-003  0.1294915E+03  0.7818608E-02  0.1228212E+00
          4   -1    0    0  502    0 -0.00000000000E+00  0.00000000000E+00  0.24183105352E+03  0.24183438826E+03  0.12700000000E+01 0. -1.
         21   -1    0    0  501  502  0.00000000000E+00 -0.00000000000E+00 -0.62365894569E+02  0.62365894569E+02  0.00000000000E+00 0.  1.
         25    2    1    2    0    0 -0.12918056688E+02 -0.31257432974E+02  0.21759831185E+03  0.25321348498E+03  0.12499656136E+03 0.  0.
    9000005    1    3    3    0    0  0.35059957560E+02 -0.47642969449E+02  0.18168721768E+03  0.19107668155E+03  0.10000000000E+01 0.  0.
    9000005    1    3    3    0    0 -0.47978014248E+02  0.16385536475E+02  0.35911094173E+02  0.62136803438E+02  0.10000000000E+01 0.  0.
          4    1    1    2  501    0  0.12918056688E+02  0.31257432974E+02 -0.38133152902E+02  0.50986797849E+02  0.12700000000E+01 0.  1.
<mgrwt>
<rscale>  1 0.12949148E+03</rscale>
<asrwt>0</asrwt>
<pdfrwt beam="2">  1       21 0.95947531E-02 0.12949148E+03</pdfrwt>
<pdfrwt beam="1">  1        4 0.37206028E-01 0.12949148E+03</pdfrwt>
<totfact> 0.24771416E+04</totfact>
</mgrwt>
</event>
<event>
 6    4  0.6093247E-003  0.1409705E+03  0.7818608E-02  0.1212029E+00
         -4   -1    0    0    0  501 -0.00000000000E+00  0.00000000000E+00  0.12032742808E+03  0.12033413002E+03  0.12700000000E+01 0.  1.
         21   -1    0    0  501  502  0.00000000000E+00 -0.00000000000E+00 -0.43737411614E+03  0.43737411614E+03  0.00000000000E+00 0. -1.
         25    2    1    2    0    0  0.29216629082E+02 -0.58257219772E+02  0.75411359577E+02  0.15987354792E+03  0.12500065240E+03 0.  0.
    9000005    1    3    3    0    0 -0.27661090693E+02 -0.69816363158E+02  0.68072699603E+02  0.10136248287E+03  0.10000000000E+01 0.  0.
    9000005    1    3    3    0    0  0.56877719775E+02  0.11559143386E+02  0.73386599744E+01  0.58511065046E+02  0.10000000000E+01 0.  0.
         -4    1    1    2    0  502 -0.29216629082E+02  0.58257219772E+02 -0.39245804764E+03  0.39783469824E+03  0.12700000000E+01 0. -1.
<mgrwt>
<rscale>  1 0.14097049E+03</rscale>
<asrwt>0</asrwt>
<pdfrwt beam="2">  1       21 0.67288325E-01 0.14097049E+03</pdfrwt>
<pdfrwt beam="1">  1       -4 0.18512570E-01 0.14097049E+03</pdfrwt>
<totfact> 0.21867920E+03</totfact>
</mgrwt>
</event>
<event>
 6    4  0.6093247E-003  0.1308709E+03  0.7818608E-02  0.1226169E+00
          4   -1    0    0  502    0 -0.00000000000E+00  0.00000000000E+00  0.22582646961E+02  0.22618329818E+02  0.12700000000E+01 0.  1.
         21   -1    0    0  501  502  0.00000000000E+00 -0.00000000000E+00 -0.53170075495E+03  0.53170075495E+03  0.00000000000E+00 0. -1.
         25    2    1    2    0    0  0.38749330232E+02 -0.86247148179E+00 -0.17797207654E+03  0.22091008445E+03  0.12499980373E+03 0.  0.
    9000005    1    3    3    0    0  0.24168224594E+02  0.59296329471E+02 -0.12038407610E+03  0.13635792440E+03  0.10000000000E+01 0.  0.
    9000005    1    3    3    0    0  0.14581105638E+02 -0.60158800953E+02 -0.57588000444E+02  0.84552160049E+02  0.10000000000E+01 0.  0.
          4    1    1    2  501    0 -0.38749330232E+02  0.86247148179E+00 -0.33114603145E+03  0.33340900032E+03  0.12700000000E+01 0. -1.
<mgrwt>
<rscale>  1 0.13087095E+03</rscale>
<asrwt>0</asrwt>
<pdfrwt beam="2">  1       21 0.81800114E-01 0.13087095E+03</pdfrwt>
<pdfrwt beam="1">  1        4 0.34771150E-02 0.13087095E+03</pdfrwt>
<totfact> 0.22899205E+04</totfact>
</mgrwt>
</event>
<event>
 6    4  0.6093247E-003  0.1269697E+03  0.7818608E-02  0.1232023E+00
          4   -1    0    0  502    0 -0.00000000000E+00  0.00000000000E+00  0.28050747170E+03  0.28051034666E+03  0.12700000000E+01 0.  1.
         21   -1    0    0  501  502  0.00000000000E+00 -0.00000000000E+00 -0.31677696808E+02  0.31677696808E+02  0.00000000000E+00 0. -1.
         25    2    1    2    0    0 -0.21537128164E+02 -0.57512563532E+01  0.25838919749E+03  0.28789976852E+03  0.12499749796E+03 0.  0.
    9000005    1    3    3    0    0  0.10485898911E+02 -0.47550169385E+02  0.39335105241E+02  0.62603699482E+02  0.10000000000E+01 0.  0.
    9000005    1    3    3    0    0 -0.32023027075E+02  0.41798913032E+02  0.21905409225E+03  0.22529606904E+03  0.10000000000E+01 0.  0.
          4    1    1    2  501    0  0.21537128164E+02  0.57512563532E+01 -0.95594225971E+01  0.24288274940E+02  0.12700000000E+01 0. -1.
<mgrwt>
<rscale>  1 0.12696968E+03</rscale>
<asrwt>0</asrwt>
<pdfrwt beam="2">  1       21 0.48734920E-02 0.12696968E+03</pdfrwt>
<pdfrwt beam="1">  1        4 0.43157173E-01 0.12696968E+03</pdfrwt>
<totfact> 0.58737422E+04</totfact>
</mgrwt>
</event>
<event>
 6    4  0.6093247E-003  0.1366909E+03  0.7818608E-02  0.1217852E+00
         -4   -1    0    0    0  501 -0.00000000000E+00  0.00000000000E+00  0.15858458341E+02  0.15909230055E+02  0.12700000000E+01 0. -1.
         21   -1    0    0  501  502  0.00000000000E+00 -0.00000000000E+00 -0.78820339166E+03  0.78820339166E+03  0.00000000000E+00 0.  1.
         25    2    1    2    0    0  0.54175010383E+02 -0.11630269093E+02 -0.31444074380E+03  0.34286642434E+03  0.12495682723E+03 0.  0.
    9000005    1    3    3    0    0  0.52644913264E+02 -0.27542675447E+02 -0.49213647065E+02  0.77156133397E+02  0.10000000000E+01 0.  0.
    9000005    1    3    3    0    0  0.15300971189E+01  0.15912406354E+02 -0.26522709673E+03  0.26571029094E+03  0.10000000000E+01 0.  0.
         -4    1    1    2    0  502 -0.54175010383E+02  0.11630269093E+02 -0.45790418952E+03  0.46124619737E+03  0.12700000000E+01 0.  1.
<mgrwt>
<rscale>  1 0.13669091E+03</rscale>
<asrwt>0</asrwt>
<pdfrwt beam="2">  1       21 0.12126208E+00 0.13669091E+03</pdfrwt>
<pdfrwt beam="1">  1       -4 0.24437467E-02 0.13669091E+03</pdfrwt>
<totfact> 0.15860804E+04</totfact>
</mgrwt>
</event>
<event>
 6    4  0.6093247E-003  0.1296832E+03  0.7818608E-02  0.1227927E+00
          4   -1    0    0  502    0 -0.00000000000E+00  0.00000000000E+00  0.53896199157E+03  0.53896348787E+03  0.12700000000E+01 0.  1.
         21   -1    0    0  501  502  0.00000000000E+00 -0.00000000000E+00 -0.38629490498E+02  0.38629490498E+02  0.00000000000E+00 0. -1.
         25    2    1    2    0    0  0.47820290467E+00  0.34531620560E+02  0.52128849482E+03  0.53717728747E+03  0.12500032737E+03 0.  0.
    9000005    1    3    3    0    0 -0.20321339370E+02  0.80220798315E+01  0.87888900745E+01  0.23570218229E+02  0.10000000000E+01 0.  0.
    9000005    1    3    3    0    0  0.20799542275E+02  0.26509540728E+02  0.51249960475E+03  0.51360706924E+03  0.10000000000E+01 0.  0.
          4    1    1    2  501    0 -0.47820290467E+00 -0.34531620560E+02 -0.20955993751E+02  0.40415690896E+02  0.12700000000E+01 0. -1.
<mgrwt>
<rscale>  1 0.12968324E+03</rscale>
<asrwt>0</asrwt>
<pdfrwt beam="2">  1       21 0.59429989E-02 0.12968324E+03</pdfrwt>
<pdfrwt beam="1">  1        4 0.82918945E-01 0.12968324E+03</pdfrwt>
<totfact> 0.10699653E+04</totfact>
</mgrwt>
</event>
<event>
 6    4  0.6093247E-003  0.1416291E+03  0.7818608E-02  0.1211154E+00
          4   -1    0    0  502    0 -0.00000000000E+00  0.00000000000E+00  0.22389081433E+02  0.22425072295E+02  0.12700000000E+01 0.  1.
         21   -1    0    0  501  502  0.00000000000E+00 -0.00000000000E+00 -0.60982501278E+03  0.60982501278E+03  0.00000000000E+00 0.  1.
         25    2    1    2    0    0 -0.47053250455E+02  0.47109686127E+02 -0.24153138417E+03  0.27999321919E+03  0.12500184938E+03 0.  0.
    9000005    1    3    3    0    0 -0.88410954561E+02  0.37550294121E+02 -0.19246989519E+03  0.21510969767E+03  0.10000000000E+01 0.  0.
    9000005    1    3    3    0    0  0.41357704106E+02  0.95593920056E+01 -0.49061488977E+02  0.64883521522E+02  0.10000000000E+01 0.  0.
          4    1    1    2  501    0  0.47053250455E+02 -0.47109686127E+02 -0.34590454718E+03  0.35225686589E+03  0.12700000000E+01 0. -1.
<mgrwt>
<rscale>  1 0.14162907E+03</rscale>
<asrwt>0</asrwt>
<pdfrwt beam="2">  1       21 0.93819218E-01 0.14162907E+03</pdfrwt>
<pdfrwt beam="1">  1        4 0.34473449E-02 0.14162907E+03</pdfrwt>
<totfact> 0.17089030E+04</totfact>
</mgrwt>
</event>
<event>
 6    4  0.6093247E-003  0.1270780E+03  0.7818608E-02  0.1231857E+00
          4   -1    0    0  502    0 -0.00000000000E+00  0.00000000000E+00  0.34124470600E+03  0.34124706926E+03  0.12700000000E+01 0.  1.
         21   -1    0    0  501  502  0.00000000000E+00 -0.00000000000E+00 -0.64555108235E+02  0.64555108235E+02  0.00000000000E+00 0. -1.
         25    2    1    2    0    0  0.10543900117E+02 -0.20318269142E+02  0.32683155186E+03  0.35066748468E+03  0.12499926252E+03 0.  0.
    9000005    1    3    3    0    0  0.48291078666E+01 -0.50239513104E+02  0.31326441922E+03  0.31730572845E+03  0.10000000000E+01 0.  0.
    9000005    1    3    3    0    0  0.57147922503E+01  0.29921243962E+02  0.13567132645E+02  0.33361756232E+02  0.10000000000E+01 0.  0.
          4    1    1    2  501    0 -0.10543900117E+02  0.20318269142E+02 -0.50141954094E+02  0.55134692808E+02  0.12700000000E+01 0. -1.
<mgrwt>
<rscale>  1 0.12707801E+03</rscale>
<asrwt>0</asrwt>
<pdfrwt beam="2">  1       21 0.99315553E-02 0.12707801E+03</pdfrwt>
<pdfrwt beam="1">  1        4 0.52500327E-01 0.12707801E+03</pdfrwt>
<totfact> 0.11705859E+04</totfact>
</mgrwt>
</event>
<event>
 6    4  0.6093247E-003  0.1282467E+03  0.7818608E-02  0.1230081E+00
         21   -1    0    0  501  502  0.00000000000E+00  0.00000000000E+00  0.84547774853E+02  0.84547774853E+02  0.00000000000E+00 0.  1.
         -4   -1    0    0    0  501 -0.00000000000E+00 -0.00000000000E+00 -0.10750465796E+03  0.10751215924E+03  0.12700000000E+01 0. -1.
         25    2    1    2    0    0  0.53217575883E+01 -0.28179537597E+02 -0.62924344857E+02  0.14285202475E+03  0.12499928142E+03 0.  0.
    9000005    1    3    3    0    0  0.89673484861E+01 -0.61826899202E+02  0.92189697034E+01  0.63158278999E+02  0.10000000000E+01 0.  0.
    9000005    1    3    3    0    0 -0.36455908978E+01  0.33647361605E+02 -0.72143314560E+02  0.79693745750E+02  0.10000000000E+01 0.  0.
         -4    1    1    2    0  502 -0.53217575883E+01  0.28179537597E+02  0.39967461748E+02  0.49207909339E+02  0.12700000000E+01 0.  1.
<mgrwt>
<rscale>  1 0.12824675E+03</rscale>
<asrwt>0</asrwt>
<pdfrwt beam="1">  1       21 0.13007350E-01 0.12824675E+03</pdfrwt>
<pdfrwt beam="2">  1       -4 0.16540489E-01 0.12824675E+03</pdfrwt>
<totfact> 0.64622798E+04</totfact>
</mgrwt>
</event>
<event>
 6    4  0.6093247E-003  0.1270379E+03  0.7818608E-02  0.1231918E+00
         -4   -1    0    0    0  501 -0.00000000000E+00  0.00000000000E+00  0.45576971696E+03  0.45577148638E+03  0.12700000000E+01 0.  1.
         21   -1    0    0  501  502  0.00000000000E+00 -0.00000000000E+00 -0.19924830576E+03  0.19924830576E+03  0.00000000000E+00 0. -1.
         25    2    1    2    0    0  0.22532907992E+02  0.25312429051E+01  0.44622778769E+03  0.46395890836E+03  0.12499796402E+03 0.  0.
    9000005    1    3    3    0    0  0.42803624283E+02 -0.29379778207E+02  0.40379144030E+03  0.40711650529E+03  0.10000000000E+01 0.  0.
    9000005    1    3    3    0    0 -0.20270716291E+02  0.31911021112E+02  0.42436347384E+02  0.56842403069E+02  0.10000000000E+01 0.  0.
         -4    1    1    2    0  502 -0.22532907992E+02 -0.25312429051E+01 -0.18970637648E+03  0.19106088378E+03  0.12700000000E+01 0. -1.
<mgrwt>
<rscale>  1 0.12703791E+03</rscale>
<asrwt>0</asrwt>
<pdfrwt beam="2">  1       21 0.30653586E-01 0.12703791E+03</pdfrwt>
<pdfrwt beam="1">  1       -4 0.70118865E-01 0.12703791E+03</pdfrwt>
<totfact> 0.81008999E+02</totfact>
</mgrwt>
</event>
<event>
 6    4  0.6093247E-003  0.1303520E+03  0.7818608E-02  0.1226934E+00
         21   -1    0    0  501  502  0.00000000000E+00  0.00000000000E+00  0.99957723061E+02  0.99957723061E+02  0.00000000000E+00 0. -1.
          4   -1    0    0  502    0 -0.00000000000E+00 -0.00000000000E+00 -0.81672975459E+02  0.81682848998E+02  0.12700000000E+01 0. -1.
         25    2    1    2    0    0 -0.15281503341E+02  0.33673841972E+02 -0.15833985576E+02  0.13131013563E+03  0.12499673853E+03 0.  0.
    9000005    1    3    3    0    0  0.53747260661E+02  0.28466798280E+02 -0.11784761225E+02  0.61959722643E+02  0.10000000000E+01 0.  0.
    9000005    1    3    3    0    0 -0.69028764002E+02  0.52070436915E+01 -0.40492243505E+01  0.69350412987E+02  0.10000000000E+01 0.  0.
          4    1    1    2  501    0  0.15281503341E+02 -0.33673841972E+02  0.34118733177E+02  0.50330436429E+02  0.12700000000E+01 0.  1.
<mgrwt>
<rscale>  1 0.13035197E+03</rscale>
<asrwt>0</asrwt>
<pdfrwt beam="1">  1       21 0.15378111E-01 0.13035197E+03</pdfrwt>
<pdfrwt beam="2">  1        4 0.12566453E-01 0.13035197E+03</pdfrwt>
<totfact> 0.77308742E+04</totfact>
</mgrwt>
</event>
<event>
 6    4  0.6093247E-003  0.1285470E+03  0.7818608E-02  0.1229628E+00
         -4   -1    0    0    0  501 -0.00000000000E+00  0.00000000000E+00  0.13755707358E+04  0.13755713221E+04  0.12700000000E+01 0.  1.
         21   -1    0    0  501  502  0.00000000000E+00 -0.00000000000E+00 -0.48690406613E+01  0.48690406613E+01  0.00000000000E+00 0.  1.
         25    2    1    2    0    0  0.22482772722E+02  0.19723007508E+02  0.12229078653E+04  0.12296454651E+04  0.12501940201E+03 0.  0.
    9000005    1    3    3    0    0  0.16871631843E+02  0.71068907205E+02  0.56318762249E+03  0.56790557283E+03  0.10000000000E+01 0.  0.
    9000005    1    3    3    0    0  0.56111408794E+01 -0.51345899697E+02  0.65972024280E+03  0.66173989231E+03  0.10000000000E+01 0.  0.
         -4    1    1    2    0  502 -0.22482772722E+02 -0.19723007508E+02  0.14779382988E+03  0.15079489761E+03  0.12700000000E+01 0. -1.
<mgrwt>
<rscale>  1 0.12854697E+03</rscale>
<asrwt>0</asrwt>
<pdfrwt beam="2">  1       21 0.74908427E-03 0.12854697E+03</pdfrwt>
<pdfrwt beam="1">  1       -4 0.21163874E+00 0.12854697E+03</pdfrwt>
<totfact> 0.29562735E+04</totfact>
</mgrwt>
</event>
<event>
 6    4  0.6093247E-003  0.1271180E+03  0.7818608E-02  0.1231796E+00
         21   -1    0    0  501  502  0.00000000000E+00  0.00000000000E+00  0.41075643201E+02  0.41075643201E+02  0.00000000000E+00 0. -1.
         -4   -1    0    0    0  501 -0.00000000000E+00 -0.00000000000E+00 -0.53469566765E+03  0.53469717589E+03  0.12700000000E+01 0.  1.
         25    2    1    2    0    0 -0.45276101602E+01 -0.22661161225E+02 -0.52308264721E+03  0.53830701439E+03  0.12499983378E+03 0.  0.
    9000005    1    3    3    0    0 -0.63697633493E+02 -0.11792843931E+02 -0.32028103559E+03  0.32676811570E+03  0.10000000000E+01 0.  0.
    9000005    1    3    3    0    0  0.59170023333E+02 -0.10868317295E+02 -0.20280161162E+03  0.21153889868E+03  0.10000000000E+01 0.  0.
         -4    1    1    2    0  502  0.45276101602E+01  0.22661161225E+02  0.29462622761E+02  0.37465804700E+02  0.12700000000E+01 0. -1.
<mgrwt>
<rscale>  1 0.12711800E+03</rscale>
<asrwt>0</asrwt>
<pdfrwt beam="1">  1       21 0.63193304E-02 0.12711800E+03</pdfrwt>
<pdfrwt beam="2">  1       -4 0.82262490E-01 0.12711800E+03</pdfrwt>
<totfact> 0.97933280E+03</totfact>
</mgrwt>
</event>
<event>
 6    4  0.6093247E-003  0.1267062E+03  0.7818608E-02  0.1232427E+00
         21   -1    0    0  501  502  0.00000000000E+00  0.00000000000E+00  0.20126089110E+02  0.20126089110E+02  0.00000000000E+00 0. -1.
         -4   -1    0    0    0  501 -0.00000000000E+00 -0.00000000000E+00 -0.27444994869E+03  0.27445288710E+03  0.12700000000E+01 0. -1.
         25    2    1    2    0    0 -0.13184006374E+02  0.15962279416E+02 -0.23017531087E+03  0.26274538243E+03  0.12500339941E+03 0.  0.
    9000005    1    3    3    0    0  0.38431335634E+02  0.12490841538E+02 -0.19740069402E+03  0.20149695452E+03  0.10000000000E+01 0.  0.
    9000005    1    3    3    0    0 -0.51615342008E+02  0.34714378777E+01 -0.32774616850E+02  0.61248427908E+02  0.10000000000E+01 0.  0.
         -4    1    1    2    0  502  0.13184006374E+02 -0.15962279416E+02 -0.24148548716E+02  0.31833593785E+02  0.12700000000E+01 0.  1.
<mgrwt>
<rscale>  1 0.12670620E+03</rscale>
<asrwt>0</asrwt>
<pdfrwt beam="1">  1       21 0.30963216E-02 0.12670620E+03</pdfrwt>
<pdfrwt beam="2">  1       -4 0.42226375E-01 0.12670620E+03</pdfrwt>
<totfact> 0.13010765E+05</totfact>
</mgrwt>
</event>
<event>
 6    4  0.6093247E-003  0.1352631E+03  0.7818608E-02  0.1219849E+00
         21   -1    0    0  501  502  0.00000000000E+00  0.00000000000E+00  0.15046109882E+02  0.15046109882E+02  0.00000000000E+00 0. -1.
          4   -1    0    0  502    0 -0.00000000000E+00 -0.00000000000E+00 -0.58392141304E+03  0.58392279413E+03  0.12700000000E+01 0. -1.
         25    2    1    2    0    0 -0.45447212861E+02  0.24662444557E+02 -0.43008750057E+03  0.45085626993E+03  0.12498973022E+03 0.  0.
    9000005    1    3    3    0    0  0.30764049434E+01 -0.39087205527E+02 -0.56533426325E+02  0.68806265669E+02  0.10000000000E+01 0.  0.
    9000005    1    3    3    0    0 -0.48523617804E+02  0.63749650083E+02 -0.37355407425E+03  0.38205000426E+03  0.10000000000E+01 0.  0.
          4    1    1    2  501    0  0.45447212861E+02 -0.24662444557E+02 -0.13878780258E+03  0.14811263408E+03  0.12700000000E+01 0.  1.
<mgrwt>
<rscale>  1 0.13526314E+03</rscale>
<asrwt>0</asrwt>
<pdfrwt beam="1">  1       21 0.23147857E-02 0.13526314E+03</pdfrwt>
<pdfrwt beam="2">  1        4 0.89838309E-01 0.13526314E+03</pdfrwt>
<totfact> 0.42871900E+04</totfact>
</mgrwt>
</event>
<event>
 6    4  0.6093247E-003  0.1319787E+03  0.7818608E-02  0.1224549E+00
         21   -1    0    0  501  502  0.00000000000E+00  0.00000000000E+00  0.43552804828E+02  0.43552804828E+02  0.00000000000E+00 0.  1.
         -4   -1    0    0    0  501 -0.00000000000E+00 -0.00000000000E+00 -0.18969393468E+03  0.18969818595E+03  0.12700000000E+01 0. -1.
         25    2    1    2    0    0  0.10193728788E+02  0.41213775784E+02 -0.13614691000E+03  0.18961631705E+03  0.12496351135E+03 0.  0.
    9000005    1    3    3    0    0 -0.18625117323E+02  0.75755901841E+02 -0.50697075569E+02  0.93043243335E+02  0.10000000000E+01 0.  0.
    9000005    1    3    3    0    0  0.28818846110E+02 -0.34542126057E+02 -0.85449834426E+02  0.96573073717E+02  0.10000000000E+01 0.  0.
         -4    1    1    2    0  502 -0.10193728788E+02 -0.41213775784E+02 -0.99942198561E+01  0.43634673730E+02  0.12700000000E+01 0.  1.
<mgrwt>
<rscale>  1 0.13197866E+03</rscale>
<asrwt>0</asrwt>
<pdfrwt beam="1">  1       21 0.67004316E-02 0.13197866E+03</pdfrwt>
<pdfrwt beam="2">  1       -4 0.29185433E-01 0.13197866E+03</pdfrwt>
<totfact> 0.73404273E+04</totfact>
</mgrwt>
</event>
<event>
 6    4  0.6093247E-003  0.1277844E+03  0.7818608E-02  0.1230781E+00
         21   -1    0    0  501  502  0.00000000000E+00  0.00000000000E+00  0.37765667861E+02  0.37765667861E+02  0.00000000000E+00 0. -1.
         -4   -1    0    0    0  501 -0.00000000000E+00 -0.00000000000E+00 -0.17208124542E+03  0.17208593180E+03  0.12700000000E+01 0. -1.
         25    2    1    2    0    0 -0.15479550630E+02 -0.21552440482E+02 -0.83903202441E+02  0.15286787705E+03  0.12499886509E+03 0.  0.
    9000005    1    3    3    0    0 -0.22155462847E+02 -0.63431105733E+02 -0.10391472586E+02  0.67995238149E+02  0.10000000000E+01 0.  0.
    9000005    1    3    3    0    0  0.66759122166E+01  0.41878665251E+02 -0.73511729855E+02  0.84872638897E+02  0.10000000000E+01 0.  0.
         -4    1    1    2    0  502  0.15479550630E+02  0.21552440482E+02 -0.50412375117E+02  0.56983722618E+02  0.12700000000E+01 0.  1.
<mgrwt>
<rscale>  1 0.12778435E+03</rscale>
<asrwt>0</asrwt>
<pdfrwt beam="1">  1       21 0.58101028E-02 0.12778435E+03</pdfrwt>
<pdfrwt beam="2">  1       -4 0.26476041E-01 0.12778435E+03</pdfrwt>
<totfact> 0.11169861E+05</totfact>
</mgrwt>
</event>
<event>
 6    4  0.6093247E-003  0.1269804E+03  0.7818608E-02  0.1232006E+00
          4   -1    0    0  502    0 -0.00000000000E+00  0.00000000000E+00  0.17252825289E+03  0.17253292714E+03  0.12700000000E+01 0.  1.
         21   -1    0    0  501  502  0.00000000000E+00 -0.00000000000E+00 -0.36746350459E+02  0.36746350459E+02  0.00000000000E+00 0.  1.
         25    2    1    2    0    0 -0.10845194214E+02  0.19520743695E+02  0.13710402653E+03  0.18687306006E+03  0.12500139525E+03 0.  0.
    9000005    1    3    3    0    0  0.29877159033E+02 -0.33786541253E+02  0.10115609166E+03  0.11075978459E+03  0.10000000000E+01 0.  0.
    9000005    1    3    3    0    0 -0.40722353247E+02  0.53307284948E+02  0.35947934875E+02  0.76113275480E+02  0.10000000000E+01 0.  0.
          4    1    1    2  501    0  0.10845194214E+02 -0.19520743695E+02 -0.13221240985E+01  0.22406217532E+02  0.12700000000E+01 0. -1.
<mgrwt>
<rscale>  1 0.12698042E+03</rscale>
<asrwt>0</asrwt>
<pdfrwt beam="2">  1       21 0.56532848E-02 0.12698042E+03</pdfrwt>
<pdfrwt beam="1">  1        4 0.26544855E-01 0.12698042E+03</pdfrwt>
<totfact> 0.11631475E+05</totfact>
</mgrwt>
</event>
<event>
 6    4  0.6093247E-003  0.1480941E+03  0.7818608E-02  0.1202835E+00
         21   -1    0    0  501  502  0.00000000000E+00  0.00000000000E+00  0.53652126086E+02  0.53652126086E+02  0.00000000000E+00 0.  1.
          4   -1    0    0  502    0 -0.00000000000E+00 -0.00000000000E+00 -0.34793976733E+03  0.34794208511E+03  0.12700000000E+01 0. -1.
         25    2    1    2    0    0  0.50263350845E+02 -0.61485220835E+02 -0.28557661387E+03  0.32169219797E+03  0.12500012411E+03 0.  0.
    9000005    1    3    3    0    0  0.63534130367E+02 -0.19239034100E+02 -0.53044150243E+02  0.84978868135E+02  0.10000000000E+01 0.  0.
    9000005    1    3    3    0    0 -0.13270779522E+02 -0.42246186735E+02 -0.23253246363E+03  0.23671332984E+03  0.10000000000E+01 0.  0.
          4    1    1    2  501    0 -0.50263350845E+02  0.61485220835E+02 -0.87110273769E+01  0.79902013224E+02  0.12700000000E+01 0.  1.
<mgrwt>
<rscale>  1 0.14809412E+03</rscale>
<asrwt>0</asrwt>
<pdfrwt beam="1">  1       21 0.82541733E-02 0.14809412E+03</pdfrwt>
<pdfrwt beam="2">  1        4 0.53530529E-01 0.14809412E+03</pdfrwt>
<totfact> 0.15745883E+04</totfact>
</mgrwt>
</event>
<event>
 6    4  0.6093247E-003  0.1307466E+03  0.7818608E-02  0.1226352E+00
          4   -1    0    0  502    0 -0.00000000000E+00  0.00000000000E+00  0.21897505013E+04  0.21897508696E+04  0.12700000000E+01 0.  1.
         21   -1    0    0  501  502  0.00000000000E+00 -0.00000000000E+00 -0.52343203283E+01  0.52343203283E+01  0.00000000000E+00 0. -1.
         25    2    1    2    0    0 -0.29800242256E+01  0.38211975327E+02  0.20718479067E+04  0.20759692728E+04  0.12500254977E+03 0.  0.
    9000005    1    3    3    0    0  0.43719480768E+02  0.13616876969E+02  0.31340262406E+03  0.31673177470E+03  0.10000000000E+01 0.  0.
    9000005    1    3    3    0    0 -0.46699504994E+02  0.24595098358E+02  0.17584452826E+04  0.17592374981E+04  0.10000000000E+01 0.  0.
          4    1    1    2  501    0  0.29800242256E+01 -0.38211975327E+02  0.11266827431E+03  0.11901591717E+03  0.12700000000E+01 0. -1.
<mgrwt>
<rscale>  1 0.13074660E+03</rscale>
<asrwt>0</asrwt>
<pdfrwt beam="2">  1       21 0.80528180E-03 0.13074660E+03</pdfrwt>
<pdfrwt beam="1">  1        4 0.33689584E+00 0.13074660E+03</pdfrwt>
<totfact> 0.49370488E+03</totfact>
</mgrwt>
</event>
<event>
 6    4  0.6093247E-003  0.1270306E+03  0.7818608E-02  0.1231929E+00
          4   -1    0    0  502    0 -0.00000000000E+00  0.00000000000E+00  0.20157384423E+03  0.20157784496E+03  0.12700000000E+01 0. -1.
         21   -1    0    0  501  502  0.00000000000E+00 -0.00000000000E+00 -0.80541972186E+02  0.80541972186E+02  0.00000000000E+00 0. -1.
         25    2    1    2    0    0  0.17725730176E+02 -0.14074448844E+02  0.17921881047E+03  0.21967284505E+03  0.12499794081E+03 0.  0.
    9000005    1    3    3    0    0  0.53367017891E+02 -0.38176119075E+02  0.15922528515E+03  0.17221830941E+03  0.10000000000E+01 0.  0.
    9000005    1    3    3    0    0 -0.35641287715E+02  0.24101670231E+02  0.19993525315E+02  0.47454535636E+02  0.10000000000E+01 0.  0.
          4    1    1    2  501    0 -0.17725730176E+02  0.14074448844E+02 -0.58186938422E+02  0.62446972092E+02  0.12700000000E+01 0.  1.
<mgrwt>
<rscale>  1 0.12703061E+03</rscale>
<asrwt>0</asrwt>
<pdfrwt beam="2">  1       21 0.12391073E-01 0.12703061E+03</pdfrwt>
<pdfrwt beam="1">  1        4 0.31012438E-01 0.12703061E+03</pdfrwt>
<totfact> 0.22356287E+04</totfact>
</mgrwt>
</event>
<event>
 6    4  0.6093247E-003  0.1269152E+03  0.7818608E-02  0.1232106E+00
         21   -1    0    0  501  502  0.00000000000E+00  0.00000000000E+00  0.11431703773E+03  0.11431703773E+03  0.00000000000E+00 0. -1.
          4   -1    0    0  502    0 -0.00000000000E+00 -0.00000000000E+00 -0.61720932541E+02  0.61733997228E+02  0.12700000000E+01 0.  1.
         25    2    1    2    0    0  0.77830398831E+01  0.20544406355E+02  0.90220197796E+01  0.12723544153E+03  0.12499924959E+03 0.  0.
    9000005    1    3    3    0    0 -0.31598051445E+02  0.52317619562E+02  0.34904307465E+02  0.70390914551E+02  0.10000000000E+01 0.  0.
    9000005    1    3    3    0    0  0.39381091329E+02 -0.31773213207E+02 -0.25882287686E+02  0.56844526980E+02  0.10000000000E+01 0.  0.
          4    1    1    2  501    0 -0.77830398831E+01 -0.20544406355E+02  0.43574085412E+02  0.48815593429E+02  0.12700000000E+01 0. -1.
<mgrwt>
<rscale>  1 0.12691517E+03</rscale>
<asrwt>0</asrwt>
<pdfrwt beam="1">  1       21 0.17587236E-01 0.12691517E+03</pdfrwt>
<pdfrwt beam="2">  1        4 0.94970758E-02 0.12691517E+03</pdfrwt>
<totfact> 0.97042348E+04</totfact>
</mgrwt>
</event>
<event>
 6    4  0.6093247E-003  0.1301093E+03  0.7818608E-02  0.1227294E+00
         21   -1    0    0  501  502  0.00000000000E+00  0.00000000000E+00  0.99018870733E+01  0.99018870733E+01  0.00000000000E+00 0.  1.
          4   -1    0    0  502    0 -0.00000000000E+00 -0.00000000000E+00 -0.70522647085E+03  0.70522761438E+03  0.12700000000E+01 0.  1.
         25    2    1    2    0    0  0.30794200345E+02  0.18875511772E+02 -0.57246788253E+03  0.58706721325E+03  0.12499547441E+03 0.  0.
    9000005    1    3    3    0    0  0.73300078831E+02  0.39011655050E+02 -0.36004879189E+03  0.36950093820E+03  0.10000000000E+01 0.  0.
    9000005    1    3    3    0    0 -0.42505878486E+02 -0.20136143279E+02 -0.21241909063E+03  0.21756627505E+03  0.10000000000E+01 0.  0.
          4    1    1    2  501    0 -0.30794200345E+02 -0.18875511772E+02 -0.12285670125E+03  0.12806228821E+03  0.12700000000E+01 0. -1.
<mgrwt>
<rscale>  1 0.13010932E+03</rscale>
<asrwt>0</asrwt>
<pdfrwt beam="1">  1       21 0.15233667E-02 0.13010932E+03</pdfrwt>
<pdfrwt beam="2">  1        4 0.10850277E+00 0.13010932E+03</pdfrwt>
<totfact> 0.54171696E+04</totfact>
</mgrwt>
</event>
<event>
 6    4  0.6093247E-003  0.1357812E+03  0.7818608E-02  0.1219121E+00
          4   -1    0    0  502    0 -0.00000000000E+00  0.00000000000E+00  0.14120135065E+03  0.14120706188E+03  0.12700000000E+01 0. -1.
         21   -1    0    0  501  502  0.00000000000E+00 -0.00000000000E+00 -0.12797935417E+03  0.12797935417E+03  0.00000000000E+00 0.  1.
         25    2    1    2    0    0  0.14296200616E+02  0.51060451425E+02  0.99204532438E+02  0.16816087253E+03  0.12499995497E+03 0.  0.
    9000005    1    3    3    0    0 -0.44340855236E+02  0.61892311543E+02  0.55883250843E+02  0.94449496536E+02  0.10000000000E+01 0.  0.
    9000005    1    3    3    0    0  0.58637055852E+02 -0.10831860118E+02  0.43321281594E+02  0.73711375998E+02  0.10000000000E+01 0.  0.
          4    1    1    2  501    0 -0.14296200616E+02 -0.51060451425E+02 -0.85982535957E+02  0.10102554351E+03  0.12700000000E+01 0.  1.
<mgrwt>
<rscale>  1 0.13578122E+03</rscale>
<asrwt>0</asrwt>
<pdfrwt beam="2">  1       21 0.19689131E-01 0.13578122E+03</pdfrwt>
<pdfrwt beam="1">  1        4 0.21724209E-01 0.13578122E+03</pdfrwt>
<totfact> 0.18834217E+04</totfact>
</mgrwt>
</event>
<event>
 6    4  0.6093247E-003  0.1292536E+03  0.7818608E-02  0.1228567E+00
          4   -1    0    0  502    0 -0.00000000000E+00  0.00000000000E+00  0.21221549387E+02  0.21259516890E+02  0.12700000000E+01 0. -1.
         21   -1    0    0  501  502  0.00000000000E+00 -0.00000000000E+00 -0.56146350120E+03  0.56146350120E+03  0.00000000000E+00 0.  1.
         25    2    1    2    0    0  0.18045534061E+02 -0.27473808342E+02 -0.18341261608E+03  0.22438066896E+03  0.12500418161E+03 0.  0.
    9000005    1    3    3    0    0  0.20506526336E+02 -0.22479425598E+02 -0.20234437973E+03  0.20462182241E+03  0.10000000000E+01 0.  0.
    9000005    1    3    3    0    0 -0.24609922751E+01 -0.49943827445E+01  0.18931763650E+02  0.19758846547E+02  0.10000000000E+01 0.  0.
          4    1    1    2  501    0 -0.18045534061E+02  0.27473808342E+02 -0.35682933573E+03  0.35834234913E+03  0.12700000000E+01 0.  1.
<mgrwt>
<rscale>  1 0.12925361E+03</rscale>
<asrwt>0</asrwt>
<pdfrwt beam="2">  1       21 0.86378995E-01 0.12925361E+03</pdfrwt>
<pdfrwt beam="1">  1        4 0.32678850E-02 0.12925361E+03</pdfrwt>
<totfact> 0.22305200E+04</totfact>
</mgrwt>
</event>
<event>
 6    4  0.6093247E-003  0.1268327E+03  0.7818608E-02  0.1232233E+00
          4   -1    0    0  502    0 -0.00000000000E+00  0.00000000000E+00  0.15767818393E+04  0.15767823507E+04  0.12700000000E+01 0. -1.
         21   -1    0    0  501  502  0.00000000000E+00 -0.00000000000E+00 -0.37888874741E+01  0.37888874741E+01  0.00000000000E+00 0. -1.
         25    2    1    2    0    0  0.21278274310E+02  0.30187679490E+01  0.14632462162E+04  0.14687327976E+04  0.12499865461E+03 0.  0.
    9000005    1    3    3    0    0  0.49969535588E+02 -0.41785009668E+02  0.10586222604E+04  0.10606248308E+04  0.10000000000E+01 0.  0.
    9000005    1    3    3    0    0 -0.28691261278E+02  0.44803777617E+02  0.40462395581E+03  0.40810796682E+03  0.10000000000E+01 0.  0.
          4    1    1    2  501    0 -0.21278274310E+02 -0.30187679490E+01  0.10974673559E+03  0.11183844058E+03  0.12700000000E+01 0.  1.
<mgrwt>
<rscale>  1 0.12683273E+03</rscale>
<asrwt>0</asrwt>
<pdfrwt beam="2">  1       21 0.58290703E-03 0.12683273E+03</pdfrwt>
<pdfrwt beam="1">  1        4 0.24259771E+00 0.12683273E+03</pdfrwt>
<totfact> 0.28654552E+04</totfact>
</mgrwt>
</event>
<event>
 6    4  0.6093247E-003  0.1274708E+03  0.7818608E-02  0.1231258E+00
         21   -1    0    0  501  502  0.00000000000E+00  0.00000000000E+00  0.71121361400E+03  0.71121361400E+03  0.00000000000E+00 0. -1.
          4   -1    0    0  502    0 -0.00000000000E+00 -0.00000000000E+00 -0.87851729171E+01  0.88764949830E+01  0.12700000000E+01 0. -1.
         25    2    1    2    0    0 -0.24458175830E+02  0.51290559049E+01  0.49465699449E+03  0.51081732887E+03  0.12499716673E+03 0.  0.
    9000005    1    3    3    0    0  0.49761714301E+02 -0.72482981238E-01  0.25732883818E+03  0.26209800538E+03  0.10000000000E+01 0.  0.
    9000005    1    3    3    0    0 -0.74219890132E+02  0.52015388861E+01  0.23732815631E+03  0.24871932349E+03  0.10000000000E+01 0.  0.
          4    1    1    2  501    0  0.24458175830E+02 -0.51290559049E+01  0.20777144659E+03  0.20927278011E+03  0.12700000000E+01 0.  1.
<mgrwt>
<rscale>  1 0.12747079E+03</rscale>
<asrwt>0</asrwt>
<pdfrwt beam="1">  1       21 0.10941743E+00 0.12747079E+03</pdfrwt>
<pdfrwt beam="2">  1        4 0.13586776E-02 0.12747079E+03</pdfrwt>
<totfact> 0.49766171E+04</totfact>
</mgrwt>
</event>
<event>
 6    4  0.6093247E-003  0.1268975E+03  0.7818608E-02  0.1232133E+00
         -4   -1    0    0    0  501 -0.00000000000E+00  0.00000000000E+00  0.88681245946E+02  0.88690339285E+02  0.12700000000E+01 0.  1.
         21   -1    0    0  501  502  0.00000000000E+00 -0.00000000000E+00 -0.10175135310E+03  0.10175135310E+03  0.00000000000E+00 0. -1.
         25    2    1    2    0    0  0.21321348753E+02 -0.49256903962E+01  0.39975883085E+02  0.13304524372E+03  0.12499641319E+03 0.  0.
    9000005    1    3    3    0    0 -0.33169000750E+02  0.41421158300E+02  0.29554608430E+02  0.60748414342E+02  0.10000000000E+01 0.  0.
    9000005    1    3    3    0    0  0.54490349503E+02 -0.46346848696E+02  0.10421274656E+02  0.72296829381E+02  0.10000000000E+01 0.  0.
         -4    1    1    2    0  502 -0.21321348753E+02  0.49256903962E+01 -0.53045990235E+02  0.57396448657E+02  0.12700000000E+01 0. -1.
<mgrwt>
<rscale>  1 0.12689746E+03</rscale>
<asrwt>0</asrwt>
<pdfrwt beam="2">  1       21 0.15654054E-01 0.12689746E+03</pdfrwt>
<pdfrwt beam="1">  1       -4 0.13644578E-01 0.12689746E+03</pdfrwt>
<totfact> 0.64739650E+04</totfact>
</mgrwt>
</event>
<event>
 6    4  0.6093247E-003  0.1277092E+03  0.7818608E-02  0.1230895E+00
         21   -1    0    0  501  502  0.00000000000E+00  0.00000000000E+00  0.21395922137E+03  0.21395922137E+03  0.00000000000E+00 0.  1.
          4   -1    0    0  502    0 -0.00000000000E+00 -0.00000000000E+00 -0.51931286221E+02  0.51946813074E+02  0.12700000000E+01 0.  1.
         25    2    1    2    0    0 -0.21431307584E+02  0.15041821283E+02  0.29846798474E+02  0.13115061479E+03  0.12499638015E+03 0.  0.
    9000005    1    3    3    0    0 -0.13929461145E+01  0.14419122838E+02  0.77811648460E+02  0.79154936917E+02  0.10000000000E+01 0.  0.
    9000005    1    3    3    0    0 -0.20038361470E+02  0.62269844520E+00 -0.47964849986E+02  0.51995677877E+02  0.10000000000E+01 0.  0.
          4    1    1    2  501    0  0.21431307584E+02 -0.15041821283E+02  0.13218113668E+03  0.13475541965E+03  0.12700000000E+01 0. -1.
<mgrwt>
<rscale>  1 0.12770925E+03</rscale>
<asrwt>0</asrwt>
<pdfrwt beam="1">  1       21 0.32916803E-01 0.12770925E+03</pdfrwt>
<pdfrwt beam="2">  1        4 0.79909130E-02 0.12770925E+03</pdfrwt>
<totfact> 0.39747603E+04</totfact>
</mgrwt>
</event>
<event>
 6    4  0.6093247E-003  0.1276594E+03  0.7818608E-02  0.1230971E+00
          4   -1    0    0  502    0 -0.00000000000E+00  0.00000000000E+00  0.51637285689E+01  0.53176115628E+01  0.12700000000E+01 0.  1.
         21   -1    0    0  501  502  0.00000000000E+00 -0.00000000000E+00 -0.12486252734E+04  0.12486252734E+04  0.00000000000E+00 0.  1.
         25    2    1    2    0    0 -0.76716525888E+01 -0.24754511025E+02 -0.11459306213E+04  0.11530194783E+04  0.12500115367E+03 0.  0.
    9000005    1    3    3    0    0  0.53438902274E+02  0.82191662288E+01 -0.36170481761E+03  0.36572482286E+03  0.10000000000E+01 0.  0.
    9000005    1    3    3    0    0 -0.61110554863E+02 -0.32973677253E+02 -0.78422580365E+03  0.78729465540E+03  0.10000000000E+01 0.  0.
          4    1    1    2  501    0  0.76716525888E+01  0.24754511025E+02 -0.97530923585E+02  0.10092340672E+03  0.12700000000E+01 0. -1.
<mgrwt>
<rscale>  1 0.12765942E+03</rscale>
<asrwt>0</asrwt>
<pdfrwt beam="2">  1       21 0.19209623E+00 0.12765942E+03</pdfrwt>
<pdfrwt beam="1">  1        4 0.80630648E-03 0.12765942E+03</pdfrwt>
<totfact> 0.25564206E+04</totfact>
</mgrwt>
</event>
<event>
 6    4  0.6093247E-003  0.1365181E+03  0.7818608E-02  0.1218092E+00
          4   -1    0    0  502    0 -0.00000000000E+00  0.00000000000E+00  0.21262507449E+02  0.21300401945E+02  0.12700000000E+01 0.  1.
         21   -1    0    0  501  502  0.00000000000E+00 -0.00000000000E+00 -0.46170353712E+03  0.46170353712E+03  0.00000000000E+00 0. -1.
         25    2    1    2    0    0 -0.53924158245E+02  0.10286033817E+02 -0.25049971532E+03  0.28528460988E+03  0.12499433558E+03 0.  0.
    9000005    1    3    3    0    0 -0.46848184477E+02 -0.50037576203E+02 -0.86336082183E+02  0.11024259843E+03  0.10000000000E+01 0.  0.
    9000005    1    3    3    0    0 -0.70759737681E+01  0.60323610020E+02 -0.16416363314E+03  0.17504201146E+03  0.10000000000E+01 0.  0.
          4    1    1    2  501    0  0.53924158245E+02 -0.10286033817E+02 -0.18994131436E+03  0.19771932918E+03  0.12700000000E+01 0. -1.
<mgrwt>
<rscale>  1 0.13651814E+03</rscale>
<asrwt>0</asrwt>
<pdfrwt beam="2">  1       21 0.71031316E-01 0.13651814E+03</pdfrwt>
<pdfrwt beam="1">  1        4 0.32742042E-02 0.13651814E+03</pdfrwt>
<totfact> 0.34549839E+04</totfact>
</mgrwt>
</event>
<event>
 6    4  0.6093247E-003  0.1749903E+03  0.7818608E-02  0.1172741E+00
         21   -1    0    0  501  502  0.00000000000E+00  0.00000000000E+00  0.23697043683E+03  0.23697043683E+03  0.00000000000E+00 0.  1.
          4   -1    0    0  502    0 -0.00000000000E+00 -0.00000000000E+00 -0.21497063610E+03  0.21497438751E+03  0.12700000000E+01 0. -1.
         25    2    1    2    0    0 -0.82825115184E+02 -0.90200408909E+02 -0.15697580620E+03  0.23508082491E+03  0.12500190812E+03 0.  0.
    9000005    1    3    3    0    0 -0.11212242147E+03 -0.56254127894E+02 -0.89671560717E+02  0.15420101525E+03  0.10000000000E+01 0.  0.
    9000005    1    3    3    0    0  0.29297306288E+02 -0.33946281015E+02 -0.67304245485E+02  0.80879809661E+02  0.10000000000E+01 0.  0.
          4    1    1    2  501    0  0.82825115184E+02  0.90200408909E+02  0.17897560693E+03  0.21686399943E+03  0.12700000000E+01 0.  1.
<mgrwt>
<rscale>  1 0.17499026E+03</rscale>
<asrwt>0</asrwt>
<pdfrwt beam="1">  1       21 0.36456990E-01 0.17499026E+03</pdfrwt>
<pdfrwt beam="2">  1        4 0.33072956E-01 0.17499026E+03</pdfrwt>
<totfact> 0.26829819E+03</totfact>
</mgrwt>
</event>
<event>
 6    4  0.6093247E-003  0.1328696E+03  0.7818608E-02  0.1223259E+00
         21   -1    0    0  501  502  0.00000000000E+00  0.00000000000E+00  0.33608845647E+02  0.33608845647E+02  0.00000000000E+00 0. -1.
         -4   -1    0    0    0  501 -0.00000000000E+00 -0.00000000000E+00 -0.31156376590E+03  0.31156635428E+03  0.12700000000E+01 0.  1.
         25    2    1    2    0    0  0.32917287694E+02  0.30732467045E+02 -0.26786380199E+03  0.29900728978E+03  0.12500524214E+03 0.  0.
    9000005    1    3    3    0    0  0.47628949552E+02  0.56702780445E+00 -0.26025437530E+03  0.26457924752E+03  0.10000000000E+01 0.  0.
    9000005    1    3    3    0    0 -0.14711661858E+02  0.30165439240E+02 -0.76094266930E+01  0.34428042259E+02  0.10000000000E+01 0.  0.
         -4    1    1    2    0  502 -0.32917287694E+02 -0.30732467045E+02 -0.10091118256E+02  0.46167910148E+02  0.12700000000E+01 0. -1.
<mgrwt>
<rscale>  1 0.13286965E+03</rscale>
<asrwt>0</asrwt>
<pdfrwt beam="1">  1       21 0.51705918E-02 0.13286965E+03</pdfrwt>
<pdfrwt beam="2">  1       -4 0.47934931E-01 0.13286965E+03</pdfrwt>
<totfact> 0.43344039E+04</totfact>
</mgrwt>
</event>
<event>
 6    4  0.6093247E-003  0.1272076E+03  0.7818608E-02  0.1231659E+00
          4   -1    0    0  502    0 -0.00000000000E+00  0.00000000000E+00  0.26894304124E+03  0.26894603981E+03  0.12700000000E+01 0. -1.
         21   -1    0    0  501  502  0.00000000000E+00 -0.00000000000E+00 -0.26390210226E+03  0.26390210226E+03  0.00000000000E+00 0.  1.
         25    2    1    2    0    0 -0.29615423012E+01 -0.23628374642E+02  0.25329924208E+03  0.28344712206E+03  0.12495876978E+03 0.  0.
    9000005    1    3    3    0    0 -0.80404489388E+01 -0.23000420786E+02 -0.51678880703E+01  0.24927399435E+02  0.10000000000E+01 0.  0.
    9000005    1    3    3    0    0  0.50789066376E+01 -0.62795385579E+00  0.25846713015E+03  0.25851972263E+03  0.10000000000E+01 0.  0.
          4    1    1    2  501    0  0.29615423012E+01  0.23628374642E+02 -0.24825830310E+03  0.24940102001E+03  0.12700000000E+01 0.  1.
<mgrwt>
<rscale>  1 0.12720757E+03</rscale>
<asrwt>0</asrwt>
<pdfrwt beam="2">  1       21 0.40600323E-01 0.12720757E+03</pdfrwt>
<pdfrwt beam="1">  1        4 0.41376318E-01 0.12720757E+03</pdfrwt>
<totfact> 0.13827646E+03</totfact>
</mgrwt>
</event>
<event>
 6    4  0.6093247E-003  0.1364770E+03  0.7818608E-02  0.1218150E+00
          4   -1    0    0  502    0 -0.00000000000E+00  0.00000000000E+00  0.13042378268E+03  0.13042996584E+03  0.12700000000E+01 0.  1.
         21   -1    0    0  501  502  0.00000000000E+00 -0.00000000000E+00 -0.13282911981E+03  0.13282911981E+03  0.00000000000E+00 0. -1.
         25    2    1    2    0    0  0.46240529584E+02 -0.29373070612E+02  0.84501745336E+02  0.16051952299E+03  0.12500003377E+03 0.  0.
    9000005    1    3    3    0    0 -0.10426678898E+01 -0.83618323991E+01  0.10464348870E+03  0.10498698550E+03  0.10000000000E+01 0.  0.
    9000005    1    3    3    0    0  0.47283197474E+02 -0.21011238213E+02 -0.20141743362E+02  0.55532537492E+02  0.10000000000E+01 0.  0.
          4    1    1    2  501    0 -0.46240529584E+02  0.29373070612E+02 -0.86907082468E+02  0.10273956266E+03  0.12700000000E+01 0. -1.
<mgrwt>
<rscale>  1 0.13647700E+03</rscale>
<asrwt>0</asrwt>
<pdfrwt beam="2">  1       21 0.20435249E-01 0.13647700E+03</pdfrwt>
<pdfrwt beam="1">  1        4 0.20066140E-01 0.13647700E+03</pdfrwt>
<totfact> 0.20303531E+04</totfact>
</mgrwt>
</event>
<event>
 6    4  0.6093247E-003  0.1577291E+03  0.7818608E-02  0.1191285E+00
         -4   -1    0    0    0  501 -0.00000000000E+00  0.00000000000E+00  0.16096646062E+03  0.16097147059E+03  0.12700000000E+01 0.  1.
         21   -1    0    0  501  502  0.00000000000E+00 -0.00000000000E+00 -0.65995130975E+03  0.65995130975E+03  0.00000000000E+00 0. -1.
         25    2    1    2    0    0 -0.94649808548E+02  0.17171515273E+02  0.11768441002E+03  0.19679456012E+03  0.12500012534E+03 0.  0.
    9000005    1    3    3    0    0 -0.41567463554E+02  0.49358203702E+02  0.11823933385E+03  0.13470570280E+03  0.10000000000E+01 0.  0.
    9000005    1    3    3    0    0 -0.53082344995E+02 -0.32186688429E+02 -0.55492382996E+00  0.62088857315E+02  0.10000000000E+01 0.  0.
         -4    1    1    2    0  502  0.94649808548E+02 -0.17171515273E+02 -0.61666925915E+03  0.62412822022E+03  0.12700000000E+01 0. -1.
<mgrwt>
<rscale>  1 0.15772913E+03</rscale>
<asrwt>0</asrwt>
<pdfrwt beam="2">  1       21 0.10153097E+00 0.15772913E+03</pdfrwt>
<pdfrwt beam="1">  1       -4 0.24764551E-01 0.15772913E+03</pdfrwt>
<totfact> 0.50931879E+02</totfact>
</mgrwt>
</event>
<event>
 6    4  0.6093247E-003  0.1311378E+03  0.7818608E-02  0.1225777E+00
         21   -1    0    0  501  502  0.00000000000E+00  0.00000000000E+00  0.29451250291E+02  0.29451250291E+02  0.00000000000E+00 0.  1.
          4   -1    0    0  502    0 -0.00000000000E+00 -0.00000000000E+00 -0.34089753355E+03  0.34089989921E+03  0.12700000000E+01 0. -1.
         25    2    1    2    0    0 -0.29978482482E+02  0.25920515765E+02 -0.30250221988E+03  0.32970398824E+03  0.12500617694E+03 0.  0.
    9000005    1    3    3    0    0 -0.26844341256E+01 -0.13757037740E+02 -0.27269795772E+03  0.27305977078E+03  0.10000000000E+01 0.  0.
    9000005    1    3    3    0    0 -0.27294048356E+02  0.39677553505E+02 -0.29804262163E+02  0.56644217453E+02  0.10000000000E+01 0.  0.
          4    1    1    2  501    0  0.29978482482E+02 -0.25920515765E+02 -0.89440633782E+01  0.40647161268E+02  0.12700000000E+01 0.  1.
<mgrwt>
<rscale>  1 0.13113782E+03</rscale>
<asrwt>0</asrwt>
<pdfrwt beam="1">  1       21 0.45309615E-02 0.13113782E+03</pdfrwt>
<pdfrwt beam="2">  1        4 0.52448063E-01 0.13113782E+03</pdfrwt>
<totfact> 0.44960041E+04</totfact>
</mgrwt>
</event>
<event>
 6    4  0.6093247E-003  0.1372675E+03  0.7818608E-02  0.1217054E+00
         -4   -1    0    0    0  501 -0.00000000000E+00  0.00000000000E+00  0.62985592827E+03  0.62985720864E+03  0.12700000000E+01 0. -1.
         21   -1    0    0  501  502  0.00000000000E+00 -0.00000000000E+00 -0.15001344728E+02  0.15001344728E+02  0.00000000000E+00 0. -1.
         25    2    1    2    0    0 -0.56196950333E+02 -0.72980539630E+01  0.45477863402E+03  0.47504312023E+03  0.12502400287E+03 0.  0.
    9000005    1    3    3    0    0  0.26941286328E+02  0.12542101817E+02  0.31888633302E+02  0.43600712848E+02  0.10000000000E+01 0.  0.
    9000005    1    3    3    0    0 -0.83138236661E+02 -0.19840155780E+02  0.42289000072E+03  0.43144240738E+03  0.10000000000E+01 0.  0.
         -4    1    1    2    0  502  0.56196950333E+02  0.72980539630E+01  0.16007594952E+03  0.16981543314E+03  0.12700000000E+01 0.  1.
<mgrwt>
<rscale>  1 0.13726748E+03</rscale>
<asrwt>0</asrwt>
<pdfrwt beam="2">  1       21 0.23078997E-02 0.13726748E+03</pdfrwt>
<pdfrwt beam="1">  1       -4 0.96905125E-01 0.13726748E+03</pdfrwt>
<totfact> 0.36322826E+04</totfact>
</mgrwt>
</event>
<event>
 6    4  0.6093247E-003  0.1434583E+03  0.7818608E-02  0.1208750E+00
         21   -1    0    0  501  502  0.00000000000E+00  0.00000000000E+00  0.88114669561E+03  0.88114669561E+03  0.00000000000E+00 0.  1.
          4   -1    0    0  502    0 -0.00000000000E+00 -0.00000000000E+00 -0.13468150239E+02  0.13527896025E+02  0.12700000000E+01 0. -1.
         25    2    1    2    0    0  0.27288532349E+02 -0.64887973112E+02  0.49342702014E+03  0.51385845478E+03  0.12500069716E+03 0.  0.
    9000005    1    3    3    0    0  0.78601436846E+01 -0.28121077302E+01 -0.59257684728E+01  0.10286133415E+02  0.10000000000E+01 0.  0.
    9000005    1    3    3    0    0  0.19428388664E+02 -0.62075865382E+02  0.49935278862E+03  0.50357232137E+03  0.10000000000E+01 0.  0.
          4    1    1    2  501    0 -0.27288532349E+02  0.64887973112E+02  0.37425152523E+03  0.38081613686E+03  0.12700000000E+01 0.  1.
<mgrwt>
<rscale>  1 0.14345831E+03</rscale>
<asrwt>0</asrwt>
<pdfrwt beam="1">  1       21 0.13556098E+00 0.14345831E+03</pdfrwt>
<pdfrwt beam="2">  1        4 0.20766900E-02 0.14345831E+03</pdfrwt>
<totfact> 0.15510966E+04</totfact>
</mgrwt>
</event>
<event>
 6    4  0.6093247E-003  0.1296351E+03  0.7818608E-02  0.1227998E+00
         21   -1    0    0  501  502  0.00000000000E+00  0.00000000000E+00  0.32043781479E+03  0.32043781479E+03  0.00000000000E+00 0. -1.
         -4   -1    0    0    0  501 -0.00000000000E+00 -0.00000000000E+00 -0.17825012930E+03  0.17825465350E+03  0.12700000000E+01 0.  1.
         25    2    1    2    0    0 -0.25542411538E+02 -0.22988859710E+02 -0.15355420345E+03  0.20095805606E+03  0.12499737773E+03 0.  0.
    9000005    1    3    3    0    0 -0.74560224643E+02 -0.12862227226E+00 -0.10094015235E+03  0.12549564933E+03  0.10000000000E+01 0.  0.
    9000005    1    3    3    0    0  0.49017813105E+02 -0.22860237438E+02 -0.52614051092E+02  0.75462406731E+02  0.10000000000E+01 0.  0.
         -4    1    1    2    0  502  0.25542411538E+02  0.22988859710E+02  0.29574188894E+03  0.29773441224E+03  0.12700000000E+01 0. -1.
<mgrwt>
<rscale>  1 0.12963505E+03</rscale>
<asrwt>0</asrwt>
<pdfrwt beam="1">  1       21 0.49298125E-01 0.12963505E+03</pdfrwt>
<pdfrwt beam="2">  1       -4 0.27423639E-01 0.12963505E+03</pdfrwt>
<totfact> 0.20541054E+03</totfact>
</mgrwt>
</event>
<event>
 6    4  0.6093247E-003  0.1278648E+03  0.7818608E-02  0.1230659E+00
         21   -1    0    0  501  502  0.00000000000E+00  0.00000000000E+00  0.58053836302E+02  0.58053836302E+02  0.00000000000E+00 0.  1.
         -4   -1    0    0    0  501 -0.00000000000E+00 -0.00000000000E+00 -0.10754620731E+03  0.10755370569E+03  0.12700000000E+01 0. -1.
         25    2    1    2    0    0  0.32462772730E+01  0.26720854402E+02 -0.53037174892E+02  0.13842812127E+03  0.12499944184E+03 0.  0.
    9000005    1    3    3    0    0 -0.57366602798E+02  0.13256438555E+02 -0.34983240569E+01  0.58990664948E+02  0.10000000000E+01 0.  0.
    9000005    1    3    3    0    0  0.60612880071E+02  0.13464415847E+02 -0.49538850835E+02  0.79437456321E+02  0.10000000000E+01 0.  0.
         -4    1    1    2    0  502 -0.32462772730E+01 -0.26720854402E+02  0.35448038830E+01  0.27179420720E+02  0.12700000000E+01 0.  1.
<mgrwt>
<rscale>  1 0.12786478E+03</rscale>
<asrwt>0</asrwt>
<pdfrwt beam="1">  1       21 0.89313595E-02 0.12786478E+03</pdfrwt>
<pdfrwt beam="2">  1       -4 0.16547216E-01 0.12786478E+03</pdfrwt>
<totfact> 0.12501600E+05</totfact>
</mgrwt>
</event>
<event>
 6    4  0.6093247E-003  0.1283098E+03  0.7818608E-02  0.1229985E+00
         -4   -1    0    0    0  501 -0.00000000000E+00  0.00000000000E+00  0.20938915072E+03  0.20939300212E+03  0.12700000000E+01 0.  1.
         21   -1    0    0  501  502  0.00000000000E+00 -0.00000000000E+00 -0.37715939525E+02  0.37715939525E+02  0.00000000000E+00 0. -1.
         25    2    1    2    0    0  0.26243645518E+02  0.12241181818E+02  0.17599569719E+03  0.21780241938E+03  0.12499933199E+03 0.  0.
    9000005    1    3    3    0    0  0.13372261629E+02  0.61949095779E+02  0.46847439549E+02  0.78817450105E+02  0.10000000000E+01 0.  0.
    9000005    1    3    3    0    0  0.12871383890E+02 -0.49707913961E+02  0.12914825764E+03  0.13898496928E+03  0.10000000000E+01 0.  0.
         -4    1    1    2    0  502 -0.26243645518E+02 -0.12241181818E+02 -0.43224859926E+01  0.29306522270E+02  0.12700000000E+01 0. -1.
<mgrwt>
<rscale>  1 0.12830981E+03</rscale>
<asrwt>0</asrwt>
<pdfrwt beam="2">  1       21 0.58024524E-02 0.12830981E+03</pdfrwt>
<pdfrwt beam="1">  1       -4 0.32215656E-01 0.12830981E+03</pdfrwt>
<totfact> 0.77442910E+04</totfact>
</mgrwt>
</event>
<event>
 6    4  0.6093247E-003  0.1276053E+03  0.7818608E-02  0.1231053E+00
         21   -1    0    0  501  502  0.00000000000E+00  0.00000000000E+00  0.16534891565E+03  0.16534891565E+03  0.00000000000E+00 0.  1.
         -4   -1    0    0    0  501 -0.00000000000E+00 -0.00000000000E+00 -0.35536215980E+02  0.35558902488E+02  0.12700000000E+01 0.  1.
         25    2    1    2    0    0  0.14638644008E+02 -0.21067839426E+02  0.10617199301E+03  0.16599879828E+03  0.12499986069E+03 0.  0.
    9000005    1    3    3    0    0 -0.62699131335E+01 -0.57610638179E+02  0.10935506458E+03  0.12376521156E+03  0.10000000000E+01 0.  0.
    9000005    1    3    3    0    0  0.20908557141E+02  0.36542798753E+02 -0.31830715726E+01  0.42233586718E+02  0.10000000000E+01 0.  0.
         -4    1    1    2    0  502 -0.14638644008E+02  0.21067839426E+02  0.23640706662E+02  0.34909019865E+02  0.12700000000E+01 0. -1.
<mgrwt>
<rscale>  1 0.12760529E+03</rscale>
<asrwt>0</asrwt>
<pdfrwt beam="1">  1       21 0.25438294E-01 0.12760529E+03</pdfrwt>
<pdfrwt beam="2">  1       -4 0.54692305E-02 0.12760529E+03</pdfrwt>
<totfact> 0.12112248E+05</totfact>
</mgrwt>
</event>
<event>
 6    4  0.6093247E-003  0.1275218E+03  0.7818608E-02  0.1231180E+00
         21   -1    0    0  501  502  0.00000000000E+00  0.00000000000E+00  0.24749244701E+04  0.24749244701E+04  0.00000000000E+00 0.  1.
          4   -1    0    0  502    0 -0.00000000000E+00 -0.00000000000E+00 -0.23546638436E+01  0.26753208810E+01  0.12700000000E+01 0.  1.
         25    2    1    2    0    0  0.89228436983E+01 -0.23521196515E+02  0.22496491816E+04  0.22532605799E+04  0.12501574659E+03 0.  0.
    9000005    1    3    3    0    0  0.28065305919E+02  0.29392531486E+02  0.29349294515E+03  0.29629493947E+03  0.10000000000E+01 0.  0.
    9000005    1    3    3    0    0 -0.19142462221E+02 -0.52913728001E+02  0.19561562364E+04  0.19569656404E+04  0.10000000000E+01 0.  0.
          4    1    1    2  501    0 -0.89228436983E+01  0.23521196515E+02  0.22292062471E+03  0.22433921112E+03  0.12700000000E+01 0. -1.
<mgrwt>
<rscale>  1 0.12752177E+03</rscale>
<asrwt>0</asrwt>
<pdfrwt beam="1">  1       21 0.38075566E+00 0.12752177E+03</pdfrwt>
<pdfrwt beam="2">  1        4 0.38694895E-03 0.12752177E+03</pdfrwt>
<totfact> 0.61013231E+03</totfact>
</mgrwt>
</event>
<event>
 6    4  0.6093247E-003  0.1280137E+03  0.7818608E-02  0.1230433E+00
          4   -1    0    0  502    0 -0.00000000000E+00  0.00000000000E+00  0.43792639419E+03  0.43792823571E+03  0.12700000000E+01 0. -1.
         21   -1    0    0  501  502  0.00000000000E+00 -0.00000000000E+00 -0.14943954928E+02  0.14943954928E+02  0.00000000000E+00 0. -1.
         25    2    1    2    0    0 -0.23560748107E+02 -0.14418219675E+02  0.38614478181E+03  0.40681114618E+03  0.12499808889E+03 0.  0.
    9000005    1    3    3    0    0 -0.70141656854E+02 -0.18079653617E+02  0.15641429956E+03  0.17237505332E+03  0.10000000000E+01 0.  0.
    9000005    1    3    3    0    0  0.46580908748E+02  0.36614339419E+01  0.22973048225E+03  0.23443609285E+03  0.10000000000E+01 0.  0.
          4    1    1    2  501    0  0.23560748107E+02  0.14418219675E+02  0.36837657457E+02  0.46061044461E+02  0.12700000000E+01 0.  1.
<mgrwt>
<rscale>  1 0.12801373E+03</rscale>
<asrwt>0</asrwt>
<pdfrwt beam="2">  1       21 0.22990703E-02 0.12801373E+03</pdfrwt>
<pdfrwt beam="1">  1        4 0.67377574E-01 0.12801373E+03</pdfrwt>
<totfact> 0.80985000E+04</totfact>
</mgrwt>
</event>
<event>
 6    4  0.6093247E-003  0.1277111E+03  0.7818608E-02  0.1230892E+00
         21   -1    0    0  501  502  0.00000000000E+00  0.00000000000E+00  0.18389033563E+03  0.18389033563E+03  0.00000000000E+00 0.  1.
         -4   -1    0    0    0  501 -0.00000000000E+00 -0.00000000000E+00 -0.75308373845E+02  0.75319081720E+02  0.12700000000E+01 0. -1.
         25    2    1    2    0    0 -0.13549528456E+02  0.22436227198E+02 -0.18858028001E+02  0.12909585961E+03  0.12499256672E+03 0.  0.
    9000005    1    3    3    0    0 -0.31948481219E+02 -0.40696717898E+02  0.16642672710E+02  0.54359054948E+02  0.10000000000E+01 0.  0.
    9000005    1    3    3    0    0  0.18398952763E+02  0.63132945096E+02 -0.35500700711E+02  0.74736804657E+02  0.10000000000E+01 0.  0.
         -4    1    1    2    0  502  0.13549528456E+02 -0.22436227198E+02  0.12743998979E+03  0.13011355775E+03  0.12700000000E+01 0.  1.
<mgrwt>
<rscale>  1 0.12771106E+03</rscale>
<asrwt>0</asrwt>
<pdfrwt beam="1">  1       21 0.28290821E-01 0.12771106E+03</pdfrwt>
<pdfrwt beam="2">  1       -4 0.11587065E-01 0.12771106E+03</pdfrwt>
<totfact> 0.28550397E+04</totfact>
</mgrwt>
</event>
<event>
 6    4  0.6093247E-003  0.1527407E+03  0.7818608E-02  0.1197145E+00
         -4   -1    0    0    0  501 -0.00000000000E+00  0.00000000000E+00  0.14609734210E+03  0.14610286194E+03  0.12700000000E+01 0.  1.
         21   -1    0    0  501  502  0.00000000000E+00 -0.00000000000E+00 -0.10424930075E+03  0.10424930075E+03  0.00000000000E+00 0. -1.
         25    2    1    2    0    0  0.53359606001E+02  0.69695233186E+02  0.53407725683E+02  0.16180888354E+03  0.12500022619E+03 0.  0.
    9000005    1    3    3    0    0 -0.61820690372E+01  0.67299506383E+02 -0.16869005525E+02  0.69663511857E+02  0.10000000000E+01 0.  0.
    9000005    1    3    3    0    0  0.59541675038E+02  0.23957268033E+01  0.70276731207E+02  0.92145371682E+02  0.10000000000E+01 0.  0.
         -4    1    1    2    0  502 -0.53359606001E+02 -0.69695233186E+02 -0.11559684332E+02  0.88543279154E+02  0.12700000000E+01 0. -1.
<mgrwt>
<rscale>  1 0.15274073E+03</rscale>
<asrwt>0</asrwt>
<pdfrwt beam="2">  1       21 0.16038354E-01 0.15274073E+03</pdfrwt>
<pdfrwt beam="1">  1       -4 0.22477534E-01 0.15274073E+03</pdfrwt>
<totfact> 0.26078183E+04</totfact>
</mgrwt>
</event>
<event>
 6    4  0.6093247E-003  0.1268485E+03  0.7818608E-02  0.1232208E+00
         21   -1    0    0  501  502  0.00000000000E+00  0.00000000000E+00  0.95382514098E+02  0.95382514098E+02  0.00000000000E+00 0. -1.
         -4   -1    0    0    0  501 -0.00000000000E+00 -0.00000000000E+00 -0.60154595754E+02  0.60168000551E+02  0.12700000000E+01 0. -1.
         25    2    1    2    0    0  0.13693054943E+02 -0.16646085520E+02  0.18400848251E+02  0.12817616343E+03  0.12500378290E+03 0.  0.
    9000005    1    3    3    0    0  0.43142852568E+02  0.10390664640E+02 -0.38411443172E+02  0.58700175519E+02  0.10000000000E+01 0.  0.
    9000005    1    3    3    0    0 -0.29449797625E+02 -0.27036750160E+02  0.56812291423E+02  0.69475987911E+02  0.10000000000E+01 0.  0.
         -4    1    1    2    0  502 -0.13693054943E+02  0.16646085520E+02  0.16827070093E+02  0.27374351220E+02  0.12700000000E+01 0.  1.
<mgrwt>
<rscale>  1 0.12684848E+03</rscale>
<asrwt>0</asrwt>
<pdfrwt beam="1">  1       21 0.14674233E-01 0.12684848E+03</pdfrwt>
<pdfrwt beam="2">  1       -4 0.92562347E-02 0.12684848E+03</pdfrwt>
<totfact> 0.14064165E+05</totfact>
</mgrwt>
</event>
<event>
 6    4  0.6093247E-003  0.1273307E+03  0.7818608E-02  0.1231471E+00
         21   -1    0    0  501  502  0.00000000000E+00  0.00000000000E+00  0.15177074337E+03  0.15177074337E+03  0.00000000000E+00 0.  1.
         -4   -1    0    0    0  501 -0.00000000000E+00 -0.00000000000E+00 -0.43613115063E+02  0.43631602142E+02  0.12700000000E+01 0. -1.
         25    2    1    2    0    0  0.38487217030E+01 -0.23931977711E+02  0.58492289146E+02  0.14012295487E+03  0.12500216948E+03 0.  0.
    9000005    1    3    3    0    0 -0.43726421713E+01 -0.11292311909E+02  0.97518867760E+02  0.98272915277E+02  0.10000000000E+01 0.  0.
    9000005    1    3    3    0    0  0.82213638743E+01 -0.12639665801E+02 -0.39026578614E+02  0.41850039592E+02  0.10000000000E+01 0.  0.
         -4    1    1    2    0  502 -0.38487217030E+01  0.23931977711E+02  0.49665339160E+02  0.55279390642E+02  0.12700000000E+01 0.  1.
<mgrwt>
<rscale>  1 0.12733065E+03</rscale>
<asrwt>0</asrwt>
<pdfrwt beam="1">  1       21 0.23349345E-01 0.12733065E+03</pdfrwt>
<pdfrwt beam="2">  1       -4 0.67115409E-02 0.12733065E+03</pdfrwt>
<totfact> 0.10205490E+05</totfact>
</mgrwt>
</event>
<event>
 6    4  0.6093247E-003  0.1279293E+03  0.7818608E-02  0.1230561E+00
         21   -1    0    0  501  502  0.00000000000E+00  0.00000000000E+00  0.19493920018E+03  0.19493920018E+03  0.00000000000E+00 0.  1.
          4   -1    0    0  502    0 -0.00000000000E+00 -0.00000000000E+00 -0.12094066313E+03  0.12094733109E+03  0.12700000000E+01 0. -1.
         25    2    1    2    0    0 -0.24755001318E+02  0.11320675510E+02 -0.85633791363E+02  0.15394499565E+03  0.12499979071E+03 0.  0.
    9000005    1    3    3    0    0 -0.55782043489E+02  0.41545566297E+02 -0.86007748379E+02  0.11061646910E+03  0.10000000000E+01 0.  0.
    9000005    1    3    3    0    0  0.31027042171E+02 -0.30224890787E+02  0.37395701563E+00  0.43328526548E+02  0.10000000000E+01 0.  0.
          4    1    1    2  501    0  0.24755001318E+02 -0.11320675510E+02  0.15963232841E+03  0.16194153562E+03  0.12700000000E+01 0.  1.
<mgrwt>
<rscale>  1 0.12792934E+03</rscale>
<asrwt>0</asrwt>
<pdfrwt beam="1">  1       21 0.29990646E-01 0.12792934E+03</pdfrwt>
<pdfrwt beam="2">  1        4 0.18607087E-01 0.12792934E+03</pdfrwt>
<totfact> 0.11190329E+04</totfact>
</mgrwt>
</event>
<event>
 6    4  0.6093247E-003  0.1348768E+03  0.7818608E-02  0.1220394E+00
          4   -1    0    0  502    0 -0.00000000000E+00  0.00000000000E+00  0.94511711780E+02  0.94520244200E+02  0.12700000000E+01 0.  1.
         21   -1    0    0  501  502  0.00000000000E+00 -0.00000000000E+00 -0.95826214487E+02  0.95826214487E+02  0.00000000000E+00 0.  1.
         25    2    1    2    0    0  0.49409156759E+02 -0.11206376411E+02 -0.19959345169E+02  0.13634561893E+03  0.12499961879E+03 0.  0.
    9000005    1    3    3    0    0 -0.32885428554E+02 -0.59317125453E+01 -0.39343196803E+02  0.51628710613E+02  0.10000000000E+01 0.  0.
    9000005    1    3    3    0    0  0.82294585313E+02 -0.52746638661E+01  0.19383851634E+02  0.84716908318E+02  0.10000000000E+01 0.  0.
          4    1    1    2  501    0 -0.49409156759E+02  0.11206376411E+02  0.18644842461E+02  0.54000839756E+02  0.12700000000E+01 0. -1.
<mgrwt>
<rscale>  1 0.13487680E+03</rscale>
<asrwt>0</asrwt>
<pdfrwt beam="2">  1       21 0.14742495E-01 0.13487680E+03</pdfrwt>
<pdfrwt beam="1">  1        4 0.14541567E-01 0.13487680E+03</pdfrwt>
<totfact> 0.65108372E+04</totfact>
</mgrwt>
</event>
<event>
 6    4  0.6093247E-003  0.1311725E+03  0.7818608E-02  0.1225726E+00
         21   -1    0    0  501  502  0.00000000000E+00  0.00000000000E+00  0.54915505034E+03  0.54915505034E+03  0.00000000000E+00 0. -1.
         -4   -1    0    0    0  501 -0.00000000000E+00 -0.00000000000E+00 -0.13365843524E+02  0.13426044582E+02  0.12700000000E+01 0. -1.
         25    2    1    2    0    0  0.37304717995E+02  0.13782727896E+02  0.39052710197E+03  0.41196802253E+03  0.12499851454E+03 0.  0.
    9000005    1    3    3    0    0  0.53521784727E+02  0.23855567935E+02  0.38832752195E+03  0.39272501049E+03  0.10000000000E+01 0.  0.
    9000005    1    3    3    0    0 -0.16217066732E+02 -0.10072840039E+02  0.21995800206E+01  0.19243012033E+02  0.10000000000E+01 0.  0.
         -4    1    1    2    0  502 -0.37304717995E+02 -0.13782727896E+02  0.14526210484E+03  0.15061307239E+03  0.12700000000E+01 0.  1.
<mgrwt>
<rscale>  1 0.13117254E+03</rscale>
<asrwt>0</asrwt>
<pdfrwt beam="1">  1       21 0.84485375E-01 0.13117254E+03</pdfrwt>
<pdfrwt beam="2">  1       -4 0.20610279E-02 0.13117254E+03</pdfrwt>
<totfact> 0.48103121E+04</totfact>
</mgrwt>
</event>
<event>
 6    4  0.6093247E-003  0.1296060E+03  0.7818608E-02  0.1228042E+00
         -4   -1    0    0    0  501 -0.00000000000E+00  0.00000000000E+00  0.52873477294E+02  0.52888727544E+02  0.12700000000E+01 0.  1.
         21   -1    0    0  501  502  0.00000000000E+00 -0.00000000000E+00 -0.12766963625E+03  0.12766963625E+03  0.00000000000E+00 0.  1.
         25    2    1    2    0    0 -0.32470241409E+02  0.10944564631E+02 -0.64426783252E+02  0.14473606732E+03  0.12499447472E+03 0.  0.
    9000005    1    3    3    0    0 -0.76306999978E+02  0.28955033094E+02 -0.47282511827E+02  0.94328087608E+02  0.10000000000E+01 0.  0.
    9000005    1    3    3    0    0  0.43836758569E+02 -0.18010468463E+02 -0.17144271425E+02  0.50407979713E+02  0.10000000000E+01 0.  0.
         -4    1    1    2    0  502  0.32470241409E+02 -0.10944564631E+02 -0.10369375704E+02  0.35822296473E+02  0.12700000000E+01 0. -1.
<mgrwt>
<rscale>  1 0.12960601E+03</rscale>
<asrwt>0</asrwt>
<pdfrwt beam="2">  1       21 0.19641482E-01 0.12960601E+03</pdfrwt>
<pdfrwt beam="1">  1       -4 0.81360401E-02 0.12960601E+03</pdfrwt>
<totfact> 0.10281829E+05</totfact>
</mgrwt>
</event>
<event>
 6    4  0.6093247E-003  0.1354917E+03  0.7818608E-02  0.1219527E+00
         -4   -1    0    0    0  501 -0.00000000000E+00  0.00000000000E+00  0.77624498812E+02  0.77634887234E+02  0.12700000000E+01 0. -1.
         21   -1    0    0  501  502  0.00000000000E+00 -0.00000000000E+00 -0.11606000036E+03  0.11606000036E+03  0.00000000000E+00 0. -1.
         25    2    1    2    0    0 -0.10249478637E+02  0.51263134460E+02 -0.40332538978E+02  0.14136733827E+03  0.12500019945E+03 0.  0.
    9000005    1    3    3    0    0 -0.58993477423E+02  0.43364606285E+02  0.62312202070E+01  0.73488417876E+02  0.10000000000E+01 0.  0.
    9000005    1    3    3    0    0  0.48743998786E+02  0.78985281750E+01 -0.46563759185E+02  0.67878920398E+02  0.10000000000E+01 0.  0.
         -4    1    1    2    0  502  0.10249478637E+02 -0.51263134460E+02  0.18970374286E+01  0.52327549321E+02  0.12700000000E+01 0.  1.
<mgrwt>
<rscale>  1 0.13549174E+03</rscale>
<asrwt>0</asrwt>
<pdfrwt beam="2">  1       21 0.17855385E-01 0.13549174E+03</pdfrwt>
<pdfrwt beam="1">  1       -4 0.11943564E-01 0.13549174E+03</pdfrwt>
<totfact> 0.64591743E+04</totfact>
</mgrwt>
</event>
<event>
 6    4  0.6093247E-003  0.1274193E+03  0.7818608E-02  0.1231336E+00
          4   -1    0    0  502    0 -0.00000000000E+00  0.00000000000E+00  0.17363252880E+03  0.17363717332E+03  0.12700000000E+01 0.  1.
         21   -1    0    0  501  502  0.00000000000E+00 -0.00000000000E+00 -0.43370299278E+02  0.43370299278E+02  0.00000000000E+00 0.  1.
         25    2    1    2    0    0 -0.11631144424E+02 -0.21805766858E+02  0.14098936723E+03  0.19003601783E+03  0.12499964564E+03 0.  0.
    9000005    1    3    3    0    0 -0.12916533515E+02  0.45067502850E+02  0.18380343079E+02  0.50366195637E+02  0.10000000000E+01 0.  0.
    9000005    1    3    3    0    0  0.12853890918E+01 -0.66873269709E+02  0.12260902415E+03  0.13966982219E+03  0.10000000000E+01 0.  0.
          4    1    1    2  501    0  0.11631144424E+02  0.21805766858E+02 -0.10727137710E+02  0.26971454769E+02  0.12700000000E+01 0. -1.
<mgrwt>
<rscale>  1 0.12741933E+03</rscale>
<asrwt>0</asrwt>
<pdfrwt beam="2">  1       21 0.66723539E-02 0.12741933E+03</pdfrwt>
<pdfrwt beam="1">  1        4 0.26714484E-01 0.12741933E+03</pdfrwt>
<totfact> 0.86804295E+04</totfact>
</mgrwt>
</event>
<event>
 6    4  0.6093247E-003  0.1451465E+03  0.7818608E-02  0.1206567E+00
          4   -1    0    0  502    0 -0.00000000000E+00  0.00000000000E+00  0.81874270869E+02  0.81884120135E+02  0.12700000000E+01 0. -1.
         21   -1    0    0  501  502  0.00000000000E+00 -0.00000000000E+00 -0.21905576618E+03  0.21905576618E+03  0.00000000000E+00 0.  1.
         25    2    1    2    0    0  0.15837408925E+02  0.72049126068E+02  0.33912430601E-01  0.14514649393E+03  0.12500241382E+03 0.  0.
    9000005    1    3    3    0    0 -0.19525072329E+01 -0.34879289506E+02  0.98233920494E+01  0.36302563990E+02  0.10000000000E+01 0.  0.
    9000005    1    3    3    0    0  0.17789916158E+02  0.10692841557E+03 -0.97894796188E+01  0.10884392994E+03  0.10000000000E+01 0.  0.
          4    1    1    2  501    0 -0.15837408925E+02 -0.72049126068E+02 -0.13721540774E+03  0.15579339238E+03  0.12700000000E+01 0.  1.
<mgrwt>
<rscale>  1 0.14514649E+03</rscale>
<asrwt>0</asrwt>
<pdfrwt beam="2">  1       21 0.33700887E-01 0.14514649E+03</pdfrwt>
<pdfrwt beam="1">  1        4 0.12597083E-01 0.14514649E+03</pdfrwt>
<totfact> 0.17842951E+04</totfact>
</mgrwt>
</event>
<event>
 6    4  0.6093247E-003  0.1519562E+03  0.7818608E-02  0.1198090E+00
         21   -1    0    0  501  502  0.00000000000E+00  0.00000000000E+00  0.47960448180E+03  0.47960448180E+03  0.00000000000E+00 0.  1.
          4   -1    0    0  502    0 -0.00000000000E+00 -0.00000000000E+00 -0.66939336166E+02  0.66951382557E+02  0.12700000000E+01 0. -1.
         25    2    1    2    0    0 -0.97511064522E-01 -0.86404408749E+02  0.30814044251E+02  0.15504902165E+03  0.12499984973E+03 0.  0.
    9000005    1    3    3    0    0  0.37351261555E+02 -0.10378213684E+03  0.27114714624E+02  0.11358721942E+03  0.10000000000E+01 0.  0.
    9000005    1    3    3    0    0 -0.37448772619E+02  0.17377728090E+02  0.36993296268E+01  0.41461802227E+02  0.10000000000E+01 0.  0.
          4    1    1    2  501    0  0.97511064522E-01  0.86404408749E+02  0.38185110139E+03  0.39150684271E+03  0.12700000000E+01 0.  1.
<mgrwt>
<rscale>  1 0.15195622E+03</rscale>
<asrwt>0</asrwt>
<pdfrwt beam="1">  1       21 0.73785303E-01 0.15195622E+03</pdfrwt>
<pdfrwt beam="2">  1        4 0.10299416E-01 0.15195622E+03</pdfrwt>
<totfact> 0.49615779E+03</totfact>
</mgrwt>
</event>
<event>
 6    4  0.6093247E-003  0.1266040E+03  0.7818608E-02  0.1232584E+00
         -4   -1    0    0    0  501 -0.00000000000E+00  0.00000000000E+00  0.78119766697E+02  0.78130089267E+02  0.12700000000E+01 0.  1.
         21   -1    0    0  501  502  0.00000000000E+00 -0.00000000000E+00 -0.10788214965E+03  0.10788214965E+03  0.00000000000E+00 0.  1.
         25    2    1    2    0    0 -0.49943609851E+01 -0.19436145232E+02  0.23780654456E+02  0.12881803346E+03  0.12500343529E+03 0.  0.
    9000005    1    3    3    0    0 -0.10675986978E+02  0.12615923209E+00  0.73917673564E+02  0.74691465907E+02  0.10000000000E+01 0.  0.
    9000005    1    3    3    0    0  0.56816259932E+01 -0.19562304464E+02 -0.50137019108E+02  0.54126567552E+02  0.10000000000E+01 0.  0.
         -4    1    1    2    0  502  0.49943609851E+01  0.19436145232E+02 -0.53543037412E+02  0.57194205462E+02  0.12700000000E+01 0. -1.
<mgrwt>
<rscale>  1 0.12660397E+03</rscale>
<asrwt>0</asrwt>
<pdfrwt beam="2">  1       21 0.16597254E-01 0.12660397E+03</pdfrwt>
<pdfrwt beam="1">  1       -4 0.12019795E-01 0.12660397E+03</pdfrwt>
<totfact> 0.72373660E+04</totfact>
</mgrwt>
</event>
<event>
 6    4  0.6093247E-003  0.1268062E+03  0.7818608E-02  0.1232273E+00
         21   -1    0    0  501  502  0.00000000000E+00  0.00000000000E+00  0.19182760347E+02  0.19182760347E+02  0.00000000000E+00 0. -1.
          4   -1    0    0  502    0 -0.00000000000E+00 -0.00000000000E+00 -0.51327738416E+03  0.51327895533E+03  0.12700000000E+01 0. -1.
         25    2    1    2    0    0  0.44602805727E+01 -0.20869729729E+02 -0.49507858866E+03  0.51106029496E+03  0.12499750563E+03 0.  0.
    9000005    1    3    3    0    0  0.50982535608E+02  0.30166510533E+01 -0.39354020580E+03  0.39684154608E+03  0.10000000000E+01 0.  0.
    9000005    1    3    3    0    0 -0.46522255036E+02 -0.23886380783E+02 -0.10153838287E+03  0.11421874888E+03  0.10000000000E+01 0.  0.
          4    1    1    2  501    0 -0.44602805727E+01  0.20869729729E+02  0.98396485409E+00  0.21401420714E+02  0.12700000000E+01 0.  1.
<mgrwt>
<rscale>  1 0.12680621E+03</rscale>
<asrwt>0</asrwt>
<pdfrwt beam="1">  1       21 0.29511943E-02 0.12680621E+03</pdfrwt>
<pdfrwt beam="2">  1        4 0.78969096E-01 0.12680621E+03</pdfrwt>
<totfact> 0.38144025E+04</totfact>
</mgrwt>
</event>
<event>
 6    4  0.6093247E-003  0.1285543E+03  0.7818608E-02  0.1229617E+00
         21   -1    0    0  501  502  0.00000000000E+00  0.00000000000E+00  0.10640064909E+03  0.10640064909E+03  0.00000000000E+00 0. -1.
         -4   -1    0    0    0  501 -0.00000000000E+00 -0.00000000000E+00 -0.97462845210E+02  0.97471119294E+02  0.12700000000E+01 0. -1.
         25    2    1    2    0    0  0.23751906208E+02 -0.18330344529E+02 -0.49831713140E+02  0.13787461989E+03  0.12500422631E+03 0.  0.
    9000005    1    3    3    0    0  0.59181571082E+02 -0.52648947519E+02 -0.30416003084E+02  0.84855779262E+02  0.10000000000E+01 0.  0.
    9000005    1    3    3    0    0 -0.35429664874E+02  0.34318602990E+02 -0.19415710055E+02  0.53018840625E+02  0.10000000000E+01 0.  0.
         -4    1    1    2    0  502 -0.23751906208E+02  0.18330344529E+02  0.58769517015E+02  0.65997148494E+02  0.12700000000E+01 0.  1.
<mgrwt>
<rscale>  1 0.12855431E+03</rscale>
<asrwt>0</asrwt>
<pdfrwt beam="1">  1       21 0.16369331E-01 0.12855431E+03</pdfrwt>
<pdfrwt beam="2">  1       -4 0.14995503E-01 0.12855431E+03</pdfrwt>
<totfact> 0.50763850E+04</totfact>
</mgrwt>
</event>
<event>
 6    4  0.6093247E-003  0.1269876E+03  0.7818608E-02  0.1231995E+00
         -4   -1    0    0    0  501 -0.00000000000E+00  0.00000000000E+00  0.54734946894E+03  0.54735094231E+03  0.12700000000E+01 0.  1.
         21   -1    0    0  501  502  0.00000000000E+00 -0.00000000000E+00 -0.26423279456E+02  0.26423279456E+02  0.00000000000E+00 0. -1.
         25    2    1    2    0    0  0.20966545194E+02 -0.78715625073E+01  0.53326271521E+03  0.54817421629E+03  0.12499716180E+03 0.  0.
    9000005    1    3    3    0    0  0.47951713164E+02 -0.54729449002E+02  0.29337164176E+03  0.30226246802E+03  0.10000000000E+01 0.  0.
    9000005    1    3    3    0    0 -0.26985167970E+02  0.46857886495E+02  0.23989107345E+03  0.24591174827E+03  0.10000000000E+01 0.  0.
         -4    1    1    2    0  502 -0.20966545194E+02  0.78715625073E+01 -0.12336525723E+02  0.25600005480E+02  0.12700000000E+01 0. -1.
<mgrwt>
<rscale>  1 0.12698759E+03</rscale>
<asrwt>0</asrwt>
<pdfrwt beam="2">  1       21 0.40651203E-02 0.12698759E+03</pdfrwt>
<pdfrwt beam="1">  1       -4 0.84210063E-01 0.12698759E+03</pdfrwt>
<totfact> 0.19509153E+04</totfact>
</mgrwt>
</event>
<event>
 6    4  0.6093247E-003  0.1281447E+03  0.7818608E-02  0.1230235E+00
          4   -1    0    0  502    0 -0.00000000000E+00  0.00000000000E+00  0.99310329559E+03  0.99310410764E+03  0.12700000000E+01 0.  1.
         21   -1    0    0  501  502  0.00000000000E+00 -0.00000000000E+00 -0.15307537984E+02  0.15307537984E+02  0.00000000000E+00 0. -1.
         25    2    1    2    0    0  0.20672912983E+02  0.19227941479E+02  0.97090159286E+03  0.97932169079E+03  0.12499595185E+03 0.  0.
    9000005    1    3    3    0    0  0.26910998423E+02 -0.50161320124E+02  0.51295462232E+03  0.51610445108E+03  0.10000000000E+01 0.  0.
    9000005    1    3    3    0    0 -0.62380854403E+01  0.69389261603E+02  0.45794697054E+03  0.46321723971E+03  0.10000000000E+01 0.  0.
          4    1    1    2  501    0 -0.20672912983E+02 -0.19227941479E+02  0.68941647521E+01  0.29089954836E+02  0.12700000000E+01 0. -1.
<mgrwt>
<rscale>  1 0.12814473E+03</rscale>
<asrwt>0</asrwt>
<pdfrwt beam="2">  1       21 0.23550066E-02 0.12814473E+03</pdfrwt>
<pdfrwt beam="1">  1        4 0.15278919E+00 0.12814473E+03</pdfrwt>
<totfact> 0.11616793E+04</totfact>
</mgrwt>
</event>
<event>
 6    4  0.6093247E-003  0.1294702E+03  0.7818608E-02  0.1228244E+00
          4   -1    0    0  502    0 -0.00000000000E+00  0.00000000000E+00  0.10814012675E+03  0.10814758395E+03  0.12700000000E+01 0.  1.
         21   -1    0    0  501  502  0.00000000000E+00 -0.00000000000E+00 -0.10661574147E+03  0.10661574147E+03  0.00000000000E+00 0. -1.
         25    2    1    2    0    0  0.19479979883E+02  0.27537235205E+02  0.63490667018E+02  0.14419986525E+03  0.12499906960E+03 0.  0.
    9000005    1    3    3    0    0 -0.29459918347E+01  0.38067871848E+02  0.95996876461E+02  0.10331622344E+03  0.10000000000E+01 0.  0.
    9000005    1    3    3    0    0  0.22425971718E+02 -0.10530636644E+02 -0.32506209444E+02  0.40883641814E+02  0.10000000000E+01 0.  0.
          4    1    1    2  501    0 -0.19479979883E+02 -0.27537235205E+02 -0.61966281739E+02  0.70563460173E+02  0.12700000000E+01 0. -1.
<mgrwt>
<rscale>  1 0.12947021E+03</rscale>
<asrwt>0</asrwt>
<pdfrwt beam="2">  1       21 0.16402422E-01 0.12947021E+03</pdfrwt>
<pdfrwt beam="1">  1        4 0.16638098E-01 0.12947021E+03</pdfrwt>
<totfact> 0.42189632E+04</totfact>
</mgrwt>
</event>
<event>
 6    4  0.6093247E-003  0.1388877E+03  0.7818608E-02  0.1214833E+00
         21   -1    0    0  501  502  0.00000000000E+00  0.00000000000E+00  0.36801547215E+02  0.36801547215E+02  0.00000000000E+00 0. -1.
          4   -1    0    0  502    0 -0.00000000000E+00 -0.00000000000E+00 -0.34776642577E+03  0.34776874470E+03  0.12700000000E+01 0.  1.
         25    2    1    2    0    0 -0.25342187684E+02 -0.54988167356E+02 -0.28811308896E+03  0.31984207386E+03  0.12499550053E+03 0.  0.
    9000005    1    3    3    0    0  0.24932273355E+02  0.29955347912E+02 -0.63780258365E+02  0.74752006530E+02  0.10000000000E+01 0.  0.
    9000005    1    3    3    0    0 -0.50274461039E+02 -0.84943515268E+02 -0.22433283060E+03  0.24509006733E+03  0.10000000000E+01 0.  0.
          4    1    1    2  501    0  0.25342187684E+02  0.54988167356E+02 -0.22851789592E+02  0.64728218061E+02  0.12700000000E+01 0. -1.
<mgrwt>
<rscale>  1 0.13888773E+03</rscale>
<asrwt>0</asrwt>
<pdfrwt beam="1">  1       21 0.56617767E-02 0.13888773E+03</pdfrwt>
<pdfrwt beam="2">  1        4 0.53504389E-01 0.13888773E+03</pdfrwt>
<totfact> 0.29865074E+04</totfact>
</mgrwt>
</event>
<event>
 6    4  0.6093247E-003  0.1267599E+03  0.7818608E-02  0.1232344E+00
         -4   -1    0    0    0  501 -0.00000000000E+00  0.00000000000E+00  0.74809008924E+03  0.74809116725E+03  0.12700000000E+01 0. -1.
         21   -1    0    0  501  502  0.00000000000E+00 -0.00000000000E+00 -0.73463898968E+01  0.73463898968E+01  0.00000000000E+00 0. -1.
         25    2    1    2    0    0  0.10052898746E+02  0.18457737995E+02  0.65436188323E+03  0.66652647842E+03  0.12500529328E+03 0.  0.
    9000005    1    3    3    0    0  0.61437903402E+02 -0.11783937194E+02  0.24590105246E+03  0.25373569862E+03  0.10000000000E+01 0.  0.
    9000005    1    3    3    0    0 -0.51385004656E+02  0.30241675189E+02  0.40846083076E+03  0.41279077980E+03  0.10000000000E+01 0.  0.
         -4    1    1    2    0  502 -0.10052898746E+02 -0.18457737995E+02  0.86381816120E+02  0.88911078732E+02  0.12700000000E+01 0.  1.
<mgrwt>
<rscale>  1 0.12675990E+03</rscale>
<asrwt>0</asrwt>
<pdfrwt beam="2">  1       21 0.11302144E-02 0.12675990E+03</pdfrwt>
<pdfrwt beam="1">  1       -4 0.11509925E+00 0.12675990E+03</pdfrwt>
<totfact> 0.75475206E+04</totfact>
</mgrwt>
</event>
<event>
 6    4  0.6093247E-003  0.1279099E+03  0.7818608E-02  0.1230590E+00
         21   -1    0    0  501  502  0.00000000000E+00  0.00000000000E+00  0.69976011428E+02  0.69976011428E+02  0.00000000000E+00 0.  1.
         -4   -1    0    0    0  501 -0.00000000000E+00 -0.00000000000E+00 -0.11897474761E+03  0.11898152574E+03  0.12700000000E+01 0. -1.
         25    2    1    2    0    0  0.91205326186E+01  0.25540986825E+02 -0.77530306664E+02  0.14957239355E+03  0.12500170534E+03 0.  0.
    9000005    1    3    3    0    0 -0.45177593352E+02 -0.26607125559E+02 -0.35741936981E+02  0.63462115713E+02  0.10000000000E+01 0.  0.
    9000005    1    3    3    0    0  0.54298125971E+02  0.52148112384E+02 -0.41788369684E+02  0.86110277842E+02  0.10000000000E+01 0.  0.
         -4    1    1    2    0  502 -0.91205326186E+01 -0.25540986825E+02  0.28531570486E+02  0.39385143616E+02  0.12700000000E+01 0.  1.
<mgrwt>
<rscale>  1 0.12790994E+03</rscale>
<asrwt>0</asrwt>
<pdfrwt beam="1">  1       21 0.10765540E-01 0.12790994E+03</pdfrwt>
<pdfrwt beam="2">  1       -4 0.18305215E-01 0.12790994E+03</pdfrwt>
<totfact> 0.75454463E+04</totfact>
</mgrwt>
</event>
<event>
 6    4  0.6093247E-003  0.1316520E+03  0.7818608E-02  0.1225025E+00
         21   -1    0    0  501  502  0.00000000000E+00  0.00000000000E+00  0.53201782126E+02  0.53201782126E+02  0.00000000000E+00 0.  1.
          4   -1    0    0  502    0 -0.00000000000E+00 -0.00000000000E+00 -0.23002479055E+03  0.23002829645E+03  0.12700000000E+01 0. -1.
         25    2    1    2    0    0  0.22198371463E+02  0.34838051525E+02 -0.19723384352E+03  0.23713590737E+03  0.12500316798E+03 0.  0.
    9000005    1    3    3    0    0 -0.31925670908E+01 -0.46398396812E+02 -0.71430870528E+02  0.85243023033E+02  0.10000000000E+01 0.  0.
    9000005    1    3    3    0    0  0.25390938554E+02  0.81236448337E+02 -0.12580297299E+03  0.15189288434E+03  0.10000000000E+01 0.  0.
          4    1    1    2  501    0 -0.22198371463E+02 -0.34838051525E+02  0.20410835096E+02  0.46094171204E+02  0.12700000000E+01 0.  1.
<mgrwt>
<rscale>  1 0.13165200E+03</rscale>
<asrwt>0</asrwt>
<pdfrwt beam="1">  1       21 0.81848896E-02 0.13165200E+03</pdfrwt>
<pdfrwt beam="2">  1        4 0.35389865E-01 0.13165200E+03</pdfrwt>
<totfact> 0.36036451E+04</totfact>
</mgrwt>
</event>
<event>
 6    4  0.6093247E-003  0.1358161E+03  0.7818608E-02  0.1219072E+00
         21   -1    0    0  501  502  0.00000000000E+00  0.00000000000E+00  0.24022432963E+02  0.24022432963E+02  0.00000000000E+00 0. -1.
         -4   -1    0    0    0  501 -0.00000000000E+00 -0.00000000000E+00 -0.67728957283E+03  0.67729076353E+03  0.12700000000E+01 0.  1.
         25    2    1    2    0    0  0.14605054171E+02 -0.51077938219E+02 -0.62791478077E+03  0.64243520068E+03  0.12499500698E+03 0.  0.
    9000005    1    3    3    0    0  0.62796425478E+02 -0.10691323527E+02 -0.43208394941E+03  0.43675534890E+03  0.10000000000E+01 0.  0.
    9000005    1    3    3    0    0 -0.48191371308E+02 -0.40386614692E+02 -0.19583083136E+03  0.20567985178E+03  0.10000000000E+01 0.  0.
         -4    1    1    2    0  502 -0.14605054171E+02  0.51077938219E+02 -0.25352359091E+02  0.58877995818E+02  0.12700000000E+01 0. -1.
<mgrwt>
<rscale>  1 0.13581611E+03</rscale>
<asrwt>0</asrwt>
<pdfrwt beam="1">  1       21 0.36957590E-02 0.13581611E+03</pdfrwt>
<pdfrwt beam="2">  1       -4 0.10420107E+00 0.13581611E+03</pdfrwt>
<totfact> 0.14164203E+04</totfact>
</mgrwt>
</event>
<event>
 6    4  0.6093247E-003  0.1282482E+03  0.7818608E-02  0.1230078E+00
         -4   -1    0    0    0  501 -0.00000000000E+00  0.00000000000E+00  0.11716092661E+04  0.11716099544E+04  0.12700000000E+01 0.  1.
         21   -1    0    0  501  502  0.00000000000E+00 -0.00000000000E+00 -0.77837174654E+01  0.77837174654E+01  0.00000000000E+00 0.  1.
         25    2    1    2    0    0  0.10548902956E+02 -0.26674631354E+02  0.11178908789E+04  0.11252233655E+04  0.12499915927E+03 0.  0.
    9000005    1    3    3    0    0 -0.38225594031E+01 -0.24387037763E+02  0.11063433018E+04  0.11066191038E+04  0.10000000000E+01 0.  0.
    9000005    1    3    3    0    0  0.14371462359E+02 -0.22875935905E+01  0.11547577124E+02  0.18604261668E+02  0.10000000000E+01 0.  0.
         -4    1    1    2    0  502 -0.10548902956E+02  0.26674631354E+02  0.45934669732E+02  0.54170306394E+02  0.12700000000E+01 0. -1.
<mgrwt>
<rscale>  1 0.12824822E+03</rscale>
<asrwt>0</asrwt>
<pdfrwt beam="2">  1       21 0.11974959E-02 0.12824822E+03</pdfrwt>
<pdfrwt beam="1">  1       -4 0.18025546E+00 0.12824822E+03</pdfrwt>
<totfact> 0.22228504E+04</totfact>
</mgrwt>
</event>
<event>
 6    4  0.6093247E-003  0.1288968E+03  0.7818608E-02  0.1229102E+00
         21   -1    0    0  501  502  0.00000000000E+00  0.00000000000E+00  0.14689288516E+03  0.14689288516E+03  0.00000000000E+00 0.  1.
          4   -1    0    0  502    0 -0.00000000000E+00 -0.00000000000E+00 -0.43949790952E+02  0.43968136471E+02  0.12700000000E+01 0.  1.
         25    2    1    2    0    0 -0.30432658560E+02 -0.79286827949E+01  0.87597491319E+02  0.15584515172E+03  0.12500152043E+03 0.  0.
    9000005    1    3    3    0    0 -0.66511891196E+02  0.77738360935E+01  0.94558873390E+02  0.11587339960E+03  0.10000000000E+01 0.  0.
    9000005    1    3    3    0    0  0.36079232636E+02 -0.15702518888E+02 -0.69613820706E+01  0.39971752118E+02  0.10000000000E+01 0.  0.
          4    1    1    2  501    0  0.30432658560E+02  0.79286827949E+01  0.15345602892E+02  0.35015869917E+02  0.12700000000E+01 0. -1.
<mgrwt>
<rscale>  1 0.12889682E+03</rscale>
<asrwt>0</asrwt>
<pdfrwt beam="1">  1       21 0.22598905E-01 0.12889682E+03</pdfrwt>
<pdfrwt beam="2">  1        4 0.67633399E-02 0.12889682E+03</pdfrwt>
<totfact> 0.10731872E+05</totfact>
</mgrwt>
</event>
<event>
 6    4  0.6093247E-003  0.1282188E+03  0.7818608E-02  0.1230123E+00
         21   -1    0    0  501  502  0.00000000000E+00  0.00000000000E+00  0.18633532781E+03  0.18633532781E+03  0.00000000000E+00 0.  1.
         -4   -1    0    0    0  501 -0.00000000000E+00 -0.00000000000E+00 -0.10107231453E+03  0.10108029316E+03  0.12700000000E+01 0. -1.
         25    2    1    2    0    0 -0.22288018744E+02  0.17819832001E+02 -0.58434575844E+02  0.14090653520E+03  0.12500299923E+03 0.  0.
    9000005    1    3    3    0    0 -0.36531023196E+02 -0.31528677283E+02 -0.72996194808E+02  0.87510100007E+02  0.10000000000E+01 0.  0.
    9000005    1    3    3    0    0  0.14243004452E+02  0.49348509284E+02  0.14561618964E+02  0.53396435192E+02  0.10000000000E+01 0.  0.
         -4    1    1    2    0  502  0.22288018744E+02 -0.17819832001E+02  0.14369758913E+03  0.14650908577E+03  0.12700000000E+01 0.  1.
<mgrwt>
<rscale>  1 0.12821877E+03</rscale>
<asrwt>0</asrwt>
<pdfrwt beam="1">  1       21 0.28666973E-01 0.12821877E+03</pdfrwt>
<pdfrwt beam="2">  1       -4 0.15550534E-01 0.12821877E+03</pdfrwt>
<totfact> 0.16759339E+04</totfact>
</mgrwt>
</event>
<event>
 6    4  0.6093247E-003  0.1292210E+03  0.7818608E-02  0.1228616E+00
         -4   -1    0    0    0  501 -0.00000000000E+00  0.00000000000E+00  0.15252940912E+02  0.15305721364E+02  0.12700000000E+01 0. -1.
         21   -1    0    0  501  502  0.00000000000E+00 -0.00000000000E+00 -0.57436519908E+03  0.57436519908E+03  0.00000000000E+00 0.  1.
         25    2    1    2    0    0 -0.32242715492E+02  0.58240445527E+01 -0.27698688569E+03  0.30564653611E+03  0.12499823198E+03 0.  0.
    9000005    1    3    3    0    0  0.22836186840E+02  0.29213503584E+02 -0.20728233664E+02  0.42492115643E+02  0.10000000000E+01 0.  0.
    9000005    1    3    3    0    0 -0.55078902331E+02 -0.23389459032E+02 -0.25625865203E+03  0.26315442047E+03  0.10000000000E+01 0.  0.
         -4    1    1    2    0  502  0.32242715492E+02 -0.58240445527E+01 -0.28212537248E+03  0.28402438433E+03  0.12700000000E+01 0.  1.
<mgrwt>
<rscale>  1 0.12922101E+03</rscale>
<asrwt>0</asrwt>
<pdfrwt beam="2">  1       21 0.88363854E-01 0.12922101E+03</pdfrwt>
<pdfrwt beam="1">  1       -4 0.23507749E-02 0.12922101E+03</pdfrwt>
<totfact> 0.35405272E+04</totfact>
</mgrwt>
</event>
<event>
 6    4  0.6093247E-003  0.1449706E+03  0.7818608E-02  0.1206793E+00
         21   -1    0    0  501  502  0.00000000000E+00  0.00000000000E+00  0.34903587241E+02  0.34903587241E+02  0.00000000000E+00 0. -1.
         -4   -1    0    0    0  501 -0.00000000000E+00 -0.00000000000E+00 -0.40342838984E+03  0.40343038883E+03  0.12700000000E+01 0.  1.
         25    2    1    2    0    0  0.46688929888E+02 -0.56682055229E+02 -0.31712119988E+03  0.34868658441E+03  0.12499506860E+03 0.  0.
    9000005    1    3    3    0    0 -0.34087386111E+02 -0.30499534836E+01 -0.29614553226E+02  0.45268906226E+02  0.10000000000E+01 0.  0.
    9000005    1    3    3    0    0  0.80776315998E+02 -0.53632101746E+02 -0.28750664665E+03  0.30341767818E+03  0.10000000000E+01 0.  0.
         -4    1    1    2    0  502 -0.46688929888E+02  0.56682055229E+02 -0.51403602725E+02  0.89647391664E+02  0.12700000000E+01 0. -1.
<mgrwt>
<rscale>  1 0.14497061E+03</rscale>
<asrwt>0</asrwt>
<pdfrwt beam="1">  1       21 0.53697826E-02 0.14497061E+03</pdfrwt>
<pdfrwt beam="2">  1       -4 0.62067838E-01 0.14497061E+03</pdfrwt>
<totfact> 0.24071186E+04</totfact>
</mgrwt>
</event>
<event>
 6    4  0.6093247E-003  0.1274205E+03  0.7818608E-02  0.1231334E+00
         -4   -1    0    0    0  501 -0.00000000000E+00  0.00000000000E+00  0.10546076722E+04  0.10546084369E+04  0.12700000000E+01 0. -1.
         21   -1    0    0  501  502  0.00000000000E+00 -0.00000000000E+00 -0.56385151500E+01  0.56385151500E+01  0.00000000000E+00 0. -1.
         25    2    1    2    0    0 -0.17369816169E+02  0.17582246131E+02  0.80448201569E+03  0.81451046496E+03  0.12500055227E+03 0.  0.
    9000005    1    3    3    0    0  0.42885028479E+02 -0.28248659236E+02  0.29609828507E+03  0.30052006062E+03  0.10000000000E+01 0.  0.
    9000005    1    3    3    0    0 -0.60254844648E+02  0.45830905367E+02  0.50838373062E+03  0.51399040434E+03  0.10000000000E+01 0.  0.
         -4    1    1    2    0  502  0.17369816169E+02 -0.17582246131E+02  0.24448714136E+03  0.24573648708E+03  0.12700000000E+01 0.  1.
<mgrwt>
<rscale>  1 0.12742050E+03</rscale>
<asrwt>0</asrwt>
<pdfrwt beam="2">  1       21 0.86746471E-03 0.12742050E+03</pdfrwt>
<pdfrwt beam="1">  1       -4 0.16225824E+00 0.12742050E+03</pdfrwt>
<totfact> 0.48859591E+04</totfact>
</mgrwt>
</event>
<event>
 6    4  0.6093247E-003  0.1284041E+03  0.7818608E-02  0.1229843E+00
          4   -1    0    0  502    0 -0.00000000000E+00  0.00000000000E+00  0.12915527317E+03  0.12916151705E+03  0.12700000000E+01 0. -1.
         21   -1    0    0  501  502  0.00000000000E+00 -0.00000000000E+00 -0.67661023919E+02  0.67661023919E+02  0.00000000000E+00 0.  1.
         25    2    1    2    0    0  0.58831965602E+01  0.28766410801E+02  0.89268488882E+02  0.15638568057E+03  0.12500199834E+03 0.  0.
    9000005    1    3    3    0    0  0.57171790843E+02  0.12995350302E+02  0.84023727583E+02  0.10246208857E+03  0.10000000000E+01 0.  0.
    9000005    1    3    3    0    0 -0.51288594283E+02  0.15771060499E+02  0.52447612986E+01  0.53923591997E+02  0.10000000000E+01 0.  0.
          4    1    1    2  501    0 -0.58831965602E+01 -0.28766410801E+02 -0.27774239631E+02  0.40436860403E+02  0.12700000000E+01 0.  1.
<mgrwt>
<rscale>  1 0.12840412E+03</rscale>
<asrwt>0</asrwt>
<pdfrwt beam="2">  1       21 0.10409388E-01 0.12840412E+03</pdfrwt>
<pdfrwt beam="1">  1        4 0.19871439E-01 0.12840412E+03</pdfrwt>
<totfact> 0.69156857E+04</totfact>
</mgrwt>
</event>
<event>
 6    4  0.6093247E-003  0.1409068E+03  0.7818608E-02  0.1212114E+00
          4   -1    0    0  502    0 -0.00000000000E+00  0.00000000000E+00  0.56476931209E+03  0.56477074001E+03  0.12700000000E+01 0. -1.
         21   -1    0    0  501  502  0.00000000000E+00 -0.00000000000E+00 -0.11452727688E+03  0.11452727688E+03  0.00000000000E+00 0.  1.
         25    2    1    2    0    0  0.57932841507E+02  0.29582551554E+02  0.54579931295E+03  0.56369460988E+03  0.12499352666E+03 0.  0.
    9000005    1    3    3    0    0  0.73295752721E+02  0.43476322194E+02  0.20164268142E+03  0.21891374769E+03  0.10000000000E+01 0.  0.
    9000005    1    3    3    0    0 -0.15362911214E+02 -0.13893770640E+02  0.34415663154E+03  0.34478086219E+03  0.10000000000E+01 0.  0.
          4    1    1    2  501    0 -0.57932841507E+02 -0.29582551554E+02 -0.95557277746E+02  0.11560340701E+03  0.12700000000E+01 0.  1.
<mgrwt>
<rscale>  1 0.14090679E+03</rscale>
<asrwt>0</asrwt>
<pdfrwt beam="2">  1       21 0.17619581E-01 0.14090679E+03</pdfrwt>
<pdfrwt beam="1">  1        4 0.86888237E-01 0.14090679E+03</pdfrwt>
<totfact> 0.14357556E+03</totfact>
</mgrwt>
</event>
<event>
 6    4  0.6093247E-003  0.1295213E+03  0.7818608E-02  0.1228168E+00
         -4   -1    0    0    0  501 -0.00000000000E+00  0.00000000000E+00  0.23392563840E+03  0.23392908583E+03  0.12700000000E+01 0. -1.
         21   -1    0    0  501  502  0.00000000000E+00 -0.00000000000E+00 -0.38786335967E+02  0.38786335967E+02  0.00000000000E+00 0.  1.
         25    2    1    2    0    0 -0.11264483584E+02 -0.32001921988E+02  0.20014464607E+03  0.23839810888E+03  0.12499906946E+03 0.  0.
    9000005    1    3    3    0    0 -0.20289677076E+02  0.44856689375E+02  0.10323105625E+03  0.11437414285E+03  0.10000000000E+01 0.  0.
    9000005    1    3    3    0    0  0.90251934921E+01 -0.76858611363E+02  0.96913589818E+02  0.12402396603E+03  0.10000000000E+01 0.  0.
         -4    1    1    2    0  502  0.11264483584E+02  0.32001921988E+02 -0.50053436397E+01  0.34317312923E+02  0.12700000000E+01 0.  1.
<mgrwt>
<rscale>  1 0.12952135E+03</rscale>
<asrwt>0</asrwt>
<pdfrwt beam="2">  1       21 0.59671288E-02 0.12952135E+03</pdfrwt>
<pdfrwt beam="1">  1       -4 0.35990423E-01 0.12952135E+03</pdfrwt>
<totfact> 0.59778420E+04</totfact>
</mgrwt>
</event>
<event>
 6    4  0.6093247E-003  0.1342684E+03  0.7818608E-02  0.1221256E+00
         -4   -1    0    0    0  501 -0.00000000000E+00  0.00000000000E+00  0.32104405739E+03  0.32104656934E+03  0.12700000000E+01 0. -1.
         21   -1    0    0  501  502  0.00000000000E+00 -0.00000000000E+00 -0.40753153193E+02  0.40753153193E+02  0.00000000000E+00 0.  1.
         25    2    1    2    0    0 -0.44889252407E+02 -0.19653680427E+02  0.28244264197E+03  0.31273288025E+03  0.12500678481E+03 0.  0.
    9000005    1    3    3    0    0 -0.22557816244E+02  0.50080076339E+02  0.16903191878E+03  0.17773479875E+03  0.10000000000E+01 0.  0.
    9000005    1    3    3    0    0 -0.22331436163E+02 -0.69733756765E+02  0.11341072319E+03  0.13499808150E+03  0.10000000000E+01 0.  0.
         -4    1    1    2    0  502  0.44889252407E+02  0.19653680427E+02 -0.21517377788E+01  0.49066842281E+02  0.12700000000E+01 0.  1.
<mgrwt>
<rscale>  1 0.13426842E+03</rscale>
<asrwt>0</asrwt>
<pdfrwt beam="2">  1       21 0.62697161E-02 0.13426842E+03</pdfrwt>
<pdfrwt beam="1">  1       -4 0.49393107E-01 0.13426842E+03</pdfrwt>
<totfact> 0.29471950E+04</totfact>
</mgrwt>
</event>
<event>
 6    4  0.6093247E-003  0.1284291E+03  0.7818608E-02  0.1229806E+00
         21   -1    0    0  501  502  0.00000000000E+00  0.00000000000E+00  0.56292970325E+02  0.56292970325E+02  0.00000000000E+00 0.  1.
          4   -1    0    0  502    0 -0.00000000000E+00 -0.00000000000E+00 -0.13246424435E+03  0.13247033227E+03  0.12700000000E+01 0.  1.
         25    2    1    2    0    0  0.29461620405E+02 -0.10756954873E+01 -0.26723384610E+02  0.13117987733E+03  0.12499950693E+03 0.  0.
    9000005    1    3    3    0    0  0.49536692560E+02  0.48295103847E+02 -0.34492226736E+02  0.77311154891E+02  0.10000000000E+01 0.  0.
    9000005    1    3    3    0    0 -0.20075072155E+02 -0.49370799335E+02  0.77688421257E+01  0.53868722437E+02  0.10000000000E+01 0.  0.
          4    1    1    2  501    0 -0.29461620405E+02  0.10756954873E+01 -0.49447889413E+02  0.57583425264E+02  0.12700000000E+01 0. -1.
<mgrwt>
<rscale>  1 0.12842905E+03</rscale>
<asrwt>0</asrwt>
<pdfrwt beam="1">  1       21 0.86604569E-02 0.12842905E+03</pdfrwt>
<pdfrwt beam="2">  1        4 0.20380685E-01 0.12842905E+03</pdfrwt>
<totfact> 0.91062299E+04</totfact>
</mgrwt>
</event>
<event>
 6    4  0.6093247E-003  0.1290331E+03  0.7818608E-02  0.1228898E+00
         21   -1    0    0  501  502  0.00000000000E+00  0.00000000000E+00  0.51508496035E+01  0.51508496035E+01  0.00000000000E+00 0. -1.
          4   -1    0    0  502    0 -0.00000000000E+00 -0.00000000000E+00 -0.12799253811E+04  0.12799260111E+04  0.12700000000E+01 0. -1.
         25    2    1    2    0    0  0.28843587842E+02 -0.13880865230E+02 -0.10807454365E+04  0.10884209848E+04  0.12499964202E+03 0.  0.
    9000005    1    3    3    0    0  0.72476277509E+02  0.18033504297E+02 -0.66145153732E+03  0.66565543212E+03  0.10000000000E+01 0.  0.
    9000005    1    3    3    0    0 -0.43632689666E+02 -0.31914369527E+02 -0.41929389922E+03  0.42276555266E+03  0.10000000000E+01 0.  0.
          4    1    1    2  501    0 -0.28843587842E+02  0.13880865230E+02 -0.19402909490E+03  0.19665587596E+03  0.12700000000E+01 0.  1.
<mgrwt>
<rscale>  1 0.12903310E+03</rscale>
<asrwt>0</asrwt>
<pdfrwt beam="1">  1       21 0.79243911E-03 0.12903310E+03</pdfrwt>
<pdfrwt beam="2">  1        4 0.19692351E+00 0.12903310E+03</pdfrwt>
<totfact> 0.33343490E+04</totfact>
</mgrwt>
</event>
<event>
 6    4  0.6093247E-003  0.1307600E+03  0.7818608E-02  0.1226332E+00
         21   -1    0    0  501  502  0.00000000000E+00  0.00000000000E+00  0.17120713499E+02  0.17120713499E+02  0.00000000000E+00 0.  1.
         -4   -1    0    0    0  501 -0.00000000000E+00 -0.00000000000E+00 -0.44482174739E+03  0.44482356036E+03  0.12700000000E+01 0.  1.
         25    2    1    2    0    0  0.12884991206E+02  0.36156532574E+02 -0.37178668068E+03  0.39411105456E+03  0.12499947818E+03 0.  0.
    9000005    1    3    3    0    0  0.35555718199E+02  0.51067460643E+02 -0.81436127649E+02  0.10249359746E+03  0.10000000000E+01 0.  0.
    9000005    1    3    3    0    0 -0.22670726993E+02 -0.14910928070E+02 -0.29035055303E+03  0.29161745710E+03  0.10000000000E+01 0.  0.
         -4    1    1    2    0  502 -0.12884991206E+02 -0.36156532574E+02 -0.55914353203E+02  0.67833219298E+02  0.12700000000E+01 0. -1.
<mgrwt>
<rscale>  1 0.13076004E+03</rscale>
<asrwt>0</asrwt>
<pdfrwt beam="1">  1       21 0.26339559E-02 0.13076004E+03</pdfrwt>
<pdfrwt beam="2">  1       -4 0.68437878E-01 0.13076004E+03</pdfrwt>
<totfact> 0.62968531E+04</totfact>
</mgrwt>
</event>
<event>
 6    4  0.6093247E-003  0.1275494E+03  0.7818608E-02  0.1231138E+00
         21   -1    0    0  501  502  0.00000000000E+00  0.00000000000E+00  0.17616231891E+03  0.17616231891E+03  0.00000000000E+00 0.  1.
          4   -1    0    0  502    0 -0.00000000000E+00 -0.00000000000E+00 -0.15671228763E+03  0.15671743360E+03  0.12700000000E+01 0. -1.
         25    2    1    2    0    0  0.24644855532E+02 -0.60827289388E+01 -0.12950601410E+03  0.18177090151E+03  0.12499793780E+03 0.  0.
    9000005    1    3    3    0    0  0.39248433791E+01  0.32792300022E+02  0.10757838271E+02  0.34748675091E+02  0.10000000000E+01 0.  0.
    9000005    1    3    3    0    0  0.20720012152E+02 -0.38875028961E+02 -0.14026385237E+03  0.14702222642E+03  0.10000000000E+01 0.  0.
          4    1    1    2  501    0 -0.24644855532E+02  0.60827289388E+01  0.14895604537E+03  0.15110885100E+03  0.12700000000E+01 0.  1.
<mgrwt>
<rscale>  1 0.12754941E+03</rscale>
<asrwt>0</asrwt>
<pdfrwt beam="1">  1       21 0.27101895E-01 0.12754941E+03</pdfrwt>
<pdfrwt beam="2">  1        4 0.24110331E-01 0.12754941E+03</pdfrwt>
<totfact> 0.85028319E+03</totfact>
</mgrwt>
</event>
<event>
 6    4  0.6093247E-003  0.1269530E+03  0.7818608E-02  0.1232048E+00
         -4   -1    0    0    0  501 -0.00000000000E+00  0.00000000000E+00  0.39675458845E+02  0.39695779808E+02  0.12700000000E+01 0. -1.
         21   -1    0    0  501  502  0.00000000000E+00 -0.00000000000E+00 -0.20825188834E+03  0.20825188834E+03  0.00000000000E+00 0.  1.
         25    2    1    2    0    0  0.29653480795E+01 -0.22012705170E+02 -0.66189693493E+02  0.14317167334E+03  0.12499480007E+03 0.  0.
    9000005    1    3    3    0    0 -0.39828359598E+02  0.34805432917E+02 -0.43537024364E+02  0.68514150942E+02  0.10000000000E+01 0.  0.
    9000005    1    3    3    0    0  0.42793707677E+02 -0.56818138087E+02 -0.22652669129E+02  0.74657522401E+02  0.10000000000E+01 0.  0.
         -4    1    1    2    0  502 -0.29653480795E+01  0.22012705170E+02 -0.10238673600E+03  0.10477599480E+03  0.12700000000E+01 0.  1.
<mgrwt>
<rscale>  1 0.12695295E+03</rscale>
<asrwt>0</asrwt>
<pdfrwt beam="2">  1       21 0.32038753E-01 0.12695295E+03</pdfrwt>
<pdfrwt beam="1">  1       -4 0.61057777E-02 0.12695295E+03</pdfrwt>
<totfact> 0.65075551E+04</totfact>
</mgrwt>
</event>
<event>
 6    4  0.6093247E-003  0.1281413E+03  0.7818608E-02  0.1230240E+00
         -4   -1    0    0    0  501 -0.00000000000E+00  0.00000000000E+00  0.47680022860E+03  0.47680191997E+03  0.12700000000E+01 0. -1.
         21   -1    0    0  501  502  0.00000000000E+00 -0.00000000000E+00 -0.12927745415E+02  0.12927745415E+02  0.00000000000E+00 0. -1.
         25    2    1    2    0    0 -0.21483706088E+01  0.28112858030E+02  0.36156719295E+03  0.38360269618E+03  0.12500098087E+03 0.  0.
    9000005    1    3    3    0    0  0.99841313999E+01 -0.48982615456E+02  0.14828196912E+03  0.15648489340E+03  0.10000000000E+01 0.  0.
    9000005    1    3    3    0    0 -0.12132502009E+02  0.77095473486E+02  0.21328522383E+03  0.22711780279E+03  0.10000000000E+01 0.  0.
         -4    1    1    2    0  502  0.21483706088E+01 -0.28112858030E+02  0.10230529023E+03  0.10612696920E+03  0.12700000000E+01 0.  1.
<mgrwt>
<rscale>  1 0.12814130E+03</rscale>
<asrwt>0</asrwt>
<pdfrwt beam="2">  1       21 0.19888843E-02 0.12814130E+03</pdfrwt>
<pdfrwt beam="1">  1       -4 0.73358796E-01 0.12814130E+03</pdfrwt>
<totfact> 0.85236117E+04</totfact>
</mgrwt>
</event>
<event>
 6    4  0.6093247E-003  0.1537382E+03  0.7818608E-02  0.1195953E+00
          4   -1    0    0  502    0 -0.00000000000E+00  0.00000000000E+00  0.91305252662E+02  0.91314084695E+02  0.12700000000E+01 0. -1.
         21   -1    0    0  501  502  0.00000000000E+00 -0.00000000000E+00 -0.17161324197E+03  0.17161324197E+03  0.00000000000E+00 0. -1.
         25    2    1    2    0    0  0.71843384610E+02  0.53371787602E+02 -0.20082402336E+02  0.15504427030E+03  0.12500161297E+03 0.  0.
    9000005    1    3    3    0    0  0.10709576040E+03  0.42927708369E+02 -0.24632750728E+02  0.11798331429E+03  0.10000000000E+01 0.  0.
    9000005    1    3    3    0    0 -0.35252375794E+02  0.10444079233E+02  0.45503483921E+01  0.37060956013E+02  0.10000000000E+01 0.  0.
          4    1    1    2  501    0 -0.71843384610E+02 -0.53371787602E+02 -0.60225586976E+02  0.10788305637E+03  0.12700000000E+01 0.  1.
<mgrwt>
<rscale>  1 0.15373816E+03</rscale>
<asrwt>0</asrwt>
<pdfrwt beam="2">  1       21 0.26402037E-01 0.15373816E+03</pdfrwt>
<pdfrwt beam="1">  1        4 0.14048003E-01 0.15373816E+03</pdfrwt>
<totfact> 0.23820730E+04</totfact>
</mgrwt>
</event>
<event>
 6    4  0.6093247E-003  0.1326997E+03  0.7818608E-02  0.1223504E+00
         21   -1    0    0  501  502  0.00000000000E+00  0.00000000000E+00  0.93987461183E+03  0.93987461183E+03  0.00000000000E+00 0.  1.
          4   -1    0    0  502    0 -0.00000000000E+00 -0.00000000000E+00 -0.90163601316E+01  0.91053638051E+01  0.12700000000E+01 0.  1.
         25    2    1    2    0    0  0.31791871194E+02  0.31201284298E+02  0.56274351196E+03  0.57817771333E+03  0.12499985890E+03 0.  0.
    9000005    1    3    3    0    0  0.47173829692E+02  0.17707369814E+02  0.55335025018E+03  0.55564054975E+03  0.10000000000E+01 0.  0.
    9000005    1    3    3    0    0 -0.15381958498E+02  0.13493914484E+02  0.93932617763E+01  0.22537163578E+02  0.10000000000E+01 0.  0.
          4    1    1    2  501    0 -0.31791871194E+02 -0.31201284298E+02  0.36811473975E+03  0.37080226231E+03  0.12700000000E+01 0. -1.
<mgrwt>
<rscale>  1 0.13269969E+03</rscale>
<asrwt>0</asrwt>
<pdfrwt beam="1">  1       21 0.14459602E+00 0.13269969E+03</pdfrwt>
<pdfrwt beam="2">  1        4 0.13940455E-02 0.13269969E+03</pdfrwt>
<totfact> 0.24117068E+04</totfact>
</mgrwt>
</event>
<event>
 6    4  0.6093247E-003  0.1272109E+03  0.7818608E-02  0.1231654E+00
         21   -1    0    0  501  502  0.00000000000E+00  0.00000000000E+00  0.76832877707E+02  0.76832877707E+02  0.00000000000E+00 0. -1.
          4   -1    0    0  502    0 -0.00000000000E+00 -0.00000000000E+00 -0.68232320310E+03  0.68232438502E+03  0.12700000000E+01 0.  1.
         25    2    1    2    0    0 -0.13737216128E+02  0.19197145142E+02 -0.67440646041E+03  0.68629926348E+03  0.12500145491E+03 0.  0.
    9000005    1    3    3    0    0 -0.99125534894E+01  0.35999526302E+02 -0.66609461552E+03  0.66714111059E+03  0.10000000000E+01 0.  0.
    9000005    1    3    3    0    0 -0.38246626382E+01 -0.16802381160E+02 -0.83118448884E+01  0.19158152896E+02  0.10000000000E+01 0.  0.
          4    1    1    2  501    0  0.13737216128E+02 -0.19197145142E+02  0.68916135013E+02  0.72857999243E+02  0.12700000000E+01 0. -1.
<mgrwt>
<rscale>  1 0.12721087E+03</rscale>
<asrwt>0</asrwt>
<pdfrwt beam="1">  1       21 0.11820443E-01 0.12721087E+03</pdfrwt>
<pdfrwt beam="2">  1        4 0.10497370E+00 0.12721087E+03</pdfrwt>
<totfact> 0.19010380E+03</totfact>
</mgrwt>
</event>
<event>
 6    4  0.6093247E-003  0.1288665E+03  0.7818608E-02  0.1229147E+00
          4   -1    0    0  502    0 -0.00000000000E+00  0.00000000000E+00  0.11086727874E+03  0.11087455252E+03  0.12700000000E+01 0. -1.
         21   -1    0    0  501  502  0.00000000000E+00 -0.00000000000E+00 -0.58994026819E+02  0.58994026819E+02  0.00000000000E+00 0. -1.
         25    2    1    2    0    0 -0.40783799489E+00  0.31315978229E+02  0.50763700454E+02  0.13850457403E+03  0.12500282765E+03 0.  0.
    9000005    1    3    3    0    0 -0.51572171931E+01 -0.27061532304E+01  0.87789134720E+02  0.87987796480E+02  0.10000000000E+01 0.  0.
    9000005    1    3    3    0    0  0.47493791982E+01  0.34022131460E+02 -0.37025434266E+02  0.50516777554E+02  0.10000000000E+01 0.  0.
          4    1    1    2  501    0  0.40783799489E+00 -0.31315978229E+02  0.11095514713E+01  0.31364005305E+02  0.12700000000E+01 0.  1.
<mgrwt>
<rscale>  1 0.12886646E+03</rscale>
<asrwt>0</asrwt>
<pdfrwt beam="2">  1       21 0.90760041E-02 0.12886646E+03</pdfrwt>
<pdfrwt beam="1">  1        4 0.17058115E-01 0.12886646E+03</pdfrwt>
<totfact> 0.11536028E+05</totfact>
</mgrwt>
</event>
<event>
 6    4  0.6093247E-003  0.1266703E+03  0.7818608E-02  0.1232482E+00
         -4   -1    0    0    0  501 -0.00000000000E+00  0.00000000000E+00  0.22322115811E+02  0.22358214470E+02  0.12700000000E+01 0. -1.
         21   -1    0    0  501  502  0.00000000000E+00 -0.00000000000E+00 -0.25499757982E+03  0.25499757982E+03  0.00000000000E+00 0. -1.
         25    2    1    2    0    0  0.92838159254E+01 -0.18268009188E+02 -0.17423654753E+03  0.21541526428E+03  0.12500180876E+03 0.  0.
    9000005    1    3    3    0    0  0.11026132326E+02  0.19554186350E+02  0.11925490446E+02  0.25439322323E+02  0.10000000000E+01 0.  0.
    9000005    1    3    3    0    0 -0.17423164007E+01 -0.37822195538E+02 -0.18616203797E+03  0.18997594196E+03  0.10000000000E+01 0.  0.
         -4    1    1    2    0  502 -0.92838159254E+01  0.18268009188E+02 -0.58438916484E+02  0.61940530008E+02  0.12700000000E+01 0.  1.
<mgrwt>
<rscale>  1 0.12667029E+03</rscale>
<asrwt>0</asrwt>
<pdfrwt beam="2">  1       21 0.39230397E-01 0.12667029E+03</pdfrwt>
<pdfrwt beam="1">  1       -4 0.34371917E-02 0.12667029E+03</pdfrwt>
<totfact> 0.10942403E+05</totfact>
</mgrwt>
</event>
<event>
 6    4  0.6093247E-003  0.1352102E+03  0.7818608E-02  0.1219923E+00
         -4   -1    0    0    0  501 -0.00000000000E+00  0.00000000000E+00  0.81850644657E+02  0.81860496766E+02  0.12700000000E+01 0. -1.
         21   -1    0    0  501  502  0.00000000000E+00 -0.00000000000E+00 -0.17994077453E+03  0.17994077453E+03  0.00000000000E+00 0.  1.
         25    2    1    2    0    0 -0.49476025907E+02 -0.14390740840E+02  0.16441666656E+02  0.13620622411E+03  0.12500734587E+03 0.  0.
    9000005    1    3    3    0    0 -0.31519372356E+02  0.85068681137E+01 -0.52238510467E+02  0.61609249424E+02  0.10000000000E+01 0.  0.
    9000005    1    3    3    0    0 -0.17956653551E+02 -0.22897608954E+02  0.68680177123E+02  0.74596974685E+02  0.10000000000E+01 0.  0.
         -4    1    1    2    0  502  0.49476025907E+02  0.14390740840E+02 -0.11453179653E+03  0.12559504719E+03  0.12700000000E+01 0.  1.
<mgrwt>
<rscale>  1 0.13521023E+03</rscale>
<asrwt>0</asrwt>
<pdfrwt beam="2">  1       21 0.27683196E-01 0.13521023E+03</pdfrwt>
<pdfrwt beam="1">  1       -4 0.12593510E-01 0.13521023E+03</pdfrwt>
<totfact> 0.25962934E+04</totfact>
</mgrwt>
</event>
<event>
 6    4  0.6093247E-003  0.1267647E+03  0.7818608E-02  0.1232337E+00
         -4   -1    0    0    0  501 -0.00000000000E+00  0.00000000000E+00  0.82778860263E+02  0.82788601912E+02  0.12700000000E+01 0. -1.
         21   -1    0    0  501  502  0.00000000000E+00 -0.00000000000E+00 -0.71529914524E+02  0.71529914524E+02  0.00000000000E+00 0. -1.
         25    2    1    2    0    0 -0.54418693765E+01 -0.20357231476E+02  0.24889024653E+02  0.12918496379E+03  0.12500104202E+03 0.  0.
    9000005    1    3    3    0    0 -0.46168446620E+02 -0.55159489199E+02  0.52891746576E+01  0.72132309547E+02  0.10000000000E+01 0.  0.
    9000005    1    3    3    0    0  0.40726577244E+02  0.34802257723E+02  0.19599849995E+02  0.57052654245E+02  0.10000000000E+01 0.  0.
         -4    1    1    2    0  502  0.54418693765E+01  0.20357231476E+02 -0.13640078914E+02  0.25133552643E+02  0.12700000000E+01 0.  1.
<mgrwt>
<rscale>  1 0.12676471E+03</rscale>
<asrwt>0</asrwt>
<pdfrwt beam="2">  1       21 0.11004602E-01 0.12676471E+03</pdfrwt>
<pdfrwt beam="1">  1       -4 0.12736826E-01 0.12676471E+03</pdfrwt>
<totfact> 0.13663179E+05</totfact>
</mgrwt>
</event>
<event>
 6    4  0.6093247E-003  0.1289733E+03  0.7818608E-02  0.1228987E+00
         21   -1    0    0  501  502  0.00000000000E+00  0.00000000000E+00  0.60053758770E+02  0.60053758770E+02  0.00000000000E+00 0. -1.
         -4   -1    0    0    0  501 -0.00000000000E+00 -0.00000000000E+00 -0.57592105310E+03  0.57592245337E+03  0.12700000000E+01 0.  1.
         25    2    1    2    0    0  0.88320727831E+01  0.30500469134E+02 -0.56385649975E+03  0.57841875508E+03  0.12500327912E+03 0.  0.
    9000005    1    3    3    0    0  0.35550663072E+02  0.70387239540E+02 -0.29788005415E+03  0.30814240182E+03  0.10000000000E+01 0.  0.
    9000005    1    3    3    0    0 -0.26718590289E+02 -0.39886770406E+02 -0.26597644560E+03  0.27027635326E+03  0.10000000000E+01 0.  0.
         -4    1    1    2    0  502 -0.88320727831E+01 -0.30500469134E+02  0.47989205422E+02  0.57557457067E+02  0.12700000000E+01 0. -1.
<mgrwt>
<rscale>  1 0.12897327E+03</rscale>
<asrwt>0</asrwt>
<pdfrwt beam="1">  1       21 0.92390396E-02 0.12897327E+03</pdfrwt>
<pdfrwt beam="2">  1       -4 0.88604382E-01 0.12897327E+03</pdfrwt>
<totfact> 0.43230800E+03</totfact>
</mgrwt>
</event>
<event>
 6    4  0.6093247E-003  0.1278679E+03  0.7818608E-02  0.1230654E+00
         21   -1    0    0  501  502  0.00000000000E+00  0.00000000000E+00  0.19880313366E+02  0.19880313366E+02  0.00000000000E+00 0. -1.
         -4   -1    0    0    0  501 -0.00000000000E+00 -0.00000000000E+00 -0.59050818556E+03  0.59050955124E+03  0.12700000000E+01 0.  1.
         25    2    1    2    0    0  0.21581146085E+02 -0.16104990883E+02 -0.56920920183E+03  0.58339464053E+03  0.12500029818E+03 0.  0.
    9000005    1    3    3    0    0 -0.21907383871E+02  0.46438592255E+02 -0.24996335461E+03  0.25518455080E+03  0.10000000000E+01 0.  0.
    9000005    1    3    3    0    0  0.43488529957E+02 -0.62543583138E+02 -0.31924584722E+03  0.32821008973E+03  0.10000000000E+01 0.  0.
         -4    1    1    2    0  502 -0.21581146085E+02  0.16104990883E+02 -0.14186703585E+01  0.26995224083E+02  0.12700000000E+01 0. -1.
<mgrwt>
<rscale>  1 0.12786787E+03</rscale>
<asrwt>0</asrwt>
<pdfrwt beam="1">  1       21 0.30585094E-02 0.12786787E+03</pdfrwt>
<pdfrwt beam="2">  1       -4 0.90850649E-01 0.12786787E+03</pdfrwt>
<totfact> 0.26342082E+04</totfact>
</mgrwt>
</event>
<event>
 6    4  0.6093247E-003  0.1302072E+03  0.7818608E-02  0.1227149E+00
         -4   -1    0    0    0  501 -0.00000000000E+00  0.00000000000E+00  0.12205742726E+02  0.12271636220E+02  0.12700000000E+01 0. -1.
         21   -1    0    0  501  502  0.00000000000E+00 -0.00000000000E+00 -0.80739226094E+03  0.80739226094E+03  0.00000000000E+00 0.  1.
         25    2    1    2    0    0 -0.10467793818E+02  0.34866388480E+02 -0.35766437686E+03  0.38062804802E+03  0.12501465799E+03 0.  0.
    9000005    1    3    3    0    0 -0.13269056038E+02 -0.46086299644E+02 -0.15913754242E+03  0.16621002458E+03  0.10000000000E+01 0.  0.
    9000005    1    3    3    0    0  0.28012622197E+01  0.80952688124E+02 -0.19852683443E+03  0.21441802344E+03  0.10000000000E+01 0.  0.
         -4    1    1    2    0  502  0.10467793818E+02 -0.34866388480E+02 -0.43752214136E+03  0.43903584914E+03  0.12700000000E+01 0.  1.
<mgrwt>
<rscale>  1 0.13020716E+03</rscale>
<asrwt>0</asrwt>
<pdfrwt beam="2">  1       21 0.12421420E+00 0.13020716E+03</pdfrwt>
<pdfrwt beam="1">  1       -4 0.18829520E-02 0.13020716E+03</pdfrwt>
<totfact> 0.22285095E+04</totfact>
</mgrwt>
</event>
<event>
 6    4  0.6093247E-003  0.1600300E+03  0.7818608E-02  0.1188663E+00
          4   -1    0    0  502    0 -0.00000000000E+00  0.00000000000E+00  0.43341267462E+03  0.43341453531E+03  0.12700000000E+01 0.  1.
         21   -1    0    0  501  502  0.00000000000E+00 -0.00000000000E+00 -0.60367767220E+02  0.60367767220E+02  0.00000000000E+00 0. -1.
         25    2    1    2    0    0 -0.19201595719E+02  0.98062129694E+02  0.35876041345E+03  0.39283408697E+03  0.12499881225E+03 0.  0.
    9000005    1    3    3    0    0 -0.37183353867E+02  0.19433121415E+02  0.23692548985E+02  0.48193203775E+02  0.10000000000E+01 0.  0.
    9000005    1    3    3    0    0  0.17981758147E+02  0.78629008278E+02  0.33506786447E+03  0.34464088319E+03  0.10000000000E+01 0.  0.
          4    1    1    2  501    0  0.19201595719E+02 -0.98062129694E+02  0.14284493946E+02  0.10094821556E+03  0.12700000000E+01 0. -1.
<mgrwt>
<rscale>  1 0.16002995E+03</rscale>
<asrwt>0</asrwt>
<pdfrwt beam="2">  1       21 0.92873491E-02 0.16002995E+03</pdfrwt>
<pdfrwt beam="1">  1        4 0.66680042E-01 0.16002995E+03</pdfrwt>
<totfact> 0.81317171E+03</totfact>
</mgrwt>
</event>
<event>
 6    4  0.6093247E-003  0.1319225E+03  0.7818608E-02  0.1224631E+00
         21   -1    0    0  501  502  0.00000000000E+00  0.00000000000E+00  0.17958309553E+03  0.17958309553E+03  0.00000000000E+00 0.  1.
         -4   -1    0    0    0  501 -0.00000000000E+00 -0.00000000000E+00 -0.23219041630E+03  0.23219388950E+03  0.12700000000E+01 0. -1.
         25    2    1    2    0    0  0.75984793419E+01  0.41484114550E+02 -0.21045657924E+03  0.24838582877E+03  0.12499951816E+03 0.  0.
    9000005    1    3    3    0    0 -0.45423538113E+02  0.59568494741E+02 -0.13509413475E+03  0.15447695176E+03  0.10000000000E+01 0.  0.
    9000005    1    3    3    0    0  0.53022017455E+02 -0.18084380192E+02 -0.75362444488E+02  0.93908877009E+02  0.10000000000E+01 0.  0.
         -4    1    1    2    0  502 -0.75984793419E+01 -0.41484114550E+02  0.15784925847E+03  0.16339115627E+03  0.12700000000E+01 0.  1.
<mgrwt>
<rscale>  1 0.13192251E+03</rscale>
<asrwt>0</asrwt>
<pdfrwt beam="1">  1       21 0.27628169E-01 0.13192251E+03</pdfrwt>
<pdfrwt beam="2">  1       -4 0.35722215E-01 0.13192251E+03</pdfrwt>
<totfact> 0.39185575E+03</totfact>
</mgrwt>
</event>
<event>
 6    4  0.6093247E-003  0.1292974E+03  0.7818608E-02  0.1228502E+00
         -4   -1    0    0    0  501 -0.00000000000E+00  0.00000000000E+00  0.17042201092E+02  0.17089456342E+02  0.12700000000E+01 0. -1.
         21   -1    0    0  501  502  0.00000000000E+00 -0.00000000000E+00 -0.38907620721E+03  0.38907620721E+03  0.00000000000E+00 0. -1.
         25    2    1    2    0    0 -0.26323376593E+02 -0.20006907876E+02 -0.28148452769E+03  0.30976017895E+03  0.12499853045E+03 0.  0.
    9000005    1    3    3    0    0  0.26859496751E+02  0.38564439054E+02 -0.73624881984E+02  0.87351426848E+02  0.10000000000E+01 0.  0.
    9000005    1    3    3    0    0 -0.53182873343E+02 -0.58571346930E+02 -0.20785964570E+03  0.22240875210E+03  0.10000000000E+01 0.  0.
         -4    1    1    2    0  502  0.26323376593E+02  0.20006907876E+02 -0.90549478434E+02  0.96405484608E+02  0.12700000000E+01 0.  1.
<mgrwt>
<rscale>  1 0.12929744E+03</rscale>
<asrwt>0</asrwt>
<pdfrwt beam="2">  1       21 0.59857875E-01 0.12929744E+03</pdfrwt>
<pdfrwt beam="1">  1       -4 0.26256717E-02 0.12929744E+03</pdfrwt>
<totfact> 0.70177211E+04</totfact>
</mgrwt>
</event>
<event>
 6    4  0.6093247E-003  0.1319669E+03  0.7818608E-02  0.1224566E+00
         21   -1    0    0  501  502  0.00000000000E+00  0.00000000000E+00  0.22248324067E+03  0.22248324067E+03  0.00000000000E+00 0. -1.
         -4   -1    0    0    0  501 -0.00000000000E+00 -0.00000000000E+00 -0.12046751442E+03  0.12047420857E+03  0.12700000000E+01 0.  1.
         25    2    1    2    0    0  0.21025488288E+01 -0.42233769596E+02 -0.81182339018E+02  0.15493815230E+03  0.12500858716E+03 0.  0.
    9000005    1    3    3    0    0 -0.17150594516E+02 -0.23231318059E+02  0.29322470208E+02  0.41166057500E+02  0.10000000000E+01 0.  0.
    9000005    1    3    3    0    0  0.19253143345E+02 -0.19002451537E+02 -0.11050480923E+03  0.11377209480E+03  0.10000000000E+01 0.  0.
         -4    1    1    2    0  502 -0.21025488288E+01  0.42233769596E+02  0.18319806527E+03  0.18801929694E+03  0.12700000000E+01 0. -1.
<mgrwt>
<rscale>  1 0.13196689E+03</rscale>
<asrwt>0</asrwt>
<pdfrwt beam="1">  1       21 0.34228191E-01 0.13196689E+03</pdfrwt>
<pdfrwt beam="2">  1       -4 0.18534258E-01 0.13196689E+03</pdfrwt>
<totfact> 0.87377477E+03</totfact>
</mgrwt>
</event>
<event>
 6    4  0.6093247E-003  0.1801080E+03  0.7818608E-02  0.1167699E+00
          4   -1    0    0  502    0 -0.00000000000E+00  0.00000000000E+00  0.17413760211E+03  0.17414223315E+03  0.12700000000E+01 0.  1.
         21   -1    0    0  501  502  0.00000000000E+00 -0.00000000000E+00 -0.81489825294E+03  0.81489825294E+03  0.00000000000E+00 0. -1.
         25    2    1    2    0    0 -0.51885320699E+02  0.11883509333E+03  0.12057376322E+03  0.21674160041E+03  0.12500009225E+03 0.  0.
    9000005    1    3    3    0    0 -0.58992155373E+02  0.42720235375E+01  0.69039692977E+02  0.90916465984E+02  0.10000000000E+01 0.  0.
    9000005    1    3    3    0    0  0.71068346739E+01  0.11456306979E+03  0.51534070239E+02  0.12582513443E+03  0.10000000000E+01 0.  0.
          4    1    1    2  501    0  0.51885320699E+02 -0.11883509333E+03 -0.76133441405E+03  0.77229888568E+03  0.12700000000E+01 0. -1.
<mgrwt>
<rscale>  1 0.18010799E+03</rscale>
<asrwt>0</asrwt>
<pdfrwt beam="2">  1       21 0.12536896E+00 0.18010799E+03</pdfrwt>
<pdfrwt beam="1">  1        4 0.26790832E-01 0.18010799E+03</pdfrwt>
<totfact> 0.26283062E+02</totfact>
</mgrwt>
</event>
<event>
 6    4  0.6093247E-003  0.1293356E+03  0.7818608E-02  0.1228445E+00
         21   -1    0    0  501  502  0.00000000000E+00  0.00000000000E+00  0.46901266194E+03  0.46901266194E+03  0.00000000000E+00 0. -1.
         -4   -1    0    0    0  501 -0.00000000000E+00 -0.00000000000E+00 -0.26781619807E+02  0.26811714968E+02  0.12700000000E+01 0.  1.
         25    2    1    2    0    0  0.19298994254E+02  0.27007094445E+02  0.13556621641E+03  0.18736568832E+03  0.12500347115E+03 0.  0.
    9000005    1    3    3    0    0 -0.51193690208E+02 -0.47363055334E+01  0.45466344072E+02  0.68639747600E+02  0.10000000000E+01 0.  0.
    9000005    1    3    3    0    0  0.70492684462E+02  0.31743399978E+02  0.90099872342E+02  0.11872594072E+03  0.10000000000E+01 0.  0.
         -4    1    1    2    0  502 -0.19298994254E+02 -0.27007094445E+02  0.30666482572E+03  0.30845868858E+03  0.12700000000E+01 0. -1.
<mgrwt>
<rscale>  1 0.12933562E+03</rscale>
<asrwt>0</asrwt>
<pdfrwt beam="1">  1       21 0.72155788E-01 0.12933562E+03</pdfrwt>
<pdfrwt beam="2">  1       -4 0.41226968E-02 0.12933562E+03</pdfrwt>
<totfact> 0.23076897E+04</totfact>
</mgrwt>
</event>
<event>
 6    4  0.6093247E-003  0.1272641E+03  0.7818608E-02  0.1231573E+00
         21   -1    0    0  501  502  0.00000000000E+00  0.00000000000E+00  0.22642448008E+03  0.22642448008E+03  0.00000000000E+00 0. -1.
         -4   -1    0    0    0  501 -0.00000000000E+00 -0.00000000000E+00 -0.25245913914E+02  0.25277837514E+02  0.12700000000E+01 0. -1.
         25    2    1    2    0    0  0.22549112420E+02  0.79413964589E+01  0.17188034073E+03  0.21386678981E+03  0.12499849602E+03 0.  0.
    9000005    1    3    3    0    0  0.45211825082E+02  0.23526040025E+02  0.12983159966E+02  0.52603670301E+02  0.10000000000E+01 0.  0.
    9000005    1    3    3    0    0 -0.22662712662E+02 -0.15584643566E+02  0.15889718076E+03  0.16126311951E+03  0.10000000000E+01 0.  0.
         -4    1    1    2    0  502 -0.22549112420E+02 -0.79413964589E+01  0.29298225437E+02  0.37835527780E+02  0.12700000000E+01 0.  1.
<mgrwt>
<rscale>  1 0.12726410E+03</rscale>
<asrwt>0</asrwt>
<pdfrwt beam="1">  1       21 0.34834534E-01 0.12726410E+03</pdfrwt>
<pdfrwt beam="2">  1       -4 0.38867165E-02 0.12726410E+03</pdfrwt>
<totfact> 0.11406174E+05</totfact>
</mgrwt>
</event>
<event>
 6    4  0.6093247E-003  0.1291980E+03  0.7818608E-02  0.1228651E+00
          4   -1    0    0  502    0 -0.00000000000E+00  0.00000000000E+00  0.21896031836E+03  0.21896400141E+03  0.12700000000E+01 0. -1.
         21   -1    0    0  501  502  0.00000000000E+00 -0.00000000000E+00 -0.65162042717E+02  0.65162042717E+02  0.00000000000E+00 0.  1.
         25    2    1    2    0    0 -0.25146772184E+02  0.20886005872E+02  0.19350914952E+03  0.23267556505E+03  0.12499416880E+03 0.  0.
    9000005    1    3    3    0    0 -0.11585945403E+02  0.26704843198E+02  0.20913870968E+03  0.21115724631E+03  0.10000000000E+01 0.  0.
    9000005    1    3    3    0    0 -0.13560826781E+02 -0.58188373259E+01 -0.15629560162E+02  0.21518318746E+02  0.10000000000E+01 0.  0.
          4    1    1    2  501    0  0.25146772184E+02 -0.20886005872E+02 -0.39710873882E+02  0.51450479075E+02  0.12700000000E+01 0.  1.
<mgrwt>
<rscale>  1 0.12919802E+03</rscale>
<asrwt>0</asrwt>
<pdfrwt beam="2">  1       21 0.10024930E-01 0.12919802E+03</pdfrwt>
<pdfrwt beam="1">  1        4 0.33687438E-01 0.12919802E+03</pdfrwt>
<totfact> 0.27789435E+04</totfact>
</mgrwt>
</event>
<event>
 6    4  0.6093247E-003  0.1273176E+03  0.7818608E-02  0.1231491E+00
         21   -1    0    0  501  502  0.00000000000E+00  0.00000000000E+00  0.48736708437E+02  0.48736708437E+02  0.00000000000E+00 0.  1.
          4   -1    0    0  502    0 -0.00000000000E+00 -0.00000000000E+00 -0.16393517144E+03  0.16394009069E+03  0.12700000000E+01 0. -1.
         25    2    1    2    0    0  0.44436635799E+01 -0.23769906273E+02 -0.13185143471E+03  0.18328821364E+03  0.12500005534E+03 0.  0.
    9000005    1    3    3    0    0  0.21303307679E+02 -0.68779756509E+02 -0.10752216850E+03  0.12940827849E+03  0.10000000000E+01 0.  0.
    9000005    1    3    3    0    0 -0.16859644099E+02  0.45009850237E+02 -0.24329266216E+02  0.53879935153E+02  0.10000000000E+01 0.  0.
          4    1    1    2  501    0 -0.44436635799E+01  0.23769906273E+02  0.16652971707E+02  0.29388585486E+02  0.12700000000E+01 0.  1.
<mgrwt>
<rscale>  1 0.12731759E+03</rscale>
<asrwt>0</asrwt>
<pdfrwt beam="1">  1       21 0.74979551E-02 0.12731759E+03</pdfrwt>
<pdfrwt beam="2">  1        4 0.25222447E-01 0.12731759E+03</pdfrwt>
<totfact> 0.79072948E+04</totfact>
</mgrwt>
</event>
<event>
 6    4  0.6093247E-003  0.1280251E+03  0.7818608E-02  0.1230416E+00
         21   -1    0    0  501  502  0.00000000000E+00  0.00000000000E+00  0.36266565398E+03  0.36266565398E+03  0.00000000000E+00 0.  1.
          4   -1    0    0  502    0 -0.00000000000E+00 -0.00000000000E+00 -0.16719052237E+02  0.16767218246E+02  0.12700000000E+01 0.  1.
         25    2    1    2    0    0  0.22209077527E+02 -0.16590581067E+02  0.27962885552E+03  0.30754304771E+03  0.12498775481E+03 0.  0.
    9000005    1    3    3    0    0 -0.21280858796E+02  0.46220125674E+02  0.96072745176E+02  0.10872050098E+03  0.10000000000E+01 0.  0.
    9000005    1    3    3    0    0  0.43489936323E+02 -0.62810706741E+02  0.18355611034E+03  0.19882254673E+03  0.10000000000E+01 0.  0.
          4    1    1    2  501    0 -0.22209077527E+02  0.16590581067E+02  0.66317746224E+02  0.71889824516E+02  0.12700000000E+01 0. -1.
<mgrwt>
<rscale>  1 0.12802511E+03</rscale>
<asrwt>0</asrwt>
<pdfrwt beam="1">  1       21 0.55794710E-01 0.12802511E+03</pdfrwt>
<pdfrwt beam="2">  1        4 0.25760383E-02 0.12802511E+03</pdfrwt>
<totfact> 0.83753444E+04</totfact>
</mgrwt>
</event>
<event>
 6    4  0.6093247E-003  0.1371882E+03  0.7818608E-02  0.1217163E+00
         -4   -1    0    0    0  501 -0.00000000000E+00  0.00000000000E+00  0.40145418319E+02  0.40165501516E+02  0.12700000000E+01 0. -1.
         21   -1    0    0  501  502  0.00000000000E+00 -0.00000000000E+00 -0.24483674016E+03  0.24483674016E+03  0.00000000000E+00 0. -1.
         25    2    1    2    0    0 -0.56036912050E+02 -0.73071918284E+01 -0.11513739502E+03  0.17910111196E+03  0.12500823177E+03 0.  0.
    9000005    1    3    3    0    0 -0.17196882165E+02  0.19935395669E+02 -0.12739538848E+03  0.13009126705E+03  0.10000000000E+01 0.  0.
    9000005    1    3    3    0    0 -0.38840029884E+02 -0.27242587497E+02  0.12257993463E+02  0.49009844916E+02  0.10000000000E+01 0.  0.
         -4    1    1    2    0  502  0.56036912050E+02  0.73071918284E+01 -0.89553926827E+02  0.10590112971E+03  0.12700000000E+01 0.  1.
<mgrwt>
<rscale>  1 0.13718815E+03</rscale>
<asrwt>0</asrwt>
<pdfrwt beam="2">  1       21 0.37667191E-01 0.13718815E+03</pdfrwt>
<pdfrwt beam="1">  1       -4 0.61780164E-02 0.13718815E+03</pdfrwt>
<totfact> 0.46874698E+04</totfact>
</mgrwt>
</event>
<event>
 6    4  0.6093247E-003  0.1780900E+03  0.7818608E-02  0.1169664E+00
         21   -1    0    0  501  502  0.00000000000E+00  0.00000000000E+00  0.40318371037E+02  0.40318371037E+02  0.00000000000E+00 0.  1.
         -4   -1    0    0    0  501 -0.00000000000E+00 -0.00000000000E+00 -0.73875932383E+03  0.73876041545E+03  0.12700000000E+01 0. -1.
         25    2    1    2    0    0  0.11725184531E+03  0.48408049008E+02 -0.57548926628E+03  0.60241508180E+03  0.12499880297E+03 0.  0.
    9000005    1    3    3    0    0  0.10261241107E+03  0.85554472708E+02 -0.49273588195E+03  0.51052769177E+03  0.10000000000E+01 0.  0.
    9000005    1    3    3    0    0  0.14639434242E+02 -0.37146423699E+02 -0.82753384330E+02  0.91887390031E+02  0.10000000000E+01 0.  0.
         -4    1    1    2    0  502 -0.11725184531E+03 -0.48408049008E+02 -0.12295168652E+03  0.17666370469E+03  0.12700000000E+01 0.  1.
<mgrwt>
<rscale>  1 0.17808996E+03</rscale>
<asrwt>0</asrwt>
<pdfrwt beam="1">  1       21 0.62028265E-02 0.17808996E+03</pdfrwt>
<pdfrwt beam="2">  1       -4 0.11365690E+00 0.17808996E+03</pdfrwt>
<totfact> 0.49267058E+03</totfact>
</mgrwt>
</event>
<event>
 6    4  0.6093247E-003  0.1266206E+03  0.7818608E-02  0.1232558E+00
          4   -1    0    0  502    0 -0.00000000000E+00  0.00000000000E+00  0.57071527792E+03  0.57071669097E+03  0.12700000000E+01 0.  1.
         21   -1    0    0  501  502  0.00000000000E+00 -0.00000000000E+00 -0.97907965124E+01  0.97907965124E+01  0.00000000000E+00 0.  1.
         25    2    1    2    0    0 -0.18129353370E+02  0.86994981997E+01  0.43771035665E+03  0.45565682404E+03  0.12501372025E+03 0.  0.
    9000005    1    3    3    0    0  0.48661409223E+02 -0.16661581112E+02  0.13112408852E+03  0.14085477494E+03  0.10000000000E+01 0.  0.
    9000005    1    3    3    0    0 -0.66790762594E+02  0.25361079311E+02  0.30658626812E+03  0.31480204909E+03  0.10000000000E+01 0.  0.
          4    1    1    2  501    0  0.18129353370E+02 -0.86994981997E+01  0.12321412476E+03  0.12485066344E+03  0.12700000000E+01 0. -1.
<mgrwt>
<rscale>  1 0.12662063E+03</rscale>
<asrwt>0</asrwt>
<pdfrwt beam="2">  1       21 0.15062768E-02 0.12662063E+03</pdfrwt>
<pdfrwt beam="1">  1        4 0.87808769E-01 0.12662063E+03</pdfrwt>
<totfact> 0.89339892E+04</totfact>
</mgrwt>
</event>
<event>
 6    4  0.6093247E-003  0.1287112E+03  0.7818608E-02  0.1229381E+00
         -4   -1    0    0    0  501 -0.00000000000E+00  0.00000000000E+00  0.36275732376E+02  0.36297956684E+02  0.12700000000E+01 0. -1.
         21   -1    0    0  501  502  0.00000000000E+00 -0.00000000000E+00 -0.17586986502E+03  0.17586986502E+03  0.00000000000E+00 0. -1.
         25    2    1    2    0    0  0.22428330514E+02 -0.20955541160E+02 -0.11801221905E+03  0.17462375947E+03  0.12499763522E+03 0.  0.
    9000005    1    3    3    0    0 -0.21717416098E+02  0.44108473566E+02 -0.55645446951E+02  0.74260483224E+02  0.10000000000E+01 0.  0.
    9000005    1    3    3    0    0  0.44145746612E+02 -0.65064014726E+02 -0.62366772099E+02  0.10036327624E+03  0.10000000000E+01 0.  0.
         -4    1    1    2    0  502 -0.22428330514E+02  0.20955541160E+02 -0.21581913595E+02  0.37544062239E+02  0.12700000000E+01 0.  1.
<mgrwt>
<rscale>  1 0.12871120E+03</rscale>
<asrwt>0</asrwt>
<pdfrwt beam="2">  1       21 0.27056903E-01 0.12871120E+03</pdfrwt>
<pdfrwt beam="1">  1       -4 0.55829441E-02 0.12871120E+03</pdfrwt>
<totfact> 0.10433504E+05</totfact>
</mgrwt>
</event>
<event>
 6    4  0.6093247E-003  0.1277639E+03  0.7818608E-02  0.1230812E+00
          4   -1    0    0  502    0 -0.00000000000E+00  0.00000000000E+00  0.63156319749E+02  0.63169087569E+02  0.12700000000E+01 0. -1.
         21   -1    0    0  501  502  0.00000000000E+00 -0.00000000000E+00 -0.14884695774E+03  0.14884695774E+03  0.00000000000E+00 0.  1.
         25    2    1    2    0    0 -0.92798513695E+01 -0.24757799357E+02 -0.58455146166E+01  0.12789755212E+03  0.12499819809E+03 0.  0.
    9000005    1    3    3    0    0 -0.13898796470E+02 -0.74611020639E+02 -0.13940656298E+02  0.77170738251E+02  0.10000000000E+01 0.  0.
    9000005    1    3    3    0    0  0.46189451006E+01  0.49853221283E+02  0.80951416814E+01  0.50726813866E+02  0.10000000000E+01 0.  0.
          4    1    1    2  501    0  0.92798513695E+01  0.24757799357E+02 -0.79845123377E+02  0.84118493196E+02  0.12700000000E+01 0.  1.
<mgrwt>
<rscale>  1 0.12776390E+03</rscale>
<asrwt>0</asrwt>
<pdfrwt beam="2">  1       21 0.22899532E-01 0.12776390E+03</pdfrwt>
<pdfrwt beam="1">  1        4 0.97177558E-02 0.12776390E+03</pdfrwt>
<totfact> 0.57366981E+04</totfact>
</mgrwt>
</event>
<event>
 6    4  0.6093247E-003  0.1267012E+03  0.7818608E-02  0.1232434E+00
         21   -1    0    0  501  502  0.00000000000E+00  0.00000000000E+00  0.14815912522E+03  0.14815912522E+03  0.00000000000E+00 0.  1.
          4   -1    0    0  502    0 -0.00000000000E+00 -0.00000000000E+00 -0.36659349988E+02  0.36681341872E+02  0.12700000000E+01 0.  1.
         25    2    1    2    0    0  0.14496022513E+02  0.14675319125E+02  0.97601535309E+02  0.15993517382E+03  0.12501080141E+03 0.  0.
    9000005    1    3    3    0    0 -0.21165276929E+02 -0.45995120671E+02  0.64920064992E+02  0.82335502134E+02  0.10000000000E+01 0.  0.
    9000005    1    3    3    0    0  0.35661299442E+02  0.60670439796E+02  0.32681470317E+02  0.77599671682E+02  0.10000000000E+01 0.  0.
          4    1    1    2  501    0 -0.14496022513E+02 -0.14675319125E+02  0.13898239918E+02  0.24905293272E+02  0.12700000000E+01 0. -1.
<mgrwt>
<rscale>  1 0.12670122E+03</rscale>
<asrwt>0</asrwt>
<pdfrwt beam="1">  1       21 0.22793711E-01 0.12670122E+03</pdfrwt>
<pdfrwt beam="2">  1        4 0.56420105E-02 0.12670122E+03</pdfrwt>
<totfact> 0.14147594E+05</totfact>
</mgrwt>
</event>
<event>
 6    4  0.6093247E-003  0.1270039E+03  0.7818608E-02  0.1231970E+00
         21   -1    0    0  501  502  0.00000000000E+00  0.00000000000E+00  0.25989712731E+03  0.25989712731E+03  0.00000000000E+00 0.  1.
          4   -1    0    0  502    0 -0.00000000000E+00 -0.00000000000E+00 -0.61433297657E+02  0.61446423501E+02  0.12700000000E+01 0. -1.
         25    2    1    2    0    0  0.18887047362E+02  0.12155965520E+02  0.55528520452E+01  0.12712525549E+03  0.12500203343E+03 0.  0.
    9000005    1    3    3    0    0 -0.32801325493E+01  0.10945014604E+02  0.63779166837E+02  0.64802274162E+02  0.10000000000E+01 0.  0.
    9000005    1    3    3    0    0  0.22167179911E+02  0.12109509159E+01 -0.58226314791E+02  0.62322981327E+02  0.10000000000E+01 0.  0.
          4    1    1    2  501    0 -0.18887047362E+02 -0.12155965520E+02  0.19291097761E+03  0.19421829532E+03  0.12700000000E+01 0.  1.
<mgrwt>
<rscale>  1 0.12700392E+03</rscale>
<asrwt>0</asrwt>
<pdfrwt beam="1">  1       21 0.39984173E-01 0.12700392E+03</pdfrwt>
<pdfrwt beam="2">  1        4 0.94525250E-02 0.12700392E+03</pdfrwt>
<totfact> 0.20463960E+04</totfact>
</mgrwt>
</event>
<event>
 6    4  0.6093247E-003  0.1275289E+03  0.7818608E-02  0.1231169E+00
         21   -1    0    0  501  502  0.00000000000E+00  0.00000000000E+00  0.13632182536E+03  0.13632182536E+03  0.00000000000E+00 0.  1.
          4   -1    0    0  502    0 -0.00000000000E+00 -0.00000000000E+00 -0.48152849099E+02  0.48169593899E+02  0.12700000000E+01 0.  1.
         25    2    1    2    0    0 -0.19305462594E+02 -0.16334649779E+02  0.94096978295E+02  0.15848611638E+03  0.12499634432E+03 0.  0.
    9000005    1    3    3    0    0  0.31492994199E+02 -0.35151198974E+02 -0.29937035972E+01  0.47300927413E+02  0.10000000000E+01 0.  0.
    9000005    1    3    3    0    0 -0.50798456793E+02  0.18816549194E+02  0.97090681892E+02  0.11118518897E+03  0.10000000000E+01 0.  0.
          4    1    1    2  501    0  0.19305462594E+02  0.16334649779E+02 -0.59280020367E+01  0.26005302873E+02  0.12700000000E+01 0. -1.
<mgrwt>
<rscale>  1 0.12752885E+03</rscale>
<asrwt>0</asrwt>
<pdfrwt beam="1">  1       21 0.20972588E-01 0.12752885E+03</pdfrwt>
<pdfrwt beam="2">  1        4 0.74098738E-02 0.12752885E+03</pdfrwt>
<totfact> 0.10602936E+05</totfact>
</mgrwt>
</event>
<event>
 6    4  0.6093247E-003  0.1268438E+03  0.7818608E-02  0.1232216E+00
         21   -1    0    0  501  502  0.00000000000E+00  0.00000000000E+00  0.20205240144E+03  0.20205240144E+03  0.00000000000E+00 0. -1.
          4   -1    0    0  502    0 -0.00000000000E+00 -0.00000000000E+00 -0.27497254769E+02  0.27526567527E+02  0.12700000000E+01 0. -1.
         25    2    1    2    0    0  0.21453960772E+02  0.19554522486E+01  0.14074841605E+03  0.18947156116E+03  0.12500103855E+03 0.  0.
    9000005    1    3    3    0    0 -0.14641177298E+02  0.57976112594E+02  0.59179929157E+02  0.84135947841E+02  0.10000000000E+01 0.  0.
    9000005    1    3    3    0    0  0.36095138070E+02 -0.56020660345E+02  0.81568486896E+02  0.10533561331E+03  0.10000000000E+01 0.  0.
          4    1    1    2  501    0 -0.21453960772E+02 -0.19554522486E+01  0.33806730619E+02  0.40107407813E+02  0.12700000000E+01 0.  1.
<mgrwt>
<rscale>  1 0.12684382E+03</rscale>
<asrwt>0</asrwt>
<pdfrwt beam="1">  1       21 0.31084984E-01 0.12684382E+03</pdfrwt>
<pdfrwt beam="2">  1        4 0.42329089E-02 0.12684382E+03</pdfrwt>
<totfact> 0.12431722E+05</totfact>
</mgrwt>
</event>
<event>
 6    4  0.6093247E-003  0.1270863E+03  0.7818608E-02  0.1231844E+00
          4   -1    0    0  502    0 -0.00000000000E+00  0.00000000000E+00  0.11287743316E+04  0.11287750461E+04  0.12700000000E+01 0.  1.
         21   -1    0    0  501  502  0.00000000000E+00 -0.00000000000E+00 -0.75925309300E+01  0.75925309300E+01  0.00000000000E+00 0.  1.
         25    2    1    2    0    0  0.33530758544E+01  0.22720602583E+02  0.10912160735E+04  0.10985915713E+04  0.12499381029E+03 0.  0.
    9000005    1    3    3    0    0  0.39393696848E+02  0.32173937421E+02  0.97952727047E+03  0.98084743930E+03  0.10000000000E+01 0.  0.
    9000005    1    3    3    0    0 -0.36040620993E+02 -0.94533348384E+01  0.11168880302E+03  0.11774413200E+03  0.10000000000E+01 0.  0.
          4    1    1    2  501    0 -0.33530758544E+01 -0.22720602583E+02  0.29965727223E+02  0.37776005710E+02  0.12700000000E+01 0. -1.
<mgrwt>
<rscale>  1 0.12708628E+03</rscale>
<asrwt>0</asrwt>
<pdfrwt beam="2">  1       21 0.11680826E-02 0.12708628E+03</pdfrwt>
<pdfrwt beam="1">  1        4 0.17366568E+00 0.12708628E+03</pdfrwt>
<totfact> 0.25542527E+04</totfact>
</mgrwt>
</event>
<event>
 6    4  0.6093247E-003  0.2024182E+03  0.7818608E-02  0.1147715E+00
         21   -1    0    0  501  502  0.00000000000E+00  0.00000000000E+00  0.88065714064E+02  0.88065714064E+02  0.00000000000E+00 0. -1.
         -4   -1    0    0    0  501 -0.00000000000E+00 -0.00000000000E+00 -0.69820498756E+03  0.69820614259E+03  0.12700000000E+01 0.  1.
         25    2    1    2    0    0  0.15565702434E+03  0.33446658505E+02 -0.59245248334E+03  0.62607752580E+03  0.12500134040E+03 0.  0.
    9000005    1    3    3    0    0  0.11314927936E+03  0.67091823102E+02 -0.51497833454E+03  0.53151458794E+03  0.10000000000E+01 0.  0.
    9000005    1    3    3    0    0  0.42507744983E+02 -0.33645164597E+02 -0.77474148799E+02  0.94562937859E+02  0.10000000000E+01 0.  0.
         -4    1    1    2    0  502 -0.15565702434E+03 -0.33446658505E+02 -0.17686790152E+02  0.16019433085E+03  0.12700000000E+01 0. -1.
<mgrwt>
<rscale>  1 0.20241819E+03</rscale>
<asrwt>0</asrwt>
<pdfrwt beam="1">  1       21 0.13548572E-01 0.20241819E+03</pdfrwt>
<pdfrwt beam="2">  1       -4 0.10741694E+00 0.20241819E+03</pdfrwt>
<totfact> 0.14345271E+03</totfact>
</mgrwt>
</event>
<event>
 6    4  0.6093247E-003  0.1823854E+03  0.7818608E-02  0.1165514E+00
         21   -1    0    0  501  502  0.00000000000E+00  0.00000000000E+00  0.17465812079E+03  0.17465812079E+03  0.00000000000E+00 0.  1.
         -4   -1    0    0    0  501 -0.00000000000E+00 -0.00000000000E+00 -0.34543226371E+03  0.34543459831E+03  0.12700000000E+01 0. -1.
         25    2    1    2    0    0  0.66813528972E+02  0.11478484697E+03 -0.28935581856E+03  0.34203981841E+03  0.12499935557E+03 0.  0.
    9000005    1    3    3    0    0  0.29929760233E+02  0.44903006696E+02 -0.14268930505E+02  0.55827170228E+02  0.10000000000E+01 0.  0.
    9000005    1    3    3    0    0  0.36883768739E+02  0.69881840273E+02 -0.27508688806E+03  0.28621264818E+03  0.10000000000E+01 0.  0.
         -4    1    1    2    0  502 -0.66813528972E+02 -0.11478484697E+03  0.11858167564E+03  0.17805290069E+03  0.12700000000E+01 0.  1.
<mgrwt>
<rscale>  1 0.18238544E+03</rscale>
<asrwt>0</asrwt>
<pdfrwt beam="1">  1       21 0.26870480E-01 0.18238544E+03</pdfrwt>
<pdfrwt beam="2">  1       -4 0.53143960E-01 0.18238544E+03</pdfrwt>
<totfact> 0.18942595E+03</totfact>
</mgrwt>
</event>
<event>
 6    4  0.6093247E-003  0.1376996E+03  0.7818608E-02  0.1216458E+00
         21   -1    0    0  501  502  0.00000000000E+00  0.00000000000E+00  0.78948561759E+02  0.78948561759E+02  0.00000000000E+00 0.  1.
         -4   -1    0    0    0  501 -0.00000000000E+00 -0.00000000000E+00 -0.27916098979E+03  0.27916387861E+03  0.12700000000E+01 0. -1.
         25    2    1    2    0    0  0.54692864425E+02  0.18635269190E+02 -0.24763988571E+03  0.28334908492E+03  0.12499043265E+03 0.  0.
    9000005    1    3    3    0    0 -0.20613135282E+02  0.19714142394E+02 -0.46039433931E+01  0.28909255460E+02  0.10000000000E+01 0.  0.
    9000005    1    3    3    0    0  0.75305999707E+02 -0.10788732046E+01 -0.24303594232E+03  0.25443982946E+03  0.10000000000E+01 0.  0.
         -4    1    1    2    0  502 -0.54692864425E+02 -0.18635269190E+02  0.47427457675E+02  0.74763355451E+02  0.12700000000E+01 0.  1.
<mgrwt>
<rscale>  1 0.13769964E+03</rscale>
<asrwt>0</asrwt>
<pdfrwt beam="1">  1       21 0.12145933E-01 0.13769964E+03</pdfrwt>
<pdfrwt beam="2">  1       -4 0.42948853E-01 0.13769964E+03</pdfrwt>
<totfact> 0.12409892E+04</totfact>
</mgrwt>
</event>
<event>
 6    4  0.6093247E-003  0.1269252E+03  0.7818608E-02  0.1232091E+00
         -4   -1    0    0    0  501 -0.00000000000E+00  0.00000000000E+00  0.21499246212E+03  0.21499621315E+03  0.12700000000E+01 0.  1.
         21   -1    0    0  501  502  0.00000000000E+00 -0.00000000000E+00 -0.10632267385E+03  0.10632267385E+03  0.00000000000E+00 0. -1.
         25    2    1    2    0    0 -0.21507406323E+02  0.47095566154E+01  0.19474926826E+03  0.23245923234E+03  0.12500107505E+03 0.  0.
    9000005    1    3    3    0    0 -0.13470355472E+02  0.49648559407E+02  0.26015994462E+02  0.57656412441E+02  0.10000000000E+01 0.  0.
    9000005    1    3    3    0    0 -0.80370508511E+01 -0.44939002792E+02  0.16873327380E+03  0.17480281990E+03  0.10000000000E+01 0.  0.
         -4    1    1    2    0  502  0.21507406323E+02 -0.47095566154E+01 -0.86079479988E+02  0.88859654654E+02  0.12700000000E+01 0. -1.
<mgrwt>
<rscale>  1 0.12692524E+03</rscale>
<asrwt>0</asrwt>
<pdfrwt beam="2">  1       21 0.16357335E-01 0.12692524E+03</pdfrwt>
<pdfrwt beam="1">  1       -4 0.33076635E-01 0.12692524E+03</pdfrwt>
<totfact> 0.12012688E+04</totfact>
</mgrwt>
</event>
<event>
 6    4  0.6093247E-003  0.1517331E+03  0.7818608E-02  0.1198359E+00
          4   -1    0    0  502    0 -0.00000000000E+00  0.00000000000E+00  0.79001842933E+02  0.79012050264E+02  0.12700000000E+01 0. -1.
         21   -1    0    0  501  502  0.00000000000E+00 -0.00000000000E+00 -0.42709019661E+03  0.42709019661E+03  0.00000000000E+00 0.  1.
         25    2    1    2    0    0  0.84536637167E+02 -0.15845610835E+02 -0.43827690640E+01  0.15179635051E+03  0.12500158782E+03 0.  0.
    9000005    1    3    3    0    0  0.19808372916E+01  0.41492129637E+02 -0.25950837655E+02  0.48989453081E+02  0.10000000000E+01 0.  0.
    9000005    1    3    3    0    0  0.82555799875E+02 -0.57337740472E+02  0.21568068591E+02  0.10280689743E+03  0.10000000000E+01 0.  0.
          4    1    1    2  501    0 -0.84536637167E+02  0.15845610835E+02 -0.34370558461E+03  0.35430589636E+03  0.12700000000E+01 0.  1.
<mgrwt>
<rscale>  1 0.15173307E+03</rscale>
<asrwt>0</asrwt>
<pdfrwt beam="2">  1       21 0.65706184E-01 0.15173307E+03</pdfrwt>
<pdfrwt beam="1">  1        4 0.12155060E-01 0.15173307E+03</pdfrwt>
<totfact> 0.48215617E+03</totfact>
</mgrwt>
</event>
<event>
 6    4  0.6093247E-003  0.1280103E+03  0.7818608E-02  0.1230438E+00
         21   -1    0    0  501  502  0.00000000000E+00  0.00000000000E+00  0.11040961549E+02  0.11040961549E+02  0.00000000000E+00 0.  1.
         -4   -1    0    0    0  501 -0.00000000000E+00 -0.00000000000E+00 -0.79854115180E+03  0.79854216170E+03  0.12700000000E+01 0.  1.
         25    2    1    2    0    0  0.22754227601E+02  0.15617615000E+02 -0.75962835152E+03  0.77033879798E+03  0.12499986586E+03 0.  0.
    9000005    1    3    3    0    0  0.41036930732E+02 -0.30969981544E+02 -0.61779815803E+03  0.61993445904E+03  0.10000000000E+01 0.  0.
    9000005    1    3    3    0    0 -0.18282703130E+02  0.46587596544E+02 -0.14183019349E+03  0.15040433894E+03  0.10000000000E+01 0.  0.
         -4    1    1    2    0  502 -0.22754227601E+02 -0.15617615000E+02 -0.27871838730E+02  0.39244325274E+02  0.12700000000E+01 0. -1.
<mgrwt>
<rscale>  1 0.12801028E+03</rscale>
<asrwt>0</asrwt>
<pdfrwt beam="1">  1       21 0.16986095E-02 0.12801028E+03</pdfrwt>
<pdfrwt beam="2">  1       -4 0.12285818E+00 0.12801028E+03</pdfrwt>
<totfact> 0.33794614E+04</totfact>
</mgrwt>
</event>
<event>
 6    4  0.6093247E-003  0.1282757E+03  0.7818608E-02  0.1230037E+00
         21   -1    0    0  501  502  0.00000000000E+00  0.00000000000E+00  0.34581560594E+03  0.34581560594E+03  0.00000000000E+00 0.  1.
         -4   -1    0    0    0  501 -0.00000000000E+00 -0.00000000000E+00 -0.17933160989E+02  0.17978074509E+02  0.12700000000E+01 0.  1.
         25    2    1    2    0    0 -0.57463262551E+01 -0.28217052833E+02  0.25578710517E+03  0.28614979303E+03  0.12500175415E+03 0.  0.
    9000005    1    3    3    0    0 -0.49884987991E+02 -0.55477842510E+02  0.17357157074E+03  0.18892959854E+03  0.10000000000E+01 0.  0.
    9000005    1    3    3    0    0  0.44138661736E+02  0.27260789677E+02  0.82215534433E+02  0.97220194486E+02  0.10000000000E+01 0.  0.
         -4    1    1    2    0  502  0.57463262551E+01  0.28217052833E+02  0.72095339775E+02  0.77643887418E+02  0.12700000000E+01 0. -1.
<mgrwt>
<rscale>  1 0.12827572E+03</rscale>
<asrwt>0</asrwt>
<pdfrwt beam="1">  1       21 0.53202396E-01 0.12827572E+03</pdfrwt>
<pdfrwt beam="2">  1       -4 0.27625824E-02 0.12827572E+03</pdfrwt>
<totfact> 0.82989173E+04</totfact>
</mgrwt>
</event>
<event>
 6    4  0.6093247E-003  0.1401652E+03  0.7818608E-02  0.1213107E+00
         21   -1    0    0  501  502  0.00000000000E+00  0.00000000000E+00  0.14036043838E+03  0.14036043838E+03  0.00000000000E+00 0. -1.
         -4   -1    0    0    0  501 -0.00000000000E+00 -0.00000000000E+00 -0.73908825975E+02  0.73919736586E+02  0.12700000000E+01 0. -1.
         25    2    1    2    0    0 -0.28914990681E+02  0.56441166244E+02  0.42309598040E+02  0.14641168677E+03  0.12499839200E+03 0.  0.
    9000005    1    3    3    0    0 -0.31601788028E+02 -0.11463512690E+02  0.66295440797E+02  0.74338217629E+02  0.10000000000E+01 0.  0.
    9000005    1    3    3    0    0  0.26867973461E+01  0.67904678933E+02 -0.23985842757E+02  0.72073469139E+02  0.10000000000E+01 0.  0.
         -4    1    1    2    0  502  0.28914990681E+02 -0.56441166244E+02  0.24142014369E+02  0.67868488202E+02  0.12700000000E+01 0.  1.
<mgrwt>
<rscale>  1 0.14016519E+03</rscale>
<asrwt>0</asrwt>
<pdfrwt beam="1">  1       21 0.21593914E-01 0.14016519E+03</pdfrwt>
<pdfrwt beam="2">  1       -4 0.11371870E-01 0.14016519E+03</pdfrwt>
<totfact> 0.49613006E+04</totfact>
</mgrwt>
</event>
<event>
 6    4  0.6093247E-003  0.1280797E+03  0.7818608E-02  0.1230333E+00
         -4   -1    0    0    0  501 -0.00000000000E+00  0.00000000000E+00  0.17153149755E+03  0.17153619896E+03  0.12700000000E+01 0. -1.
         21   -1    0    0  501  502  0.00000000000E+00 -0.00000000000E+00 -0.69600045101E+02  0.69600045101E+02  0.00000000000E+00 0. -1.
         25    2    1    2    0    0 -0.23017780382E+02 -0.15800101064E+02  0.14267386999E+03  0.19172957554E+03  0.12499974220E+03 0.  0.
    9000005    1    3    3    0    0 -0.28004328762E+02 -0.90833183785E+01 -0.15530635046E+02  0.33300896791E+02  0.10000000000E+01 0.  0.
    9000005    1    3    3    0    0  0.49865483803E+01 -0.67167826852E+01  0.15820450504E+03  0.15842867875E+03  0.10000000000E+01 0.  0.
         -4    1    1    2    0  502  0.23017780382E+02  0.15800101064E+02 -0.40742417541E+02  0.49406668521E+02  0.12700000000E+01 0.  1.
<mgrwt>
<rscale>  1 0.12807965E+03</rscale>
<asrwt>0</asrwt>
<pdfrwt beam="2">  1       21 0.10707699E-01 0.12807965E+03</pdfrwt>
<pdfrwt beam="1">  1       -4 0.26390714E-01 0.12807965E+03</pdfrwt>
<totfact> 0.39197397E+04</totfact>
</mgrwt>
</event>
<event>
 6    4  0.6093247E-003  0.1291192E+03  0.7818608E-02  0.1228769E+00
         21   -1    0    0  501  502  0.00000000000E+00  0.00000000000E+00  0.43430559315E+02  0.43430559315E+02  0.00000000000E+00 0.  1.
          4   -1    0    0  502    0 -0.00000000000E+00 -0.00000000000E+00 -0.15491731063E+03  0.15492251622E+03  0.12700000000E+01 0.  1.
         25    2    1    2    0    0 -0.15630835642E+02  0.28324492054E+02 -0.10220045122E+03  0.16467150576E+03  0.12500069083E+03 0.  0.
    9000005    1    3    3    0    0 -0.36709406986E+02  0.48176548079E+02 -0.11728663043E+03  0.13200649235E+03  0.10000000000E+01 0.  0.
    9000005    1    3    3    0    0  0.21078571344E+02 -0.19852056025E+02  0.15086179206E+02  0.32665013414E+02  0.10000000000E+01 0.  0.
          4    1    1    2  501    0  0.15630835642E+02 -0.28324492054E+02 -0.92863000953E+01  0.33681569774E+02  0.12700000000E+01 0. -1.
<mgrwt>
<rscale>  1 0.12911922E+03</rscale>
<asrwt>0</asrwt>
<pdfrwt beam="1">  1       21 0.66816246E-02 0.12911922E+03</pdfrwt>
<pdfrwt beam="2">  1        4 0.23835261E-01 0.12911922E+03</pdfrwt>
<totfact> 0.10709752E+05</totfact>
</mgrwt>
</event>
<event>
 6    4  0.6093247E-003  0.1268072E+03  0.7818608E-02  0.1232272E+00
         21   -1    0    0  501  502  0.00000000000E+00  0.00000000000E+00  0.15108036132E+03  0.15108036132E+03  0.00000000000E+00 0.  1.
          4   -1    0    0  502    0 -0.00000000000E+00 -0.00000000000E+00 -0.52209231594E+02  0.52224675811E+02  0.12700000000E+01 0.  1.
         25    2    1    2    0    0  0.18956117857E+02  0.94593200873E+01  0.28726871239E+02  0.13002036589E+03  0.12502499459E+03 0.  0.
    9000005    1    3    3    0    0 -0.83621692498E+01  0.42537217458E+02 -0.33245898753E+02  0.54640923560E+02  0.10000000000E+01 0.  0.
    9000005    1    3    3    0    0  0.27318287107E+02 -0.33077897371E+02  0.61972769992E+02  0.75379442326E+02  0.10000000000E+01 0.  0.
          4    1    1    2  501    0 -0.18956117857E+02 -0.94593200873E+01  0.70144258492E+02  0.73284671250E+02  0.12700000000E+01 0. -1.
<mgrwt>
<rscale>  1 0.12680719E+03</rscale>
<asrwt>0</asrwt>
<pdfrwt beam="1">  1       21 0.23243132E-01 0.12680719E+03</pdfrwt>
<pdfrwt beam="2">  1        4 0.80337882E-02 0.12680719E+03</pdfrwt>
<totfact> 0.76536332E+04</totfact>
</mgrwt>
</event>
<event>
 6    4  0.6093247E-003  0.1623949E+03  0.7818608E-02  0.1186019E+00
         21   -1    0    0  501  502  0.00000000000E+00  0.00000000000E+00  0.98952356001E+02  0.98952356001E+02  0.00000000000E+00 0. -1.
         -4   -1    0    0    0  501 -0.00000000000E+00 -0.00000000000E+00 -0.27667655033E+03  0.27667946509E+03  0.12700000000E+01 0. -1.
         25    2    1    2    0    0 -0.50068469337E+02 -0.90769923637E+02 -0.21144891311E+03  0.26661347302E+03  0.12500428185E+03 0.  0.
    9000005    1    3    3    0    0 -0.63571988489E+02 -0.95945172378E+01 -0.38147661527E+02  0.74764273296E+02  0.10000000000E+01 0.  0.
    9000005    1    3    3    0    0  0.13503519152E+02 -0.81175406399E+02 -0.17330125159E+03  0.19184919972E+03  0.10000000000E+01 0.  0.
         -4    1    1    2    0  502  0.50068469337E+02  0.90769923637E+02  0.33724718785E+02  0.10901834807E+03  0.12700000000E+01 0.  1.
<mgrwt>
<rscale>  1 0.16239489E+03</rscale>
<asrwt>0</asrwt>
<pdfrwt beam="1">  1       21 0.15223440E-01 0.16239489E+03</pdfrwt>
<pdfrwt beam="2">  1       -4 0.42566474E-01 0.16239489E+03</pdfrwt>
<totfact> 0.85356929E+03</totfact>
</mgrwt>
</event>
<event>
 6    4  0.6093247E-003  0.1274558E+03  0.7818608E-02  0.1231280E+00
         21   -1    0    0  501  502  0.00000000000E+00  0.00000000000E+00  0.51947819893E+02  0.51947819893E+02  0.00000000000E+00 0. -1.
         -4   -1    0    0    0  501 -0.00000000000E+00 -0.00000000000E+00 -0.13546518019E+03  0.13547113325E+03  0.12700000000E+01 0. -1.
         25    2    1    2    0    0  0.18128964355E+02 -0.17060169315E+02 -0.95977852554E+02  0.15955166959E+03  0.12500111344E+03 0.  0.
    9000005    1    3    3    0    0 -0.14746273577E+02 -0.66003336820E+02 -0.42055160893E+02  0.79646278089E+02  0.10000000000E+01 0.  0.
    9000005    1    3    3    0    0  0.32875237932E+02  0.48943167505E+02 -0.53922691660E+02  0.79905391498E+02  0.10000000000E+01 0.  0.
         -4    1    1    2    0  502 -0.18128964355E+02  0.17060169315E+02  0.12460492254E+02  0.27867283558E+02  0.12700000000E+01 0.  1.
<mgrwt>
<rscale>  1 0.12745582E+03</rscale>
<asrwt>0</asrwt>
<pdfrwt beam="1">  1       21 0.79919723E-02 0.12745582E+03</pdfrwt>
<pdfrwt beam="2">  1       -4 0.20842449E-01 0.12745582E+03</pdfrwt>
<totfact> 0.10036914E+05</totfact>
</mgrwt>
</event>
<event>
 6    4  0.6093247E-003  0.1430406E+03  0.7818608E-02  0.1209295E+00
          4   -1    0    0  502    0 -0.00000000000E+00  0.00000000000E+00  0.22993794264E+03  0.22994144987E+03  0.12700000000E+01 0. -1.
         21   -1    0    0  501  502  0.00000000000E+00 -0.00000000000E+00 -0.11002470432E+03  0.11002470432E+03  0.00000000000E+00 0.  1.
         25    2    1    2    0    0 -0.29937097163E+01  0.69480910376E+02  0.19224131778E+03  0.23961914037E+03  0.12499619580E+03 0.  0.
    9000005    1    3    3    0    0 -0.37508506143E+02  0.91906237478E+02  0.15522250533E+03  0.18425165042E+03  0.10000000000E+01 0.  0.
    9000005    1    3    3    0    0  0.34514796427E+02 -0.22425327102E+02  0.37018812450E+02  0.55367489949E+02  0.10000000000E+01 0.  0.
          4    1    1    2  501    0  0.29937097163E+01 -0.69480910376E+02 -0.72328079464E+02  0.10034701382E+03  0.12700000000E+01 0.  1.
<mgrwt>
<rscale>  1 0.14304058E+03</rscale>
<asrwt>0</asrwt>
<pdfrwt beam="2">  1       21 0.16926878E-01 0.14304058E+03</pdfrwt>
<pdfrwt beam="1">  1        4 0.35375902E-01 0.14304058E+03</pdfrwt>
<totfact> 0.10021227E+04</totfact>
</mgrwt>
</event>
<event>
 6    4  0.6093247E-003  0.1290925E+03  0.7818608E-02  0.1228809E+00
         -4   -1    0    0    0  501 -0.00000000000E+00  0.00000000000E+00  0.13904141355E+03  0.13904721350E+03  0.12700000000E+01 0.  1.
         21   -1    0    0  501  502  0.00000000000E+00 -0.00000000000E+00 -0.17227289902E+03  0.17227289902E+03  0.00000000000E+00 0. -1.
         25    2    1    2    0    0 -0.26527694180E+02 -0.18335881865E+02  0.10684557560E+03  0.16757339409E+03  0.12499976904E+03 0.  0.
    9000005    1    3    3    0    0  0.21287449092E+02  0.18036813620E+02 -0.15018052456E+02  0.31702114030E+02  0.10000000000E+01 0.  0.
    9000005    1    3    3    0    0 -0.47815143272E+02 -0.36372695485E+02  0.12186362806E+03  0.13587128006E+03  0.10000000000E+01 0.  0.
         -4    1    1    2    0  502  0.26527694180E+02  0.18335881865E+02 -0.14007706106E+03  0.14374671843E+03  0.12700000000E+01 0. -1.
<mgrwt>
<rscale>  1 0.12909247E+03</rscale>
<asrwt>0</asrwt>
<pdfrwt beam="2">  1       21 0.26503523E-01 0.12909247E+03</pdfrwt>
<pdfrwt beam="1">  1       -4 0.21391793E-01 0.12909247E+03</pdfrwt>
<totfact> 0.11045249E+04</totfact>
</mgrwt>
</event>
<event>
 6    4  0.6093247E-003  0.1456272E+03  0.7818608E-02  0.1205952E+00
         -4   -1    0    0    0  501 -0.00000000000E+00  0.00000000000E+00  0.37013539525E+03  0.37013757404E+03  0.12700000000E+01 0.  1.
         21   -1    0    0  501  502  0.00000000000E+00 -0.00000000000E+00 -0.65933311800E+02  0.65933311800E+02  0.00000000000E+00 0. -1.
         25    2    1    2    0    0 -0.54300765636E+02 -0.51311973986E+02  0.32699075349E+03  0.35795284564E+03  0.12500318000E+03 0.  0.
    9000005    1    3    3    0    0  0.20446463274E+02  0.12934341153E+01  0.20234691162E+03  0.20338388204E+03  0.10000000000E+01 0.  0.
    9000005    1    3    3    0    0 -0.74747228911E+02 -0.52605408102E+02  0.12464384187E+03  0.15456896359E+03  0.10000000000E+01 0.  0.
         -4    1    1    2    0  502  0.54300765636E+02  0.51311973986E+02 -0.22788670038E+02  0.78118040203E+02  0.12700000000E+01 0. -1.
<mgrwt>
<rscale>  1 0.14562722E+03</rscale>
<asrwt>0</asrwt>
<pdfrwt beam="2">  1       21 0.10143587E-01 0.14562722E+03</pdfrwt>
<pdfrwt beam="1">  1       -4 0.56945014E-01 0.14562722E+03</pdfrwt>
<totfact> 0.96524380E+03</totfact>
</mgrwt>
</event>
<event>
 6    4  0.6093247E-003  0.1269171E+03  0.7818608E-02  0.1232103E+00
         -4   -1    0    0    0  501 -0.00000000000E+00  0.00000000000E+00  0.33880009807E+02  0.33903804573E+02  0.12700000000E+01 0.  1.
         21   -1    0    0  501  502  0.00000000000E+00 -0.00000000000E+00 -0.21570249217E+03  0.21570249217E+03  0.00000000000E+00 0.  1.
         25    2    1    2    0    0  0.16799863258E+02 -0.14192661859E+02 -0.91049347365E+02  0.15619836350E+03  0.12499711216E+03 0.  0.
    9000005    1    3    3    0    0 -0.29362811446E+02  0.27635326140E+02 -0.84399389101E+02  0.93542198112E+02  0.10000000000E+01 0.  0.
    9000005    1    3    3    0    0  0.46162674704E+02 -0.41827987999E+02 -0.66499582633E+01  0.62656165385E+02  0.10000000000E+01 0.  0.
         -4    1    1    2    0  502 -0.16799863258E+02  0.14192661859E+02 -0.90773135001E+02  0.93407933250E+02  0.12700000000E+01 0. -1.
<mgrwt>
<rscale>  1 0.12691708E+03</rscale>
<asrwt>0</asrwt>
<pdfrwt beam="2">  1       21 0.33184998E-01 0.12691708E+03</pdfrwt>
<pdfrwt beam="1">  1       -4 0.52144273E-02 0.12691708E+03</pdfrwt>
<totfact> 0.78430785E+04</totfact>
</mgrwt>
</event>
<event>
 6    4  0.6093247E-003  0.1276838E+03  0.7818608E-02  0.1230934E+00
         21   -1    0    0  501  502  0.00000000000E+00  0.00000000000E+00  0.58047048487E+03  0.58047048487E+03  0.00000000000E+00 0.  1.
          4   -1    0    0  502    0 -0.00000000000E+00 -0.00000000000E+00 -0.21120118964E+02  0.21158268480E+02  0.12700000000E+01 0. -1.
         25    2    1    2    0    0 -0.24795285586E+02 -0.79860754875E+01  0.17624183273E+03  0.21763351291E+03  0.12499831498E+03 0.  0.
    9000005    1    3    3    0    0 -0.59326746860E+01 -0.55434550988E+02  0.15038733851E+03  0.16039182540E+03  0.10000000000E+01 0.  0.
    9000005    1    3    3    0    0 -0.18862610900E+02  0.47448475500E+02  0.25854494224E+02  0.57241687509E+02  0.10000000000E+01 0.  0.
          4    1    1    2  501    0  0.24795285586E+02  0.79860754875E+01  0.38310853317E+03  0.38399524044E+03  0.12700000000E+01 0.  1.
<mgrwt>
<rscale>  1 0.12768384E+03</rscale>
<asrwt>0</asrwt>
<pdfrwt beam="1">  1       21 0.89303139E-01 0.12768384E+03</pdfrwt>
<pdfrwt beam="2">  1        4 0.32522910E-02 0.12768384E+03</pdfrwt>
<totfact> 0.20813027E+04</totfact>
</mgrwt>
</event>
<event>
 6    4  0.6093247E-003  0.1268503E+03  0.7818608E-02  0.1232206E+00
         -4   -1    0    0    0  501 -0.00000000000E+00  0.00000000000E+00  0.17929257234E+03  0.17929707024E+03  0.12700000000E+01 0.  1.
         21   -1    0    0  501  502  0.00000000000E+00 -0.00000000000E+00 -0.37456477627E+02  0.37456477627E+02  0.00000000000E+00 0.  1.
         25    2    1    2    0    0 -0.21547836919E+02 -0.12801461569E+01  0.14735842977E+03  0.19443635417E+03  0.12500016380E+03 0.  0.
    9000005    1    3    3    0    0 -0.43953403496E+02  0.33087770550E+02  0.16727729484E+02  0.57511035224E+02  0.10000000000E+01 0.  0.
    9000005    1    3    3    0    0  0.22405566577E+02 -0.34367916707E+02  0.13063070028E+03  0.13692531895E+03  0.10000000000E+01 0.  0.
         -4    1    1    2    0  502  0.21547836919E+02  0.12801461569E+01 -0.55223350520E+01  0.22317193697E+02  0.12700000000E+01 0. -1.
<mgrwt>
<rscale>  1 0.12685026E+03</rscale>
<asrwt>0</asrwt>
<pdfrwt beam="2">  1       21 0.57625351E-02 0.12685026E+03</pdfrwt>
<pdfrwt beam="1">  1       -4 0.27585474E-01 0.12685026E+03</pdfrwt>
<totfact> 0.10481511E+05</totfact>
</mgrwt>
</event>
<event>
 6    4  0.6093247E-003  0.1329943E+03  0.7818608E-02  0.1223079E+00
         21   -1    0    0  501  502  0.00000000000E+00  0.00000000000E+00  0.70577079425E+03  0.70577079425E+03  0.00000000000E+00 0. -1.
         -4   -1    0    0    0  501 -0.00000000000E+00 -0.00000000000E+00 -0.12137301277E+02  0.12203564328E+02  0.12700000000E+01 0. -1.
         25    2    1    2    0    0 -0.17800400828E+02 -0.41783892512E+02  0.59024663745E+03  0.60504427960E+03  0.12499895725E+03 0.  0.
    9000005    1    3    3    0    0 -0.26181416355E+02  0.11606559915E+02  0.27530567942E+02  0.39738029224E+02  0.10000000000E+01 0.  0.
    9000005    1    3    3    0    0  0.83810155271E+01 -0.53390452427E+02  0.56271606951E+03  0.56530625037E+03  0.10000000000E+01 0.  0.
         -4    1    1    2    0  502  0.17800400828E+02  0.41783892512E+02  0.10338685553E+03  0.11293007898E+03  0.12700000000E+01 0.  1.
<mgrwt>
<rscale>  1 0.13299431E+03</rscale>
<asrwt>0</asrwt>
<pdfrwt beam="1">  1       21 0.10858009E+00 0.13299431E+03</pdfrwt>
<pdfrwt beam="2">  1       -4 0.18724627E-02 0.13299431E+03</pdfrwt>
<totfact> 0.31178196E+04</totfact>
</mgrwt>
</event>
<event>
 6    4  0.6093247E-003  0.1372135E+03  0.7818608E-02  0.1217128E+00
         21   -1    0    0  501  502  0.00000000000E+00  0.00000000000E+00  0.36389129990E+02  0.36389129990E+02  0.00000000000E+00 0. -1.
          4   -1    0    0  502    0 -0.00000000000E+00 -0.00000000000E+00 -0.34989701683E+03  0.34989932164E+03  0.12700000000E+01 0.  1.
         25    2    1    2    0    0 -0.19390159539E+01 -0.56563200378E+02 -0.29724703973E+03  0.32738867686E+03  0.12499755072E+03 0.  0.
    9000005    1    3    3    0    0 -0.57299667940E+02 -0.12029026431E+02 -0.18933114155E+03  0.19817979358E+03  0.10000000000E+01 0.  0.
    9000005    1    3    3    0    0  0.55360651986E+02 -0.44534173947E+02 -0.10791589818E+03  0.12920888327E+03  0.10000000000E+01 0.  0.
          4    1    1    2  501    0  0.19390159539E+01  0.56563200378E+02 -0.16260847109E+02  0.58899774775E+02  0.12700000000E+01 0. -1.
<mgrwt>
<rscale>  1 0.13721349E+03</rscale>
<asrwt>0</asrwt>
<pdfrwt beam="1">  1       21 0.55983279E-02 0.13721349E+03</pdfrwt>
<pdfrwt beam="2">  1        4 0.53832190E-01 0.13721349E+03</pdfrwt>
<totfact> 0.30018684E+04</totfact>
</mgrwt>
</event>
<event>
 6    4  0.6093247E-003  0.1285710E+03  0.7818608E-02  0.1229592E+00
          4   -1    0    0  502    0 -0.00000000000E+00  0.00000000000E+00  0.51890743507E+03  0.51890898920E+03  0.12700000000E+01 0. -1.
         21   -1    0    0  501  502  0.00000000000E+00 -0.00000000000E+00 -0.19900970371E+02  0.19900970371E+02  0.00000000000E+00 0.  1.
         25    2    1    2    0    0  0.29456158397E+02 -0.61399255560E+01  0.49113105930E+03  0.50768121299E+03  0.12500053064E+03 0.  0.
    9000005    1    3    3    0    0  0.52952982156E+02 -0.24050978309E+02  0.46376031376E+03  0.46739394144E+03  0.10000000000E+01 0.  0.
    9000005    1    3    3    0    0 -0.23496823760E+02  0.17911052753E+02  0.27370745546E+02  0.40287271554E+02  0.10000000000E+01 0.  0.
          4    1    1    2  501    0 -0.29456158397E+02  0.61399255560E+01  0.78754053970E+01  0.31128746578E+02  0.12700000000E+01 0.  1.
<mgrwt>
<rscale>  1 0.12857098E+03</rscale>
<asrwt>0</asrwt>
<pdfrwt beam="2">  1       21 0.30616881E-02 0.12857098E+03</pdfrwt>
<pdfrwt beam="1">  1        4 0.79835140E-01 0.12857098E+03</pdfrwt>
<totfact> 0.35121524E+04</totfact>
</mgrwt>
</event>
<event>
 6    4  0.6093247E-003  0.1319611E+03  0.7818608E-02  0.1224575E+00
         21   -1    0    0  501  502  0.00000000000E+00  0.00000000000E+00  0.19773673723E+03  0.19773673723E+03  0.00000000000E+00 0. -1.
         -4   -1    0    0    0  501 -0.00000000000E+00 -0.00000000000E+00 -0.52241420532E+02  0.52256855236E+02  0.12700000000E+01 0. -1.
         25    2    1    2    0    0 -0.31394077283E+02  0.28335621477E+02  0.42482966526E+02  0.13863088452E+03  0.12500089666E+03 0.  0.
    9000005    1    3    3    0    0  0.10590840400E+02  0.44577097440E+02  0.71598574973E+02  0.85009643304E+02  0.10000000000E+01 0.  0.
    9000005    1    3    3    0    0 -0.41984917682E+02 -0.16241475962E+02 -0.29115608447E+02  0.53621241216E+02  0.10000000000E+01 0.  0.
         -4    1    1    2    0  502  0.31394077283E+02 -0.28335621477E+02  0.10301235017E+03  0.11136270794E+03  0.12700000000E+01 0.  1.
<mgrwt>
<rscale>  1 0.13196105E+03</rscale>
<asrwt>0</asrwt>
<pdfrwt beam="1">  1       21 0.30421036E-01 0.13196105E+03</pdfrwt>
<pdfrwt beam="2">  1       -4 0.80386427E-02 0.13196105E+03</pdfrwt>
<totfact> 0.46038349E+04</totfact>
</mgrwt>
</event>
<event>
 6    4  0.6093247E-003  0.1344452E+03  0.7818608E-02  0.1221005E+00
         21   -1    0    0  501  502  0.00000000000E+00  0.00000000000E+00  0.58058702994E+03  0.58058702994E+03  0.00000000000E+00 0. -1.
          4   -1    0    0  502    0 -0.00000000000E+00 -0.00000000000E+00 -0.14684177982E+02  0.14738995319E+02  0.12700000000E+01 0. -1.
         25    2    1    2    0    0 -0.49832282275E+01 -0.49242185793E+02  0.38645719342E+03  0.40917559498E+03  0.12500351897E+03 0.  0.
    9000005    1    3    3    0    0 -0.13628578114E+02  0.34817959023E+02  0.21262213104E+03  0.21588700522E+03  0.10000000000E+01 0.  0.
    9000005    1    3    3    0    0  0.86453498866E+01 -0.84060144816E+02  0.17383506238E+03  0.19328858977E+03  0.10000000000E+01 0.  0.
          4    1    1    2  501    0  0.49832282275E+01  0.49242185793E+02  0.17944565853E+03  0.18615043027E+03  0.12700000000E+01 0.  1.
<mgrwt>
<rscale>  1 0.13444518E+03</rscale>
<asrwt>0</asrwt>
<pdfrwt beam="1">  1       21 0.89321064E-01 0.13444518E+03</pdfrwt>
<pdfrwt beam="2">  1        4 0.22634283E-02 0.13444518E+03</pdfrwt>
<totfact> 0.36764185E+04</totfact>
</mgrwt>
</event>
<event>
 6    4  0.6093247E-003  0.1364295E+03  0.7818608E-02  0.1218216E+00
          4   -1    0    0  502    0 -0.00000000000E+00  0.00000000000E+00  0.57679031344E+02  0.57693011334E+02  0.12700000000E+01 0. -1.
         21   -1    0    0  501  502  0.00000000000E+00 -0.00000000000E+00 -0.20269854420E+03  0.20269854420E+03  0.00000000000E+00 0.  1.
         25    2    1    2    0    0  0.53387762545E+02  0.11727702692E+02 -0.40298900767E+02  0.14225683711E+03  0.12500085641E+03 0.  0.
    9000005    1    3    3    0    0 -0.35108251185E+02  0.29840465247E+02 -0.14246820355E+02  0.48239139272E+02  0.10000000000E+01 0.  0.
    9000005    1    3    3    0    0  0.88496013731E+02 -0.18112762555E+02 -0.26052080413E+02  0.94017697842E+02  0.10000000000E+01 0.  0.
          4    1    1    2  501    0 -0.53387762545E+02 -0.11727702692E+02 -0.10472061209E+03  0.11813471842E+03  0.12700000000E+01 0.  1.
<mgrwt>
<rscale>  1 0.13642949E+03</rscale>
<asrwt>0</asrwt>
<pdfrwt beam="2">  1       21 0.31184391E-01 0.13642949E+03</pdfrwt>
<pdfrwt beam="1">  1        4 0.88750786E-02 0.13642949E+03</pdfrwt>
<totfact> 0.37354626E+04</totfact>
</mgrwt>
</event>
<event>
 6    4  0.6093247E-003  0.1268315E+03  0.7818608E-02  0.1232234E+00
         21   -1    0    0  501  502  0.00000000000E+00  0.00000000000E+00  0.54031472688E+02  0.54031472688E+02  0.00000000000E+00 0.  1.
         -4   -1    0    0    0  501 -0.00000000000E+00 -0.00000000000E+00 -0.34925450777E+03  0.34925681682E+03  0.12700000000E+01 0. -1.
         25    2    1    2    0    0  0.19929151044E+02 -0.79761390545E+01 -0.33492580806E+03  0.35813618062E+03  0.12500174842E+03 0.  0.
    9000005    1    3    3    0    0 -0.52700379725E+02 -0.71344467638E+01 -0.11981023795E+03  0.13108670211E+03  0.10000000000E+01 0.  0.
    9000005    1    3    3    0    0  0.72629530769E+02 -0.84169229070E+00 -0.21511557011E+03  0.22704947850E+03  0.10000000000E+01 0.  0.
         -4    1    1    2    0  502 -0.19929151044E+02  0.79761390545E+01  0.39702772976E+02  0.45152108893E+02  0.12700000000E+01 0.  1.
<mgrwt>
<rscale>  1 0.12683149E+03</rscale>
<asrwt>0</asrwt>
<pdfrwt beam="1">  1       21 0.83125346E-02 0.12683149E+03</pdfrwt>
<pdfrwt beam="2">  1       -4 0.53732786E-01 0.12683149E+03</pdfrwt>
<totfact> 0.15201998E+04</totfact>
</mgrwt>
</event>
<event>
 6    4  0.6093247E-003  0.1269305E+03  0.7818608E-02  0.1232083E+00
         -4   -1    0    0    0  501 -0.00000000000E+00  0.00000000000E+00  0.11799116784E+02  0.11867268299E+02  0.12700000000E+01 0. -1.
         21   -1    0    0  501  502  0.00000000000E+00 -0.00000000000E+00 -0.47656410693E+03  0.47656410693E+03  0.00000000000E+00 0. -1.
         25    2    1    2    0    0  0.22007408889E+02  0.78240821143E+00 -0.37121609932E+03  0.39231714068E+03  0.12500563294E+03 0.  0.
    9000005    1    3    3    0    0  0.47150657113E+02  0.41028000613E+02 -0.10741318762E+03  0.12427821279E+03  0.10000000000E+01 0.  0.
    9000005    1    3    3    0    0 -0.25143248224E+02 -0.40245592402E+02 -0.26380291170E+03  0.26803892789E+03  0.10000000000E+01 0.  0.
         -4    1    1    2    0  502 -0.22007408889E+02 -0.78240821143E+00 -0.93548890818E+02  0.96114234544E+02  0.12700000000E+01 0.  1.
<mgrwt>
<rscale>  1 0.12693048E+03</rscale>
<asrwt>0</asrwt>
<pdfrwt beam="2">  1       21 0.73317544E-01 0.12693048E+03</pdfrwt>
<pdfrwt beam="1">  1       -4 0.18206216E-02 0.12693048E+03</pdfrwt>
<totfact> 0.79540829E+04</totfact>
</mgrwt>
</event>
<event>
 6    4  0.6093247E-003  0.1533815E+03  0.7818608E-02  0.1196378E+00
         21   -1    0    0  501  502  0.00000000000E+00  0.00000000000E+00  0.13780312878E+04  0.13780312878E+04  0.00000000000E+00 0. -1.
          4   -1    0    0  502    0 -0.00000000000E+00 -0.00000000000E+00 -0.10936491132E+02  0.11009983573E+02  0.12700000000E+01 0.  1.
         25    2    1    2    0    0  0.34413147280E+02  0.81963186030E+02  0.74493697710E+03  0.76056359164E+03  0.12499459393E+03 0.  0.
    9000005    1    3    3    0    0  0.26689888477E+02  0.11079710486E+03  0.67442179799E+03  0.68398399850E+03  0.10000000000E+01 0.  0.
    9000005    1    3    3    0    0  0.77232588023E+01 -0.28833918831E+02  0.70515179103E+02  0.76579593141E+02  0.10000000000E+01 0.  0.
          4    1    1    2  501    0 -0.34413147280E+02 -0.81963186030E+02  0.62215781956E+03  0.62847767972E+03  0.12700000000E+01 0. -1.
<mgrwt>
<rscale>  1 0.15338148E+03</rscale>
<asrwt>0</asrwt>
<pdfrwt beam="1">  1       21 0.21200468E+00 0.15338148E+03</pdfrwt>
<pdfrwt beam="2">  1        4 0.16882365E-02 0.15338148E+03</pdfrwt>
<totfact> 0.62909616E+03</totfact>
</mgrwt>
</event>
<event>
 6    4  0.6093247E-003  0.1278380E+03  0.7818608E-02  0.1230699E+00
         21   -1    0    0  501  502  0.00000000000E+00  0.00000000000E+00  0.20518935538E+02  0.20518935538E+02  0.00000000000E+00 0.  1.
          4   -1    0    0  502    0 -0.00000000000E+00 -0.00000000000E+00 -0.55232808283E+03  0.55232954292E+03  0.12700000000E+01 0. -1.
         25    2    1    2    0    0  0.60615810677E+01  0.26142731185E+02 -0.53078495032E+03  0.54596266365E+03  0.12498952535E+03 0.  0.
    9000005    1    3    3    0    0 -0.63769598752E+01  0.21837034003E+02 -0.97666931345E+01  0.24777206584E+02  0.10000000000E+01 0.  0.
    9000005    1    3    3    0    0  0.12438540943E+02  0.43056971814E+01 -0.52101825719E+03  0.52118545706E+03  0.10000000000E+01 0.  0.
          4    1    1    2  501    0 -0.60615810677E+01 -0.26142731185E+02 -0.10241969706E+01  0.26885814815E+02  0.12700000000E+01 0.  1.
<mgrwt>
<rscale>  1 0.12783805E+03</rscale>
<asrwt>0</asrwt>
<pdfrwt beam="1">  1       21 0.31567592E-02 0.12783805E+03</pdfrwt>
<pdfrwt beam="2">  1        4 0.84976690E-01 0.12783805E+03</pdfrwt>
<totfact> 0.29059421E+04</totfact>
</mgrwt>
</event>
<event>
 6    4  0.6093247E-003  0.1337644E+03  0.7818608E-02  0.1221975E+00
          4   -1    0    0  502    0 -0.00000000000E+00  0.00000000000E+00  0.49618445343E+03  0.49618607873E+03  0.12700000000E+01 0.  1.
         21   -1    0    0  501  502  0.00000000000E+00 -0.00000000000E+00 -0.24670828572E+02  0.24670828572E+02  0.00000000000E+00 0. -1.
         25    2    1    2    0    0 -0.25540634096E+02 -0.40186216425E+02  0.44837262093E+03  0.46790055789E+03  0.12500267553E+03 0.  0.
    9000005    1    3    3    0    0  0.26546640177E+02 -0.67496167813E+02  0.29071166339E+03  0.29962431143E+03  0.10000000000E+01 0.  0.
    9000005    1    3    3    0    0 -0.52087274272E+02  0.27309951388E+02  0.15766095754E+03  0.16827624645E+03  0.10000000000E+01 0.  0.
          4    1    1    2  501    0  0.25540634096E+02  0.40186216425E+02  0.23141003927E+02  0.52956349415E+02  0.12700000000E+01 0. -1.
<mgrwt>
<rscale>  1 0.13376444E+03</rscale>
<asrwt>0</asrwt>
<pdfrwt beam="2">  1       21 0.37955125E-02 0.13376444E+03</pdfrwt>
<pdfrwt beam="1">  1        4 0.76338702E-01 0.13376444E+03</pdfrwt>
<totfact> 0.27320698E+04</totfact>
</mgrwt>
</event>
<event>
 6    4  0.6093247E-003  0.1267388E+03  0.7818608E-02  0.1232377E+00
         21   -1    0    0  501  502  0.00000000000E+00  0.00000000000E+00  0.40010999607E+02  0.40010999607E+02  0.00000000000E+00 0.  1.
         -4   -1    0    0    0  501 -0.00000000000E+00 -0.00000000000E+00 -0.13674494998E+03  0.13675084733E+03  0.12700000000E+01 0.  1.
         25    2    1    2    0    0 -0.20805935108E+02  0.21627080440E+01 -0.86469911161E+02  0.15342673085E+03  0.12500060784E+03 0.  0.
    9000005    1    3    3    0    0 -0.40261714503E+02  0.19498650828E+02  0.16130042301E+02  0.47564496249E+02  0.10000000000E+01 0.  0.
    9000005    1    3    3    0    0  0.19455779395E+02 -0.17335942784E+02 -0.10259995346E+03  0.10586223460E+03  0.10000000000E+01 0.  0.
         -4    1    1    2    0  502  0.20805935108E+02 -0.21627080440E+01 -0.10264039211E+02  0.23335116086E+02  0.12700000000E+01 0. -1.
<mgrwt>
<rscale>  1 0.12673877E+03</rscale>
<asrwt>0</asrwt>
<pdfrwt beam="1">  1       21 0.61555384E-02 0.12673877E+03</pdfrwt>
<pdfrwt beam="2">  1       -4 0.21039689E-01 0.12673877E+03</pdfrwt>
<totfact> 0.15409054E+05</totfact>
</mgrwt>
</event>
<event>
 6    4  0.6093247E-003  0.1313505E+03  0.7818608E-02  0.1225466E+00
         21   -1    0    0  501  502  0.00000000000E+00  0.00000000000E+00  0.16464118016E+03  0.16464118016E+03  0.00000000000E+00 0. -1.
         -4   -1    0    0    0  501 -0.00000000000E+00 -0.00000000000E+00 -0.50405841837E+02  0.50421838437E+02  0.12700000000E+01 0. -1.
         25    2    1    2    0    0 -0.35991537517E+02  0.18256807377E+02  0.52840101459E+02  0.14158043700E+03  0.12499696809E+03 0.  0.
    9000005    1    3    3    0    0 -0.47435668875E+01  0.70183623124E+02  0.33791665694E+02  0.78045621607E+02  0.10000000000E+01 0.  0.
    9000005    1    3    3    0    0 -0.31247970629E+02 -0.51926815747E+02  0.19048435765E+02  0.63534815394E+02  0.10000000000E+01 0.  0.
         -4    1    1    2    0  502  0.35991537517E+02 -0.18256807377E+02  0.61395236861E+02  0.73482581593E+02  0.12700000000E+01 0.  1.
<mgrwt>
<rscale>  1 0.13135046E+03</rscale>
<asrwt>0</asrwt>
<pdfrwt beam="1">  1       21 0.25329412E-01 0.13135046E+03</pdfrwt>
<pdfrwt beam="2">  1       -4 0.77563523E-02 0.13135046E+03</pdfrwt>
<totfact> 0.69299368E+04</totfact>
</mgrwt>
</event>
<event>
 6    4  0.6093247E-003  0.1363626E+03  0.7818608E-02  0.1218309E+00
          4   -1    0    0  502    0 -0.00000000000E+00  0.00000000000E+00  0.14500009164E+02  0.14555520113E+02  0.12700000000E+01 0.  1.
         21   -1    0    0  501  502  0.00000000000E+00 -0.00000000000E+00 -0.66767939485E+03  0.66767939485E+03  0.00000000000E+00 0.  1.
         25    2    1    2    0    0  0.50031279189E+01 -0.54265139238E+02 -0.38142942905E+03  0.40507180692E+03  0.12500009118E+03 0.  0.
    9000005    1    3    3    0    0 -0.38107560568E+02  0.23980281505E+02 -0.97085876931E+02  0.10702293013E+03  0.10000000000E+01 0.  0.
    9000005    1    3    3    0    0  0.43110688487E+02 -0.78245420743E+02 -0.28434355212E+03  0.29804887680E+03  0.10000000000E+01 0.  0.
          4    1    1    2  501    0 -0.50031279189E+01  0.54265139238E+02 -0.27174995664E+03  0.27716310804E+03  0.12700000000E+01 0. -1.
<mgrwt>
<rscale>  1 0.13636260E+03</rscale>
<asrwt>0</asrwt>
<pdfrwt beam="2">  1       21 0.10271992E+00 0.13636260E+03</pdfrwt>
<pdfrwt beam="1">  1        4 0.22351332E-02 0.13636260E+03</pdfrwt>
<totfact> 0.27129549E+04</totfact>
</mgrwt>
</event>
<event>
 6    4  0.6093247E-003  0.1326616E+03  0.7818608E-02  0.1223559E+00
          4   -1    0    0  502    0 -0.00000000000E+00  0.00000000000E+00  0.37586252063E+02  0.37607701926E+02  0.12700000000E+01 0.  1.
         21   -1    0    0  501  502  0.00000000000E+00 -0.00000000000E+00 -0.25042869198E+03  0.25042869198E+03  0.00000000000E+00 0. -1.
         25    2    1    2    0    0 -0.22936373526E+02 -0.38055684797E+02 -0.98125200965E+02  0.16500806307E+03  0.12499917375E+03 0.  0.
    9000005    1    3    3    0    0  0.32467864766E+02 -0.16512375453E+02 -0.99057346424E+02  0.10554704480E+03  0.10000000000E+01 0.  0.
    9000005    1    3    3    0    0 -0.55404238292E+02 -0.21543309344E+02  0.93214545920E+00  0.59461018268E+02  0.10000000000E+01 0.  0.
          4    1    1    2  501    0  0.22936373526E+02  0.38055684797E+02 -0.11471723895E+03  0.12302833084E+03  0.12700000000E+01 0. -1.
<mgrwt>
<rscale>  1 0.13266162E+03</rscale>
<asrwt>0</asrwt>
<pdfrwt beam="2">  1       21 0.38527491E-01 0.13266162E+03</pdfrwt>
<pdfrwt beam="1">  1        4 0.57843980E-02 0.13266162E+03</pdfrwt>
<totfact> 0.49696577E+04</totfact>
</mgrwt>
</event>
<event>
 6    4  0.6093247E-003  0.1266762E+03  0.7818608E-02  0.1232473E+00
          4   -1    0    0  502    0 -0.00000000000E+00  0.00000000000E+00  0.64401389851E+02  0.64413910879E+02  0.12700000000E+01 0.  1.
         21   -1    0    0  501  502  0.00000000000E+00 -0.00000000000E+00 -0.99200389107E+02  0.99200389107E+02  0.00000000000E+00 0.  1.
         25    2    1    2    0    0  0.19021436723E+02  0.78732704690E+01 -0.42413333123E+01  0.12674714264E+03  0.12499218302E+03 0.  0.
    9000005    1    3    3    0    0 -0.29612727727E+02 -0.68426452200E+01  0.46091545721E+02  0.55219254106E+02  0.10000000000E+01 0.  0.
    9000005    1    3    3    0    0  0.48634164450E+02  0.14715915689E+02 -0.50332879034E+02  0.71527888534E+02  0.10000000000E+01 0.  0.
          4    1    1    2  501    0 -0.19021436723E+02 -0.78732704690E+01 -0.30557665944E+02  0.36867157347E+02  0.12700000000E+01 0. -1.
<mgrwt>
<rscale>  1 0.12667616E+03</rscale>
<asrwt>0</asrwt>
<pdfrwt beam="2">  1       21 0.15261598E-01 0.12667616E+03</pdfrwt>
<pdfrwt beam="1">  1        4 0.99094947E-02 0.12667616E+03</pdfrwt>
<totfact> 0.11685762E+05</totfact>
</mgrwt>
</event>
<event>
 6    4  0.6093247E-003  0.1307169E+03  0.7818608E-02  0.1226396E+00
         -4   -1    0    0    0  501 -0.00000000000E+00  0.00000000000E+00  0.32580029530E+03  0.32580277058E+03  0.12700000000E+01 0.  1.
         21   -1    0    0  501  502  0.00000000000E+00 -0.00000000000E+00 -0.23642887023E+02  0.23642887023E+02  0.00000000000E+00 0.  1.
         25    2    1    2    0    0  0.11559286551E+02 -0.36435541456E+02  0.18742272919E+03  0.22850424504E+03  0.12500297916E+03 0.  0.
    9000005    1    3    3    0    0 -0.22817742836E+02 -0.63831397772E+02  0.50054750988E+02  0.84270842087E+02  0.10000000000E+01 0.  0.
    9000005    1    3    3    0    0  0.34377029387E+02  0.27395856316E+02  0.13736797820E+03  0.14423340295E+03  0.10000000000E+01 0.  0.
         -4    1    1    2    0  502 -0.11559286551E+02  0.36435541456E+02  0.11473467909E+03  0.12094141256E+03  0.12700000000E+01 0. -1.
<mgrwt>
<rscale>  1 0.13071691E+03</rscale>
<asrwt>0</asrwt>
<pdfrwt beam="2">  1       21 0.36373675E-02 0.13071691E+03</pdfrwt>
<pdfrwt beam="1">  1       -4 0.50125933E-01 0.13071691E+03</pdfrwt>
<totfact> 0.71037518E+04</totfact>
</mgrwt>
</event>
<event>
 6    4  0.6093247E-003  0.1338840E+03  0.7818608E-02  0.1221804E+00
         -4   -1    0    0    0  501 -0.00000000000E+00  0.00000000000E+00  0.71001315031E+03  0.71001428614E+03  0.12700000000E+01 0. -1.
         21   -1    0    0  501  502  0.00000000000E+00 -0.00000000000E+00 -0.18943972741E+03  0.18943972741E+03  0.00000000000E+00 0.  1.
         25    2    1    2    0    0 -0.27889053921E+02  0.39007982468E+02  0.70053243250E+03  0.71321148333E+03  0.12500203573E+03 0.  0.
    9000005    1    3    3    0    0  0.22967517631E+02 -0.15053158745E+02  0.40048173737E+02  0.48569132935E+02  0.10000000000E+01 0.  0.
    9000005    1    3    3    0    0 -0.50856571553E+02  0.54061141213E+02  0.66048425877E+03  0.66464235039E+03  0.10000000000E+01 0.  0.
         -4    1    1    2    0  502  0.27889053921E+02 -0.39007982468E+02 -0.17995900960E+03  0.18624253022E+03  0.12700000000E+01 0.  1.
<mgrwt>
<rscale>  1 0.13388402E+03</rscale>
<asrwt>0</asrwt>
<pdfrwt beam="2">  1       21 0.29144574E-01 0.13388402E+03</pdfrwt>
<pdfrwt beam="1">  1       -4 0.10923321E+00 0.13388402E+03</pdfrwt>
<totfact> 0.32968654E+02</totfact>
</mgrwt>
</event>
<event>
 6    4  0.6093247E-003  0.1268694E+03  0.7818608E-02  0.1232176E+00
         21   -1    0    0  501  502  0.00000000000E+00  0.00000000000E+00  0.36062607191E+03  0.36062607191E+03  0.00000000000E+00 0.  1.
         -4   -1    0    0    0  501 -0.00000000000E+00 -0.00000000000E+00 -0.22522906836E+03  0.22523264890E+03  0.12700000000E+01 0. -1.
         25    2    1    2    0    0  0.17391963745E+02 -0.12974497896E+02 -0.20699293567E+03  0.24277957341E+03  0.12500011140E+03 0.  0.
    9000005    1    3    3    0    0  0.58166584149E+02 -0.82877332406E+01 -0.40668470444E+02  0.71463015064E+02  0.10000000000E+01 0.  0.
    9000005    1    3    3    0    0 -0.40774620404E+02 -0.46867646555E+01 -0.16632446523E+03  0.17131655835E+03  0.10000000000E+01 0.  0.
         -4    1    1    2    0  502 -0.17391963745E+02  0.12974497896E+02  0.34238993922E+03  0.34307914740E+03  0.12700000000E+01 0.  1.
<mgrwt>
<rscale>  1 0.12686940E+03</rscale>
<asrwt>0</asrwt>
<pdfrwt beam="1">  1       21 0.55480934E-01 0.12686940E+03</pdfrwt>
<pdfrwt beam="2">  1       -4 0.34651073E-01 0.12686940E+03</pdfrwt>
<totfact> 0.10309520E+03</totfact>
</mgrwt>
</event>
<event>
 6    4  0.6093247E-003  0.1329772E+03  0.7818608E-02  0.1223104E+00
         21   -1    0    0  501  502  0.00000000000E+00  0.00000000000E+00  0.34098257510E+03  0.34098257510E+03  0.00000000000E+00 0. -1.
          4   -1    0    0  502    0 -0.00000000000E+00 -0.00000000000E+00 -0.32470432441E+02  0.32495259391E+02  0.12700000000E+01 0.  1.
         25    2    1    2    0    0 -0.31578525845E+02  0.32568023546E+02  0.11848104927E+03  0.17810304388E+03  0.12500022300E+03 0.  0.
    9000005    1    3    3    0    0 -0.49195284262E+02 -0.36700869341E+02  0.58376041488E+02  0.84710637017E+02  0.10000000000E+01 0.  0.
    9000005    1    3    3    0    0  0.17616758417E+02  0.69268892887E+02  0.60105007784E+02  0.93392406863E+02  0.10000000000E+01 0.  0.
          4    1    1    2  501    0  0.31578525845E+02 -0.32568023546E+02  0.19003109338E+03  0.19537479061E+03  0.12700000000E+01 0. -1.
<mgrwt>
<rscale>  1 0.13297720E+03</rscale>
<asrwt>0</asrwt>
<pdfrwt beam="1">  1       21 0.52458855E-01 0.13297720E+03</pdfrwt>
<pdfrwt beam="2">  1        4 0.49975431E-02 0.13297720E+03</pdfrwt>
<totfact> 0.33593868E+04</totfact>
</mgrwt>
</event>
<event>
 6    4  0.6093247E-003  0.1681178E+03  0.7818608E-02  0.1179825E+00
         21   -1    0    0  501  502  0.00000000000E+00  0.00000000000E+00  0.13955868853E+02  0.13955868853E+02  0.00000000000E+00 0.  1.
          4   -1    0    0  502    0 -0.00000000000E+00 -0.00000000000E+00 -0.18050751872E+04  0.18050756340E+04  0.12700000000E+01 0. -1.
         25    2    1    2    0    0 -0.10300327567E+03 -0.45027045536E+02 -0.14534192931E+04  0.14631101216E+04  0.12500590731E+03 0.  0.
    9000005    1    3    3    0    0 -0.24226173694E+01 -0.63483235872E+02 -0.44386462366E+03  0.44838911054E+03  0.10000000000E+01 0.  0.
    9000005    1    3    3    0    0 -0.10058065830E+03  0.18456190335E+02 -0.10095546694E+04  0.10147210111E+04  0.10000000000E+01 0.  0.
          4    1    1    2  501    0  0.10300327567E+03  0.45027045536E+02 -0.33770002522E+03  0.35592138116E+03  0.12700000000E+01 0.  1.
<mgrwt>
<rscale>  1 0.16811778E+03</rscale>
<asrwt>0</asrwt>
<pdfrwt beam="1">  1       21 0.21470560E-02 0.16811778E+03</pdfrwt>
<pdfrwt beam="2">  1        4 0.27770845E+00 0.16811778E+03</pdfrwt>
<totfact> 0.23043747E+03</totfact>
</mgrwt>
</event>
<event>
 6    4  0.6093247E-003  0.1280933E+03  0.7818608E-02  0.1230313E+00
         21   -1    0    0  501  502  0.00000000000E+00  0.00000000000E+00  0.22632151921E+04  0.22632151921E+04  0.00000000000E+00 0.  1.
         -4   -1    0    0    0  501 -0.00000000000E+00 -0.00000000000E+00 -0.29580263277E+01  0.32191333858E+01  0.12700000000E+01 0. -1.
         25    2    1    2    0    0  0.17108090198E+02  0.22105916775E+02  0.14358217628E+04  0.14415242062E+04  0.12500617688E+03 0.  0.
    9000005    1    3    3    0    0 -0.17745333991E+02  0.23254168888E+02  0.78896142412E+02  0.84150190354E+02  0.10000000000E+01 0.  0.
    9000005    1    3    3    0    0  0.34853424189E+02 -0.11482521125E+01  0.13569256204E+04  0.13573740158E+04  0.10000000000E+01 0.  0.
         -4    1    1    2    0  502 -0.17108090198E+02 -0.22105916775E+02  0.82443540299E+03  0.82491011930E+03  0.12700000000E+01 0.  1.
<mgrwt>
<rscale>  1 0.12809334E+03</rscale>
<asrwt>0</asrwt>
<pdfrwt beam="1">  1       21 0.34818563E+00 0.12809334E+03</pdfrwt>
<pdfrwt beam="2">  1       -4 0.47519535E-03 0.12809334E+03</pdfrwt>
<totfact> 0.69932488E+03</totfact>
</mgrwt>
</event>
<event>
 6    4  0.6093247E-003  0.1287900E+03  0.7818608E-02  0.1229262E+00
         21   -1    0    0  501  502  0.00000000000E+00  0.00000000000E+00  0.15922297326E+03  0.15922297326E+03  0.00000000000E+00 0. -1.
          4   -1    0    0  502    0 -0.00000000000E+00 -0.00000000000E+00 -0.42709003386E+02  0.42727881649E+02  0.12700000000E+01 0. -1.
         25    2    1    2    0    0  0.25834980976E+02  0.17153331460E+02  0.71595187106E+02  0.14735238453E+03  0.12500068555E+03 0.  0.
    9000005    1    3    3    0    0  0.19504379651E+02 -0.52595725183E+02  0.46763520023E+02  0.73038058148E+02  0.10000000000E+01 0.  0.
    9000005    1    3    3    0    0  0.63306013247E+01  0.69749056642E+02  0.24831667082E+02  0.74314326383E+02  0.10000000000E+01 0.  0.
          4    1    1    2  501    0 -0.25834980976E+02 -0.17153331460E+02  0.44918782765E+02  0.54598470375E+02  0.12700000000E+01 0.  1.
<mgrwt>
<rscale>  1 0.12878996E+03</rscale>
<asrwt>0</asrwt>
<pdfrwt beam="1">  1       21 0.24495842E-01 0.12878996E+03</pdfrwt>
<pdfrwt beam="2">  1        4 0.65724578E-02 0.12878996E+03</pdfrwt>
<totfact> 0.96651192E+04</totfact>
</mgrwt>
</event>
<event>
 6    4  0.6093247E-003  0.1322257E+03  0.7818608E-02  0.1224190E+00
          4   -1    0    0  502    0 -0.00000000000E+00  0.00000000000E+00  0.10081636534E+03  0.10082436422E+03  0.12700000000E+01 0. -1.
         21   -1    0    0  501  502  0.00000000000E+00 -0.00000000000E+00 -0.83224391183E+02  0.83224391183E+02  0.00000000000E+00 0.  1.
         25    2    1    2    0    0  0.41420874211E+02 -0.12052326504E+02  0.36138174438E+02  0.13707512621E+03  0.12499070038E+03 0.  0.
    9000005    1    3    3    0    0 -0.12045229403E+02  0.45809353262E+02 -0.59510048261E+01  0.47749333567E+02  0.10000000000E+01 0.  0.
    9000005    1    3    3    0    0  0.53466103614E+02 -0.57861679766E+02  0.42089179264E+02  0.89325792648E+02  0.10000000000E+01 0.  0.
          4    1    1    2  501    0 -0.41420874211E+02  0.12052326504E+02 -0.18546200279E+02  0.46973629191E+02  0.12700000000E+01 0.  1.
<mgrwt>
<rscale>  1 0.13222565E+03</rscale>
<asrwt>0</asrwt>
<pdfrwt beam="2">  1       21 0.12803752E-01 0.13222565E+03</pdfrwt>
<pdfrwt beam="1">  1        4 0.15511571E-01 0.13222565E+03</pdfrwt>
<totfact> 0.74701797E+04</totfact>
</mgrwt>
</event>
<event>
 6    4  0.6093247E-003  0.1267479E+03  0.7818608E-02  0.1232363E+00
         -4   -1    0    0    0  501 -0.00000000000E+00  0.00000000000E+00  0.56063982530E+03  0.56064126375E+03  0.12700000000E+01 0. -1.
         21   -1    0    0  501  502  0.00000000000E+00 -0.00000000000E+00 -0.31012518222E+02  0.31012518222E+02  0.00000000000E+00 0.  1.
         25    2    1    2    0    0  0.13893882297E+02 -0.15718532159E+02  0.54877506650E+03  0.56322207767E+03  0.12499969177E+03 0.  0.
    9000005    1    3    3    0    0  0.25222090657E+02  0.43700545051E+02  0.39104344305E+03  0.39428652760E+03  0.10000000000E+01 0.  0.
    9000005    1    3    3    0    0 -0.11328208360E+02 -0.59419077209E+02  0.15773162345E+03  0.16893555007E+03  0.10000000000E+01 0.  0.
         -4    1    1    2    0  502 -0.13893882297E+02  0.15718532159E+02 -0.19147759420E+02  0.28431704299E+02  0.12700000000E+01 0.  1.
<mgrwt>
<rscale>  1 0.12674792E+03</rscale>
<asrwt>0</asrwt>
<pdfrwt beam="2">  1       21 0.47711571E-02 0.12674792E+03</pdfrwt>
<pdfrwt beam="1">  1       -4 0.86254384E-01 0.12674792E+03</pdfrwt>
<totfact> 0.14153300E+04</totfact>
</mgrwt>
</event>
<event>
 6    4  0.6093247E-003  0.1268060E+03  0.7818608E-02  0.1232273E+00
         21   -1    0    0  501  502  0.00000000000E+00  0.00000000000E+00  0.32255485222E+03  0.32255485222E+03  0.00000000000E+00 0.  1.
         -4   -1    0    0    0  501 -0.00000000000E+00 -0.00000000000E+00 -0.22654144435E+02  0.22689714852E+02  0.12700000000E+01 0.  1.
         25    2    1    2    0    0 -0.14048528916E+02 -0.16092984871E+02  0.16217026191E+03  0.20586151951E+03  0.12499370400E+03 0.  0.
    9000005    1    3    3    0    0  0.27657836217E+02  0.35816757543E+02  0.21262500989E+02  0.50008898942E+02  0.10000000000E+01 0.  0.
    9000005    1    3    3    0    0 -0.41706365133E+02 -0.51909742414E+02  0.14090776093E+03  0.15585262057E+03  0.10000000000E+01 0.  0.
         -4    1    1    2    0  502  0.14048528916E+02  0.16092984871E+02  0.13773044587E+03  0.13938304756E+03  0.12700000000E+01 0. -1.
<mgrwt>
<rscale>  1 0.12680604E+03</rscale>
<asrwt>0</asrwt>
<pdfrwt beam="1">  1       21 0.49623820E-01 0.12680604E+03</pdfrwt>
<pdfrwt beam="2">  1       -4 0.34881817E-02 0.12680604E+03</pdfrwt>
<totfact> 0.66425901E+04</totfact>
</mgrwt>
</event>
<event>
 6    4  0.6093247E-003  0.1277619E+03  0.7818608E-02  0.1230815E+00
          4   -1    0    0  502    0 -0.00000000000E+00  0.00000000000E+00  0.14429978254E+03  0.14430537115E+03  0.12700000000E+01 0.  1.
         21   -1    0    0  501  502  0.00000000000E+00 -0.00000000000E+00 -0.41265500922E+02  0.41265500922E+02  0.00000000000E+00 0.  1.
         25    2    1    2    0    0  0.90417462412E+01  0.24865749629E+02  0.82939436972E+02  0.15232219749E+03  0.12499217161E+03 0.  0.
    9000005    1    3    3    0    0 -0.50937596653E+02 -0.14368586104E+02  0.52156891841E+02  0.74313097001E+02  0.10000000000E+01 0.  0.
    9000005    1    3    3    0    0  0.59979342894E+02  0.39234335734E+02  0.30782545132E+02  0.78009100490E+02  0.10000000000E+01 0.  0.
          4    1    1    2  501    0 -0.90417462412E+01 -0.24865749629E+02  0.20094844647E+02  0.33248674576E+02  0.12700000000E+01 0. -1.
<mgrwt>
<rscale>  1 0.12776189E+03</rscale>
<asrwt>0</asrwt>
<pdfrwt beam="2">  1       21 0.63485387E-02 0.12776189E+03</pdfrwt>
<pdfrwt beam="1">  1        4 0.22201899E-01 0.12776189E+03</pdfrwt>
<totfact> 0.13280440E+05</totfact>
</mgrwt>
</event>
<event>
 6    4  0.6093247E-003  0.1285779E+03  0.7818608E-02  0.1229581E+00
         -4   -1    0    0    0  501 -0.00000000000E+00  0.00000000000E+00  0.15403696694E+03  0.15404220228E+03  0.12700000000E+01 0. -1.
         21   -1    0    0  501  502  0.00000000000E+00 -0.00000000000E+00 -0.54618507626E+02  0.54618507626E+02  0.00000000000E+00 0.  1.
         25    2    1    2    0    0 -0.30013805775E+02 -0.22802338896E+01  0.11694566151E+03  0.17380610160E+03  0.12500498071E+03 0.  0.
    9000005    1    3    3    0    0  0.43014274355E+02  0.19311234035E+02  0.21862151373E+02  0.51981777777E+02  0.10000000000E+01 0.  0.
    9000005    1    3    3    0    0 -0.73028080130E+02 -0.21591467925E+02  0.95083510133E+02  0.12182432382E+03  0.10000000000E+01 0.  0.
         -4    1    1    2    0  502  0.30013805775E+02  0.22802338896E+01 -0.17527202195E+02  0.34854608311E+02  0.12700000000E+01 0.  1.
<mgrwt>
<rscale>  1 0.12857789E+03</rscale>
<asrwt>0</asrwt>
<pdfrwt beam="2">  1       21 0.84028474E-02 0.12857789E+03</pdfrwt>
<pdfrwt beam="1">  1       -4 0.23699533E-01 0.12857789E+03</pdfrwt>
<totfact> 0.72963144E+04</totfact>
</mgrwt>
</event>
<event>
 6    4  0.6093247E-003  0.1323816E+03  0.7818608E-02  0.1223964E+00
          4   -1    0    0  502    0 -0.00000000000E+00  0.00000000000E+00  0.87458395823E+02  0.87467616292E+02  0.12700000000E+01 0.  1.
         21   -1    0    0  501  502  0.00000000000E+00 -0.00000000000E+00 -0.11321041681E+03  0.11321041681E+03  0.00000000000E+00 0.  1.
         25    2    1    2    0    0 -0.40249167908E+02  0.16602394981E+02  0.24014504658E+02  0.13454215017E+03  0.12501703365E+03 0.  0.
    9000005    1    3    3    0    0 -0.48899861576E+02  0.60345229833E+02 -0.10179874536E+02  0.78341387984E+02  0.10000000000E+01 0.  0.
    9000005    1    3    3    0    0  0.86506936675E+01 -0.43742834852E+02  0.34194379194E+02  0.56200762185E+02  0.10000000000E+01 0.  0.
          4    1    1    2  501    0  0.40249167908E+02 -0.16602394981E+02 -0.49766525641E+02  0.66135882929E+02  0.12700000000E+01 0. -1.
<mgrwt>
<rscale>  1 0.13238162E+03</rscale>
<asrwt>0</asrwt>
<pdfrwt beam="2">  1       21 0.17416987E-01 0.13238162E+03</pdfrwt>
<pdfrwt beam="1">  1        4 0.13456395E-01 0.13238162E+03</pdfrwt>
<totfact> 0.54918277E+04</totfact>
</mgrwt>
</event>
<event>
 6    4  0.6093247E-003  0.1276128E+03  0.7818608E-02  0.1231041E+00
          4   -1    0    0  502    0 -0.00000000000E+00  0.00000000000E+00  0.10109312896E+04  0.10109320873E+04  0.12700000000E+01 0. -1.
         21   -1    0    0  501  502  0.00000000000E+00 -0.00000000000E+00 -0.76235041319E+01  0.76235041319E+01  0.00000000000E+00 0.  1.
         25    2    1    2    0    0  0.17536877830E+02  0.18779386288E+02  0.95792997529E+03  0.96639271203E+03  0.12499931550E+03 0.  0.
    9000005    1    3    3    0    0  0.60438319859E+02  0.29832508715E+02  0.32518814258E+03  0.33210103456E+03  0.10000000000E+01 0.  0.
    9000005    1    3    3    0    0 -0.42901442029E+02 -0.11053122428E+02  0.63274183271E+03  0.63429167747E+03  0.10000000000E+01 0.  0.
          4    1    1    2  501    0 -0.17536877830E+02 -0.18779386288E+02  0.45377810139E+02  0.52162879392E+02  0.12700000000E+01 0.  1.
<mgrwt>
<rscale>  1 0.12761284E+03</rscale>
<asrwt>0</asrwt>
<pdfrwt beam="2">  1       21 0.11728476E-02 0.12761284E+03</pdfrwt>
<pdfrwt beam="1">  1        4 0.15553598E+00 0.12761284E+03</pdfrwt>
<totfact> 0.33907215E+04</totfact>
</mgrwt>
</event>
<event>
 6    4  0.6093247E-003  0.1311764E+03  0.7818608E-02  0.1225721E+00
         21   -1    0    0  501  502  0.00000000000E+00  0.00000000000E+00  0.70705059382E+02  0.70705059382E+02  0.00000000000E+00 0.  1.
         -4   -1    0    0    0  501 -0.00000000000E+00 -0.00000000000E+00 -0.17886078159E+04  0.17886082668E+04  0.12700000000E+01 0. -1.
         25    2    1    2    0    0 -0.63013279058E+01 -0.39273437863E+02 -0.17803975182E+04  0.17852233957E+04  0.12500055916E+03 0.  0.
    9000005    1    3    3    0    0 -0.23401563256E+02 -0.52414131374E+02 -0.35108797438E+03  0.35575081178E+03  0.10000000000E+01 0.  0.
    9000005    1    3    3    0    0  0.17100235351E+02  0.13140693511E+02 -0.14293095439E+04  0.14294725839E+04  0.10000000000E+01 0.  0.
         -4    1    1    2    0  502  0.63013279058E+01  0.39273437863E+02  0.62494761740E+02  0.74089930489E+02  0.12700000000E+01 0.  1.
<mgrwt>
<rscale>  1 0.13117641E+03</rscale>
<asrwt>0</asrwt>
<pdfrwt beam="1">  1       21 0.10877702E-01 0.13117641E+03</pdfrwt>
<pdfrwt beam="2">  1       -4 0.27517133E+00 0.13117641E+03</pdfrwt>
<totfact> 0.15496299E+02</totfact>
</mgrwt>
</event>
<event>
 6    4  0.6093247E-003  0.1279157E+03  0.7818608E-02  0.1230582E+00
         21   -1    0    0  501  502  0.00000000000E+00  0.00000000000E+00  0.11757527384E+02  0.11757527384E+02  0.00000000000E+00 0. -1.
         -4   -1    0    0    0  501 -0.00000000000E+00 -0.00000000000E+00 -0.51234577831E+03  0.51234735234E+03  0.12700000000E+01 0. -1.
         25    2    1    2    0    0 -0.65943959787E+01 -0.26348562364E+02 -0.42061798040E+03  0.43963837829E+03  0.12499874172E+03 0.  0.
    9000005    1    3    3    0    0  0.36541351563E+02  0.19195166196E+02 -0.55520973426E+02  0.69190340869E+02  0.10000000000E+01 0.  0.
    9000005    1    3    3    0    0 -0.43135747542E+02 -0.45543728561E+02 -0.36509700698E+03  0.37044803742E+03  0.10000000000E+01 0.  0.
         -4    1    1    2    0  502  0.65943959787E+01  0.26348562364E+02 -0.79970270526E+02  0.84466501437E+02  0.12700000000E+01 0.  1.
<mgrwt>
<rscale>  1 0.12791567E+03</rscale>
<asrwt>0</asrwt>
<pdfrwt beam="1">  1       21 0.18088508E-02 0.12791567E+03</pdfrwt>
<pdfrwt beam="2">  1       -4 0.78827804E-01 0.12791567E+03</pdfrwt>
<totfact> 0.84828191E+04</totfact>
</mgrwt>
</event>
<event>
 6    4  0.6093247E-003  0.1437172E+03  0.7818608E-02  0.1208413E+00
         21   -1    0    0  501  502  0.00000000000E+00  0.00000000000E+00  0.26487589408E+03  0.26487589408E+03  0.00000000000E+00 0. -1.
         -4   -1    0    0    0  501 -0.00000000000E+00 -0.00000000000E+00 -0.72895162852E+02  0.72906225161E+02  0.12700000000E+01 0.  1.
         25    2    1    2    0    0 -0.24630626436E+02 -0.66517372490E+02  0.11873652967E+02  0.14420680795E+03  0.12499356473E+03 0.  0.
    9000005    1    3    3    0    0  0.33659559765E+02 -0.20271739959E+02 -0.37963820316E+02  0.54645778039E+02  0.10000000000E+01 0.  0.
    9000005    1    3    3    0    0 -0.58290186201E+02 -0.46245632531E+02  0.49837473283E+02  0.89561029911E+02  0.10000000000E+01 0.  0.
         -4    1    1    2    0  502  0.24630626436E+02  0.66517372490E+02  0.18010707826E+03  0.19357531129E+03  0.12700000000E+01 0. -1.
<mgrwt>
<rscale>  1 0.14371715E+03</rscale>
<asrwt>0</asrwt>
<pdfrwt beam="1">  1       21 0.40750137E-01 0.14371715E+03</pdfrwt>
<pdfrwt beam="2">  1       -4 0.11215726E-01 0.14371715E+03</pdfrwt>
<totfact> 0.14917773E+04</totfact>
</mgrwt>
</event>
<event>
 6    4  0.6093247E-003  0.1396421E+03  0.7818608E-02  0.1213811E+00
          4   -1    0    0  502    0 -0.00000000000E+00  0.00000000000E+00  0.12461995117E+02  0.12526540715E+02  0.12700000000E+01 0.  1.
         21   -1    0    0  501  502  0.00000000000E+00 -0.00000000000E+00 -0.11912179374E+04  0.11912179374E+04  0.00000000000E+00 0. -1.
         25    2    1    2    0    0 -0.27680641122E+02 -0.55747852114E+02 -0.42352886780E+03  0.44595586126E+03  0.12500354963E+03 0.  0.
    9000005    1    3    3    0    0 -0.19558796794E+02  0.36507917343E+02 -0.19538312390E+03  0.19972716307E+03  0.10000000000E+01 0.  0.
    9000005    1    3    3    0    0 -0.81218443277E+01 -0.92255769457E+02 -0.22814574390E+03  0.24622869819E+03  0.10000000000E+01 0.  0.
          4    1    1    2  501    0  0.27680641122E+02  0.55747852114E+02 -0.75522707444E+03  0.75778861681E+03  0.12700000000E+01 0. -1.
<mgrwt>
<rscale>  1 0.13964214E+03</rscale>
<asrwt>0</asrwt>
<pdfrwt beam="2">  1       21 0.18326438E+00 0.13964214E+03</pdfrwt>
<pdfrwt beam="1">  1        4 0.19222462E-02 0.13964214E+03</pdfrwt>
<totfact> 0.78479380E+03</totfact>
</mgrwt>
</event>
<event>
 6    4  0.6093247E-003  0.1320018E+03  0.7818608E-02  0.1224515E+00
         21   -1    0    0  501  502  0.00000000000E+00  0.00000000000E+00  0.25613153127E+02  0.25613153127E+02  0.00000000000E+00 0.  1.
          4   -1    0    0  502    0 -0.00000000000E+00 -0.00000000000E+00 -0.29812595791E+03  0.29812866296E+03  0.12700000000E+01 0.  1.
         25    2    1    2    0    0  0.27278649046E+02 -0.32469406711E+02 -0.21467730994E+03  0.25201354810E+03  0.12500437574E+03 0.  0.
    9000005    1    3    3    0    0  0.21442061080E+02 -0.22949312665E+02  0.51998239079E+01  0.31850763002E+02  0.10000000000E+01 0.  0.
    9000005    1    3    3    0    0  0.58365879659E+01 -0.95200940463E+01 -0.21987713385E+03  0.22016278509E+03  0.10000000000E+01 0.  0.
          4    1    1    2  501    0 -0.27278649046E+02  0.32469406711E+02 -0.57835494839E+02  0.71728267992E+02  0.12700000000E+01 0. -1.
<mgrwt>
<rscale>  1 0.13200182E+03</rscale>
<asrwt>0</asrwt>
<pdfrwt beam="1">  1       21 0.39404852E-02 0.13200182E+03</pdfrwt>
<pdfrwt beam="2">  1        4 0.45868161E-01 0.13200182E+03</pdfrwt>
<totfact> 0.74545696E+04</totfact>
</mgrwt>
</event>
<event>
 6    4  0.6093247E-003  0.1441419E+03  0.7818608E-02  0.1207862E+00
         -4   -1    0    0    0  501 -0.00000000000E+00  0.00000000000E+00  0.13364315004E+02  0.13424522917E+02  0.12700000000E+01 0. -1.
         21   -1    0    0  501  502  0.00000000000E+00 -0.00000000000E+00 -0.98300971965E+03  0.98300971965E+03  0.00000000000E+00 0. -1.
         25    2    1    2    0    0 -0.47008527620E+02  0.54240712909E+02 -0.46847948456E+03  0.49015294826E+03  0.12500011453E+03 0.  0.
    9000005    1    3    3    0    0 -0.66836228386E+02  0.10415931309E+02 -0.40441508401E+03  0.41003430737E+03  0.10000000000E+01 0.  0.
    9000005    1    3    3    0    0  0.19827700766E+02  0.43824781601E+02 -0.64064400551E+02  0.80118640890E+02  0.10000000000E+01 0.  0.
         -4    1    1    2    0  502  0.47008527620E+02 -0.54240712909E+02 -0.50116592009E+03  0.50628129430E+03  0.12700000000E+01 0.  1.
<mgrwt>
<rscale>  1 0.14414189E+03</rscale>
<asrwt>0</asrwt>
<pdfrwt beam="2">  1       21 0.15123225E+00 0.14414189E+03</pdfrwt>
<pdfrwt beam="1">  1       -4 0.20607432E-02 0.14414189E+03</pdfrwt>
<totfact> 0.11854018E+04</totfact>
</mgrwt>
</event>
<event>
 6    4  0.6093247E-003  0.1297143E+03  0.7818608E-02  0.1227880E+00
         -4   -1    0    0    0  501 -0.00000000000E+00  0.00000000000E+00  0.61509442376E+03  0.61509573486E+03  0.12700000000E+01 0. -1.
         21   -1    0    0  501  502  0.00000000000E+00 -0.00000000000E+00 -0.13664966643E+02  0.13664966643E+02  0.00000000000E+00 0.  1.
         25    2    1    2    0    0  0.30096127500E+02 -0.17159276979E+02  0.55957839469E+03  0.57441604212E+03  0.12500236784E+03 0.  0.
    9000005    1    3    3    0    0 -0.17288073788E+02  0.22909506824E+02  0.42770933359E+03  0.42867236561E+03  0.10000000000E+01 0.  0.
    9000005    1    3    3    0    0  0.47384201289E+02 -0.40068783803E+02  0.13186906110E+03  0.14574367651E+03  0.10000000000E+01 0.  0.
         -4    1    1    2    0  502 -0.30096127500E+02  0.17159276979E+02  0.41851062430E+02  0.54344659383E+02  0.12700000000E+01 0.  1.
<mgrwt>
<rscale>  1 0.12971434E+03</rscale>
<asrwt>0</asrwt>
<pdfrwt beam="2">  1       21 0.21023030E-02 0.12971434E+03</pdfrwt>
<pdfrwt beam="1">  1       -4 0.94634530E-01 0.12971434E+03</pdfrwt>
<totfact> 0.44296020E+04</totfact>
</mgrwt>
</event>
<event>
 6    4  0.6093247E-003  0.1271372E+03  0.7818608E-02  0.1231767E+00
         -4   -1    0    0    0  501 -0.00000000000E+00  0.00000000000E+00  0.10179348264E+03  0.10180140475E+03  0.12700000000E+01 0.  1.
         21   -1    0    0  501  502  0.00000000000E+00 -0.00000000000E+00 -0.55536096140E+02  0.55536096140E+02  0.00000000000E+00 0.  1.
         25    2    1    2    0    0  0.21616389641E+02  0.84515666278E+01  0.38796013209E+02  0.13292475276E+03  0.12500064790E+03 0.  0.
    9000005    1    3    3    0    0  0.27886286122E+02 -0.52304306436E+02 -0.22565030104E+01  0.59325182100E+02  0.10000000000E+01 0.  0.
    9000005    1    3    3    0    0 -0.62698964810E+01  0.60755873063E+02  0.41052516219E+02  0.73599570661E+02  0.10000000000E+01 0.  0.
         -4    1    1    2    0  502 -0.21616389641E+02 -0.84515666278E+01  0.74613732924E+01  0.24412748124E+02  0.12700000000E+01 0. -1.
<mgrwt>
<rscale>  1 0.12713717E+03</rscale>
<asrwt>0</asrwt>
<pdfrwt beam="2">  1       21 0.85440149E-02 0.12713717E+03</pdfrwt>
<pdfrwt beam="1">  1       -4 0.15662262E-01 0.12713717E+03</pdfrwt>
<totfact> 0.14854948E+05</totfact>
</mgrwt>
</event>
<event>
 6    4  0.6093247E-003  0.1295942E+03  0.7818608E-02  0.1228059E+00
         21   -1    0    0  501  502  0.00000000000E+00  0.00000000000E+00  0.54019417864E+03  0.54019417864E+03  0.00000000000E+00 0. -1.
          4   -1    0    0  502    0 -0.00000000000E+00 -0.00000000000E+00 -0.18051999151E+02  0.18096617733E+02  0.12700000000E+01 0.  1.
         25    2    1    2    0    0 -0.24525667634E+02  0.24028275572E+02  0.22887548191E+03  0.26301832016E+03  0.12496313105E+03 0.  0.
    9000005    1    3    3    0    0  0.28595460000E+02  0.58156617274E+02  0.95085009588E+02  0.11507411313E+03  0.10000000000E+01 0.  0.
    9000005    1    3    3    0    0 -0.53121127634E+02 -0.34128341702E+02  0.13379047233E+03  0.14794420703E+03  0.10000000000E+01 0.  0.
          4    1    1    2  501    0  0.24525667634E+02 -0.24028275572E+02  0.29326669757E+03  0.29527247621E+03  0.12700000000E+01 0. -1.
<mgrwt>
<rscale>  1 0.12959418E+03</rscale>
<asrwt>0</asrwt>
<pdfrwt beam="1">  1       21 0.83106784E-01 0.12959418E+03</pdfrwt>
<pdfrwt beam="2">  1        4 0.27807781E-02 0.12959418E+03</pdfrwt>
<totfact> 0.31342264E+04</totfact>
</mgrwt>
</event>
<event>
 6    4  0.6093247E-003  0.1319137E+03  0.7818608E-02  0.1224643E+00
          4   -1    0    0  502    0 -0.00000000000E+00  0.00000000000E+00  0.87630086339E+02  0.87639288746E+02  0.12700000000E+01 0.  1.
         21   -1    0    0  501  502  0.00000000000E+00 -0.00000000000E+00 -0.10100438790E+03  0.10100438790E+03  0.00000000000E+00 0.  1.
         25    2    1    2    0    0 -0.24041903396E+02 -0.34615065820E+02  0.21838840346E+02  0.13370922331E+03  0.12500002220E+03 0.  0.
    9000005    1    3    3    0    0  0.10686470557E+02  0.23683160328E+02  0.52997593279E+02  0.59032513325E+02  0.10000000000E+01 0.  0.
    9000005    1    3    3    0    0 -0.34728373953E+02 -0.58298226147E+02 -0.31158752933E+02  0.74676709982E+02  0.10000000000E+01 0.  0.
          4    1    1    2  501    0  0.24041903396E+02  0.34615065820E+02 -0.35213141906E+02  0.54934453338E+02  0.12700000000E+01 0. -1.
<mgrwt>
<rscale>  1 0.13191369E+03</rscale>
<asrwt>0</asrwt>
<pdfrwt beam="2">  1       21 0.15539137E-01 0.13191369E+03</pdfrwt>
<pdfrwt beam="1">  1        4 0.13482874E-01 0.13191369E+03</pdfrwt>
<totfact> 0.67313128E+04</totfact>
</mgrwt>
</event>
<event>
 6    4  0.6093247E-003  0.1268920E+03  0.7818608E-02  0.1232142E+00
         21   -1    0    0  501  502  0.00000000000E+00  0.00000000000E+00  0.19980198400E+02  0.19980198400E+02  0.00000000000E+00 0. -1.
          4   -1    0    0  502    0 -0.00000000000E+00 -0.00000000000E+00 -0.65735923462E+03  0.65736046142E+03  0.12700000000E+01 0.  1.
         25    2    1    2    0    0 -0.12968180357E+02  0.17566668394E+02 -0.64247254967E+03  0.65488362708E+03  0.12499930558E+03 0.  0.
    9000005    1    3    3    0    0 -0.44821982243E+02 -0.95870280668E+01 -0.56469279752E+03  0.56655085982E+03  0.10000000000E+01 0.  0.
    9000005    1    3    3    0    0  0.31853801886E+02  0.27153696460E+02 -0.77779752152E+02  0.88332767255E+02  0.10000000000E+01 0.  0.
          4    1    1    2  501    0  0.12968180357E+02 -0.17566668394E+02  0.50935134513E+01  0.22457032740E+02  0.12700000000E+01 0. -1.
<mgrwt>
<rscale>  1 0.12689203E+03</rscale>
<asrwt>0</asrwt>
<pdfrwt beam="1">  1       21 0.30738765E-02 0.12689203E+03</pdfrwt>
<pdfrwt beam="2">  1        4 0.10113540E+00 0.12689203E+03</pdfrwt>
<totfact> 0.20426880E+04</totfact>
</mgrwt>
</event>
<event>
 6    4  0.6093247E-003  0.1402634E+03  0.7818608E-02  0.1212975E+00
         21   -1    0    0  501  502  0.00000000000E+00  0.00000000000E+00  0.35309144242E+03  0.35309144242E+03  0.00000000000E+00 0.  1.
         -4   -1    0    0    0  501 -0.00000000000E+00 -0.00000000000E+00 -0.30488206841E+02  0.30514646588E+02  0.12700000000E+01 0.  1.
         25    2    1    2    0    0 -0.58449333659E+02 -0.25130703191E+02  0.25312932366E+03  0.28939295731E+03  0.12500380951E+03 0.  0.
    9000005    1    3    3    0    0 -0.43686889500E+02 -0.44051399622E+02  0.37648131260E+02  0.72577213437E+02  0.10000000000E+01 0.  0.
    9000005    1    3    3    0    0 -0.14762444159E+02  0.18920696431E+02  0.21548119240E+03  0.21681574387E+03  0.10000000000E+01 0.  0.
         -4    1    1    2    0  502  0.58449333659E+02  0.25130703191E+02  0.69473911922E+02  0.94213131705E+02  0.12700000000E+01 0. -1.
<mgrwt>
<rscale>  1 0.14026343E+03</rscale>
<asrwt>0</asrwt>
<pdfrwt beam="1">  1       21 0.54321757E-01 0.14026343E+03</pdfrwt>
<pdfrwt beam="2">  1       -4 0.46927031E-02 0.14026343E+03</pdfrwt>
<totfact> 0.34731935E+04</totfact>
</mgrwt>
</event>
<event>
 6    4  0.6093247E-003  0.1285730E+03  0.7818608E-02  0.1229589E+00
         -4   -1    0    0    0  501 -0.00000000000E+00  0.00000000000E+00  0.10897678900E+03  0.10898418895E+03  0.12700000000E+01 0.  1.
         21   -1    0    0  501  502  0.00000000000E+00 -0.00000000000E+00 -0.87373923447E+02  0.87373923447E+02  0.00000000000E+00 0. -1.
         25    2    1    2    0    0  0.18024340453E+02  0.24106574230E+02  0.64574364111E+02  0.14387796036E+03  0.12500006083E+03 0.  0.
    9000005    1    3    3    0    0 -0.30254973565E+02  0.60801708609E+02  0.33677298504E+02  0.75811421499E+02  0.10000000000E+01 0.  0.
    9000005    1    3    3    0    0  0.48279314018E+02 -0.36695134379E+02  0.30897065607E+02  0.68066538859E+02  0.10000000000E+01 0.  0.
         -4    1    1    2    0  502 -0.18024340453E+02 -0.24106574230E+02 -0.42971498557E+02  0.52480152040E+02  0.12700000000E+01 0. -1.
<mgrwt>
<rscale>  1 0.12857301E+03</rscale>
<asrwt>0</asrwt>
<pdfrwt beam="2">  1       21 0.13442142E-01 0.12857301E+03</pdfrwt>
<pdfrwt beam="1">  1       -4 0.16766939E-01 0.12857301E+03</pdfrwt>
<totfact> 0.59516409E+04</totfact>
</mgrwt>
</event>
<event>
 6    4  0.6093247E-003  0.1276041E+03  0.7818608E-02  0.1231055E+00
         21   -1    0    0  501  502  0.00000000000E+00  0.00000000000E+00  0.10342850324E+03  0.10342850324E+03  0.00000000000E+00 0. -1.
          4   -1    0    0  502    0 -0.00000000000E+00 -0.00000000000E+00 -0.58478609915E+02  0.58492398802E+02  0.12700000000E+01 0. -1.
         25    2    1    2    0    0  0.70724195852E+01  0.24680210701E+02  0.26623455276E+02  0.13035188003E+03  0.12499468924E+03 0.  0.
    9000005    1    3    3    0    0 -0.24729097103E+02 -0.25173267277E+02  0.54528046298E+02  0.64957905307E+02  0.10000000000E+01 0.  0.
    9000005    1    3    3    0    0  0.31801516688E+02  0.49853477978E+02 -0.27904591021E+02  0.65393974724E+02  0.10000000000E+01 0.  0.
          4    1    1    2  501    0 -0.70724195852E+01 -0.24680210701E+02  0.18326438044E+02  0.31569022006E+02  0.12700000000E+01 0.  1.
<mgrwt>
<rscale>  1 0.12760409E+03</rscale>
<asrwt>0</asrwt>
<pdfrwt beam="1">  1       21 0.15912077E-01 0.12760409E+03</pdfrwt>
<pdfrwt beam="2">  1        4 0.89983697E-02 0.12760409E+03</pdfrwt>
<totfact> 0.12750144E+05</totfact>
</mgrwt>
</event>
<event>
 6    4  0.6093247E-003  0.1287733E+03  0.7818608E-02  0.1229287E+00
         -4   -1    0    0    0  501 -0.00000000000E+00  0.00000000000E+00  0.81013211875E+02  0.81023165813E+02  0.12700000000E+01 0.  1.
         21   -1    0    0  501  502  0.00000000000E+00 -0.00000000000E+00 -0.11099877392E+03  0.11099877392E+03  0.00000000000E+00 0.  1.
         25    2    1    2    0    0 -0.29812529566E+02 -0.80885197367E+01  0.22870150711E+02  0.13078836772E+03  0.12501336835E+03 0.  0.
    9000005    1    3    3    0    0  0.47646066678E+02  0.19775479479E+01 -0.47485453302E+01  0.47933360497E+02  0.10000000000E+01 0.  0.
    9000005    1    3    3    0    0 -0.77458596245E+02 -0.10066067685E+02  0.27618696041E+02  0.82855007222E+02  0.10000000000E+01 0.  0.
         -4    1    1    2    0  502  0.29812529566E+02  0.80885197367E+01 -0.52855712760E+02  0.61233572017E+02  0.12700000000E+01 0. -1.
<mgrwt>
<rscale>  1 0.12877326E+03</rscale>
<asrwt>0</asrwt>
<pdfrwt beam="2">  1       21 0.17076734E-01 0.12877326E+03</pdfrwt>
<pdfrwt beam="1">  1       -4 0.12464896E-01 0.12877326E+03</pdfrwt>
<totfact> 0.64717263E+04</totfact>
</mgrwt>
</event>
<event>
 6    4  0.6093247E-003  0.1276599E+03  0.7818608E-02  0.1230970E+00
         21   -1    0    0  501  502  0.00000000000E+00  0.00000000000E+00  0.21234288860E+02  0.21234288860E+02  0.00000000000E+00 0.  1.
         -4   -1    0    0    0  501 -0.00000000000E+00 -0.00000000000E+00 -0.61304537010E+03  0.61304668558E+03  0.12700000000E+01 0.  1.
         25    2    1    2    0    0 -0.25733974115E+02 -0.34396429915E+01 -0.59458901323E+03  0.60813908519E+03  0.12499193458E+03 0.  0.
    9000005    1    3    3    0    0  0.37236403707E+02  0.20363133772E+02 -0.95256295596E+02  0.10428791315E+03  0.10000000000E+01 0.  0.
    9000005    1    3    3    0    0 -0.62970377822E+02 -0.23802776764E+02 -0.49933271763E+03  0.50385117204E+03  0.10000000000E+01 0.  0.
         -4    1    1    2    0  502  0.25733974115E+02  0.34396429915E+01  0.27779319887E+01  0.26141889255E+02  0.12700000000E+01 0. -1.
<mgrwt>
<rscale>  1 0.12765991E+03</rscale>
<asrwt>0</asrwt>
<pdfrwt beam="1">  1       21 0.32668133E-02 0.12765991E+03</pdfrwt>
<pdfrwt beam="2">  1       -4 0.94317704E-01 0.12765991E+03</pdfrwt>
<totfact> 0.21708508E+04</totfact>
</mgrwt>
</event>
<event>
 6    4  0.6093247E-003  0.1269868E+03  0.7818608E-02  0.1231997E+00
         21   -1    0    0  501  502  0.00000000000E+00  0.00000000000E+00  0.16307410416E+03  0.16307410416E+03  0.00000000000E+00 0. -1.
          4   -1    0    0  502    0 -0.00000000000E+00 -0.00000000000E+00 -0.37099506714E+03  0.37099724088E+03  0.12700000000E+01 0.  1.
         25    2    1    2    0    0 -0.10821482148E+02 -0.19585697669E+02 -0.35928030212E+03  0.38106165099E+03  0.12499976935E+03 0.  0.
    9000005    1    3    3    0    0 -0.52563423052E+02  0.12076864899E+02 -0.77342083536E+02  0.94295079375E+02  0.10000000000E+01 0.  0.
    9000005    1    3    3    0    0  0.41741940904E+02 -0.31662562568E+02 -0.28193821858E+03  0.28676657162E+03  0.10000000000E+01 0.  0.
          4    1    1    2  501    0  0.10821482148E+02  0.19585697669E+02  0.15135933914E+03  0.15300969405E+03  0.12700000000E+01 0. -1.
<mgrwt>
<rscale>  1 0.12698680E+03</rscale>
<asrwt>0</asrwt>
<pdfrwt beam="1">  1       21 0.25088324E-01 0.12698680E+03</pdfrwt>
<pdfrwt beam="2">  1        4 0.57076711E-01 0.12698680E+03</pdfrwt>
<totfact> 0.18363503E+03</totfact>
</mgrwt>
</event>
<event>
 6    4  0.6093247E-003  0.1281522E+03  0.7818608E-02  0.1230224E+00
         21   -1    0    0  501  502  0.00000000000E+00  0.00000000000E+00  0.78601884270E+03  0.78601884270E+03  0.00000000000E+00 0.  1.
          4   -1    0    0  502    0 -0.00000000000E+00 -0.00000000000E+00 -0.92304867348E+01  0.93174452164E+01  0.12700000000E+01 0.  1.
         25    2    1    2    0    0 -0.20928872818E+02  0.19012238691E+02  0.46721357670E+03  0.48447033643E+03  0.12499399061E+03 0.  0.
    9000005    1    3    3    0    0 -0.71575025847E+02  0.27419902529E+02  0.26822722565E+03  0.27896537412E+03  0.10000000000E+01 0.  0.
    9000005    1    3    3    0    0  0.50646153029E+02 -0.84076638380E+01  0.19898635105E+03  0.20550496231E+03  0.10000000000E+01 0.  0.
          4    1    1    2  501    0  0.20928872818E+02 -0.19012238691E+02  0.30957477927E+03  0.31086595149E+03  0.12700000000E+01 0. -1.
<mgrwt>
<rscale>  1 0.12815218E+03</rscale>
<asrwt>0</asrwt>
<pdfrwt beam="1">  1       21 0.12092592E+00 0.12815218E+03</pdfrwt>
<pdfrwt beam="2">  1        4 0.14268435E-02 0.12815218E+03</pdfrwt>
<totfact> 0.36321515E+04</totfact>
</mgrwt>
</event>
<event>
 6    4  0.6093247E-003  0.1269899E+03  0.7818608E-02  0.1231992E+00
          4   -1    0    0  502    0 -0.00000000000E+00  0.00000000000E+00  0.12127243310E+04  0.12127249960E+04  0.12700000000E+01 0.  1.
         21   -1    0    0  501  502  0.00000000000E+00 -0.00000000000E+00 -0.53255176133E+01  0.53255176133E+01  0.00000000000E+00 0.  1.
         25    2    1    2    0    0  0.16221168178E+02 -0.15175360816E+02  0.11405166421E+04  0.11475646596E+04  0.12503207299E+03 0.  0.
    9000005    1    3    3    0    0 -0.26753752382E+02  0.39189036137E+02  0.70224585281E+03  0.70384783982E+03  0.10000000000E+01 0.  0.
    9000005    1    3    3    0    0  0.42974920560E+02 -0.54364396953E+02  0.43827078927E+03  0.44371681981E+03  0.10000000000E+01 0.  0.
          4    1    1    2  501    0 -0.16221168178E+02  0.15175360816E+02  0.66882171298E+02  0.70485853974E+02  0.12700000000E+01 0. -1.
<mgrwt>
<rscale>  1 0.12698991E+03</rscale>
<asrwt>0</asrwt>
<pdfrwt beam="2">  1       21 0.81931137E-03 0.12698991E+03</pdfrwt>
<pdfrwt beam="1">  1        4 0.18658445E+00 0.12698991E+03</pdfrwt>
<totfact> 0.36728031E+04</totfact>
</mgrwt>
</event>
<event>
 6    4  0.6093247E-003  0.1313545E+03  0.7818608E-02  0.1225460E+00
          4   -1    0    0  502    0 -0.00000000000E+00  0.00000000000E+00  0.75190178768E+03  0.75190286022E+03  0.12700000000E+01 0.  1.
         21   -1    0    0  501  502  0.00000000000E+00 -0.00000000000E+00 -0.28858019533E+02  0.28858019533E+02  0.00000000000E+00 0. -1.
         25    2    1    2    0    0 -0.38124875243E+02  0.13149082035E+02  0.72831855575E+03  0.74006885652E+03  0.12501035670E+03 0.  0.
    9000005    1    3    3    0    0  0.13193417450E+02  0.33709672301E+02  0.64654375689E+02  0.74105307276E+02  0.10000000000E+01 0.  0.
    9000005    1    3    3    0    0 -0.51318292693E+02 -0.20560590266E+02  0.66366418006E+03  0.66596354925E+03  0.10000000000E+01 0.  0.
          4    1    1    2  501    0  0.38124875243E+02 -0.13149082035E+02 -0.52747876000E+01  0.40692023234E+02  0.12700000000E+01 0. -1.
<mgrwt>
<rscale>  1 0.13135446E+03</rscale>
<asrwt>0</asrwt>
<pdfrwt beam="2">  1       21 0.44396959E-02 0.13135446E+03</pdfrwt>
<pdfrwt beam="1">  1        4 0.11567942E+00 0.13135446E+03</pdfrwt>
<totfact> 0.81376403E+03</totfact>
</mgrwt>
</event>
<event>
 6    4  0.6093247E-003  0.1267142E+03  0.7818608E-02  0.1232414E+00
         21   -1    0    0  501  502  0.00000000000E+00  0.00000000000E+00  0.21537667692E+02  0.21537667692E+02  0.00000000000E+00 0. -1.
         -4   -1    0    0    0  501 -0.00000000000E+00 -0.00000000000E+00 -0.25766274426E+03  0.25766587411E+03  0.12700000000E+01 0. -1.
         25    2    1    2    0    0  0.62402179887E+01  0.19791588616E+02 -0.21500643835E+03  0.24956813931E+03  0.12500336126E+03 0.  0.
    9000005    1    3    3    0    0  0.29648692604E+02 -0.41677703219E+02 -0.14378683544E+03  0.15261628341E+03  0.10000000000E+01 0.  0.
    9000005    1    3    3    0    0 -0.23408474615E+02  0.61469291834E+02 -0.71219602918E+02  0.96951855899E+02  0.10000000000E+01 0.  0.
         -4    1    1    2    0  502 -0.62402179887E+01 -0.19791588616E+02 -0.21118638217E+02  0.29635402488E+02  0.12700000000E+01 0.  1.
<mgrwt>
<rscale>  1 0.12671420E+03</rscale>
<asrwt>0</asrwt>
<pdfrwt beam="1">  1       21 0.33134872E-02 0.12671420E+03</pdfrwt>
<pdfrwt beam="2">  1       -4 0.39643545E-01 0.12671420E+03</pdfrwt>
<totfact> 0.13181107E+05</totfact>
</mgrwt>
</event>
<event>
 6    4  0.6093247E-003  0.1274208E+03  0.7818608E-02  0.1231334E+00
          4   -1    0    0  502    0 -0.00000000000E+00  0.00000000000E+00  0.18280412958E+02  0.18324475379E+02  0.12700000000E+01 0. -1.
         21   -1    0    0  501  502  0.00000000000E+00 -0.00000000000E+00 -0.43224193984E+03  0.43224193984E+03  0.00000000000E+00 0. -1.
         25    2    1    2    0    0 -0.23978025149E+02 -0.60610484644E+01 -0.21388868271E+03  0.24896671812E+03  0.12499750453E+03 0.  0.
    9000005    1    3    3    0    0 -0.28215739748E+02  0.43388303607E+02 -0.32998163791E+02  0.61388530467E+02  0.10000000000E+01 0.  0.
    9000005    1    3    3    0    0  0.42377145990E+01 -0.49449352071E+02 -0.18089051892E+03  0.18757818765E+03  0.10000000000E+01 0.  0.
          4    1    1    2  501    0  0.23978025149E+02  0.60610484644E+01 -0.20007284416E+03  0.20159969710E+03  0.12700000000E+01 0.  1.
<mgrwt>
<rscale>  1 0.12742079E+03</rscale>
<asrwt>0</asrwt>
<pdfrwt beam="2">  1       21 0.66498754E-01 0.12742079E+03</pdfrwt>
<pdfrwt beam="1">  1        4 0.28159044E-02 0.12742079E+03</pdfrwt>
<totfact> 0.50155903E+04</totfact>
</mgrwt>
</event>
<event>
 6    4  0.6093247E-003  0.1353972E+03  0.7818608E-02  0.1219660E+00
          4   -1    0    0  502    0 -0.00000000000E+00  0.00000000000E+00  0.13797520722E+03  0.13798105199E+03  0.12700000000E+01 0.  1.
         21   -1    0    0  501  502  0.00000000000E+00 -0.00000000000E+00 -0.17990738363E+03  0.17990738363E+03  0.00000000000E+00 0.  1.
         25    2    1    2    0    0  0.51854831253E+02  0.42555912783E+01  0.98949843934E+02  0.16770058611E+03  0.12500152554E+03 0.  0.
    9000005    1    3    3    0    0 -0.20092050476E+02  0.27017286756E+02 -0.10025654668E+02  0.35144530549E+02  0.10000000000E+01 0.  0.
    9000005    1    3    3    0    0  0.71946881729E+02 -0.22761695478E+02  0.10897549860E+03  0.13255605557E+03  0.10000000000E+01 0.  0.
          4    1    1    2  501    0 -0.51854831253E+02 -0.42555912783E+01 -0.14088202035E+03  0.15018784950E+03  0.12700000000E+01 0. -1.
<mgrwt>
<rscale>  1 0.13539725E+03</rscale>
<asrwt>0</asrwt>
<pdfrwt beam="2">  1       21 0.27678059E-01 0.13539725E+03</pdfrwt>
<pdfrwt beam="1">  1        4 0.21227749E-01 0.13539725E+03</pdfrwt>
<totfact> 0.10351850E+04</totfact>
</mgrwt>
</event>
<event>
 6    4  0.6093247E-003  0.1273356E+03  0.7818608E-02  0.1231464E+00
         -4   -1    0    0    0  501 -0.00000000000E+00  0.00000000000E+00  0.28794984691E+02  0.28822977698E+02  0.12700000000E+01 0. -1.
         21   -1    0    0  501  502  0.00000000000E+00 -0.00000000000E+00 -0.19977981234E+03  0.19977981234E+03  0.00000000000E+00 0. -1.
         25    2    1    2    0    0 -0.23762554783E+02 -0.49350384685E+01 -0.14051803421E+03  0.18963033801E+03  0.12500133416E+03 0.  0.
    9000005    1    3    3    0    0 -0.34187044213E+02 -0.10185360683E+02 -0.16161016848E+03  0.16550329942E+03  0.10000000000E+01 0.  0.
    9000005    1    3    3    0    0  0.10424489430E+02  0.52503222149E+01  0.21092134266E+02  0.24127038590E+02  0.10000000000E+01 0.  0.
         -4    1    1    2    0  502  0.23762554783E+02  0.49350384685E+01 -0.30466793439E+02  0.38972452026E+02  0.12700000000E+01 0.  1.
<mgrwt>
<rscale>  1 0.12733557E+03</rscale>
<asrwt>0</asrwt>
<pdfrwt beam="2">  1       21 0.30735356E-01 0.12733557E+03</pdfrwt>
<pdfrwt beam="1">  1       -4 0.44324615E-02 0.12733557E+03</pdfrwt>
<totfact> 0.11813989E+05</totfact>
</mgrwt>
</event>
<event>
 6    4  0.6093247E-003  0.1469057E+03  0.7818608E-02  0.1204328E+00
         21   -1    0    0  501  502  0.00000000000E+00  0.00000000000E+00  0.27109504857E+03  0.27109504857E+03  0.00000000000E+00 0. -1.
         -4   -1    0    0    0  501 -0.00000000000E+00 -0.00000000000E+00 -0.62215750800E+02  0.62228711602E+02  0.12700000000E+01 0.  1.
         25    2    1    2    0    0  0.73225581406E+02 -0.24398400771E+02  0.47435840666E+02  0.15437440847E+03  0.12499612506E+03 0.  0.
    9000005    1    3    3    0    0  0.24298161406E+02  0.33498407035E+02 -0.25956330182E+02  0.48859748240E+02  0.10000000000E+01 0.  0.
    9000005    1    3    3    0    0  0.48927420000E+02 -0.57896807806E+02  0.73392170848E+02  0.10551466023E+03  0.10000000000E+01 0.  0.
         -4    1    1    2    0  502 -0.73225581406E+02  0.24398400771E+02  0.16144345711E+03  0.17894935170E+03  0.12700000000E+01 0. -1.
<mgrwt>
<rscale>  1 0.14690575E+03</rscale>
<asrwt>0</asrwt>
<pdfrwt beam="1">  1       21 0.41706930E-01 0.14690575E+03</pdfrwt>
<pdfrwt beam="2">  1       -4 0.95728800E-02 0.14690575E+03</pdfrwt>
<totfact> 0.18646142E+04</totfact>
</mgrwt>
</event>
<event>
 6    4  0.6093247E-003  0.1360481E+03  0.7818608E-02  0.1218748E+00
          4   -1    0    0  502    0 -0.00000000000E+00  0.00000000000E+00  0.36782721295E+03  0.36782940541E+03  0.12700000000E+01 0. -1.
         21   -1    0    0  501  502  0.00000000000E+00 -0.00000000000E+00 -0.25676482785E+02  0.25676482785E+02  0.00000000000E+00 0. -1.
         25    2    1    2    0    0 -0.45639802128E+02  0.28284051112E+02  0.28042807650E+03  0.31168732086E+03  0.12500440316E+03 0.  0.
    9000005    1    3    3    0    0  0.26709742269E+02  0.13357050498E+01  0.19381958453E+03  0.19565844165E+03  0.10000000000E+01 0.  0.
    9000005    1    3    3    0    0 -0.72349544398E+02  0.26948346062E+02  0.86608491960E+02  0.11602887921E+03  0.10000000000E+01 0.  0.
          4    1    1    2  501    0  0.45639802128E+02 -0.28284051112E+02  0.61722653667E+02  0.81818567339E+02  0.12700000000E+01 0.  1.
<mgrwt>
<rscale>  1 0.13604808E+03</rscale>
<asrwt>0</asrwt>
<pdfrwt beam="2">  1       21 0.39502284E-02 0.13604808E+03</pdfrwt>
<pdfrwt beam="1">  1        4 0.56591383E-01 0.13604808E+03</pdfrwt>
<totfact> 0.48522130E+04</totfact>
</mgrwt>
</event>
<event>
 6    4  0.6093247E-003  0.1286649E+03  0.7818608E-02  0.1229450E+00
         21   -1    0    0  501  502  0.00000000000E+00  0.00000000000E+00  0.47481549893E+03  0.47481549893E+03  0.00000000000E+00 0.  1.
          4   -1    0    0  502    0 -0.00000000000E+00 -0.00000000000E+00 -0.16743151766E+02  0.16791248645E+02  0.12700000000E+01 0. -1.
         25    2    1    2    0    0  0.16136125243E+02  0.25861067402E+02  0.24858222833E+03  0.27990674254E+03  0.12500196371E+03 0.  0.
    9000005    1    3    3    0    0  0.21067750795E+02  0.50753427074E+02  0.24850545629E+03  0.25451075083E+03  0.10000000000E+01 0.  0.
    9000005    1    3    3    0    0 -0.49316255513E+01 -0.24892359672E+02  0.76772039964E-01  0.25395991703E+02  0.10000000000E+01 0.  0.
          4    1    1    2  501    0 -0.16136125243E+02 -0.25861067402E+02  0.20949011883E+03  0.21170000504E+03  0.12700000000E+01 0.  1.
<mgrwt>
<rscale>  1 0.12866491E+03</rscale>
<asrwt>0</asrwt>
<pdfrwt beam="1">  1       21 0.73048528E-01 0.12866491E+03</pdfrwt>
<pdfrwt beam="2">  1        4 0.25797003E-02 0.12866491E+03</pdfrwt>
<totfact> 0.46896691E+04</totfact>
</mgrwt>
</event>
<event>
 6    4  0.6093247E-003  0.1270039E+03  0.7818608E-02  0.1231970E+00
          4   -1    0    0  502    0 -0.00000000000E+00  0.00000000000E+00  0.15168472460E+02  0.15221545808E+02  0.12700000000E+01 0.  1.
         21   -1    0    0  501  502  0.00000000000E+00 -0.00000000000E+00 -0.54381111758E+03  0.54381111758E+03  0.00000000000E+00 0. -1.
         25    2    1    2    0    0  0.85513628403E+01 -0.20774551395E+02 -0.25910540511E+03  0.28855781346E+03  0.12500117183E+03 0.  0.
    9000005    1    3    3    0    0 -0.26559536462E+02  0.42826498315E+02 -0.72431967833E+02  0.88243458110E+02  0.10000000000E+01 0.  0.
    9000005    1    3    3    0    0  0.35110899302E+02 -0.63601049710E+02 -0.18667343727E+03  0.20031435535E+03  0.10000000000E+01 0.  0.
          4    1    1    2  501    0 -0.85513628403E+01  0.20774551395E+02 -0.26953724001E+03  0.27047484993E+03  0.12700000000E+01 0. -1.
<mgrwt>
<rscale>  1 0.12700394E+03</rscale>
<asrwt>0</asrwt>
<pdfrwt beam="2">  1       21 0.83663229E-01 0.12700394E+03</pdfrwt>
<pdfrwt beam="1">  1        4 0.23378083E-02 0.12700394E+03</pdfrwt>
<totfact> 0.40350356E+04</totfact>
</mgrwt>
</event>
<event>
 6    4  0.6093247E-003  0.1347095E+03  0.7818608E-02  0.1220630E+00
          4   -1    0    0  502    0 -0.00000000000E+00  0.00000000000E+00  0.36270576137E+03  0.36270798479E+03  0.12700000000E+01 0.  1.
         21   -1    0    0  501  502  0.00000000000E+00 -0.00000000000E+00 -0.36072621221E+02  0.36072621221E+02  0.00000000000E+00 0. -1.
         25    2    1    2    0    0  0.23344691000E+02  0.44464406997E+02  0.32113480428E+03  0.34824445376E+03  0.12499831584E+03 0.  0.
    9000005    1    3    3    0    0  0.45209973596E+02  0.80623043055E+02  0.21933766573E+03  0.23802106711E+03  0.10000000000E+01 0.  0.
    9000005    1    3    3    0    0 -0.21865282596E+02 -0.36158636058E+02  0.10179713855E+03  0.11022338664E+03  0.10000000000E+01 0.  0.
          4    1    1    2  501    0 -0.23344691000E+02 -0.44464406997E+02  0.54983358661E+01  0.50536152255E+02  0.12700000000E+01 0. -1.
<mgrwt>
<rscale>  1 0.13470945E+03</rscale>
<asrwt>0</asrwt>
<pdfrwt beam="2">  1       21 0.55496343E-02 0.13470945E+03</pdfrwt>
<pdfrwt beam="1">  1        4 0.55802775E-01 0.13470945E+03</pdfrwt>
<totfact> 0.28224688E+04</totfact>
</mgrwt>
</event>
<event>
 6    4  0.6093247E-003  0.1287344E+03  0.7818608E-02  0.1229346E+00
         21   -1    0    0  501  502  0.00000000000E+00  0.00000000000E+00  0.16692191342E+03  0.16692191342E+03  0.00000000000E+00 0. -1.
         -4   -1    0    0    0  501 -0.00000000000E+00 -0.00000000000E+00 -0.46030431724E+02  0.46047948322E+02  0.12700000000E+01 0. -1.
         25    2    1    2    0    0 -0.16670891148E+02  0.25881601249E+02  0.54536152589E+02  0.13980963692E+03  0.12499906696E+03 0.  0.
    9000005    1    3    3    0    0 -0.46310425825E+02 -0.36776879565E+02  0.29598642276E+02  0.66138294771E+02  0.10000000000E+01 0.  0.
    9000005    1    3    3    0    0  0.29639534677E+02  0.62658480814E+02  0.24937510314E+02  0.73671342151E+02  0.10000000000E+01 0.  0.
         -4    1    1    2    0  502  0.16670891148E+02 -0.25881601249E+02  0.66355329111E+02  0.73160224824E+02  0.12700000000E+01 0.  1.
<mgrwt>
<rscale>  1 0.12873439E+03</rscale>
<asrwt>0</asrwt>
<pdfrwt beam="1">  1       21 0.25680294E-01 0.12873439E+03</pdfrwt>
<pdfrwt beam="2">  1       -4 0.70833240E-02 0.12873439E+03</pdfrwt>
<totfact> 0.78198806E+04</totfact>
</mgrwt>
</event>
<event>
 6    4  0.6093247E-003  0.1267977E+03  0.7818608E-02  0.1232286E+00
          4   -1    0    0  502    0 -0.00000000000E+00  0.00000000000E+00  0.67479980664E+02  0.67491930558E+02  0.12700000000E+01 0.  1.
         21   -1    0    0  501  502  0.00000000000E+00 -0.00000000000E+00 -0.82573768470E+02  0.82573768470E+02  0.00000000000E+00 0.  1.
         25    2    1    2    0    0  0.21264201665E+02 -0.79462147457E+00 -0.61447181110E+01  0.12694651989E+03  0.12499945462E+03 0.  0.
    9000005    1    3    3    0    0  0.37881298667E+02  0.48966423668E+02  0.24030832175E+02  0.66416747365E+02  0.10000000000E+01 0.  0.
    9000005    1    3    3    0    0 -0.16617097002E+02 -0.49761045143E+02 -0.30175550286E+02  0.60529772522E+02  0.10000000000E+01 0.  0.
          4    1    1    2  501    0 -0.21264201665E+02  0.79462147457E+00 -0.89490696950E+01  0.23119179140E+02  0.12700000000E+01 0. -1.
<mgrwt>
<rscale>  1 0.12679772E+03</rscale>
<asrwt>0</asrwt>
<pdfrwt beam="2">  1       21 0.12703657E-01 0.12679772E+03</pdfrwt>
<pdfrwt beam="1">  1        4 0.10383206E-01 0.12679772E+03</pdfrwt>
<totfact> 0.15006567E+05</totfact>
</mgrwt>
</event>
<event>
 6    4  0.6093247E-003  0.1268964E+03  0.7818608E-02  0.1232135E+00
         21   -1    0    0  501  502  0.00000000000E+00  0.00000000000E+00  0.20097555391E+03  0.20097555391E+03  0.00000000000E+00 0.  1.
          4   -1    0    0  502    0 -0.00000000000E+00 -0.00000000000E+00 -0.27638062962E+02  0.27667226537E+02  0.12700000000E+01 0.  1.
         25    2    1    2    0    0 -0.21545992681E+02 -0.36844339368E+01  0.15281313972E+03  0.19863167004E+03  0.12499951928E+03 0.  0.
    9000005    1    3    3    0    0  0.20295803022E+02 -0.56083213501E+02  0.77271721704E+02  0.97617444301E+02  0.10000000000E+01 0.  0.
    9000005    1    3    3    0    0 -0.41841795702E+02  0.52398779564E+02  0.75541418011E+02  0.10101422574E+03  0.10000000000E+01 0.  0.
          4    1    1    2  501    0  0.21545992681E+02  0.36844339368E+01  0.20524351234E+02  0.30011110403E+02  0.12700000000E+01 0. -1.
<mgrwt>
<rscale>  1 0.12689635E+03</rscale>
<asrwt>0</asrwt>
<pdfrwt beam="1">  1       21 0.30919315E-01 0.12689635E+03</pdfrwt>
<pdfrwt beam="2">  1        4 0.42545618E-02 0.12689635E+03</pdfrwt>
<totfact> 0.12460101E+05</totfact>
</mgrwt>
</event>
<event>
 6    4  0.6093247E-003  0.1418988E+03  0.7818608E-02  0.1210797E+00
         21   -1    0    0  501  502  0.00000000000E+00  0.00000000000E+00  0.16598654887E+02  0.16598654887E+02  0.00000000000E+00 0.  1.
          4   -1    0    0  502    0 -0.00000000000E+00 -0.00000000000E+00 -0.67709228908E+03  0.67709348013E+03  0.12700000000E+01 0.  1.
         25    2    1    2    0    0  0.40403837763E+02 -0.53637494154E+02 -0.49913284724E+03  0.51891122258E+03  0.12500322732E+03 0.  0.
    9000005    1    3    3    0    0  0.55383422710E+02 -0.88225983937E+02 -0.36270082097E+03  0.37736458934E+03  0.10000000000E+01 0.  0.
    9000005    1    3    3    0    0 -0.14979584947E+02  0.34588489783E+02 -0.13643202626E+03  0.14154663324E+03  0.10000000000E+01 0.  0.
          4    1    1    2  501    0 -0.40403837763E+02  0.53637494154E+02 -0.16136078696E+03  0.17478091244E+03  0.12700000000E+01 0. -1.
<mgrwt>
<rscale>  1 0.14189876E+03</rscale>
<asrwt>0</asrwt>
<pdfrwt beam="1">  1       21 0.25536386E-02 0.14189876E+03</pdfrwt>
<pdfrwt beam="2">  1        4 0.10417190E+00 0.14189876E+03</pdfrwt>
<totfact> 0.26149760E+04</totfact>
</mgrwt>
</event>
<event>
 6    4  0.6093247E-003  0.2213931E+03  0.7818608E-02  0.1132849E+00
         -4   -1    0    0    0  501 -0.00000000000E+00  0.00000000000E+00  0.11074890832E+04  0.11074898114E+04  0.12700000000E+01 0.  1.
         21   -1    0    0  501  502  0.00000000000E+00 -0.00000000000E+00 -0.56931302915E+02  0.56931302915E+02  0.00000000000E+00 0. -1.
         25    2    1    2    0    0 -0.91269411064E+02 -0.15829558629E+03  0.90244516476E+03  0.92920513311E+03  0.12500922347E+03 0.  0.
    9000005    1    3    3    0    0 -0.37190544122E+00 -0.37599905247E+02  0.46266999669E+03  0.46419652845E+03  0.10000000000E+01 0.  0.
    9000005    1    3    3    0    0 -0.90897505622E+02 -0.12069568105E+03  0.43977516808E+03  0.46500860466E+03  0.10000000000E+01 0.  0.
         -4    1    1    2    0  502  0.91269411064E+02  0.15829558629E+03  0.14811261556E+03  0.23521598123E+03  0.12700000000E+01 0. -1.
<mgrwt>
<rscale>  1 0.22139310E+03</rscale>
<asrwt>0</asrwt>
<pdfrwt beam="2">  1       21 0.87586628E-02 0.22139310E+03</pdfrwt>
<pdfrwt beam="1">  1       -4 0.17038407E+00 0.22139310E+03</pdfrwt>
<totfact> 0.97843143E+02</totfact>
</mgrwt>
</event>
<event>
 6    4  0.6093247E-003  0.1273725E+03  0.7818608E-02  0.1231407E+00
         -4   -1    0    0    0  501 -0.00000000000E+00  0.00000000000E+00  0.73491444264E+02  0.73502416831E+02  0.12700000000E+01 0.  1.
         21   -1    0    0  501  502  0.00000000000E+00 -0.00000000000E+00 -0.80291851296E+02  0.80291851296E+02  0.00000000000E+00 0. -1.
         25    2    1    2    0    0  0.24413700807E+02  0.19134229218E+01  0.29466778965E+01  0.12740660929E+03  0.12499628477E+03 0.  0.
    9000005    1    3    3    0    0  0.88748966377E+01  0.53155618047E+01 -0.60808041351E+02  0.61689844226E+02  0.10000000000E+01 0.  0.
    9000005    1    3    3    0    0  0.15538804169E+02 -0.34021388830E+01  0.63754719248E+02  0.65716765063E+02  0.10000000000E+01 0.  0.
         -4    1    1    2    0  502 -0.24413700807E+02 -0.19134229218E+01 -0.97470849281E+01  0.26387658838E+02  0.12700000000E+01 0. -1.
<mgrwt>
<rscale>  1 0.12737253E+03</rscale>
<asrwt>0</asrwt>
<pdfrwt beam="2">  1       21 0.12352593E-01 0.12737253E+03</pdfrwt>
<pdfrwt beam="1">  1       -4 0.11307993E-01 0.12737253E+03</pdfrwt>
<totfact> 0.13659750E+05</totfact>
</mgrwt>
</event>
<event>
 6    4  0.6093247E-003  0.1331972E+03  0.7818608E-02  0.1222787E+00
         21   -1    0    0  501  502  0.00000000000E+00  0.00000000000E+00  0.90930618586E+01  0.90930618586E+01  0.00000000000E+00 0. -1.
          4   -1    0    0  502    0 -0.00000000000E+00 -0.00000000000E+00 -0.11778706865E+04  0.11778713711E+04  0.12700000000E+01 0.  1.
         25    2    1    2    0    0 -0.29796440761E+02 -0.35060580034E+02 -0.10667615764E+04  0.10750450015E+04  0.12499768882E+03 0.  0.
    9000005    1    3    3    0    0 -0.20465231522E+02 -0.44705411052E+02 -0.10576516259E+04  0.10587942960E+04  0.10000000000E+01 0.  0.
    9000005    1    3    3    0    0 -0.93312092386E+01  0.96448310177E+01 -0.91099505122E+01  0.16250705509E+02  0.10000000000E+01 0.  0.
          4    1    1    2  501    0  0.29796440761E+02  0.35060580034E+02 -0.10201604824E+03  0.11191943152E+03  0.12700000000E+01 0. -1.
<mgrwt>
<rscale>  1 0.13319720E+03</rscale>
<asrwt>0</asrwt>
<pdfrwt beam="1">  1       21 0.13989325E-02 0.13319720E+03</pdfrwt>
<pdfrwt beam="2">  1        4 0.18121776E+00 0.13319720E+03</pdfrwt>
<totfact> 0.17177809E+04</totfact>
</mgrwt>
</event>
<event>
 6    4  0.6093247E-003  0.1321328E+03  0.7818608E-02  0.1224325E+00
          4   -1    0    0  502    0 -0.00000000000E+00  0.00000000000E+00  0.10357553874E+02  0.10435124449E+02  0.12700000000E+01 0.  1.
         21   -1    0    0  501  502  0.00000000000E+00 -0.00000000000E+00 -0.26146238271E+04  0.26146238271E+04  0.00000000000E+00 0. -1.
         25    2    1    2    0    0 -0.36682297475E+02 -0.22161614576E+02 -0.41831581590E+03  0.43868804456E+03  0.12498940158E+03 0.  0.
    9000005    1    3    3    0    0 -0.82459899433E+02 -0.46945854984E+01 -0.24320522567E+03  0.25684909177E+03  0.10000000000E+01 0.  0.
    9000005    1    3    3    0    0  0.45777601957E+02 -0.17467029078E+02 -0.17511059023E+03  0.18183895280E+03  0.10000000000E+01 0.  0.
          4    1    1    2  501    0  0.36682297475E+02  0.22161614576E+02 -0.21859504573E+04  0.21863709069E+04  0.12700000000E+01 0. -1.
<mgrwt>
<rscale>  1 0.13213281E+03</rscale>
<asrwt>0</asrwt>
<pdfrwt beam="2">  1       21 0.40225007E+00 0.13213281E+03</pdfrwt>
<pdfrwt beam="1">  1        4 0.15994595E-02 0.13213281E+03</pdfrwt>
<totfact> 0.53939495E+02</totfact>
</mgrwt>
</event>
<event>
 6    4  0.6093247E-003  0.1303283E+03  0.7818608E-02  0.1226969E+00
         -4   -1    0    0    0  501 -0.00000000000E+00  0.00000000000E+00  0.13620496852E+02  0.13679577278E+02  0.12700000000E+01 0.  1.
         21   -1    0    0  501  502  0.00000000000E+00 -0.00000000000E+00 -0.61544658877E+03  0.61544658877E+03  0.00000000000E+00 0.  1.
         25    2    1    2    0    0  0.35459089916E+02 -0.10147067172E+02 -0.55167334643E+03  0.56685883264E+03  0.12500057980E+03 0.  0.
    9000005    1    3    3    0    0  0.15948421714E+02  0.55619031488E+02 -0.32195609016E+03  0.32711550377E+03  0.10000000000E+01 0.  0.
    9000005    1    3    3    0    0  0.19510668202E+02 -0.65766098660E+02 -0.22971725627E+03  0.23974332887E+03  0.10000000000E+01 0.  0.
         -4    1    1    2    0  502 -0.35459089916E+02  0.10147067172E+02 -0.50152745484E+02  0.62267333406E+02  0.12700000000E+01 0. -1.
<mgrwt>
<rscale>  1 0.13032826E+03</rscale>
<asrwt>0</asrwt>
<pdfrwt beam="2">  1       21 0.94684106E-01 0.13032826E+03</pdfrwt>
<pdfrwt beam="1">  1       -4 0.21001062E-02 0.13032826E+03</pdfrwt>
<totfact> 0.35994814E+04</totfact>
</mgrwt>
</event>
<event>
 6    4  0.6093247E-003  0.1282364E+03  0.7818608E-02  0.1230096E+00
         -4   -1    0    0    0  501 -0.00000000000E+00  0.00000000000E+00  0.10063572702E+02  0.10143391718E+02  0.12700000000E+01 0. -1.
         21   -1    0    0  501  502  0.00000000000E+00 -0.00000000000E+00 -0.62136243562E+03  0.62136243562E+03  0.00000000000E+00 0. -1.
         25    2    1    2    0    0 -0.22998483673E+02  0.17031155238E+02 -0.46110880555E+03  0.47860829062E+03  0.12500229918E+03 0.  0.
    9000005    1    3    3    0    0  0.54721557651E+01 -0.49438035231E+02 -0.11974565166E+03  0.12966913629E+03  0.10000000000E+01 0.  0.
    9000005    1    3    3    0    0 -0.28470639438E+02  0.66469190469E+02 -0.34136315389E+03  0.34893915433E+03  0.10000000000E+01 0.  0.
         -4    1    1    2    0  502  0.22998483673E+02 -0.17031155238E+02 -0.15019005737E+03  0.15289753671E+03  0.12700000000E+01 0.  1.
<mgrwt>
<rscale>  1 0.12823636E+03</rscale>
<asrwt>0</asrwt>
<pdfrwt beam="2">  1       21 0.95594242E-01 0.12823636E+03</pdfrwt>
<pdfrwt beam="1">  1       -4 0.15544814E-02 0.12823636E+03</pdfrwt>
<totfact> 0.55754398E+04</totfact>
</mgrwt>
</event>
<event>
 6    4  0.6093247E-003  0.1331458E+03  0.7818608E-02  0.1222861E+00
          4   -1    0    0  502    0 -0.00000000000E+00  0.00000000000E+00  0.10170917031E+03  0.10171709898E+03  0.12700000000E+01 0. -1.
         21   -1    0    0  501  502  0.00000000000E+00 -0.00000000000E+00 -0.16087837169E+03  0.16087837169E+03  0.00000000000E+00 0.  1.
         25    2    1    2    0    0  0.43572918205E+02  0.14267192731E+02  0.51530572792E+02  0.14276974350E+03  0.12500259092E+03 0.  0.
    9000005    1    3    3    0    0 -0.34668793707E+02  0.18546363900E+02  0.50998455696E+02  0.64402914177E+02  0.10000000000E+01 0.  0.
    9000005    1    3    3    0    0  0.78241711912E+02 -0.42791711691E+01  0.53211709603E+00  0.78366829319E+02  0.10000000000E+01 0.  0.
          4    1    1    2  501    0 -0.43572918205E+02 -0.14267192731E+02 -0.11069977418E+03  0.11982572718E+03  0.12700000000E+01 0.  1.
<mgrwt>
<rscale>  1 0.13314578E+03</rscale>
<asrwt>0</asrwt>
<pdfrwt beam="2">  1       21 0.24750519E-01 0.13314578E+03</pdfrwt>
<pdfrwt beam="1">  1        4 0.15648560E-01 0.13314578E+03</pdfrwt>
<totfact> 0.22005056E+04</totfact>
</mgrwt>
</event>
<event>
 6    4  0.6093247E-003  0.1267134E+03  0.7818608E-02  0.1232416E+00
         21   -1    0    0  501  502  0.00000000000E+00  0.00000000000E+00  0.35641797552E+02  0.35641797552E+02  0.00000000000E+00 0. -1.
          4   -1    0    0  502    0 -0.00000000000E+00 -0.00000000000E+00 -0.71334489389E+03  0.71334602441E+03  0.12700000000E+01 0.  1.
         25    2    1    2    0    0 -0.14134392609E+02 -0.15215005899E+02 -0.70408071361E+03  0.71539215182E+03  0.12500000862E+03 0.  0.
    9000005    1    3    3    0    0 -0.54408702016E+02  0.95919607699E+01 -0.16028734975E+03  0.16954452824E+03  0.10000000000E+01 0.  0.
    9000005    1    3    3    0    0  0.40274309407E+02 -0.24806966669E+02 -0.54379336386E+03  0.54584762358E+03  0.10000000000E+01 0.  0.
          4    1    1    2  501    0  0.14134392609E+02  0.15215005899E+02  0.26377617272E+02  0.33595670136E+02  0.12700000000E+01 0. -1.
<mgrwt>
<rscale>  1 0.12671338E+03</rscale>
<asrwt>0</asrwt>
<pdfrwt beam="1">  1       21 0.54833528E-02 0.12671338E+03</pdfrwt>
<pdfrwt beam="2">  1        4 0.10974721E+00 0.12671338E+03</pdfrwt>
<totfact> 0.64447385E+03</totfact>
</mgrwt>
</event>
<event>
 6    4  0.6093247E-003  0.1295943E+03  0.7818608E-02  0.1228059E+00
          4   -1    0    0  502    0 -0.00000000000E+00  0.00000000000E+00  0.51845893425E+03  0.51846048972E+03  0.12700000000E+01 0.  1.
         21   -1    0    0  501  502  0.00000000000E+00 -0.00000000000E+00 -0.12958209179E+02  0.12958209179E+02  0.00000000000E+00 0.  1.
         25    2    1    2    0    0 -0.18764325949E+01 -0.34152823338E+02  0.40771457721E+03  0.42781522427E+03  0.12499901324E+03 0.  0.
    9000005    1    3    3    0    0 -0.19461108515E+02 -0.33940445323E+02  0.29047149734E+02  0.48738336872E+02  0.10000000000E+01 0.  0.
    9000005    1    3    3    0    0  0.17584675920E+02 -0.21237801495E+00  0.37866742747E+03  0.37907688740E+03  0.10000000000E+01 0.  0.
          4    1    1    2  501    0  0.18764325949E+01  0.34152823338E+02  0.97786147860E+02  0.10360347463E+03  0.12700000000E+01 0. -1.
<mgrwt>
<rscale>  1 0.12959433E+03</rscale>
<asrwt>0</asrwt>
<pdfrwt beam="2">  1       21 0.19935711E-02 0.12959433E+03</pdfrwt>
<pdfrwt beam="1">  1        4 0.79767804E-01 0.12959433E+03</pdfrwt>
<totfact> 0.70797432E+04</totfact>
</mgrwt>
</event>
<event>
 6    4  0.6093247E-003  0.1267617E+03  0.7818608E-02  0.1232341E+00
          4   -1    0    0  502    0 -0.00000000000E+00  0.00000000000E+00  0.47961774636E+03  0.47961942780E+03  0.12700000000E+01 0.  1.
         21   -1    0    0  501  502  0.00000000000E+00 -0.00000000000E+00 -0.19584810826E+02  0.19584810826E+02  0.00000000000E+00 0. -1.
         25    2    1    2    0    0 -0.10319829971E+02 -0.18260424056E+02  0.46105773863E+03  0.47816605670E+03  0.12501438899E+03 0.  0.
    9000005    1    3    3    0    0 -0.42711018781E+02 -0.51114086835E+02  0.37142114806E+03  0.37734804919E+03  0.10000000000E+01 0.  0.
    9000005    1    3    3    0    0  0.32391188810E+02  0.32853662779E+02  0.89636590569E+02  0.10081800752E+03  0.10000000000E+01 0.  0.
          4    1    1    2  501    0  0.10319829971E+02  0.18260424056E+02 -0.10248030947E+01  0.21038181925E+02  0.12700000000E+01 0. -1.
<mgrwt>
<rscale>  1 0.12676174E+03</rscale>
<asrwt>0</asrwt>
<pdfrwt beam="2">  1       21 0.30130482E-02 0.12676174E+03</pdfrwt>
<pdfrwt beam="1">  1        4 0.73790634E-01 0.12676174E+03</pdfrwt>
<totfact> 0.42766860E+04</totfact>
</mgrwt>
</event>
<event>
 6    4  0.6093247E-003  0.1317393E+03  0.7818608E-02  0.1224897E+00
         -4   -1    0    0    0  501 -0.00000000000E+00  0.00000000000E+00  0.18048275229E+03  0.18048722053E+03  0.12700000000E+01 0.  1.
         21   -1    0    0  501  502  0.00000000000E+00 -0.00000000000E+00 -0.68077026336E+02  0.68077026336E+02  0.00000000000E+00 0. -1.
         25    2    1    2    0    0  0.32985795235E+02 -0.25352986207E+02  0.14484453889E+03  0.19579374297E+03  0.12499765095E+03 0.  0.
    9000005    1    3    3    0    0 -0.10191967721E+02 -0.30059552097E+01  0.14674087987E+03  0.14712850777E+03  0.10000000000E+01 0.  0.
    9000005    1    3    3    0    0  0.43177762956E+02 -0.22347030998E+02 -0.18963409806E+01  0.48665235204E+02  0.10000000000E+01 0.  0.
         -4    1    1    2    0  502 -0.32985795235E+02  0.25352986207E+02 -0.32438812934E+02  0.52770503897E+02  0.12700000000E+01 0. -1.
<mgrwt>
<rscale>  1 0.13173932E+03</rscale>
<asrwt>0</asrwt>
<pdfrwt beam="2">  1       21 0.10473389E-01 0.13173932E+03</pdfrwt>
<pdfrwt beam="1">  1       -4 0.27767832E-01 0.13173932E+03</pdfrwt>
<totfact> 0.37194123E+04</totfact>
</mgrwt>
</event>
<event>
 6    4  0.6093247E-003  0.1267709E+03  0.7818608E-02  0.1232327E+00
         21   -1    0    0  501  502  0.00000000000E+00  0.00000000000E+00  0.16485933723E+03  0.16485933723E+03  0.00000000000E+00 0. -1.
         -4   -1    0    0    0  501 -0.00000000000E+00 -0.00000000000E+00 -0.48441923888E+02  0.48458568798E+02  0.12700000000E+01 0. -1.
         25    2    1    2    0    0 -0.20733563930E+02  0.40496169660E+01  0.38367626624E+02  0.13244972825E+03  0.12499830267E+03 0.  0.
    9000005    1    3    3    0    0  0.56700264792E+01 -0.54269356961E+02  0.41172512429E+02  0.68362914544E+02  0.10000000000E+01 0.  0.
    9000005    1    3    3    0    0 -0.26403590409E+02  0.58318973927E+02 -0.28048858047E+01  0.64086813704E+02  0.10000000000E+01 0.  0.
         -4    1    1    2    0  502  0.20733563930E+02 -0.40496169660E+01  0.78049786721E+02  0.80868177783E+02  0.12700000000E+01 0.  1.
<mgrwt>
<rscale>  1 0.12677088E+03</rscale>
<asrwt>0</asrwt>
<pdfrwt beam="1">  1       21 0.25362975E-01 0.12677088E+03</pdfrwt>
<pdfrwt beam="2">  1       -4 0.74542604E-02 0.12677088E+03</pdfrwt>
<totfact> 0.73473526E+04</totfact>
</mgrwt>
</event>
<event>
 6    4  0.6093247E-003  0.1334921E+03  0.7818608E-02  0.1222364E+00
          4   -1    0    0  502    0 -0.00000000000E+00  0.00000000000E+00  0.32279584950E+01  0.34688061413E+01  0.12700000000E+01 0. -1.
         21   -1    0    0  501  502  0.00000000000E+00 -0.00000000000E+00 -0.24416355291E+04  0.24416355291E+04  0.00000000000E+00 0.  1.
         25    2    1    2    0    0  0.17356660631E+02  0.43541972498E+02 -0.18779531151E+04  0.18826917050E+04  0.12499198614E+03 0.  0.
    9000005    1    3    3    0    0  0.77713505227E+00  0.77196948099E+02 -0.16382489159E+04  0.16400672191E+04  0.10000000000E+01 0.  0.
    9000005    1    3    3    0    0  0.16579525579E+02 -0.33654975601E+02 -0.23970419914E+03  0.24262448585E+03  0.10000000000E+01 0.  0.
          4    1    1    2  501    0 -0.17356660631E+02 -0.43541972498E+02 -0.56045445559E+03  0.56241263031E+03  0.12700000000E+01 0.  1.
<mgrwt>
<rscale>  1 0.13349215E+03</rscale>
<asrwt>0</asrwt>
<pdfrwt beam="2">  1       21 0.37563616E+00 0.13349215E+03</pdfrwt>
<pdfrwt beam="1">  1        4 0.51516126E-03 0.13349215E+03</pdfrwt>
<totfact> 0.42744870E+03</totfact>
</mgrwt>
</event>
<event>
 6    4  0.6093247E-003  0.1288060E+03  0.7818608E-02  0.1229238E+00
         21   -1    0    0  501  502  0.00000000000E+00  0.00000000000E+00  0.28671796357E+02  0.28671796357E+02  0.00000000000E+00 0. -1.
          4   -1    0    0  502    0 -0.00000000000E+00 -0.00000000000E+00 -0.27703016482E+03  0.27703307586E+03  0.12700000000E+01 0.  1.
         25    2    1    2    0    0  0.14893005771E+02  0.27286851947E+02 -0.24171271453E+03  0.27389054327E+03  0.12499847766E+03 0.  0.
    9000005    1    3    3    0    0  0.63940080695E+02 -0.11617645463E+02 -0.10442467164E+03  0.12299925062E+03  0.10000000000E+01 0.  0.
    9000005    1    3    3    0    0 -0.49047074924E+02  0.38904497410E+02 -0.13728804289E+03  0.15089129266E+03  0.10000000000E+01 0.  0.
          4    1    1    2  501    0 -0.14893005771E+02 -0.27286851947E+02 -0.66456539295E+01  0.31814328945E+02  0.12700000000E+01 0. -1.
<mgrwt>
<rscale>  1 0.12880603E+03</rscale>
<asrwt>0</asrwt>
<pdfrwt beam="1">  1       21 0.44110456E-02 0.12880603E+03</pdfrwt>
<pdfrwt beam="2">  1        4 0.42622413E-01 0.12880603E+03</pdfrwt>
<totfact> 0.71280995E+04</totfact>
</mgrwt>
</event>
<event>
 6    4  0.6093247E-003  0.1315085E+03  0.7818608E-02  0.1225234E+00
         -4   -1    0    0    0  501 -0.00000000000E+00  0.00000000000E+00  0.37774133831E+03  0.37774347323E+03  0.12700000000E+01 0.  1.
         21   -1    0    0  501  502  0.00000000000E+00 -0.00000000000E+00 -0.24186817004E+02  0.24186817004E+02  0.00000000000E+00 0. -1.
         25    2    1    2    0    0  0.33438267102E+02  0.23477445764E+02  0.32884376141E+03  0.35416479305E+03  0.12500069221E+03 0.  0.
    9000005    1    3    3    0    0  0.52786516433E+02 -0.39205903332E+02  0.17273034054E+03  0.18482502460E+03  0.10000000000E+01 0.  0.
    9000005    1    3    3    0    0 -0.19348249330E+02  0.62683349096E+02  0.15611342086E+03  0.16933976845E+03  0.10000000000E+01 0.  0.
         -4    1    1    2    0  502 -0.33438267102E+02 -0.23477445764E+02  0.24710759898E+02  0.47765497183E+02  0.12700000000E+01 0. -1.
<mgrwt>
<rscale>  1 0.13150848E+03</rscale>
<asrwt>0</asrwt>
<pdfrwt beam="2">  1       21 0.37210490E-02 0.13150848E+03</pdfrwt>
<pdfrwt beam="1">  1       -4 0.58116777E-01 0.13150848E+03</pdfrwt>
<totfact> 0.50475678E+04</totfact>
</mgrwt>
</event>
<event>
 6    4  0.6093247E-003  0.1267489E+03  0.7818608E-02  0.1232361E+00
         -4   -1    0    0    0  501 -0.00000000000E+00  0.00000000000E+00  0.77562967431E+01  0.78595826331E+01  0.12700000000E+01 0. -1.
         21   -1    0    0  501  502  0.00000000000E+00 -0.00000000000E+00 -0.70593330247E+03  0.70593330247E+03  0.00000000000E+00 0. -1.
         25    2    1    2    0    0 -0.17174996490E+02 -0.12064028143E+02 -0.62097986325E+03  0.63378330451E+03  0.12499906095E+03 0.  0.
    9000005    1    3    3    0    0  0.22329452904E+02 -0.11955273682E+02 -0.56327058437E+03  0.56384065502E+03  0.10000000000E+01 0.  0.
    9000005    1    3    3    0    0 -0.39504449394E+02 -0.10875446060E+00 -0.57709278876E+02  0.69942649491E+02  0.10000000000E+01 0.  0.
         -4    1    1    2    0  502  0.17174996490E+02  0.12064028143E+02 -0.77197142485E+02  0.80009580597E+02  0.12700000000E+01 0.  1.
<mgrwt>
<rscale>  1 0.12674891E+03</rscale>
<asrwt>0</asrwt>
<pdfrwt beam="2">  1       21 0.10860512E+00 0.12674891E+03</pdfrwt>
<pdfrwt beam="1">  1       -4 0.12013094E-02 0.12674891E+03</pdfrwt>
<totfact> 0.61008520E+04</totfact>
</mgrwt>
</event>
<event>
 6    4  0.6093247E-003  0.1266492E+03  0.7818608E-02  0.1232514E+00
         -4   -1    0    0    0  501 -0.00000000000E+00  0.00000000000E+00  0.81382736060E+02  0.81392644806E+02  0.12700000000E+01 0.  1.
         21   -1    0    0  501  502  0.00000000000E+00 -0.00000000000E+00 -0.20695743066E+03  0.20695743066E+03  0.00000000000E+00 0.  1.
         25    2    1    2    0    0 -0.16326059665E+02 -0.12186466728E+02  0.31050796814E+02  0.13040005914E+03  0.12499989299E+03 0.  0.
    9000005    1    3    3    0    0  0.51509148932E+02 -0.23061789679E+02  0.23982890235E+02  0.61328766423E+02  0.10000000000E+01 0.  0.
    9000005    1    3    3    0    0 -0.67835208597E+02  0.10875322952E+02  0.70679065787E+01  0.69071292720E+02  0.10000000000E+01 0.  0.
         -4    1    1    2    0  502  0.16326059665E+02  0.12186466728E+02 -0.15662549141E+03  0.15795001632E+03  0.12700000000E+01 0. -1.
<mgrwt>
<rscale>  1 0.12664921E+03</rscale>
<asrwt>0</asrwt>
<pdfrwt beam="2">  1       21 0.31839604E-01 0.12664921E+03</pdfrwt>
<pdfrwt beam="1">  1       -4 0.12521483E-01 0.12664921E+03</pdfrwt>
<totfact> 0.19894127E+04</totfact>
</mgrwt>
</event>
<event>
 6    4  0.6093247E-003  0.1317978E+03  0.7818608E-02  0.1224812E+00
         21   -1    0    0  501  502  0.00000000000E+00  0.00000000000E+00  0.51826392418E+03  0.51826392418E+03  0.00000000000E+00 0. -1.
          4   -1    0    0  502    0 -0.00000000000E+00 -0.00000000000E+00 -0.32826108268E+02  0.32850666417E+02  0.12700000000E+01 0.  1.
         25    2    1    2    0    0  0.39397530666E+02  0.13725108902E+02  0.10531368943E+03  0.16870576686E+03  0.12502047254E+03 0.  0.
    9000005    1    3    3    0    0  0.24462485111E+02 -0.53439251882E+02  0.27700704882E+02  0.64980734610E+02  0.10000000000E+01 0.  0.
    9000005    1    3    3    0    0  0.14935045555E+02  0.67164360784E+02  0.77612984551E+02  0.10372503225E+03  0.10000000000E+01 0.  0.
          4    1    1    2  501    0 -0.39397530666E+02 -0.13725108902E+02  0.38012412648E+03  0.38240882373E+03  0.12700000000E+01 0. -1.
<mgrwt>
<rscale>  1 0.13179781E+03</rscale>
<asrwt>0</asrwt>
<pdfrwt beam="1">  1       21 0.79732906E-01 0.13179781E+03</pdfrwt>
<pdfrwt beam="2">  1        4 0.50521797E-02 0.13179781E+03</pdfrwt>
<totfact> 0.13388951E+04</totfact>
</mgrwt>
</event>
<event>
 6    4  0.6093247E-003  0.1299380E+03  0.7818608E-02  0.1227548E+00
          4   -1    0    0  502    0 -0.00000000000E+00  0.00000000000E+00  0.27866786277E+03  0.27867075670E+03  0.12700000000E+01 0.  1.
         21   -1    0    0  501  502  0.00000000000E+00 -0.00000000000E+00 -0.24910764631E+02  0.24910764631E+02  0.00000000000E+00 0.  1.
         25    2    1    2    0    0 -0.14608774421E+02  0.32329364496E+02  0.21326447976E+03  0.24973108826E+03  0.12500109607E+03 0.  0.
    9000005    1    3    3    0    0  0.31757998821E+02 -0.16662177886E+02  0.12592866446E+02  0.38023399984E+02  0.10000000000E+01 0.  0.
    9000005    1    3    3    0    0 -0.46366773242E+02  0.48991542382E+02  0.20067161331E+03  0.21170768827E+03  0.10000000000E+01 0.  0.
          4    1    1    2  501    0  0.14608774421E+02 -0.32329364496E+02  0.40492618378E+02  0.53850433071E+02  0.12700000000E+01 0. -1.
<mgrwt>
<rscale>  1 0.12993798E+03</rscale>
<asrwt>0</asrwt>
<pdfrwt beam="2">  1       21 0.38324255E-02 0.12993798E+03</pdfrwt>
<pdfrwt beam="1">  1        4 0.42874689E-01 0.12993798E+03</pdfrwt>
<totfact> 0.89128229E+04</totfact>
</mgrwt>
</event>
<event>
 6    4  0.6093247E-003  0.1289301E+03  0.7818608E-02  0.1229052E+00
          4   -1    0    0  502    0 -0.00000000000E+00  0.00000000000E+00  0.24741480247E+02  0.24774053863E+02  0.12700000000E+01 0. -1.
         21   -1    0    0  501  502  0.00000000000E+00 -0.00000000000E+00 -0.26838358331E+03  0.26838358331E+03  0.00000000000E+00 0. -1.
         25    2    1    2    0    0 -0.15876519242E+02  0.27329488118E+02 -0.21382294801E+03  0.24968627083E+03  0.12499606377E+03 0.  0.
    9000005    1    3    3    0    0 -0.56509454444E+02 -0.24723499010E+02 -0.86360312822E+02  0.10613045499E+03  0.10000000000E+01 0.  0.
    9000005    1    3    3    0    0  0.40632935201E+02  0.52052987129E+02 -0.12746263519E+03  0.14355581584E+03  0.10000000000E+01 0.  0.
          4    1    1    2  501    0  0.15876519242E+02 -0.27329488118E+02 -0.29819155051E+02  0.43471366347E+02  0.12700000000E+01 0.  1.
<mgrwt>
<rscale>  1 0.12893014E+03</rscale>
<asrwt>0</asrwt>
<pdfrwt beam="2">  1       21 0.41289781E-01 0.12893014E+03</pdfrwt>
<pdfrwt beam="1">  1        4 0.38091185E-02 0.12893014E+03</pdfrwt>
<totfact> 0.84181902E+04</totfact>
</mgrwt>
</event>
<event>
 6    4  0.6093247E-003  0.1266189E+03  0.7818608E-02  0.1232561E+00
         -4   -1    0    0    0  501 -0.00000000000E+00  0.00000000000E+00  0.37353764504E+03  0.37353980398E+03  0.12700000000E+01 0. -1.
         21   -1    0    0  501  502  0.00000000000E+00 -0.00000000000E+00 -0.16025242666E+02  0.16025242666E+02  0.00000000000E+00 0. -1.
         25    2    1    2    0    0  0.71893423587E+01  0.18841944248E+02  0.34004879682E+03  0.36285744613E+03  0.12500254592E+03 0.  0.
    9000005    1    3    3    0    0 -0.54641365323E+02  0.17544149180E+02  0.10343778274E+03  0.11829560801E+03  0.10000000000E+01 0.  0.
    9000005    1    3    3    0    0  0.61830707682E+02  0.12977950677E+01  0.23661101407E+03  0.24456183812E+03  0.10000000000E+01 0.  0.
         -4    1    1    2    0  502 -0.71893423587E+01 -0.18841944248E+02  0.17463605554E+02  0.26707600520E+02  0.12700000000E+01 0.  1.
<mgrwt>
<rscale>  1 0.12661888E+03</rscale>
<asrwt>0</asrwt>
<pdfrwt beam="2">  1       21 0.24654222E-02 0.12661888E+03</pdfrwt>
<pdfrwt beam="1">  1       -4 0.57471360E-01 0.12661888E+03</pdfrwt>
<totfact> 0.10096673E+05</totfact>
</mgrwt>
</event>
<event>
 6    4  0.6093247E-003  0.1558903E+03  0.7818608E-02  0.1193416E+00
          4   -1    0    0  502    0 -0.00000000000E+00  0.00000000000E+00  0.22822399582E+02  0.22857708168E+02  0.12700000000E+01 0.  1.
         21   -1    0    0  501  502  0.00000000000E+00 -0.00000000000E+00 -0.71052036353E+03  0.71052036353E+03  0.00000000000E+00 0. -1.
         25    2    1    2    0    0  0.88347221935E+02  0.29376310449E+02 -0.35136969857E+03  0.38439882557E+03  0.12503436641E+03 0.  0.
    9000005    1    3    3    0    0  0.30882263446E+02  0.26977393942E+02 -0.31201852866E+03  0.31470312392E+03  0.10000000000E+01 0.  0.
    9000005    1    3    3    0    0  0.57464958489E+02  0.23989165073E+01 -0.39351169916E+02  0.69695701649E+02  0.10000000000E+01 0.  0.
          4    1    1    2  501    0 -0.88347221935E+02 -0.29376310449E+02 -0.33632826538E+03  0.34897924613E+03  0.12700000000E+01 0. -1.
<mgrwt>
<rscale>  1 0.15589032E+03</rscale>
<asrwt>0</asrwt>
<pdfrwt beam="2">  1       21 0.10931081E+00 0.15589032E+03</pdfrwt>
<pdfrwt beam="1">  1        4 0.35139421E-02 0.15589032E+03</pdfrwt>
<totfact> 0.11630795E+04</totfact>
</mgrwt>
</event>
<event>
 6    4  0.6093247E-003  0.1788004E+03  0.7818608E-02  0.1168969E+00
         21   -1    0    0  501  502  0.00000000000E+00  0.00000000000E+00  0.18012073150E+02  0.18012073150E+02  0.00000000000E+00 0.  1.
         -4   -1    0    0    0  501 -0.00000000000E+00 -0.00000000000E+00 -0.14268837053E+04  0.14268842705E+04  0.12700000000E+01 0.  1.
         25    2    1    2    0    0 -0.89680776122E+02 -0.91118152370E+02 -0.10197984917E+04  0.10353543057E+04  0.12499766160E+03 0.  0.
    9000005    1    3    3    0    0 -0.94719679845E+02 -0.24605872364E+02 -0.79091707344E+03  0.79694923537E+03  0.10000000000E+01 0.  0.
    9000005    1    3    3    0    0  0.50389037237E+01 -0.66512280006E+02 -0.22888141826E+03  0.23840507035E+03  0.10000000000E+01 0.  0.
         -4    1    1    2    0  502  0.89680776122E+02  0.91118152370E+02 -0.38907314047E+03  0.40954203793E+03  0.12700000000E+01 0. -1.
<mgrwt>
<rscale>  1 0.17880038E+03</rscale>
<asrwt>0</asrwt>
<pdfrwt beam="1">  1       21 0.27710880E-02 0.17880038E+03</pdfrwt>
<pdfrwt beam="2">  1       -4 0.21952407E+00 0.17880038E+03</pdfrwt>
<totfact> 0.33320156E+03</totfact>
</mgrwt>
</event>
<event>
 6    4  0.6093247E-003  0.1296197E+03  0.7818608E-02  0.1228021E+00
          4   -1    0    0  502    0 -0.00000000000E+00  0.00000000000E+00  0.62772877226E+03  0.62773005697E+03  0.12700000000E+01 0. -1.
         21   -1    0    0  501  502  0.00000000000E+00 -0.00000000000E+00 -0.11045357502E+02  0.11045357502E+02  0.00000000000E+00 0. -1.
         25    2    1    2    0    0 -0.34177365098E+02 -0.26938875706E+01  0.43582271384E+03  0.45468968620E+03  0.12500369405E+03 0.  0.
    9000005    1    3    3    0    0  0.37886456325E+02 -0.10037319971E+02  0.28140596340E+03  0.28412400040E+03  0.10000000000E+01 0.  0.
    9000005    1    3    3    0    0 -0.72063821423E+02  0.73434324008E+01  0.15441675044E+03  0.17056568580E+03  0.10000000000E+01 0.  0.
          4    1    1    2  501    0  0.34177365098E+02  0.26938875706E+01  0.18086070092E+03  0.18408572827E+03  0.12700000000E+01 0.  1.
<mgrwt>
<rscale>  1 0.12961972E+03</rscale>
<asrwt>0</asrwt>
<pdfrwt beam="2">  1       21 0.16992863E-02 0.12961972E+03</pdfrwt>
<pdfrwt beam="1">  1        4 0.96579344E-01 0.12961972E+03</pdfrwt>
<totfact> 0.59562884E+04</totfact>
</mgrwt>
</event>
<event>
 6    4  0.6093247E-003  0.1312463E+03  0.7818608E-02  0.1225618E+00
         -4   -1    0    0    0  501 -0.00000000000E+00  0.00000000000E+00  0.10021275989E+04  0.10021284037E+04  0.12700000000E+01 0.  1.
         21   -1    0    0  501  502  0.00000000000E+00 -0.00000000000E+00 -0.18984136523E+02  0.18984136523E+02  0.00000000000E+00 0. -1.
         25    2    1    2    0    0  0.26841844440E+02  0.29665038468E+02  0.97021214105E+03  0.97904912270E+03  0.12500034757E+03 0.  0.
    9000005    1    3    3    0    0  0.18846599995E+02  0.72227911843E+01  0.19645591605E+02  0.28183546856E+02  0.10000000000E+01 0.  0.
    9000005    1    3    3    0    0  0.79952444449E+01  0.22442247284E+02  0.95056654945E+03  0.95086557584E+03  0.10000000000E+01 0.  0.
         -4    1    1    2    0  502 -0.26841844440E+02 -0.29665038468E+02  0.12931321377E+02  0.42063417512E+02  0.12700000000E+01 0. -1.
<mgrwt>
<rscale>  1 0.13124628E+03</rscale>
<asrwt>0</asrwt>
<pdfrwt beam="2">  1       21 0.29206372E-02 0.13124628E+03</pdfrwt>
<pdfrwt beam="1">  1       -4 0.15417677E+00 0.13124628E+03</pdfrwt>
<totfact> 0.80080921E+03</totfact>
</mgrwt>
</event>
<event>
 6    4  0.6093247E-003  0.1268053E+03  0.7818608E-02  0.1232275E+00
         21   -1    0    0  501  502  0.00000000000E+00  0.00000000000E+00  0.13547041344E+02  0.13547041344E+02  0.00000000000E+00 0. -1.
          4   -1    0    0  502    0 -0.00000000000E+00 -0.00000000000E+00 -0.16428588855E+04  0.16428593764E+04  0.12700000000E+01 0.  1.
         25    2    1    2    0    0  0.16539973702E+02  0.13517771640E+02 -0.16300693564E+04  0.16349940941E+04  0.12499312032E+03 0.  0.
    9000005    1    3    3    0    0  0.67158134707E+02 -0.13517784581E+02 -0.78921789567E+03  0.79218610971E+03  0.10000000000E+01 0.  0.
    9000005    1    3    3    0    0 -0.50618161005E+02  0.27035556221E+02 -0.84085146075E+03  0.84280798440E+03  0.10000000000E+01 0.  0.
          4    1    1    2  501    0 -0.16539973702E+02 -0.13517771640E+02  0.75751221897E+00  0.21412323669E+02  0.12700000000E+01 0. -1.
<mgrwt>
<rscale>  1 0.12680529E+03</rscale>
<asrwt>0</asrwt>
<pdfrwt beam="1">  1       21 0.20841601E-02 0.12680529E+03</pdfrwt>
<pdfrwt beam="2">  1        4 0.25275215E+00 0.12680529E+03</pdfrwt>
<totfact> 0.33406971E+03</totfact>
</mgrwt>
</event>
<event>
 6    4  0.6093247E-003  0.1278037E+03  0.7818608E-02  0.1230752E+00
         21   -1    0    0  501  502  0.00000000000E+00  0.00000000000E+00  0.64199906659E+01  0.64199906659E+01  0.00000000000E+00 0. -1.
          4   -1    0    0  502    0 -0.00000000000E+00 -0.00000000000E+00 -0.11375133611E+04  0.11375140700E+04  0.12700000000E+01 0. -1.
         25    2    1    2    0    0 -0.26380266785E+02  0.38008630444E+01 -0.10652540723E+04  0.10728932900E+04  0.12499363180E+03 0.  0.
    9000005    1    3    3    0    0 -0.75753284325E+02  0.55306300612E+01 -0.53935039799E+03  0.54467329636E+03  0.10000000000E+01 0.  0.
    9000005    1    3    3    0    0  0.49373017540E+02 -0.17297670168E+01 -0.52590367434E+03  0.52821999360E+03  0.10000000000E+01 0.  0.
          4    1    1    2  501    0  0.26380266785E+02 -0.38008630444E+01 -0.65839298058E+02  0.71040770719E+02  0.12700000000E+01 0.  1.
<mgrwt>
<rscale>  1 0.12780365E+03</rscale>
<asrwt>0</asrwt>
<pdfrwt beam="1">  1       21 0.98768995E-03 0.12780365E+03</pdfrwt>
<pdfrwt beam="2">  1        4 0.17501194E+00 0.12780365E+03</pdfrwt>
<totfact> 0.32626556E+04</totfact>
</mgrwt>
</event>
<event>
 6    4  0.6093247E-003  0.1308985E+03  0.7818608E-02  0.1226129E+00
         21   -1    0    0  501  502  0.00000000000E+00  0.00000000000E+00  0.26233532156E+03  0.26233532156E+03  0.00000000000E+00 0. -1.
         -4   -1    0    0    0  501 -0.00000000000E+00 -0.00000000000E+00 -0.37223810474E+02  0.37245469070E+02  0.12700000000E+01 0.  1.
         25    2    1    2    0    0 -0.31005932208E+02  0.23406060249E+02  0.89656082756E+02  0.15865883545E+03  0.12500080561E+03 0.  0.
    9000005    1    3    3    0    0 -0.46528104274E+02  0.23993508430E+02 -0.13711887010E+02  0.54125491033E+02  0.10000000000E+01 0.  0.
    9000005    1    3    3    0    0  0.15522172066E+02 -0.58744818153E+00  0.10336796977E+03  0.10453334441E+03  0.10000000000E+01 0.  0.
         -4    1    1    2    0  502  0.31005932208E+02 -0.23406060249E+02  0.13545542833E+03  0.14092195519E+03  0.12700000000E+01 0. -1.
<mgrwt>
<rscale>  1 0.13089848E+03</rscale>
<asrwt>0</asrwt>
<pdfrwt beam="1">  1       21 0.40359279E-01 0.13089848E+03</pdfrwt>
<pdfrwt beam="2">  1       -4 0.57286428E-02 0.13089848E+03</pdfrwt>
<totfact> 0.45942865E+04</totfact>
</mgrwt>
</event>
<event>
 6    4  0.6093247E-003  0.1546268E+03  0.7818608E-02  0.1194900E+00
          4   -1    0    0  502    0 -0.00000000000E+00  0.00000000000E+00  0.77957503790E+03  0.77957607237E+03  0.12700000000E+01 0.  1.
         21   -1    0    0  501  502  0.00000000000E+00 -0.00000000000E+00 -0.22031173340E+02  0.22031173340E+02  0.00000000000E+00 0. -1.
         25    2    1    2    0    0 -0.79823975350E+02 -0.43716701250E+02  0.60054442309E+03  0.62013147727E+03  0.12500571183E+03 0.  0.
    9000005    1    3    3    0    0 -0.10072026314E+03 -0.68311732676E+02  0.49606757290E+03  0.51077891608E+03  0.10000000000E+01 0.  0.
    9000005    1    3    3    0    0  0.20896287786E+02  0.24595031425E+02  0.10447685019E+03  0.10935256119E+03  0.10000000000E+01 0.  0.
          4    1    1    2  501    0  0.79823975350E+02  0.43716701250E+02  0.15699944147E+03  0.18147576844E+03  0.12700000000E+01 0. -1.
<mgrwt>
<rscale>  1 0.15462679E+03</rscale>
<asrwt>0</asrwt>
<pdfrwt beam="2">  1       21 0.33894119E-02 0.15462679E+03</pdfrwt>
<pdfrwt beam="1">  1        4 0.11993750E+00 0.15462679E+03</pdfrwt>
<totfact> 0.11858398E+04</totfact>
</mgrwt>
</event>
<event>
 6    4  0.6093247E-003  0.1367735E+03  0.7818608E-02  0.1217738E+00
          4   -1    0    0  502    0 -0.00000000000E+00  0.00000000000E+00  0.21791922586E+03  0.21792292651E+03  0.12700000000E+01 0. -1.
         21   -1    0    0  501  502  0.00000000000E+00 -0.00000000000E+00 -0.51207504319E+02  0.51207504319E+02  0.00000000000E+00 0.  1.
         25    2    1    2    0    0 -0.34148042731E+02 -0.43770434365E+02  0.16398048395E+03  0.21353355767E+03  0.12500016555E+03 0.  0.
    9000005    1    3    3    0    0 -0.54387268971E+02  0.28429175263E+02  0.65669064828E+02  0.89886701506E+02  0.10000000000E+01 0.  0.
    9000005    1    3    3    0    0  0.20239226240E+02 -0.72199609628E+02  0.98311419118E+02  0.12364685616E+03  0.10000000000E+01 0.  0.
          4    1    1    2  501    0  0.34148042731E+02  0.43770434365E+02  0.27312375941E+01  0.55596873165E+02  0.12700000000E+01 0.  1.
<mgrwt>
<rscale>  1 0.13677347E+03</rscale>
<asrwt>0</asrwt>
<pdfrwt beam="2">  1       21 0.78780777E-02 0.13677347E+03</pdfrwt>
<pdfrwt beam="1">  1        4 0.33527530E-01 0.13677347E+03</pdfrwt>
<totfact> 0.42906668E+04</totfact>
</mgrwt>
</event>
<event>
 6    4  0.6093247E-003  0.1463091E+03  0.7818608E-02  0.1205083E+00
         -4   -1    0    0    0  501 -0.00000000000E+00  0.00000000000E+00  0.10338035960E+03  0.10338816011E+03  0.12700000000E+01 0. -1.
         21   -1    0    0  501  502  0.00000000000E+00 -0.00000000000E+00 -0.71059184009E+03  0.71059184009E+03  0.00000000000E+00 0.  1.
         25    2    1    2    0    0 -0.15759760522E+02 -0.74388984938E+02  0.48297122795E+02  0.15407452741E+03  0.12499702714E+03 0.  0.
    9000005    1    3    3    0    0  0.28930917345E+02 -0.93352776509E+02  0.31300083276E+02  0.10262764771E+03  0.10000000000E+01 0.  0.
    9000005    1    3    3    0    0 -0.44690677867E+02  0.18963791571E+02  0.16997039519E+02  0.51446879705E+02  0.10000000000E+01 0.  0.
         -4    1    1    2    0  502  0.15759760522E+02  0.74388984938E+02 -0.65550860329E+03  0.65990547279E+03  0.12700000000E+01 0.  1.
<mgrwt>
<rscale>  1 0.14630908E+03</rscale>
<asrwt>0</asrwt>
<pdfrwt beam="2">  1       21 0.10932182E+00 0.14630908E+03</pdfrwt>
<pdfrwt beam="1">  1       -4 0.15905358E-01 0.14630908E+03</pdfrwt>
<totfact> 0.94853084E+02</totfact>
</mgrwt>
</event>
<event>
 6    4  0.6093247E-003  0.1270413E+03  0.7818608E-02  0.1231913E+00
          4   -1    0    0  502    0 -0.00000000000E+00  0.00000000000E+00  0.15131092201E+04  0.15131097531E+04  0.12700000000E+01 0. -1.
         21   -1    0    0  501  502  0.00000000000E+00 -0.00000000000E+00 -0.66381702736E+01  0.66381702736E+01  0.00000000000E+00 0.  1.
         25    2    1    2    0    0 -0.22299308552E+02 -0.41164474552E+01  0.14774234915E+04  0.14828754696E+04  0.12500112300E+03 0.  0.
    9000005    1    3    3    0    0  0.43338269891E+01  0.37062531652E+02  0.15100731934E+03  0.15555263998E+03  0.10000000000E+01 0.  0.
    9000005    1    3    3    0    0 -0.26633135541E+02 -0.41178979107E+02  0.13264161722E+04  0.13273228296E+04  0.10000000000E+01 0.  0.
          4    1    1    2  501    0  0.22299308552E+02  0.41164474552E+01  0.29047558293E+02  0.36872453733E+02  0.12700000000E+01 0.  1.
<mgrwt>
<rscale>  1 0.12704127E+03</rscale>
<asrwt>0</asrwt>
<pdfrwt beam="2">  1       21 0.10212582E-02 0.12704127E+03</pdfrwt>
<pdfrwt beam="1">  1        4 0.23279514E+00 0.12704127E+03</pdfrwt>
<totfact> 0.13601026E+04</totfact>
</mgrwt>
</event>
<event>
 6    4  0.6093247E-003  0.1369043E+03  0.7818608E-02  0.1217556E+00
         21   -1    0    0  501  502  0.00000000000E+00  0.00000000000E+00  0.62876398840E+02  0.62876398840E+02  0.00000000000E+00 0.  1.
         -4   -1    0    0    0  501 -0.00000000000E+00 -0.00000000000E+00 -0.46128833810E+03  0.46129008635E+03  0.12700000000E+01 0. -1.
         25    2    1    2    0    0 -0.44834710405E+02 -0.33278906362E+02 -0.43590521849E+03  0.45689839652E+03  0.12500059348E+03 0.  0.
    9000005    1    3    3    0    0 -0.86144718619E+02 -0.39355937333E+02 -0.31854090757E+03  0.33232380617E+03  0.10000000000E+01 0.  0.
    9000005    1    3    3    0    0  0.41310008214E+02  0.60770309717E+01 -0.11736431092E+03  0.12457459035E+03  0.10000000000E+01 0.  0.
         -4    1    1    2    0  502  0.44834710405E+02  0.33278906362E+02  0.37493279233E+02  0.67268088670E+02  0.12700000000E+01 0.  1.
<mgrwt>
<rscale>  1 0.13690429E+03</rscale>
<asrwt>0</asrwt>
<pdfrwt beam="1">  1       21 0.96732924E-02 0.13690429E+03</pdfrwt>
<pdfrwt beam="2">  1       -4 0.70968555E-01 0.13690429E+03</pdfrwt>
<totfact> 0.65406063E+03</totfact>
</mgrwt>
</event>
<event>
 6    4  0.6093247E-003  0.1447933E+03  0.7818608E-02  0.1207021E+00
          4   -1    0    0  502    0 -0.00000000000E+00  0.00000000000E+00  0.31040866534E+02  0.31066835938E+02  0.12700000000E+01 0.  1.
         21   -1    0    0  501  502  0.00000000000E+00 -0.00000000000E+00 -0.43892945637E+03  0.43892945637E+03  0.00000000000E+00 0. -1.
         25    2    1    2    0    0 -0.58170312813E+02  0.44232289339E+02 -0.18195751452E+03  0.23253736027E+03  0.12499922446E+03 0.  0.
    9000005    1    3    3    0    0  0.34053656644E+01  0.74145876190E+02 -0.74844176625E+02  0.10541279925E+03  0.10000000000E+01 0.  0.
    9000005    1    3    3    0    0 -0.61575678478E+02 -0.29913586851E+02 -0.10711333790E+03  0.12712456102E+03  0.10000000000E+01 0.  0.
          4    1    1    2  501    0  0.58170312813E+02 -0.44232289339E+02 -0.22593107531E+03  0.23745893204E+03  0.12700000000E+01 0. -1.
<mgrwt>
<rscale>  1 0.14479326E+03</rscale>
<asrwt>0</asrwt>
<pdfrwt beam="2">  1       21 0.67527605E-01 0.14479326E+03</pdfrwt>
<pdfrwt beam="1">  1        4 0.47776572E-02 0.14479326E+03</pdfrwt>
<totfact> 0.21273585E+04</totfact>
</mgrwt>
</event>
<event>
 6    4  0.6093247E-003  0.1273301E+03  0.7818608E-02  0.1231472E+00
         21   -1    0    0  501  502  0.00000000000E+00  0.00000000000E+00  0.56899585193E+03  0.56899585193E+03  0.00000000000E+00 0. -1.
         -4   -1    0    0    0  501 -0.00000000000E+00 -0.00000000000E+00 -0.26710087177E+02  0.26740262844E+02  0.12700000000E+01 0.  1.
         25    2    1    2    0    0  0.21767895641E+02  0.10716389025E+02  0.12733753030E+03  0.18007720118E+03  0.12499707792E+03 0.  0.
    9000005    1    3    3    0    0  0.59452746266E+02 -0.33122312711E+02  0.55239555324E+02  0.87659141624E+02  0.10000000000E+01 0.  0.
    9000005    1    3    3    0    0 -0.37684850624E+02  0.43838701736E+02  0.72097974974E+02  0.92418059554E+02  0.10000000000E+01 0.  0.
         -4    1    1    2    0  502 -0.21767895641E+02 -0.10716389025E+02  0.41494823445E+03  0.41565891360E+03  0.12700000000E+01 0. -1.
<mgrwt>
<rscale>  1 0.12733009E+03</rscale>
<asrwt>0</asrwt>
<pdfrwt beam="1">  1       21 0.87537815E-01 0.12733009E+03</pdfrwt>
<pdfrwt beam="2">  1       -4 0.41116748E-02 0.12733009E+03</pdfrwt>
<totfact> 0.15037809E+04</totfact>
</mgrwt>
</event>
<event>
 6    4  0.6093247E-003  0.1273542E+03  0.7818608E-02  0.1231435E+00
          4   -1    0    0  502    0 -0.00000000000E+00  0.00000000000E+00  0.16124485773E+03  0.16124985905E+03  0.12700000000E+01 0.  1.
         21   -1    0    0  501  502  0.00000000000E+00 -0.00000000000E+00 -0.41413097491E+02  0.41413097491E+02  0.00000000000E+00 0. -1.
         25    2    1    2    0    0  0.24237140006E+02  0.24958562624E+01  0.12418507275E+03  0.17787924246E+03  0.12500169739E+03 0.  0.
    9000005    1    3    3    0    0  0.28871960919E+02 -0.54655261575E+02  0.32780111848E+02  0.69973734201E+02  0.10000000000E+01 0.  0.
    9000005    1    3    3    0    0 -0.46348209130E+01  0.57151117838E+02  0.91404960899E+02  0.10790550826E+03  0.10000000000E+01 0.  0.
          4    1    1    2  501    0 -0.24237140006E+02 -0.24958562624E+01 -0.43533125086E+01  0.24783714087E+02  0.12700000000E+01 0. -1.
<mgrwt>
<rscale>  1 0.12735420E+03</rscale>
<asrwt>0</asrwt>
<pdfrwt beam="2">  1       21 0.63712459E-02 0.12735420E+03</pdfrwt>
<pdfrwt beam="1">  1        4 0.24808783E-01 0.12735420E+03</pdfrwt>
<totfact> 0.10768114E+05</totfact>
</mgrwt>
</event>
<event>
 6    4  0.6093247E-003  0.1327213E+03  0.7818608E-02  0.1223473E+00
          4   -1    0    0  502    0 -0.00000000000E+00  0.00000000000E+00  0.38278960810E+02  0.38300022725E+02  0.12700000000E+01 0.  1.
         21   -1    0    0  501  502  0.00000000000E+00 -0.00000000000E+00 -0.11504951987E+04  0.11504951987E+04  0.00000000000E+00 0. -1.
         25    2    1    2    0    0  0.12356787846E+02 -0.42865241621E+02 -0.78668545227E+02  0.15428443605E+03  0.12499931222E+03 0.  0.
    9000005    1    3    3    0    0 -0.54427833001E+01 -0.66039237662E+02  0.42055287605E+01  0.66404000431E+02  0.10000000000E+01 0.  0.
    9000005    1    3    3    0    0  0.17799571146E+02  0.23173996041E+02 -0.82874073988E+02  0.87880435620E+02  0.10000000000E+01 0.  0.
          4    1    1    2  501    0 -0.12356787846E+02  0.42865241621E+02 -0.10335476926E+04  0.10345107853E+04  0.12700000000E+01 0. -1.
<mgrwt>
<rscale>  1 0.13272131E+03</rscale>
<asrwt>0</asrwt>
<pdfrwt beam="2">  1       21 0.17699925E+00 0.13272131E+03</pdfrwt>
<pdfrwt beam="1">  1        4 0.58907454E-02 0.13272131E+03</pdfrwt>
<totfact> 0.14774285E+03</totfact>
</mgrwt>
</event>
<event>
 6    4  0.6093247E-003  0.1323974E+03  0.7818608E-02  0.1223941E+00
         21   -1    0    0  501  502  0.00000000000E+00  0.00000000000E+00  0.25593811346E+03  0.25593811346E+03  0.00000000000E+00 0.  1.
         -4   -1    0    0    0  501 -0.00000000000E+00 -0.00000000000E+00 -0.40075839240E+02  0.40095957287E+02  0.12700000000E+01 0.  1.
         25    2    1    2    0    0 -0.33881815843E+02  0.27482360224E+02  0.21486152497E+03  0.25237777719E+03  0.12500323972E+03 0.  0.
    9000005    1    3    3    0    0  0.27624463308E+02 -0.33457784672E+02  0.95671194497E+02  0.10505480372E+03  0.10000000000E+01 0.  0.
    9000005    1    3    3    0    0 -0.61506279152E+02  0.60940144896E+02  0.11919033047E+03  0.14732297347E+03  0.10000000000E+01 0.  0.
         -4    1    1    2    0  502  0.33881815843E+02 -0.27482360224E+02  0.10007492583E+01  0.43656293560E+02  0.12700000000E+01 0. -1.
<mgrwt>
<rscale>  1 0.13239738E+03</rscale>
<asrwt>0</asrwt>
<pdfrwt beam="1">  1       21 0.39375093E-01 0.13239738E+03</pdfrwt>
<pdfrwt beam="2">  1       -4 0.61673038E-02 0.13239738E+03</pdfrwt>
<totfact> 0.42874330E+04</totfact>
</mgrwt>
</event>
<event>
 6    4  0.6093247E-003  0.1276938E+03  0.7818608E-02  0.1230918E+00
         21   -1    0    0  501  502  0.00000000000E+00  0.00000000000E+00  0.60713356505E+03  0.60713356505E+03  0.00000000000E+00 0.  1.
         -4   -1    0    0    0  501 -0.00000000000E+00 -0.00000000000E+00 -0.15289329718E+02  0.15341984983E+02  0.12700000000E+01 0.  1.
         25    2    1    2    0    0  0.11739039760E+02  0.23303876261E+02  0.26060772168E+03  0.29021042009E+03  0.12499931049E+03 0.  0.
    9000005    1    3    3    0    0 -0.24987440943E+01  0.74224184548E+02  0.13892123549E+03  0.15752962567E+03  0.10000000000E+01 0.  0.
    9000005    1    3    3    0    0  0.14237783854E+02 -0.50920308287E+02  0.12168648620E+03  0.13268079442E+03  0.10000000000E+01 0.  0.
         -4    1    1    2    0  502 -0.11739039760E+02 -0.23303876261E+02  0.33123651365E+03  0.33226512994E+03  0.12700000000E+01 0. -1.
<mgrwt>
<rscale>  1 0.12769379E+03</rscale>
<asrwt>0</asrwt>
<pdfrwt beam="1">  1       21 0.93405146E-01 0.12769379E+03</pdfrwt>
<pdfrwt beam="2">  1       -4 0.23563576E-02 0.12769379E+03</pdfrwt>
<totfact> 0.31031726E+04</totfact>
</mgrwt>
</event>
<event>
 6    4  0.6093247E-003  0.1439305E+03  0.7818608E-02  0.1208136E+00
         21   -1    0    0  501  502  0.00000000000E+00  0.00000000000E+00  0.27369277527E+03  0.27369277527E+03  0.00000000000E+00 0. -1.
         -4   -1    0    0    0  501 -0.00000000000E+00 -0.00000000000E+00 -0.44781057454E+02  0.44799062565E+02  0.12700000000E+01 0. -1.
         25    2    1    2    0    0 -0.62418688471E+02  0.34565804473E+02  0.18613279695E+03  0.23529005612E+03  0.12500041960E+03 0.  0.
    9000005    1    3    3    0    0 -0.64607042281E+02 -0.20334298932E+02  0.16137916641E+03  0.17501939601E+03  0.10000000000E+01 0.  0.
    9000005    1    3    3    0    0  0.21883538102E+01  0.54900103405E+02  0.24753630535E+02  0.60270660117E+02  0.10000000000E+01 0.  0.
         -4    1    1    2    0  502  0.62418688471E+02 -0.34565804473E+02  0.42778920864E+02  0.83201781709E+02  0.12700000000E+01 0.  1.
<mgrwt>
<rscale>  1 0.14393051E+03</rscale>
<asrwt>0</asrwt>
<pdfrwt beam="1">  1       21 0.42106580E-01 0.14393051E+03</pdfrwt>
<pdfrwt beam="2">  1       -4 0.68910053E-02 0.14393051E+03</pdfrwt>
<totfact> 0.31519801E+04</totfact>
</mgrwt>
</event>
<event>
 6    4  0.6093247E-003  0.1547921E+03  0.7818608E-02  0.1194705E+00
         -4   -1    0    0    0  501 -0.00000000000E+00  0.00000000000E+00  0.57452940213E+02  0.57466975204E+02  0.12700000000E+01 0.  1.
         21   -1    0    0  501  502  0.00000000000E+00 -0.00000000000E+00 -0.41395876546E+03  0.41395876546E+03  0.00000000000E+00 0. -1.
         25    2    1    2    0    0 -0.59239046005E+02  0.69438706893E+02 -0.68448129670E+02  0.16925054733E+03  0.12501840956E+03 0.  0.
    9000005    1    3    3    0    0 -0.91898754387E+02  0.17808594864E+02 -0.44026243992E+02  0.10344968472E+03  0.10000000000E+01 0.  0.
    9000005    1    3    3    0    0  0.32659708382E+02  0.51630112029E+02 -0.24421885677E+02  0.65800862606E+02  0.10000000000E+01 0.  0.
         -4    1    1    2    0  502  0.59239046005E+02 -0.69438706893E+02 -0.28805769558E+03  0.30217519333E+03  0.12700000000E+01 0. -1.
<mgrwt>
<rscale>  1 0.15479212E+03</rscale>
<asrwt>0</asrwt>
<pdfrwt beam="2">  1       21 0.63685965E-01 0.15479212E+03</pdfrwt>
<pdfrwt beam="1">  1       -4 0.88401432E-02 0.15479212E+03</pdfrwt>
<totfact> 0.88574960E+03</totfact>
</mgrwt>
</event>
<event>
 6    4  0.6093247E-003  0.1295740E+03  0.7818608E-02  0.1228089E+00
         -4   -1    0    0    0  501 -0.00000000000E+00  0.00000000000E+00  0.41802185457E+02  0.41821473060E+02  0.12700000000E+01 0. -1.
         21   -1    0    0  501  502  0.00000000000E+00 -0.00000000000E+00 -0.36335232877E+03  0.36335232877E+03  0.00000000000E+00 0.  1.
         25    2    1    2    0    0  0.34095647794E+02  0.30628657140E+01 -0.62484628708E+02  0.14385321691E+03  0.12497009581E+03 0.  0.
    9000005    1    3    3    0    0 -0.21389886774E+02 -0.48998125168E+02 -0.24946352946E+02  0.59005627287E+02  0.10000000000E+01 0.  0.
    9000005    1    3    3    0    0  0.55485534568E+02  0.52060990882E+02 -0.37538275762E+02  0.84847589625E+02  0.10000000000E+01 0.  0.
         -4    1    1    2    0  502 -0.34095647794E+02 -0.30628657140E+01 -0.25906551461E+03  0.26132058492E+03  0.12700000000E+01 0.  1.
<mgrwt>
<rscale>  1 0.12957399E+03</rscale>
<asrwt>0</asrwt>
<pdfrwt beam="2">  1       21 0.55900359E-01 0.12957399E+03</pdfrwt>
<pdfrwt beam="1">  1       -4 0.64327597E-02 0.12957399E+03</pdfrwt>
<totfact> 0.19502304E+04</totfact>
</mgrwt>
</event>
<event>
 6    4  0.6093247E-003  0.1300369E+03  0.7818608E-02  0.1227401E+00
         21   -1    0    0  501  502  0.00000000000E+00  0.00000000000E+00  0.14966478785E+02  0.14966478785E+02  0.00000000000E+00 0.  1.
          4   -1    0    0  502    0 -0.00000000000E+00 -0.00000000000E+00 -0.46239172892E+03  0.46239347300E+03  0.12700000000E+01 0.  1.
         25    2    1    2    0    0 -0.13763882696E+02 -0.33112392773E+02 -0.33526877942E+03  0.35960358531E+03  0.12499483627E+03 0.  0.
    9000005    1    3    3    0    0  0.25600705340E+02 -0.57120404323E+01 -0.60885331650E+01  0.26946126919E+02  0.10000000000E+01 0.  0.
    9000005    1    3    3    0    0 -0.39364588036E+02 -0.27400352341E+02 -0.32918024626E+03  0.33265745839E+03  0.10000000000E+01 0.  0.
          4    1    1    2  501    0  0.13763882696E+02  0.33112392773E+02 -0.11215647072E+03  0.11775636648E+03  0.12700000000E+01 0. -1.
<mgrwt>
<rscale>  1 0.13003686E+03</rscale>
<asrwt>0</asrwt>
<pdfrwt beam="1">  1       21 0.23025353E-02 0.13003686E+03</pdfrwt>
<pdfrwt beam="2">  1        4 0.71141465E-01 0.13003686E+03</pdfrwt>
<totfact> 0.72036505E+04</totfact>
</mgrwt>
</event>
<event>
 6    4  0.6093247E-003  0.1277308E+03  0.7818608E-02  0.1230862E+00
         21   -1    0    0  501  502  0.00000000000E+00  0.00000000000E+00  0.45195334052E+01  0.45195334052E+01  0.00000000000E+00 0.  1.
          4   -1    0    0  502    0 -0.00000000000E+00 -0.00000000000E+00 -0.13124282045E+04  0.13124288189E+04  0.12700000000E+01 0.  1.
         25    2    1    2    0    0 -0.15960416075E+02 -0.20872981658E+02 -0.10824769197E+04  0.10899868938E+04  0.12499892286E+03 0.  0.
    9000005    1    3    3    0    0 -0.16459535523E+02 -0.22076898297E+02 -0.10858686849E+04  0.10862182592E+04  0.10000000000E+01 0.  0.
    9000005    1    3    3    0    0  0.49911944827E+00  0.12039166395E+01  0.33917652087E+01  0.37686345975E+01  0.10000000000E+01 0.  0.
          4    1    1    2  501    0  0.15960416075E+02  0.20872981658E+02 -0.22543175135E+03  0.22696145853E+03  0.12700000000E+01 0. -1.
<mgrwt>
<rscale>  1 0.12773076E+03</rscale>
<asrwt>0</asrwt>
<pdfrwt beam="1">  1       21 0.69531291E-03 0.12773076E+03</pdfrwt>
<pdfrwt beam="2">  1        4 0.20192578E+00 0.12773076E+03</pdfrwt>
<totfact> 0.38032101E+04</totfact>
</mgrwt>
</event>
<event>
 6    4  0.6093247E-003  0.1326650E+03  0.7818608E-02  0.1223554E+00
         -4   -1    0    0    0  501 -0.00000000000E+00  0.00000000000E+00  0.52646263138E+03  0.52646416320E+03  0.12700000000E+01 0. -1.
         21   -1    0    0  501  502  0.00000000000E+00 -0.00000000000E+00 -0.17395728465E+02  0.17395728465E+02  0.00000000000E+00 0. -1.
         25    2    1    2    0    0 -0.40783224714E+02 -0.17650561854E+02  0.45454988518E+03  0.47351408956E+03  0.12500072457E+03 0.  0.
    9000005    1    3    3    0    0 -0.70746069976E+02 -0.51219424344E+02  0.31499858459E+03  0.32688460371E+03  0.10000000000E+01 0.  0.
    9000005    1    3    3    0    0  0.29962845261E+02  0.33568862490E+02  0.13955130059E+03  0.14662948585E+03  0.10000000000E+01 0.  0.
         -4    1    1    2    0  502  0.40783224714E+02  0.17650561854E+02  0.54517017730E+02  0.70345802106E+02  0.12700000000E+01 0.  1.
<mgrwt>
<rscale>  1 0.13266497E+03</rscale>
<asrwt>0</asrwt>
<pdfrwt beam="2">  1       21 0.26762663E-02 0.13266497E+03</pdfrwt>
<pdfrwt beam="1">  1       -4 0.80997923E-01 0.13266497E+03</pdfrwt>
<totfact> 0.42570140E+04</totfact>
</mgrwt>
</event>
<event>
 6    4  0.6093247E-003  0.1294425E+03  0.7818608E-02  0.1228285E+00
         -4   -1    0    0    0  501 -0.00000000000E+00  0.00000000000E+00  0.98550141599E+02  0.98558324403E+02  0.12700000000E+01 0.  1.
         21   -1    0    0  501  502  0.00000000000E+00 -0.00000000000E+00 -0.16016692749E+03  0.16016692749E+03  0.00000000000E+00 0.  1.
         25    2    1    2    0    0 -0.14236247899E+02  0.30519128770E+02  0.52539304793E+02  0.13969872579E+03  0.12498506897E+03 0.  0.
    9000005    1    3    3    0    0  0.53398722272E+02  0.30859084093E+02  0.22095521742E+02  0.65520368531E+02  0.10000000000E+01 0.  0.
    9000005    1    3    3    0    0 -0.67634970171E+02 -0.33995532326E+00  0.30443783051E+02  0.74178357262E+02  0.10000000000E+01 0.  0.
         -4    1    1    2    0  502  0.14236247899E+02 -0.30519128770E+02 -0.11415609068E+03  0.11902652610E+03  0.12700000000E+01 0. -1.
<mgrwt>
<rscale>  1 0.12944248E+03</rscale>
<asrwt>0</asrwt>
<pdfrwt beam="2">  1       21 0.24641066E-01 0.12944248E+03</pdfrwt>
<pdfrwt beam="1">  1       -4 0.15162577E-01 0.12944248E+03</pdfrwt>
<totfact> 0.23381845E+04</totfact>
</mgrwt>
</event>
<event>
 6    4  0.6093247E-003  0.1272717E+03  0.7818608E-02  0.1231561E+00
          4   -1    0    0  502    0 -0.00000000000E+00  0.00000000000E+00  0.39375738793E+03  0.39375943601E+03  0.12700000000E+01 0. -1.
         21   -1    0    0  501  502  0.00000000000E+00 -0.00000000000E+00 -0.17813934646E+02  0.17813934646E+02  0.00000000000E+00 0.  1.
         25    2    1    2    0    0 -0.14144384601E+02 -0.19327774696E+02  0.36224599026E+03  0.38395345242E+03  0.12499787867E+03 0.  0.
    9000005    1    3    3    0    0 -0.43759410428E+02  0.38910580617E+02  0.12795502029E+03  0.14072102367E+03  0.10000000000E+01 0.  0.
    9000005    1    3    3    0    0  0.29615025827E+02 -0.58238355313E+02  0.23429096997E+03  0.24323242875E+03  0.10000000000E+01 0.  0.
          4    1    1    2  501    0  0.14144384601E+02  0.19327774696E+02  0.13697463020E+02  0.27619918241E+02  0.12700000000E+01 0.  1.
<mgrwt>
<rscale>  1 0.12727174E+03</rscale>
<asrwt>0</asrwt>
<pdfrwt beam="2">  1       21 0.27406056E-02 0.12727174E+03</pdfrwt>
<pdfrwt beam="1">  1        4 0.60581693E-01 0.12727174E+03</pdfrwt>
<totfact> 0.76166898E+04</totfact>
</mgrwt>
</event>
<event>
 6    4  0.6093247E-003  0.1310511E+03  0.7818608E-02  0.1225904E+00
         -4   -1    0    0    0  501 -0.00000000000E+00  0.00000000000E+00  0.19096693021E+03  0.19097115315E+03  0.12700000000E+01 0.  1.
         21   -1    0    0  501  502  0.00000000000E+00 -0.00000000000E+00 -0.42538628643E+02  0.42538628643E+02  0.00000000000E+00 0.  1.
         25    2    1    2    0    0  0.16511604429E+02 -0.35734185774E+02  0.14263913759E+03  0.19370158623E+03  0.12499926329E+03 0.  0.
    9000005    1    3    3    0    0  0.34116712688E+02 -0.52017917099E+02  0.15477084380E+03  0.16680775724E+03  0.10000000000E+01 0.  0.
    9000005    1    3    3    0    0 -0.17605108259E+02  0.16283731325E+02 -0.12131706208E+02  0.26893828998E+02  0.10000000000E+01 0.  0.
         -4    1    1    2    0  502 -0.16511604429E+02  0.35734185774E+02  0.57891639764E+01  0.39808195555E+02  0.12700000000E+01 0. -1.
<mgrwt>
<rscale>  1 0.13105106E+03</rscale>
<asrwt>0</asrwt>
<pdfrwt beam="2">  1       21 0.65444045E-02 0.13105106E+03</pdfrwt>
<pdfrwt beam="1">  1       -4 0.29381310E-01 0.13105106E+03</pdfrwt>
<totfact> 0.75384727E+04</totfact>
</mgrwt>
</event>
<event>
 6    4  0.6093247E-003  0.1271706E+03  0.7818608E-02  0.1231715E+00
          4   -1    0    0  502    0 -0.00000000000E+00  0.00000000000E+00  0.22444953088E+03  0.22445312386E+03  0.12700000000E+01 0. -1.
         21   -1    0    0  501  502  0.00000000000E+00 -0.00000000000E+00 -0.43307992856E+02  0.43307992856E+02  0.00000000000E+00 0.  1.
         25    2    1    2    0    0  0.83610929294E+01  0.21847777599E+02  0.20046031649E+03  0.23739565340E+03  0.12500049802E+03 0.  0.
    9000005    1    3    3    0    0 -0.19547218636E+01 -0.49163577870E+02  0.47308338420E+02  0.68263879253E+02  0.10000000000E+01 0.  0.
    9000005    1    3    3    0    0  0.10315814793E+02  0.71011355469E+02  0.15315197807E+03  0.16913177415E+03  0.10000000000E+01 0.  0.
          4    1    1    2  501    0 -0.83610929294E+01 -0.21847777599E+02 -0.19318778467E+02  0.30365463317E+02  0.12700000000E+01 0.  1.
<mgrwt>
<rscale>  1 0.12717059E+03</rscale>
<asrwt>0</asrwt>
<pdfrwt beam="2">  1       21 0.66627683E-02 0.12717059E+03</pdfrwt>
<pdfrwt beam="1">  1        4 0.34532405E-01 0.12717059E+03</pdfrwt>
<totfact> 0.53543490E+04</totfact>
</mgrwt>
</event>
<event>
 6    4  0.6093247E-003  0.1273582E+03  0.7818608E-02  0.1231429E+00
         21   -1    0    0  501  502  0.00000000000E+00  0.00000000000E+00  0.63095302938E+02  0.63095302938E+02  0.00000000000E+00 0.  1.
         -4   -1    0    0    0  501 -0.00000000000E+00 -0.00000000000E+00 -0.91301791694E+02  0.91310624062E+02  0.12700000000E+01 0.  1.
         25    2    1    2    0    0 -0.24147167139E+02 -0.34639390405E+01 -0.24633420325E+02  0.12971859680E+03  0.12500009761E+03 0.  0.
    9000005    1    3    3    0    0  0.20668367092E+02 -0.54834452477E+02 -0.52808498118E+01  0.58846290889E+02  0.10000000000E+01 0.  0.
    9000005    1    3    3    0    0 -0.44815534232E+02  0.51370513436E+02 -0.19352570513E+02  0.70872305907E+02  0.10000000000E+01 0.  0.
         -4    1    1    2    0  502  0.24147167139E+02  0.34639390405E+01 -0.35730684314E+01  0.24687330203E+02  0.12700000000E+01 0. -1.
<mgrwt>
<rscale>  1 0.12735819E+03</rscale>
<asrwt>0</asrwt>
<pdfrwt beam="1">  1       21 0.97069697E-02 0.12735819E+03</pdfrwt>
<pdfrwt beam="2">  1       -4 0.14048092E-01 0.12735819E+03</pdfrwt>
<totfact> 0.14386239E+05</totfact>
</mgrwt>
</event>
<event>
 6    4  0.6093247E-003  0.1287653E+03  0.7818608E-02  0.1229299E+00
         -4   -1    0    0    0  501 -0.00000000000E+00  0.00000000000E+00  0.63805315584E+03  0.63805441976E+03  0.12700000000E+01 0. -1.
         21   -1    0    0  501  502  0.00000000000E+00 -0.00000000000E+00 -0.54655814837E+02  0.54655814837E+02  0.00000000000E+00 0.  1.
         25    2    1    2    0    0 -0.11024434268E+02  0.28875136268E+02  0.62653354404E+03  0.63962863177E+03  0.12500077246E+03 0.  0.
    9000005    1    3    3    0    0  0.25478955727E+02  0.40416181754E+02  0.91510903374E+02  0.10323705909E+03  0.10000000000E+01 0.  0.
    9000005    1    3    3    0    0 -0.36503389995E+02 -0.11541045485E+02  0.53502264067E+03  0.53639157268E+03  0.10000000000E+01 0.  0.
         -4    1    1    2    0  502  0.11024434268E+02 -0.28875136268E+02 -0.43136203047E+02  0.53081602828E+02  0.12700000000E+01 0.  1.
<mgrwt>
<rscale>  1 0.12876531E+03</rscale>
<asrwt>0</asrwt>
<pdfrwt beam="2">  1       21 0.84085874E-02 0.12876531E+03</pdfrwt>
<pdfrwt beam="1">  1       -4 0.98163251E-01 0.12876531E+03</pdfrwt>
<totfact> 0.40322495E+03</totfact>
</mgrwt>
</event>
<event>
 6    4  0.6093247E-003  0.1273060E+03  0.7818608E-02  0.1231509E+00
         -4   -1    0    0    0  501 -0.00000000000E+00  0.00000000000E+00  0.61706670451E+03  0.61706801142E+03  0.12700000000E+01 0. -1.
         21   -1    0    0  501  502  0.00000000000E+00 -0.00000000000E+00 -0.16558726611E+02  0.16558726611E+02  0.00000000000E+00 0.  1.
         25    2    1    2    0    0 -0.13806450795E+02  0.19779062462E+02  0.59550359175E+03  0.60895922546E+03  0.12499992438E+03 0.  0.
    9000005    1    3    3    0    0 -0.66131816038E+02  0.22381833687E+02  0.25250430415E+03  0.26198050917E+03  0.10000000000E+01 0.  0.
    9000005    1    3    3    0    0  0.52325365243E+02 -0.26027712249E+01  0.34299928760E+03  0.34697871630E+03  0.10000000000E+01 0.  0.
         -4    1    1    2    0  502  0.13806450795E+02 -0.19779062462E+02  0.50043861516E+01  0.24667512566E+02  0.12700000000E+01 0.  1.
<mgrwt>
<rscale>  1 0.12730597E+03</rscale>
<asrwt>0</asrwt>
<pdfrwt beam="2">  1       21 0.25474969E-02 0.12730597E+03</pdfrwt>
<pdfrwt beam="1">  1       -4 0.94937168E-01 0.12730597E+03</pdfrwt>
<totfact> 0.32121869E+04</totfact>
</mgrwt>
</event>
<event>
 6    4  0.6093247E-003  0.1404124E+03  0.7818608E-02  0.1212775E+00
         21   -1    0    0  501  502  0.00000000000E+00  0.00000000000E+00  0.23694572230E+03  0.23694572230E+03  0.00000000000E+00 0. -1.
         -4   -1    0    0    0  501 -0.00000000000E+00 -0.00000000000E+00 -0.17942415890E+03  0.17942865350E+03  0.12700000000E+01 0.  1.
         25    2    1    2    0    0 -0.24366259200E+02  0.59110338168E+02 -0.14628658734E+03  0.20276931530E+03  0.12501153118E+03 0.  0.
    9000005    1    3    3    0    0 -0.46779468932E+02  0.33262378306E+02 -0.52598948359E+01  0.57648686176E+02  0.10000000000E+01 0.  0.
    9000005    1    3    3    0    0  0.22413209732E+02  0.25847959862E+02 -0.14102669250E+03  0.14512062913E+03  0.10000000000E+01 0.  0.
         -4    1    1    2    0  502  0.24366259200E+02 -0.59110338168E+02  0.20380815073E+03  0.21360506050E+03  0.12700000000E+01 0. -1.
<mgrwt>
<rscale>  1 0.14041236E+03</rscale>
<asrwt>0</asrwt>
<pdfrwt beam="1">  1       21 0.36453188E-01 0.14041236E+03</pdfrwt>
<pdfrwt beam="2">  1       -4 0.27604324E-01 0.14041236E+03</pdfrwt>
<totfact> 0.37451719E+03</totfact>
</mgrwt>
</event>
<event>
 6    4  0.6093247E-003  0.1267014E+03  0.7818608E-02  0.1232434E+00
          4   -1    0    0  502    0 -0.00000000000E+00  0.00000000000E+00  0.18556809172E+03  0.18557243752E+03  0.12700000000E+01 0.  1.
         21   -1    0    0  501  502  0.00000000000E+00 -0.00000000000E+00 -0.33356304419E+02  0.33356304419E+02  0.00000000000E+00 0.  1.
         25    2    1    2    0    0  0.20229126288E+02 -0.44464099281E+01  0.15238413077E+03  0.19817709829E+03  0.12499700342E+03 0.  0.
    9000005    1    3    3    0    0 -0.21395422869E+02  0.13235552702E+02  0.15082766967E+03  0.15291477990E+03  0.10000000000E+01 0.  0.
    9000005    1    3    3    0    0  0.41624549157E+02 -0.17681962630E+02  0.15564611058E+01  0.45262318391E+02  0.10000000000E+01 0.  0.
          4    1    1    2  501    0 -0.20229126288E+02  0.44464099281E+01 -0.17234346776E+00  0.20751643643E+02  0.12700000000E+01 0. -1.
<mgrwt>
<rscale>  1 0.12670138E+03</rscale>
<asrwt>0</asrwt>
<pdfrwt beam="2">  1       21 0.51317393E-02 0.12670138E+03</pdfrwt>
<pdfrwt beam="1">  1        4 0.28551131E-01 0.12670138E+03</pdfrwt>
<totfact> 0.11947576E+05</totfact>
</mgrwt>
</event>
<event>
 6    4  0.6093247E-003  0.1272255E+03  0.7818608E-02  0.1231632E+00
         21   -1    0    0  501  502  0.00000000000E+00  0.00000000000E+00  0.36746533144E+02  0.36746533144E+02  0.00000000000E+00 0. -1.
         -4   -1    0    0    0  501 -0.00000000000E+00 -0.00000000000E+00 -0.23946450747E+03  0.23946787517E+03  0.12700000000E+01 0. -1.
         25    2    1    2    0    0  0.19696936314E+02  0.13127905604E+02 -0.21476767025E+03  0.24962269386E+03  0.12500410354E+03 0.  0.
    9000005    1    3    3    0    0  0.34566809841E+02 -0.50761425745E+02 -0.96874110988E+02  0.11470475171E+03  0.10000000000E+01 0.  0.
    9000005    1    3    3    0    0 -0.14869873527E+02  0.63889331348E+02 -0.11789355926E+03  0.13491794215E+03  0.10000000000E+01 0.  0.
         -4    1    1    2    0  502 -0.19696936314E+02 -0.13127905604E+02  0.12049695920E+02  0.26591714451E+02  0.12700000000E+01 0.  1.
<mgrwt>
<rscale>  1 0.12722554E+03</rscale>
<asrwt>0</asrwt>
<pdfrwt beam="1">  1       21 0.56533130E-02 0.12722554E+03</pdfrwt>
<pdfrwt beam="2">  1       -4 0.36842639E-01 0.12722554E+03</pdfrwt>
<totfact> 0.62443421E+04</totfact>
</mgrwt>
</event>
<event>
 6    4  0.6093247E-003  0.1279859E+03  0.7818608E-02  0.1230475E+00
         21   -1    0    0  501  502  0.00000000000E+00  0.00000000000E+00  0.27658707846E+03  0.27658707846E+03  0.00000000000E+00 0. -1.
          4   -1    0    0  502    0 -0.00000000000E+00 -0.00000000000E+00 -0.28011753927E+02  0.28040528847E+02  0.12700000000E+01 0.  1.
         25    2    1    2    0    0  0.16308710778E+02 -0.22129745344E+02  0.12821557479E+03  0.18116189573E+03  0.12499879668E+03 0.  0.
    9000005    1    3    3    0    0 -0.12053152347E+01 -0.54676928892E+02  0.78674999245E+01  0.55262255591E+02  0.10000000000E+01 0.  0.
    9000005    1    3    3    0    0  0.17514026013E+02  0.32547183548E+02  0.12034807487E+03  0.12589964014E+03  0.10000000000E+01 0.  0.
          4    1    1    2  501    0 -0.16308710778E+02  0.22129745344E+02  0.12035974974E+03  0.12346571157E+03  0.12700000000E+01 0. -1.
<mgrwt>
<rscale>  1 0.12798593E+03</rscale>
<asrwt>0</asrwt>
<pdfrwt beam="1">  1       21 0.42551856E-01 0.12798593E+03</pdfrwt>
<pdfrwt beam="2">  1        4 0.43119385E-02 0.12798593E+03</pdfrwt>
<totfact> 0.65018626E+04</totfact>
</mgrwt>
</event>
<event>
 6    4  0.6093247E-003  0.1321928E+03  0.7818608E-02  0.1224238E+00
         -4   -1    0    0    0  501 -0.00000000000E+00  0.00000000000E+00  0.11338143921E+03  0.11338855170E+03  0.12700000000E+01 0. -1.
         21   -1    0    0  501  502  0.00000000000E+00 -0.00000000000E+00 -0.14095128308E+03  0.14095128308E+03  0.00000000000E+00 0.  1.
         25    2    1    2    0    0  0.40042987425E+02  0.15749471831E+02  0.68630961816E+02  0.14894678653E+03  0.12499379822E+03 0.  0.
    9000005    1    3    3    0    0 -0.16322809306E+02 -0.27598428863E+02 -0.18064566630E+02  0.36816245692E+02  0.10000000000E+01 0.  0.
    9000005    1    3    3    0    0  0.56365796731E+02  0.43347900694E+02  0.86695528446E+02  0.11213054084E+03  0.10000000000E+01 0.  0.
         -4    1    1    2    0  502 -0.40042987425E+02 -0.15749471831E+02 -0.96200805686E+02  0.10539304825E+03  0.12700000000E+01 0.  1.
<mgrwt>
<rscale>  1 0.13219280E+03</rscale>
<asrwt>0</asrwt>
<pdfrwt beam="2">  1       21 0.21684813E-01 0.13219280E+03</pdfrwt>
<pdfrwt beam="1">  1       -4 0.17444286E-01 0.13219280E+03</pdfrwt>
<totfact> 0.23273902E+04</totfact>
</mgrwt>
</event>
<event>
 6    4  0.6093247E-003  0.1376510E+03  0.7818608E-02  0.1216525E+00
         21   -1    0    0  501  502  0.00000000000E+00  0.00000000000E+00  0.58365803878E+03  0.58365803878E+03  0.00000000000E+00 0. -1.
          4   -1    0    0  502    0 -0.00000000000E+00 -0.00000000000E+00 -0.26644802638E+02  0.26675052158E+02  0.12700000000E+01 0.  1.
         25    2    1    2    0    0  0.23620758296E+02 -0.52582845034E+02  0.16856069584E+03  0.21762469431E+03  0.12499961431E+03 0.  0.
    9000005    1    3    3    0    0  0.59733158826E+02 -0.13998868564E+01  0.32944543028E+02  0.68237474030E+02  0.10000000000E+01 0.  0.
    9000005    1    3    3    0    0 -0.36112400531E+02 -0.51182958178E+02  0.13561615281E+03  0.14938722028E+03  0.10000000000E+01 0.  0.
          4    1    1    2  501    0 -0.23620758296E+02  0.52582845034E+02  0.38845254031E+03  0.39270839663E+03  0.12700000000E+01 0. -1.
<mgrwt>
<rscale>  1 0.13765101E+03</rscale>
<asrwt>0</asrwt>
<pdfrwt beam="1">  1       21 0.89793535E-01 0.13765101E+03</pdfrwt>
<pdfrwt beam="2">  1        4 0.41016340E-02 0.13765101E+03</pdfrwt>
<totfact> 0.14325763E+04</totfact>
</mgrwt>
</event>
<event>
 6    4  0.6093247E-003  0.1278200E+03  0.7818608E-02  0.1230727E+00
         21   -1    0    0  501  502  0.00000000000E+00  0.00000000000E+00  0.72489347995E+02  0.72489347995E+02  0.00000000000E+00 0. -1.
         -4   -1    0    0    0  501 -0.00000000000E+00 -0.00000000000E+00 -0.83329213635E+02  0.83338890952E+02  0.12700000000E+01 0. -1.
         25    2    1    2    0    0 -0.34251616050E+00  0.26631625309E+02 -0.23374122865E+01  0.12784135993E+03  0.12501435529E+03 0.  0.
    9000005    1    3    3    0    0 -0.28826192081E+02 -0.43406179877E+02  0.13953910040E+01  0.52134373665E+02  0.10000000000E+01 0.  0.
    9000005    1    3    3    0    0  0.28483675920E+02  0.70037805186E+02 -0.37328032905E+01  0.75706986267E+02  0.10000000000E+01 0.  0.
         -4    1    1    2    0  502  0.34251616050E+00 -0.26631625309E+02 -0.85024533540E+01  0.27986879014E+02  0.12700000000E+01 0.  1.
<mgrwt>
<rscale>  1 0.12781999E+03</rscale>
<asrwt>0</asrwt>
<pdfrwt beam="1">  1       21 0.11152207E-01 0.12781999E+03</pdfrwt>
<pdfrwt beam="2">  1       -4 0.12821479E-01 0.12781999E+03</pdfrwt>
<totfact> 0.13211647E+05</totfact>
</mgrwt>
</event>
<event>
 6    4  0.6093247E-003  0.1278402E+03  0.7818608E-02  0.1230696E+00
          4   -1    0    0  502    0 -0.00000000000E+00  0.00000000000E+00  0.39611445046E+03  0.39611648636E+03  0.12700000000E+01 0.  1.
         21   -1    0    0  501  502  0.00000000000E+00 -0.00000000000E+00 -0.15412418671E+02  0.15412418671E+02  0.00000000000E+00 0.  1.
         25    2    1    2    0    0 -0.21197878312E+02 -0.16347514851E+02  0.33478824275E+03  0.35836613412E+03  0.12500610910E+03 0.  0.
    9000005    1    3    3    0    0  0.48413626504E+02  0.16078433800E+02  0.13078794617E+03  0.14038832618E+03  0.10000000000E+01 0.  0.
    9000005    1    3    3    0    0 -0.69611504816E+02 -0.32425948651E+02  0.20400029658E+03  0.21797780794E+03  0.10000000000E+01 0.  0.
          4    1    1    2  501    0  0.21197878312E+02  0.16347514851E+02  0.45913789040E+02  0.53162770910E+02  0.12700000000E+01 0. -1.
<mgrwt>
<rscale>  1 0.12784021E+03</rscale>
<asrwt>0</asrwt>
<pdfrwt beam="2">  1       21 0.23711416E-02 0.12784021E+03</pdfrwt>
<pdfrwt beam="1">  1        4 0.60944858E-01 0.12784021E+03</pdfrwt>
<totfact> 0.95280837E+04</totfact>
</mgrwt>
</event>
<event>
 6    4  0.6093247E-003  0.1309431E+03  0.7818608E-02  0.1226063E+00
         -4   -1    0    0    0  501 -0.00000000000E+00  0.00000000000E+00  0.45597176162E+02  0.45614859135E+02  0.12700000000E+01 0. -1.
         21   -1    0    0  501  502  0.00000000000E+00 -0.00000000000E+00 -0.17229530766E+03  0.17229530766E+03  0.00000000000E+00 0. -1.
         25    2    1    2    0    0 -0.18479436165E+02  0.34343851148E+02 -0.12134584404E+03  0.17852426127E+03  0.12500043330E+03 0.  0.
    9000005    1    3    3    0    0  0.45147170248E+02  0.28455197619E+00 -0.88226174309E+02  0.99112086975E+02  0.10000000000E+01 0.  0.
    9000005    1    3    3    0    0 -0.63626606413E+02  0.34059299172E+02 -0.33119669728E+02  0.79412174297E+02  0.10000000000E+01 0.  0.
         -4    1    1    2    0  502  0.18479436165E+02 -0.34343851148E+02 -0.53522874581E+01  0.39385905521E+02  0.12700000000E+01 0.  1.
<mgrwt>
<rscale>  1 0.13094311E+03</rscale>
<asrwt>0</asrwt>
<pdfrwt beam="2">  1       21 0.26506971E-01 0.13094311E+03</pdfrwt>
<pdfrwt beam="1">  1       -4 0.70166703E-02 0.13094311E+03</pdfrwt>
<totfact> 0.74948214E+04</totfact>
</mgrwt>
</event>
<event>
 6    4  0.6093247E-003  0.1497258E+03  0.7818608E-02  0.1200810E+00
         21   -1    0    0  501  502  0.00000000000E+00  0.00000000000E+00  0.54026599700E+02  0.54026599700E+02  0.00000000000E+00 0. -1.
          4   -1    0    0  502    0 -0.00000000000E+00 -0.00000000000E+00 -0.82864807613E+03  0.82864904935E+03  0.12700000000E+01 0.  1.
         25    2    1    2    0    0 -0.82417716438E+02 -0.50677704823E+00 -0.78540057565E+03  0.79954479625E+03  0.12499952075E+03 0.  0.
    9000005    1    3    3    0    0 -0.30766659230E+02  0.54420926660E+02 -0.20661489366E+03  0.21586787362E+03  0.10000000000E+01 0.  0.
    9000005    1    3    3    0    0 -0.51651057209E+02 -0.54927703708E+02 -0.57878568198E+03  0.58367692263E+03  0.10000000000E+01 0.  0.
          4    1    1    2  501    0  0.82417716438E+02  0.50677704823E+00  0.10779099211E+02  0.83130852791E+02  0.12700000000E+01 0. -1.
<mgrwt>
<rscale>  1 0.14972581E+03</rscale>
<asrwt>0</asrwt>
<pdfrwt beam="1">  1       21 0.83117852E-02 0.14972581E+03</pdfrwt>
<pdfrwt beam="2">  1        4 0.12748553E+00 0.14972581E+03</pdfrwt>
<totfact> 0.22345284E+03</totfact>
</mgrwt>
</event>
<event>
 6    4  0.6093247E-003  0.1304201E+03  0.7818608E-02  0.1226834E+00
         21   -1    0    0  501  502  0.00000000000E+00  0.00000000000E+00  0.59430004140E+03  0.59430004140E+03  0.00000000000E+00 0. -1.
          4   -1    0    0  502    0 -0.00000000000E+00 -0.00000000000E+00 -0.32547181149E+02  0.32571949600E+02  0.12700000000E+01 0. -1.
         25    2    1    2    0    0 -0.35863507556E+02 -0.99059666269E+01  0.10188351023E+03  0.16549822566E+03  0.12500037477E+03 0.  0.
    9000005    1    3    3    0    0  0.33846547941E+02  0.25907080502E+02  0.83118670392E+01  0.43437918474E+02  0.10000000000E+01 0.  0.
    9000005    1    3    3    0    0 -0.69710055498E+02 -0.35813047129E+02  0.93571643188E+02  0.12206030719E+03  0.10000000000E+01 0.  0.
          4    1    1    2  501    0  0.35863507556E+02  0.99059666269E+01  0.45986935002E+03  0.46137376534E+03  0.12700000000E+01 0.  1.
<mgrwt>
<rscale>  1 0.13042014E+03</rscale>
<asrwt>0</asrwt>
<pdfrwt beam="1">  1       21 0.91430767E-01 0.13042014E+03</pdfrwt>
<pdfrwt beam="2">  1        4 0.50092687E-02 0.13042014E+03</pdfrwt>
<totfact> 0.99489701E+03</totfact>
</mgrwt>
</event>
<event>
 6    4  0.6093247E-003  0.1324650E+03  0.7818608E-02  0.1223843E+00
         -4   -1    0    0    0  501 -0.00000000000E+00  0.00000000000E+00  0.27254502028E+02  0.27284075590E+02  0.12700000000E+01 0.  1.
         21   -1    0    0  501  502  0.00000000000E+00 -0.00000000000E+00 -0.30206560786E+03  0.30206560786E+03  0.00000000000E+00 0. -1.
         25    2    1    2    0    0 -0.43834874181E+02 -0.25769578661E+00 -0.16839672638E+03  0.21425322105E+03  0.12500169069E+03 0.  0.
    9000005    1    3    3    0    0 -0.54985032512E+02 -0.65634564524E+01 -0.18508374017E+03  0.19319271114E+03  0.10000000000E+01 0.  0.
    9000005    1    3    3    0    0  0.11150158331E+02  0.63057606658E+01  0.16687013796E+02  0.21060509914E+02  0.10000000000E+01 0.  0.
         -4    1    1    2    0  502  0.43834874181E+02  0.25769578661E+00 -0.10641437945E+03  0.11509646239E+03  0.12700000000E+01 0. -1.
<mgrwt>
<rscale>  1 0.13246503E+03</rscale>
<asrwt>0</asrwt>
<pdfrwt beam="2">  1       21 0.46471637E-01 0.13246503E+03</pdfrwt>
<pdfrwt beam="1">  1       -4 0.41954801E-02 0.13246503E+03</pdfrwt>
<totfact> 0.57023572E+04</totfact>
</mgrwt>
</event>
<event>
 6    4  0.6093247E-003  0.1304588E+03  0.7818608E-02  0.1226777E+00
         21   -1    0    0  501  502  0.00000000000E+00  0.00000000000E+00  0.23879573715E+03  0.23879573715E+03  0.00000000000E+00 0.  1.
          4   -1    0    0  502    0 -0.00000000000E+00 -0.00000000000E+00 -0.34267184467E+02  0.34290710568E+02  0.12700000000E+01 0. -1.
         25    2    1    2    0    0 -0.14475887350E+02 -0.34417868613E+02  0.10726412072E+03  0.16889372427E+03  0.12500143003E+03 0.  0.
    9000005    1    3    3    0    0  0.50516035074E+02 -0.34514433427E+02  0.30697586898E+02  0.68457707789E+02  0.10000000000E+01 0.  0.
    9000005    1    3    3    0    0 -0.64991922424E+02  0.96564814571E-01  0.76566533824E+02  0.10043601648E+03  0.10000000000E+01 0.  0.
          4    1    1    2  501    0  0.14475887350E+02  0.34417868613E+02  0.97264431961E+02  0.10419272345E+03  0.12700000000E+01 0.  1.
<mgrwt>
<rscale>  1 0.13045880E+03</rscale>
<asrwt>0</asrwt>
<pdfrwt beam="1">  1       21 0.36737805E-01 0.13045880E+03</pdfrwt>
<pdfrwt beam="2">  1        4 0.52739442E-02 0.13045880E+03</pdfrwt>
<totfact> 0.63282330E+04</totfact>
</mgrwt>
</event>
<event>
 6    4  0.6093247E-003  0.1367505E+03  0.7818608E-02  0.1217770E+00
          4   -1    0    0  502    0 -0.00000000000E+00  0.00000000000E+00  0.67522467498E+03  0.67522586932E+03  0.12700000000E+01 0.  1.
         21   -1    0    0  501  502  0.00000000000E+00 -0.00000000000E+00 -0.15362875850E+02  0.15362875850E+02  0.00000000000E+00 0.  1.
         25    2    1    2    0    0  0.27401571949E+02 -0.48152243653E+02  0.55922506749E+03  0.57570249983E+03  0.12502482747E+03 0.  0.
    9000005    1    3    3    0    0 -0.42826513810E+02 -0.50525913053E+02  0.28818103535E+03  0.29569627544E+03  0.10000000000E+01 0.  0.
    9000005    1    3    3    0    0  0.70228085760E+02  0.23736694000E+01  0.27104403214E+03  0.28000622439E+03  0.10000000000E+01 0.  0.
          4    1    1    2  501    0 -0.27401571949E+02  0.48152243653E+02  0.10063673163E+03  0.11488624534E+03  0.12700000000E+01 0. -1.
<mgrwt>
<rscale>  1 0.13675047E+03</rscale>
<asrwt>0</asrwt>
<pdfrwt beam="2">  1       21 0.23635199E-02 0.13675047E+03</pdfrwt>
<pdfrwt beam="1">  1        4 0.10388483E+00 0.13675047E+03</pdfrwt>
<totfact> 0.29732209E+04</totfact>
</mgrwt>
</event>
<event>
 6    4  0.6093247E-003  0.1279555E+03  0.7818608E-02  0.1230521E+00
         21   -1    0    0  501  502  0.00000000000E+00  0.00000000000E+00  0.14268143081E+03  0.14268143081E+03  0.00000000000E+00 0. -1.
          4   -1    0    0  502    0 -0.00000000000E+00 -0.00000000000E+00 -0.77938896191E+02  0.77949242712E+02  0.12700000000E+01 0.  1.
         25    2    1    2    0    0  0.12340037245E+02  0.24399681294E+02 -0.21856499397E+02  0.12980872376E+03  0.12499990893E+03 0.  0.
    9000005    1    3    3    0    0 -0.30397375338E+00  0.19171803937E+02 -0.73710788873E+02  0.76170406737E+02  0.10000000000E+01 0.  0.
    9000005    1    3    3    0    0  0.12644010998E+02  0.52278773572E+01  0.51854289476E+02  0.53638317021E+02  0.10000000000E+01 0.  0.
          4    1    1    2  501    0 -0.12340037245E+02 -0.24399681294E+02  0.86599034021E+02  0.90821949769E+02  0.12700000000E+01 0. -1.
<mgrwt>
<rscale>  1 0.12795545E+03</rscale>
<asrwt>0</asrwt>
<pdfrwt beam="1">  1       21 0.21950989E-01 0.12795545E+03</pdfrwt>
<pdfrwt beam="2">  1        4 0.11991830E-01 0.12795545E+03</pdfrwt>
<totfact> 0.43495298E+04</totfact>
</mgrwt>
</event>
<event>
 6    4  0.6093247E-003  0.1267881E+03  0.7818608E-02  0.1232301E+00
         -4   -1    0    0    0  501 -0.00000000000E+00  0.00000000000E+00  0.84138541211E+01  0.85091621897E+01  0.12700000000E+01 0.  1.
         21   -1    0    0  501  502  0.00000000000E+00 -0.00000000000E+00 -0.70987941504E+03  0.70987941504E+03  0.00000000000E+00 0.  1.
         25    2    1    2    0    0 -0.20560334982E+02  0.46632071052E+01 -0.50023221074E+03  0.51604988345E+03  0.12502297659E+03 0.  0.
    9000005    1    3    3    0    0  0.20337820557E+02  0.50420598680E+02 -0.34261406746E+03  0.34690238243E+03  0.10000000000E+01 0.  0.
    9000005    1    3    3    0    0 -0.40898155538E+02 -0.45757391575E+02 -0.15761814328E+03  0.16914750102E+03  0.10000000000E+01 0.  0.
         -4    1    1    2    0  502  0.20560334982E+02 -0.46632071052E+01 -0.20123335019E+03  0.20233869378E+03  0.12700000000E+01 0. -1.
<mgrwt>
<rscale>  1 0.12678808E+03</rscale>
<asrwt>0</asrwt>
<pdfrwt beam="2">  1       21 0.10921225E+00 0.12678808E+03</pdfrwt>
<pdfrwt beam="1">  1       -4 0.13018575E-02 0.12678808E+03</pdfrwt>
<totfact> 0.53308296E+04</totfact>
</mgrwt>
</event>
<event>
 6    4  0.6093247E-003  0.1310182E+03  0.7818608E-02  0.1225953E+00
         21   -1    0    0  501  502  0.00000000000E+00  0.00000000000E+00  0.50578441908E+01  0.50578441908E+01  0.00000000000E+00 0. -1.
          4   -1    0    0  502    0 -0.00000000000E+00 -0.00000000000E+00 -0.18023010496E+04  0.18023014970E+04  0.12700000000E+01 0. -1.
         25    2    1    2    0    0 -0.28926118362E+02  0.26535415161E+02 -0.16422367414E+04  0.16474547904E+04  0.12499969274E+03 0.  0.
    9000005    1    3    3    0    0 -0.51503043098E+02  0.13655852655E+01 -0.15125985644E+04  0.15134760802E+04  0.10000000000E+01 0.  0.
    9000005    1    3    3    0    0  0.22576924735E+02  0.25169829895E+02 -0.12963817699E+03  0.13397871025E+03  0.10000000000E+01 0.  0.
          4    1    1    2  501    0  0.28926118362E+02 -0.26535415161E+02 -0.15500646400E+03  0.15990455079E+03  0.12700000000E+01 0.  1.
<mgrwt>
<rscale>  1 0.13101821E+03</rscale>
<asrwt>0</asrwt>
<pdfrwt beam="1">  1       21 0.77812931E-03 0.13101821E+03</pdfrwt>
<pdfrwt beam="2">  1        4 0.27728959E+00 0.13101821E+03</pdfrwt>
<totfact> 0.11581024E+04</totfact>
</mgrwt>
</event>
<event>
 6    4  0.6093247E-003  0.1316140E+03  0.7818608E-02  0.1225080E+00
         21   -1    0    0  501  502  0.00000000000E+00  0.00000000000E+00  0.33613273472E+02  0.33613273472E+02  0.00000000000E+00 0. -1.
          4   -1    0    0  502    0 -0.00000000000E+00 -0.00000000000E+00 -0.22945605477E+03  0.22945956936E+03  0.12700000000E+01 0. -1.
         25    2    1    2    0    0  0.31908220582E+02  0.26062831936E+02 -0.16762341514E+03  0.21311935170E+03  0.12499937207E+03 0.  0.
    9000005    1    3    3    0    0  0.24374163643E+01  0.72316922650E+02 -0.67525472757E+02  0.98976602139E+02  0.10000000000E+01 0.  0.
    9000005    1    3    3    0    0  0.29470804218E+02 -0.46254090714E+02 -0.10009794238E+03  0.11414274956E+03  0.10000000000E+01 0.  0.
          4    1    1    2  501    0 -0.31908220582E+02 -0.26062831936E+02 -0.28219366158E+02  0.49953491125E+02  0.12700000000E+01 0.  1.
<mgrwt>
<rscale>  1 0.13161401E+03</rscale>
<asrwt>0</asrwt>
<pdfrwt beam="1">  1       21 0.51712728E-02 0.13161401E+03</pdfrwt>
<pdfrwt beam="2">  1        4 0.35303048E-01 0.13161401E+03</pdfrwt>
<totfact> 0.79197452E+04</totfact>
</mgrwt>
</event>
<event>
 6    4  0.6093247E-003  0.1333470E+03  0.7818608E-02  0.1222572E+00
         -4   -1    0    0    0  501 -0.00000000000E+00  0.00000000000E+00  0.19096347741E+04  0.19096351964E+04  0.12700000000E+01 0.  1.
         21   -1    0    0  501  502  0.00000000000E+00 -0.00000000000E+00 -0.54512704459E+01  0.54512704459E+01  0.00000000000E+00 0. -1.
         25    2    1    2    0    0  0.28224200640E+02  0.36897918760E+02  0.17188724163E+04  0.17240370652E+04  0.12499342556E+03 0.  0.
    9000005    1    3    3    0    0 -0.49127247774E+01  0.63824703634E+02  0.14794854053E+04  0.14808699443E+04  0.10000000000E+01 0.  0.
    9000005    1    3    3    0    0  0.33136925417E+02 -0.26926784874E+02  0.23938701109E+03  0.24316712082E+03  0.10000000000E+01 0.  0.
         -4    1    1    2    0  502 -0.28224200640E+02 -0.36897918760E+02  0.18531108733E+03  0.19104940172E+03  0.12700000000E+01 0. -1.
<mgrwt>
<rscale>  1 0.13334698E+03</rscale>
<asrwt>0</asrwt>
<pdfrwt beam="2">  1       21 0.83865852E-03 0.13334698E+03</pdfrwt>
<pdfrwt beam="1">  1       -4 0.29380084E+00 0.13334698E+03</pdfrwt>
<totfact> 0.82870186E+03</totfact>
</mgrwt>
</event>
<event>
 6    4  0.6093247E-003  0.1337312E+03  0.7818608E-02  0.1222022E+00
         21   -1    0    0  501  502  0.00000000000E+00  0.00000000000E+00  0.19021493309E+04  0.19021493309E+04  0.00000000000E+00 0.  1.
          4   -1    0    0  502    0 -0.00000000000E+00 -0.00000000000E+00 -0.50185022737E+01  0.51767040741E+01  0.12700000000E+01 0. -1.
         25    2    1    2    0    0 -0.85604650799E+01 -0.46758936087E+02  0.99552691437E+03  0.10044689528E+04  0.12499744121E+03 0.  0.
    9000005    1    3    3    0    0  0.35569328744E+02 -0.38247595346E+02  0.86192593703E+03  0.86350760079E+03  0.10000000000E+01 0.  0.
    9000005    1    3    3    0    0 -0.44129793824E+02 -0.85113407404E+01  0.13360097734E+03  0.14096135204E+03  0.10000000000E+01 0.  0.
          4    1    1    2  501    0  0.85604650799E+01  0.46758936087E+02  0.90160391429E+03  0.90285708217E+03  0.12700000000E+01 0.  1.
<mgrwt>
<rscale>  1 0.13373122E+03</rscale>
<asrwt>0</asrwt>
<pdfrwt beam="1">  1       21 0.29263779E+00 0.13373122E+03</pdfrwt>
<pdfrwt beam="2">  1        4 0.78428078E-03 0.13373122E+03</pdfrwt>
<totfact> 0.68456909E+03</totfact>
</mgrwt>
</event>
<event>
 6    4  0.6093247E-003  0.1281683E+03  0.7818608E-02  0.1230199E+00
         21   -1    0    0  501  502  0.00000000000E+00  0.00000000000E+00  0.12698758446E+02  0.12698758446E+02  0.00000000000E+00 0. -1.
          4   -1    0    0  502    0 -0.00000000000E+00 -0.00000000000E+00 -0.11598573827E+04  0.11598580780E+04  0.12700000000E+01 0.  1.
         25    2    1    2    0    0 -0.40255385662E+01  0.28014400430E+02 -0.11341730301E+04  0.11413919500E+04  0.12500443881E+03 0.  0.
    9000005    1    3    3    0    0  0.31172045658E+02 -0.25520252793E+02 -0.80686776572E+03  0.80787348706E+03  0.10000000000E+01 0.  0.
    9000005    1    3    3    0    0 -0.35197584224E+02  0.53534653223E+02 -0.32730526435E+03  0.33351846291E+03  0.10000000000E+01 0.  0.
          4    1    1    2  501    0  0.40255385662E+01 -0.28014400430E+02 -0.12985594166E+02  0.31164886460E+02  0.12700000000E+01 0. -1.
<mgrwt>
<rscale>  1 0.12816833E+03</rscale>
<asrwt>0</asrwt>
<pdfrwt beam="1">  1       21 0.19536549E-02 0.12816833E+03</pdfrwt>
<pdfrwt beam="2">  1        4 0.17844456E+00 0.12816833E+03</pdfrwt>
<totfact> 0.10450000E+04</totfact>
</mgrwt>
</event>
<event>
 6    4  0.6093247E-003  0.1277889E+03  0.7818608E-02  0.1230774E+00
         -4   -1    0    0    0  501 -0.00000000000E+00  0.00000000000E+00  0.73382995169E+01  0.74473847624E+01  0.12700000000E+01 0. -1.
         21   -1    0    0  501  502  0.00000000000E+00 -0.00000000000E+00 -0.92422811940E+03  0.92422811940E+03  0.00000000000E+00 0. -1.
         25    2    1    2    0    0 -0.26534312211E+02 -0.10946448221E+01 -0.58866872960E+03  0.60237933811E+03  0.12499890319E+03 0.  0.
    9000005    1    3    3    0    0  0.10077858200E+02 -0.58673113469E+02 -0.27095736989E+03  0.27742204989E+03  0.10000000000E+01 0.  0.
    9000005    1    3    3    0    0 -0.36612170411E+02  0.57578468647E+02 -0.31771135971E+03  0.32495728821E+03  0.10000000000E+01 0.  0.
         -4    1    1    2    0  502  0.26534312211E+02  0.10946448221E+01 -0.32822109028E+03  0.32929616605E+03  0.12700000000E+01 0.  1.
<mgrwt>
<rscale>  1 0.12778886E+03</rscale>
<asrwt>0</asrwt>
<pdfrwt beam="2">  1       21 0.14218894E+00 0.12778886E+03</pdfrwt>
<pdfrwt beam="1">  1       -4 0.11374275E-02 0.12778886E+03</pdfrwt>
<totfact> 0.34173398E+04</totfact>
</mgrwt>
</event>
<event>
 6    4  0.6093247E-003  0.1407461E+03  0.7818608E-02  0.1212328E+00
          4   -1    0    0  502    0 -0.00000000000E+00  0.00000000000E+00  0.23547160371E+03  0.23547502851E+03  0.12700000000E+01 0. -1.
         21   -1    0    0  501  502  0.00000000000E+00 -0.00000000000E+00 -0.12758552422E+03  0.12758552422E+03  0.00000000000E+00 0.  1.
         25    2    1    2    0    0  0.41215767896E+02  0.49815476590E+02  0.20362166070E+03  0.24753031582E+03  0.12501662014E+03 0.  0.
    9000005    1    3    3    0    0 -0.14173754326E+02  0.66317232887E+02  0.16394342308E+03  0.17741847892E+03  0.10000000000E+01 0.  0.
    9000005    1    3    3    0    0  0.55389522222E+02 -0.16501756298E+02  0.39678237621E+02  0.70111836900E+02  0.10000000000E+01 0.  0.
          4    1    1    2  501    0 -0.41215767896E+02 -0.49815476590E+02 -0.95735581216E+02  0.11553023692E+03  0.12700000000E+01 0.  1.
<mgrwt>
<rscale>  1 0.14074614E+03</rscale>
<asrwt>0</asrwt>
<pdfrwt beam="2">  1       21 0.19628542E-01 0.14074614E+03</pdfrwt>
<pdfrwt beam="1">  1        4 0.36227150E-01 0.14074614E+03</pdfrwt>
<totfact> 0.72812195E+03</totfact>
</mgrwt>
</event>
<event>
 6    4  0.6093247E-003  0.1331578E+03  0.7818608E-02  0.1222844E+00
         21   -1    0    0  501  502  0.00000000000E+00  0.00000000000E+00  0.11879935950E+03  0.11879935950E+03  0.00000000000E+00 0. -1.
         -4   -1    0    0    0  501 -0.00000000000E+00 -0.00000000000E+00 -0.90032129408E+02  0.90041086320E+02  0.12700000000E+01 0. -1.
         25    2    1    2    0    0 -0.11885409803E+01  0.45897613167E+02 -0.27744414577E+02  0.13601749334E+03  0.12499200947E+03 0.  0.
    9000005    1    3    3    0    0  0.27604901845E+02 -0.31573955063E+02  0.12926208883E+02  0.43897973989E+02  0.10000000000E+01 0.  0.
    9000005    1    3    3    0    0 -0.28793442825E+02  0.77471568230E+02 -0.40670623460E+02  0.92119519356E+02  0.10000000000E+01 0.  0.
         -4    1    1    2    0  502  0.11885409803E+01 -0.45897613167E+02  0.56511644670E+02  0.72822952476E+02  0.12700000000E+01 0.  1.
<mgrwt>
<rscale>  1 0.13315782E+03</rscale>
<asrwt>0</asrwt>
<pdfrwt beam="1">  1       21 0.18276825E-01 0.13315782E+03</pdfrwt>
<pdfrwt beam="2">  1       -4 0.13852308E-01 0.13315782E+03</pdfrwt>
<totfact> 0.47854697E+04</totfact>
</mgrwt>
</event>
<event>
 6    4  0.6093247E-003  0.1676905E+03  0.7818608E-02  0.1180278E+00
         -4   -1    0    0    0  501 -0.00000000000E+00  0.00000000000E+00  0.25610774513E+02  0.25642243880E+02  0.12700000000E+01 0. -1.
         21   -1    0    0  501  502  0.00000000000E+00 -0.00000000000E+00 -0.91643189177E+03  0.91643189177E+03  0.00000000000E+00 0.  1.
         25    2    1    2    0    0 -0.86638552246E+02 -0.70623287445E+02 -0.32934152797E+03  0.36957537622E+03  0.12500491669E+03 0.  0.
    9000005    1    3    3    0    0 -0.42658066724E+02 -0.72942161358E+02 -0.31026838707E+03  0.32157074116E+03  0.10000000000E+01 0.  0.
    9000005    1    3    3    0    0 -0.43980485522E+02  0.23188739131E+01 -0.19073140908E+02  0.48004635058E+02  0.10000000000E+01 0.  0.
         -4    1    1    2    0  502  0.86638552246E+02  0.70623287445E+02 -0.56147958928E+03  0.57249875942E+03  0.12700000000E+01 0.  1.
<mgrwt>
<rscale>  1 0.16769054E+03</rscale>
<asrwt>0</asrwt>
<pdfrwt beam="2">  1       21 0.14098950E+00 0.16769054E+03</pdfrwt>
<pdfrwt beam="1">  1       -4 0.39426081E-02 0.16769054E+03</pdfrwt>
<totfact> 0.51668629E+03</totfact>
</mgrwt>
</event>
<event>
 6    4  0.6093247E-003  0.1310558E+03  0.7818608E-02  0.1225897E+00
         21   -1    0    0  501  502  0.00000000000E+00  0.00000000000E+00  0.89989188470E+01  0.89989188470E+01  0.00000000000E+00 0. -1.
          4   -1    0    0  502    0 -0.00000000000E+00 -0.00000000000E+00 -0.22388683639E+04  0.22388687241E+04  0.12700000000E+01 0.  1.
         25    2    1    2    0    0 -0.39373862896E+02  0.62932360142E+00 -0.21817206512E+04  0.21856533650E+04  0.12499974028E+03 0.  0.
    9000005    1    3    3    0    0 -0.36069090998E+00  0.28169498683E+02 -0.11584057019E+03  0.11922117453E+03  0.10000000000E+01 0.  0.
    9000005    1    3    3    0    0 -0.39013171986E+02 -0.27540175082E+02 -0.20658800810E+04  0.20664321905E+04  0.10000000000E+01 0.  0.
          4    1    1    2  501    0  0.39373862896E+02 -0.62932360142E+00 -0.48148793851E+02  0.62214277918E+02  0.12700000000E+01 0. -1.
<mgrwt>
<rscale>  1 0.13105584E+03</rscale>
<asrwt>0</asrwt>
<pdfrwt beam="1">  1       21 0.13844487E-02 0.13105584E+03</pdfrwt>
<pdfrwt beam="2">  1        4 0.34444828E+00 0.13105584E+03</pdfrwt>
<totfact> 0.18902547E+03</totfact>
</mgrwt>
</event>
<event>
 6    4  0.6093247E-003  0.1285290E+03  0.7818608E-02  0.1229655E+00
         21   -1    0    0  501  502  0.00000000000E+00  0.00000000000E+00  0.24305483100E+02  0.24305483100E+02  0.00000000000E+00 0. -1.
         -4   -1    0    0    0  501 -0.00000000000E+00 -0.00000000000E+00 -0.13455246606E+04  0.13455252600E+04  0.12700000000E+01 0.  1.
         25    2    1    2    0    0 -0.69847726577E+01  0.29072917146E+02 -0.13318756255E+04  0.13380629238E+04  0.12500273869E+03 0.  0.
    9000005    1    3    3    0    0 -0.25939594260E+02  0.28794948967E+02 -0.13025657614E+04  0.13031425764E+04  0.10000000000E+01 0.  0.
    9000005    1    3    3    0    0  0.18954821603E+02  0.27796817816E+00 -0.29309864013E+02  0.34920347317E+02  0.10000000000E+01 0.  0.
         -4    1    1    2    0  502  0.69847726577E+01 -0.29072917146E+02  0.10656447955E+02  0.31767819306E+02  0.12700000000E+01 0. -1.
<mgrwt>
<rscale>  1 0.12852901E+03</rscale>
<asrwt>0</asrwt>
<pdfrwt beam="1">  1       21 0.37393056E-02 0.12852901E+03</pdfrwt>
<pdfrwt beam="2">  1       -4 0.20700636E+00 0.12852901E+03</pdfrwt>
<totfact> 0.23888241E+03</totfact>
</mgrwt>
</event>
<event>
 6    4  0.6093247E-003  0.1389369E+03  0.7818608E-02  0.1214767E+00
         21   -1    0    0  501  502  0.00000000000E+00  0.00000000000E+00  0.28786023191E+03  0.28786023191E+03  0.00000000000E+00 0. -1.
          4   -1    0    0  502    0 -0.00000000000E+00 -0.00000000000E+00 -0.69786162853E+02  0.69797717912E+02  0.12700000000E+01 0.  1.
         25    2    1    2    0    0 -0.28374854415E+02 -0.53593593071E+02  0.81820515859E+01  0.13917756745E+03  0.12500417486E+03 0.  0.
    9000005    1    3    3    0    0 -0.62330204459E+02 -0.73295545082E+02 -0.83245331374E+01  0.96579444856E+02  0.10000000000E+01 0.  0.
    9000005    1    3    3    0    0  0.33955350043E+02  0.19701952011E+02  0.16506584723E+02  0.42598122598E+02  0.10000000000E+01 0.  0.
          4    1    1    2  501    0  0.28374854415E+02  0.53593593071E+02  0.20989201747E+03  0.21848038237E+03  0.12700000000E+01 0. -1.
<mgrwt>
<rscale>  1 0.13893685E+03</rscale>
<asrwt>0</asrwt>
<pdfrwt beam="1">  1       21 0.44286189E-01 0.13893685E+03</pdfrwt>
<pdfrwt beam="2">  1        4 0.10737437E-01 0.13893685E+03</pdfrwt>
<totfact> 0.13541436E+04</totfact>
</mgrwt>
</event>
<event>
 6    4  0.6093247E-003  0.1280840E+03  0.7818608E-02  0.1230327E+00
         21   -1    0    0  501  502  0.00000000000E+00  0.00000000000E+00  0.33684237643E+03  0.33684237643E+03  0.00000000000E+00 0. -1.
          4   -1    0    0  502    0 -0.00000000000E+00 -0.00000000000E+00 -0.18095491375E+02  0.18140002980E+02  0.12700000000E+01 0. -1.
         25    2    1    2    0    0  0.85882712281E+01 -0.26591204173E+02  0.25465008719E+03  0.28504767459E+03  0.12499863735E+03 0.  0.
    9000005    1    3    3    0    0 -0.24770565258E+02 -0.43065819640E+02  0.23993347195E+03  0.24502513481E+03  0.10000000000E+01 0.  0.
    9000005    1    3    3    0    0  0.33358836486E+02  0.16474615467E+02  0.14716615239E+02  0.40022539782E+02  0.10000000000E+01 0.  0.
          4    1    1    2  501    0 -0.85882712281E+01  0.26591204173E+02  0.64096797868E+02  0.69934704825E+02  0.12700000000E+01 0.  1.
<mgrwt>
<rscale>  1 0.12808400E+03</rscale>
<asrwt>0</asrwt>
<pdfrwt beam="1">  1       21 0.51821899E-01 0.12808400E+03</pdfrwt>
<pdfrwt beam="2">  1        4 0.27875301E-02 0.12808400E+03</pdfrwt>
<totfact> 0.86413072E+04</totfact>
</mgrwt>
</event>
<event>
 6    4  0.6093247E-003  0.1271005E+03  0.7818608E-02  0.1231823E+00
         21   -1    0    0  501  502  0.00000000000E+00  0.00000000000E+00  0.75082314576E+03  0.75082314576E+03  0.00000000000E+00 0.  1.
          4   -1    0    0  502    0 -0.00000000000E+00 -0.00000000000E+00 -0.77031690393E+01  0.78071578214E+01  0.12700000000E+01 0.  1.
         25    2    1    2    0    0 -0.21181322820E+02  0.90178928513E+01  0.67042601646E+03  0.68236762866E+03  0.12499826506E+03 0.  0.
    9000005    1    3    3    0    0 -0.14327236635E+02  0.13877658979E+02  0.10832961724E+02  0.22720303432E+02  0.10000000000E+01 0.  0.
    9000005    1    3    3    0    0 -0.68540861855E+01 -0.48597661278E+01  0.65959305473E+03  0.65964732522E+03  0.10000000000E+01 0.  0.
          4    1    1    2  501    0  0.21181322820E+02 -0.90178928513E+01  0.72693960269E+02  0.76262674930E+02  0.12700000000E+01 0. -1.
<mgrwt>
<rscale>  1 0.12710050E+03</rscale>
<asrwt>0</asrwt>
<pdfrwt beam="1">  1       21 0.11551120E+00 0.12710050E+03</pdfrwt>
<pdfrwt beam="2">  1        4 0.11931853E-02 0.12710050E+03</pdfrwt>
<totfact> 0.53194070E+04</totfact>
</mgrwt>
</event>
<event>
 6    4  0.6093247E-003  0.1575945E+03  0.7818608E-02  0.1191440E+00
         21   -1    0    0  501  502  0.00000000000E+00  0.00000000000E+00  0.52916699464E+03  0.52916699464E+03  0.00000000000E+00 0. -1.
          4   -1    0    0  502    0 -0.00000000000E+00 -0.00000000000E+00 -0.43584143906E+02  0.43602643268E+02  0.12700000000E+01 0.  1.
         25    2    1    2    0    0  0.93383890580E+02 -0.22135912336E+02  0.12949396301E+03  0.20397232434E+03  0.12500189201E+03 0.  0.
    9000005    1    3    3    0    0 -0.20367053876E+02 -0.16468550567E+02  0.71516789549E+02  0.76168768067E+02  0.10000000000E+01 0.  0.
    9000005    1    3    3    0    0  0.11375094446E+03 -0.56673617690E+01  0.57977173465E+02  0.12780355628E+03  0.10000000000E+01 0.  0.
          4    1    1    2  501    0 -0.93383890580E+02  0.22135912336E+02  0.35608888772E+03  0.36879731357E+03  0.12700000000E+01 0. -1.
<mgrwt>
<rscale>  1 0.15759449E+03</rscale>
<asrwt>0</asrwt>
<pdfrwt beam="1">  1       21 0.81410302E-01 0.15759449E+03</pdfrwt>
<pdfrwt beam="2">  1        4 0.67067935E-02 0.15759449E+03</pdfrwt>
<totfact> 0.81567916E+03</totfact>
</mgrwt>
</event>
<event>
 6    4  0.6093247E-003  0.1386746E+03  0.7818608E-02  0.1215124E+00
         21   -1    0    0  501  502  0.00000000000E+00  0.00000000000E+00  0.10291870928E+03  0.10291870928E+03  0.00000000000E+00 0.  1.
          4   -1    0    0  502    0 -0.00000000000E+00 -0.00000000000E+00 -0.16749118765E+03  0.16749600246E+03  0.12700000000E+01 0. -1.
         25    2    1    2    0    0 -0.22217330808E+02  0.55789341022E+02 -0.12392090565E+03  0.18597592279E+03  0.12499837056E+03 0.  0.
    9000005    1    3    3    0    0 -0.72603521227E+02  0.16062460963E+02 -0.62386203437E+02  0.97068595982E+02  0.10000000000E+01 0.  0.
    9000005    1    3    3    0    0  0.50386190419E+02  0.39726880059E+02 -0.61534702211E+02  0.88907326809E+02  0.10000000000E+01 0.  0.
          4    1    1    2  501    0  0.22217330808E+02 -0.55789341022E+02  0.59348427272E+02  0.84438788952E+02  0.12700000000E+01 0.  1.
<mgrwt>
<rscale>  1 0.13867463E+03</rscale>
<asrwt>0</asrwt>
<pdfrwt beam="1">  1       21 0.15833648E-01 0.13867463E+03</pdfrwt>
<pdfrwt beam="2">  1        4 0.25768848E-01 0.13867463E+03</pdfrwt>
<totfact> 0.20561456E+04</totfact>
</mgrwt>
</event>
<event>
 6    4  0.6093247E-003  0.1397826E+03  0.7818608E-02  0.1213622E+00
         21   -1    0    0  501  502  0.00000000000E+00  0.00000000000E+00  0.51212607744E+02  0.51212607744E+02  0.00000000000E+00 0.  1.
          4   -1    0    0  502    0 -0.00000000000E+00 -0.00000000000E+00 -0.10888097621E+04  0.10888105028E+04  0.12700000000E+01 0. -1.
         25    2    1    2    0    0  0.14124281201E+02 -0.60941162352E+02 -0.10632500618E+04  0.10723991122E+04  0.12500336582E+03 0.  0.
    9000005    1    3    3    0    0  0.42670942058E+02 -0.89564830252E+02 -0.77588678496E+03  0.78220455841E+03  0.10000000000E+01 0.  0.
    9000005    1    3    3    0    0 -0.28546660856E+02  0.28623667899E+02 -0.28736327681E+03  0.29019455382E+03  0.10000000000E+01 0.  0.
          4    1    1    2  501    0 -0.14124281201E+02  0.60941162352E+02  0.25652907398E+02  0.67623998301E+02  0.12700000000E+01 0.  1.
<mgrwt>
<rscale>  1 0.13978255E+03</rscale>
<asrwt>0</asrwt>
<pdfrwt beam="1">  1       21 0.78788637E-02 0.13978255E+03</pdfrwt>
<pdfrwt beam="2">  1        4 0.16751044E+00 0.13978255E+03</pdfrwt>
<totfact> 0.12225545E+03</totfact>
</mgrwt>
</event>
<event>
 6    4  0.6093247E-003  0.1276383E+03  0.7818608E-02  0.1231003E+00
          4   -1    0    0  502    0 -0.00000000000E+00  0.00000000000E+00  0.18896250985E+03  0.18896677758E+03  0.12700000000E+01 0.  1.
         21   -1    0    0  501  502  0.00000000000E+00 -0.00000000000E+00 -0.51190797968E+02  0.51190797968E+02  0.00000000000E+00 0. -1.
         25    2    1    2    0    0 -0.11564406137E+02  0.23108583261E+02  0.16095267839E+03  0.20541981198E+03  0.12499516936E+03 0.  0.
    9000005    1    3    3    0    0 -0.61320746421E+00  0.67819538067E+02  0.47014985361E+02  0.82530446597E+02  0.10000000000E+01 0.  0.
    9000005    1    3    3    0    0 -0.10951198673E+02 -0.44710954807E+02  0.11393769303E+03  0.12288936538E+03  0.10000000000E+01 0.  0.
          4    1    1    2  501    0  0.11564406137E+02 -0.23108583261E+02 -0.23180966504E+02  0.34737763568E+02  0.12700000000E+01 0. -1.
<mgrwt>
<rscale>  1 0.12763830E+03</rscale>
<asrwt>0</asrwt>
<pdfrwt beam="2">  1       21 0.78755075E-02 0.12763830E+03</pdfrwt>
<pdfrwt beam="1">  1        4 0.29072695E-01 0.12763830E+03</pdfrwt>
<totfact> 0.55793756E+04</totfact>
</mgrwt>
</event>
<event>
 6    4  0.6093247E-003  0.1271665E+03  0.7818608E-02  0.1231722E+00
         21   -1    0    0  501  502  0.00000000000E+00  0.00000000000E+00  0.36264782660E+03  0.36264782660E+03  0.00000000000E+00 0.  1.
          4   -1    0    0  502    0 -0.00000000000E+00 -0.00000000000E+00 -0.18685191546E+02  0.18728301661E+02  0.12700000000E+01 0.  1.
         25    2    1    2    0    0  0.84392438964E+01  0.21769424648E+02  0.21088306259E+03  0.24625797924E+03  0.12500479017E+03 0.  0.
    9000005    1    3    3    0    0  0.51545277247E+02  0.37605752308E+02  0.17981927631E+03  0.19080639493E+03  0.10000000000E+01 0.  0.
    9000005    1    3    3    0    0 -0.43106033351E+02 -0.15836327660E+02  0.31063786285E+02  0.55451584318E+02  0.10000000000E+01 0.  0.
          4    1    1    2  501    0 -0.84392438964E+01 -0.21769424648E+02  0.13307957247E+03  0.13511814902E+03  0.12700000000E+01 0. -1.
<mgrwt>
<rscale>  1 0.12716653E+03</rscale>
<asrwt>0</asrwt>
<pdfrwt beam="1">  1       21 0.55791968E-01 0.12716653E+03</pdfrwt>
<pdfrwt beam="2">  1        4 0.28781323E-02 0.12716653E+03</pdfrwt>
<totfact> 0.70418386E+04</totfact>
</mgrwt>
</event>
<event>
 6    4  0.6093247E-003  0.1304419E+03  0.7818608E-02  0.1226801E+00
         21   -1    0    0  501  502  0.00000000000E+00  0.00000000000E+00  0.91630751575E+02  0.91630751575E+02  0.00000000000E+00 0. -1.
          4   -1    0    0  502    0 -0.00000000000E+00 -0.00000000000E+00 -0.79994864607E+02  0.80004945244E+02  0.12700000000E+01 0.  1.
         25    2    1    2    0    0 -0.25748576655E+02  0.27022684276E+02 -0.54714821199E+01  0.13055663108E+03  0.12498752792E+03 0.  0.
    9000005    1    3    3    0    0 -0.57046956481E+02  0.24613130796E+02  0.41015791538E+02  0.74454392797E+02  0.10000000000E+01 0.  0.
    9000005    1    3    3    0    0  0.31298379826E+02  0.24095534806E+01 -0.46487273658E+02  0.56102238278E+02  0.10000000000E+01 0.  0.
          4    1    1    2  501    0  0.25748576655E+02 -0.27022684276E+02  0.17107369088E+02  0.41079065744E+02  0.12700000000E+01 0. -1.
<mgrwt>
<rscale>  1 0.13044193E+03</rscale>
<asrwt>0</asrwt>
<pdfrwt beam="1">  1       21 0.14097039E-01 0.13044193E+03</pdfrwt>
<pdfrwt beam="2">  1        4 0.12308355E-01 0.13044193E+03</pdfrwt>
<totfact> 0.93699698E+04</totfact>
</mgrwt>
</event>
<event>
 6    4  0.6093247E-003  0.1541811E+03  0.7818608E-02  0.1195427E+00
          4   -1    0    0  502    0 -0.00000000000E+00  0.00000000000E+00  0.22421536015E+03  0.22421895688E+03  0.12700000000E+01 0. -1.
         21   -1    0    0  501  502  0.00000000000E+00 -0.00000000000E+00 -0.70598422361E+02  0.70598422361E+02  0.00000000000E+00 0.  1.
         25    2    1    2    0    0  0.78193829974E+01  0.89919553831E+02  0.12958506800E+03  0.20140532126E+03  0.12500057868E+03 0.  0.
    9000005    1    3    3    0    0  0.30824997629E+02  0.11437858938E+03  0.86059122454E+02  0.14642340914E+03  0.10000000000E+01 0.  0.
    9000005    1    3    3    0    0 -0.23005614631E+02 -0.24459035547E+02  0.43525945545E+02  0.54981912118E+02  0.10000000000E+01 0.  0.
          4    1    1    2  501    0 -0.78193829974E+01 -0.89919553831E+02  0.24031869788E+02  0.93412057986E+02  0.12700000000E+01 0.  1.
<mgrwt>
<rscale>  1 0.15418111E+03</rscale>
<asrwt>0</asrwt>
<pdfrwt beam="2">  1       21 0.10861296E-01 0.15418111E+03</pdfrwt>
<pdfrwt beam="1">  1        4 0.34495826E-01 0.15418111E+03</pdfrwt>
<totfact> 0.23494744E+04</totfact>
</mgrwt>
</event>
<event>
 6    4  0.6093247E-003  0.1575196E+03  0.7818608E-02  0.1191526E+00
         21   -1    0    0  501  502  0.00000000000E+00  0.00000000000E+00  0.13096052632E+03  0.13096052632E+03  0.00000000000E+00 0.  1.
         -4   -1    0    0    0  501 -0.00000000000E+00 -0.00000000000E+00 -0.38790224426E+03  0.38790432326E+03  0.12700000000E+01 0. -1.
         25    2    1    2    0    0  0.28895305036E+02  0.91363433923E+02 -0.35091377735E+03  0.38464645828E+03  0.12502081035E+03 0.  0.
    9000005    1    3    3    0    0  0.64336624922E+02  0.12530466818E+02 -0.10295459779E+03  0.12205270628E+03  0.10000000000E+01 0.  0.
    9000005    1    3    3    0    0 -0.35441319886E+02  0.78832967105E+02 -0.24795917956E+03  0.26259375200E+03  0.10000000000E+01 0.  0.
         -4    1    1    2    0  502 -0.28895305036E+02 -0.91363433923E+02  0.93972059420E+02  0.13421839130E+03  0.12700000000E+01 0.  1.
<mgrwt>
<rscale>  1 0.15751958E+03</rscale>
<asrwt>0</asrwt>
<pdfrwt beam="1">  1       21 0.20147773E-01 0.15751958E+03</pdfrwt>
<pdfrwt beam="2">  1       -4 0.59677902E-01 0.15751958E+03</pdfrwt>
<totfact> 0.25495350E+03</totfact>
</mgrwt>
</event>
<event>
 6    4  0.6093247E-003  0.1333925E+03  0.7818608E-02  0.1222507E+00
         -4   -1    0    0    0  501 -0.00000000000E+00  0.00000000000E+00  0.33168043794E+02  0.33192348955E+02  0.12700000000E+01 0.  1.
         21   -1    0    0  501  502  0.00000000000E+00 -0.00000000000E+00 -0.35131888636E+03  0.35131888636E+03  0.00000000000E+00 0. -1.
         25    2    1    2    0    0 -0.43198805406E+02 -0.17381854587E+02 -0.11510132657E+03  0.17618700604E+03  0.12500112024E+03 0.  0.
    9000005    1    3    3    0    0 -0.19273127852E+02  0.34956282485E+02  0.76095813375E+01  0.40648503915E+02  0.10000000000E+01 0.  0.
    9000005    1    3    3    0    0 -0.23925677554E+02 -0.52338137072E+02 -0.12271090791E+03  0.13553850212E+03  0.10000000000E+01 0.  0.
         -4    1    1    2    0  502  0.43198805406E+02  0.17381854587E+02 -0.20304951600E+03  0.20832422928E+03  0.12700000000E+01 0. -1.
<mgrwt>
<rscale>  1 0.13339245E+03</rscale>
<asrwt>0</asrwt>
<pdfrwt beam="2">  1       21 0.54049053E-01 0.13339245E+03</pdfrwt>
<pdfrwt beam="1">  1       -4 0.51048227E-02 0.13339245E+03</pdfrwt>
<totfact> 0.30515643E+04</totfact>
</mgrwt>
</event>
<event>
 6    4  0.6093247E-003  0.1269129E+03  0.7818608E-02  0.1232110E+00
         -4   -1    0    0    0  501 -0.00000000000E+00  0.00000000000E+00  0.23674131257E+03  0.23674471900E+03  0.12700000000E+01 0. -1.
         21   -1    0    0  501  502  0.00000000000E+00 -0.00000000000E+00 -0.23482259830E+02  0.23482259830E+02  0.00000000000E+00 0. -1.
         25    2    1    2    0    0 -0.20247023924E+02  0.84654796870E+01  0.18668709340E+03  0.22574092010E+03  0.12500114336E+03 0.  0.
    9000005    1    3    3    0    0  0.40980354086E+02  0.68217873385E+01  0.14697557796E+03  0.15273750921E+03  0.10000000000E+01 0.  0.
    9000005    1    3    3    0    0 -0.61227378010E+02  0.16436923485E+01  0.39711515437E+02  0.73003410884E+02  0.10000000000E+01 0.  0.
         -4    1    1    2    0  502  0.20247023924E+02 -0.84654796870E+01  0.26571959340E+02  0.34486058738E+02  0.12700000000E+01 0.  1.
<mgrwt>
<rscale>  1 0.12691293E+03</rscale>
<asrwt>0</asrwt>
<pdfrwt beam="2">  1       21 0.36126555E-02 0.12691293E+03</pdfrwt>
<pdfrwt beam="1">  1       -4 0.36424642E-01 0.12691293E+03</pdfrwt>
<totfact> 0.13484925E+05</totfact>
</mgrwt>
</event>
<event>
 6    4  0.6093247E-003  0.1403461E+03  0.7818608E-02  0.1212864E+00
          4   -1    0    0  502    0 -0.00000000000E+00  0.00000000000E+00  0.76333107300E+03  0.76333212949E+03  0.12700000000E+01 0. -1.
         21   -1    0    0  501  502  0.00000000000E+00 -0.00000000000E+00 -0.14587996721E+02  0.14587996721E+02  0.00000000000E+00 0.  1.
         25    2    1    2    0    0 -0.19455213826E+02 -0.60771886104E+02  0.59751289902E+03  0.61377413357E+03  0.12500118022E+03 0.  0.
    9000005    1    3    3    0    0 -0.48661231186E+02  0.32230089440E+01  0.99461548290E+02  0.11077862066E+03  0.10000000000E+01 0.  0.
    9000005    1    3    3    0    0  0.29206017359E+02 -0.63994895048E+02  0.49805135073E+03  0.50299551291E+03  0.10000000000E+01 0.  0.
          4    1    1    2  501    0  0.19455213826E+02  0.60771886104E+02  0.15123017726E+03  0.16414599264E+03  0.12700000000E+01 0.  1.
<mgrwt>
<rscale>  1 0.14034608E+03</rscale>
<asrwt>0</asrwt>
<pdfrwt beam="2">  1       21 0.22443078E-02 0.14034608E+03</pdfrwt>
<pdfrwt beam="1">  1        4 0.11743985E+00 0.14034608E+03</pdfrwt>
<totfact> 0.24285601E+04</totfact>
</mgrwt>
</event>
<event>
 6    4  0.6093247E-003  0.1342602E+03  0.7818608E-02  0.1221268E+00
         -4   -1    0    0    0  501 -0.00000000000E+00  0.00000000000E+00  0.12378877506E+03  0.12379528962E+03  0.12700000000E+01 0.  1.
         21   -1    0    0  501  502  0.00000000000E+00 -0.00000000000E+00 -0.71209817676E+02  0.71209817676E+02  0.00000000000E+00 0.  1.
         25    2    1    2    0    0 -0.29327109190E+02  0.39257806844E+02  0.56850143400E+02  0.14580032438E+03  0.12499816420E+03 0.  0.
    9000005    1    3    3    0    0 -0.36409138012E+02  0.29738502770E+02  0.94911124173E+02  0.10592037278E+03  0.10000000000E+01 0.  0.
    9000005    1    3    3    0    0  0.70820288224E+01  0.95193040743E+01 -0.38060980773E+02  0.39879951601E+02  0.10000000000E+01 0.  0.
         -4    1    1    2    0  502  0.29327109190E+02 -0.39257806844E+02 -0.42711860128E+01  0.49204782914E+02  0.12700000000E+01 0. -1.
<mgrwt>
<rscale>  1 0.13426018E+03</rscale>
<asrwt>0</asrwt>
<pdfrwt beam="2">  1       21 0.10955357E-01 0.13426018E+03</pdfrwt>
<pdfrwt beam="1">  1       -4 0.19045799E-01 0.13426018E+03</pdfrwt>
<totfact> 0.68611348E+04</totfact>
</mgrwt>
</event>
<event>
 6    4  0.6093247E-003  0.1489007E+03  0.7818608E-02  0.1201830E+00
          4   -1    0    0  502    0 -0.00000000000E+00  0.00000000000E+00  0.20841163351E+03  0.20841550298E+03  0.12700000000E+01 0. -1.
         21   -1    0    0  501  502  0.00000000000E+00 -0.00000000000E+00 -0.13621365466E+03  0.13621365466E+03  0.00000000000E+00 0.  1.
         25    2    1    2    0    0  0.70405408782E+02  0.39871500187E+02  0.16449700646E+03  0.22187989488E+03  0.12499905801E+03 0.  0.
    9000005    1    3    3    0    0  0.12103523482E+02  0.73974385358E+02  0.11826738975E+03  0.14002457087E+03  0.10000000000E+01 0.  0.
    9000005    1    3    3    0    0  0.58301885301E+02 -0.34102885171E+02  0.46229616709E+02  0.81855324003E+02  0.10000000000E+01 0.  0.
          4    1    1    2  501    0 -0.70405408782E+02 -0.39871500187E+02 -0.92299027611E+02  0.12274926277E+03  0.12700000000E+01 0.  1.
<mgrwt>
<rscale>  1 0.14890071E+03</rscale>
<asrwt>0</asrwt>
<pdfrwt beam="2">  1       21 0.20955947E-01 0.14890071E+03</pdfrwt>
<pdfrwt beam="1">  1        4 0.32064081E-01 0.14890071E+03</pdfrwt>
<totfact> 0.81906044E+03</totfact>
</mgrwt>
</event>
<event>
 6    4  0.6093247E-003  0.1268921E+03  0.7818608E-02  0.1232142E+00
         -4   -1    0    0    0  501 -0.00000000000E+00  0.00000000000E+00  0.12394432989E+02  0.12459328598E+02  0.12700000000E+01 0.  1.
         21   -1    0    0  501  502  0.00000000000E+00 -0.00000000000E+00 -0.85233238954E+03  0.85233238954E+03  0.00000000000E+00 0. -1.
         25    2    1    2    0    0  0.88092279989E+01 -0.19996149763E+02 -0.31781818016E+03  0.34221337731E+03  0.12499660582E+03 0.  0.
    9000005    1    3    3    0    0  0.28652598159E+02  0.12248170609E+02 -0.10990878888E+02  0.33057351425E+02  0.10000000000E+01 0.  0.
    9000005    1    3    3    0    0 -0.19843370160E+02 -0.32244320371E+02 -0.30682730127E+03  0.30915602588E+03  0.10000000000E+01 0.  0.
         -4    1    1    2    0  502 -0.88092279989E+01  0.19996149763E+02 -0.52211977639E+03  0.52257834083E+03  0.12700000000E+01 0. -1.
<mgrwt>
<rscale>  1 0.12689208E+03</rscale>
<asrwt>0</asrwt>
<pdfrwt beam="2">  1       21 0.13112809E+00 0.12689208E+03</pdfrwt>
<pdfrwt beam="1">  1       -4 0.19119002E-02 0.12689208E+03</pdfrwt>
<totfact> 0.19001596E+04</totfact>
</mgrwt>
</event>
<event>
 6    4  0.6093247E-003  0.1328952E+03  0.7818608E-02  0.1223222E+00
         -4   -1    0    0    0  501 -0.00000000000E+00  0.00000000000E+00  0.19211304742E+04  0.19211308940E+04  0.12700000000E+01 0. -1.
         21   -1    0    0  501  502  0.00000000000E+00 -0.00000000000E+00 -0.41416627261E+01  0.41416627261E+01  0.00000000000E+00 0. -1.
         25    2    1    2    0    0  0.40298520628E+02 -0.20297936735E+02  0.14829463322E+04  0.14888891659E+04  0.12500058935E+03 0.  0.
    9000005    1    3    3    0    0  0.13015252372E+02 -0.70656665114E+02  0.64570139770E+03  0.64968689083E+03  0.10000000000E+01 0.  0.
    9000005    1    3    3    0    0  0.27283268255E+02  0.50358728380E+02  0.83724493448E+03  0.83920227512E+03  0.10000000000E+01 0.  0.
         -4    1    1    2    0  502 -0.40298520628E+02  0.20297936735E+02  0.43404247928E+03  0.43638339075E+03  0.12700000000E+01 0.  1.
<mgrwt>
<rscale>  1 0.13289516E+03</rscale>
<asrwt>0</asrwt>
<pdfrwt beam="2">  1       21 0.63718042E-03 0.13289516E+03</pdfrwt>
<pdfrwt beam="1">  1       -4 0.29557283E+00 0.13289516E+03</pdfrwt>
<totfact> 0.12431035E+04</totfact>
</mgrwt>
</event>
<event>
 6    4  0.6093247E-003  0.1302926E+03  0.7818608E-02  0.1227022E+00
         -4   -1    0    0    0  501 -0.00000000000E+00  0.00000000000E+00  0.12611156603E+04  0.12611162997E+04  0.12700000000E+01 0.  1.
         21   -1    0    0  501  502  0.00000000000E+00 -0.00000000000E+00 -0.19383108977E+02  0.19383108977E+02  0.00000000000E+00 0. -1.
         25    2    1    2    0    0 -0.27815766916E+02 -0.24059446690E+02  0.12364816344E+04  0.12433273911E+04  0.12499438144E+03 0.  0.
    9000005    1    3    3    0    0 -0.74913745885E+02 -0.23487313993E+02  0.92191289910E+03  0.92525029953E+03  0.10000000000E+01 0.  0.
    9000005    1    3    3    0    0  0.47097978969E+02 -0.57213269781E+00  0.31456873532E+03  0.31807709160E+03  0.10000000000E+01 0.  0.
         -4    1    1    2    0  502  0.27815766916E+02  0.24059446690E+02  0.52509168708E+01  0.37172017596E+02  0.12700000000E+01 0. -1.
<mgrwt>
<rscale>  1 0.13029263E+03</rscale>
<asrwt>0</asrwt>
<pdfrwt beam="2">  1       21 0.29820178E-02 0.13029263E+03</pdfrwt>
<pdfrwt beam="1">  1       -4 0.19402098E+00 0.13029263E+03</pdfrwt>
<totfact> 0.41771896E+03</totfact>
</mgrwt>
</event>
<event>
 6    4  0.6093247E-003  0.1341198E+03  0.7818608E-02  0.1221468E+00
          4   -1    0    0  502    0 -0.00000000000E+00  0.00000000000E+00  0.60088042021E+03  0.60088176233E+03  0.12700000000E+01 0. -1.
         21   -1    0    0  501  502  0.00000000000E+00 -0.00000000000E+00 -0.16909370210E+02  0.16909370210E+02  0.00000000000E+00 0.  1.
         25    2    1    2    0    0  0.28094202513E+02 -0.39696366347E+02  0.52228065052E+03  0.53922648397E+03  0.12499214932E+03 0.  0.
    9000005    1    3    3    0    0  0.51351568369E+02 -0.13775008756E+02  0.83045869218E+02  0.98612123161E+02  0.10000000000E+01 0.  0.
    9000005    1    3    3    0    0 -0.23257365856E+02 -0.25921357590E+02  0.43923478130E+03  0.44061436081E+03  0.10000000000E+01 0.  0.
          4    1    1    2  501    0 -0.28094202513E+02  0.39696366347E+02  0.61690399487E+02  0.78564648570E+02  0.12700000000E+01 0.  1.
<mgrwt>
<rscale>  1 0.13411981E+03</rscale>
<asrwt>0</asrwt>
<pdfrwt beam="2">  1       21 0.26014420E-02 0.13411981E+03</pdfrwt>
<pdfrwt beam="1">  1        4 0.92446897E-01 0.13411981E+03</pdfrwt>
<totfact> 0.33191771E+04</totfact>
</mgrwt>
</event>
<event>
 6    4  0.6093247E-003  0.1287373E+03  0.7818608E-02  0.1229341E+00
          4   -1    0    0  502    0 -0.00000000000E+00  0.00000000000E+00  0.34064651585E+03  0.34064888325E+03  0.12700000000E+01 0.  1.
         21   -1    0    0  501  502  0.00000000000E+00 -0.00000000000E+00 -0.24955980944E+02  0.24955980944E+02  0.00000000000E+00 0.  1.
         25    2    1    2    0    0 -0.96414174062E+01  0.29240375842E+02  0.30803284513E+03  0.33385254740E+03  0.12500133286E+03 0.  0.
    9000005    1    3    3    0    0 -0.65813728476E+02  0.13844108528E+02  0.12749675224E+03  0.14415105975E+03  0.10000000000E+01 0.  0.
    9000005    1    3    3    0    0  0.56172311070E+02  0.15396267313E+02  0.18053609290E+03  0.18970148765E+03  0.10000000000E+01 0.  0.
          4    1    1    2  501    0  0.96414174062E+01 -0.29240375842E+02  0.76576897705E+01  0.31752316791E+02  0.12700000000E+01 0. -1.
<mgrwt>
<rscale>  1 0.12873729E+03</rscale>
<asrwt>0</asrwt>
<pdfrwt beam="2">  1       21 0.38393819E-02 0.12873729E+03</pdfrwt>
<pdfrwt beam="1">  1        4 0.52409821E-01 0.12873729E+03</pdfrwt>
<totfact> 0.59176237E+04</totfact>
</mgrwt>
</event>
<event>
 6    4  0.6093247E-003  0.1312973E+03  0.7818608E-02  0.1225543E+00
         21   -1    0    0  501  502  0.00000000000E+00  0.00000000000E+00  0.32629508318E+03  0.32629508318E+03  0.00000000000E+00 0.  1.
          4   -1    0    0  502    0 -0.00000000000E+00 -0.00000000000E+00 -0.24959181866E+02  0.24991471734E+02  0.12700000000E+01 0.  1.
         25    2    1    2    0    0 -0.34122234819E+02  0.21160180482E+02  0.17539649540E+03  0.21909568152E+03  0.12500762742E+03 0.  0.
    9000005    1    3    3    0    0  0.47001742174E+02  0.17030082818E+02  0.70069039779E+02  0.86080531038E+02  0.10000000000E+01 0.  0.
    9000005    1    3    3    0    0 -0.81123976993E+02  0.41300976638E+01  0.10532745562E+03  0.13301515048E+03  0.10000000000E+01 0.  0.
          4    1    1    2  501    0  0.34122234819E+02 -0.21160180482E+02  0.12593940591E+03  0.13219087339E+03  0.12700000000E+01 0. -1.
<mgrwt>
<rscale>  1 0.13129732E+03</rscale>
<asrwt>0</asrwt>
<pdfrwt beam="1">  1       21 0.50199241E-01 0.13129732E+03</pdfrwt>
<pdfrwt beam="2">  1        4 0.38425483E-02 0.13129732E+03</pdfrwt>
<totfact> 0.55895642E+04</totfact>
</mgrwt>
</event>
<event>
 6    4  0.6093247E-003  0.1266518E+03  0.7818608E-02  0.1232510E+00
         21   -1    0    0  501  502  0.00000000000E+00  0.00000000000E+00  0.24116415497E+03  0.24116415497E+03  0.00000000000E+00 0.  1.
         -4   -1    0    0    0  501 -0.00000000000E+00 -0.00000000000E+00 -0.22955361769E+02  0.22990466154E+02  0.12700000000E+01 0.  1.
         25    2    1    2    0    0  0.11537525086E+02 -0.16749301620E+02  0.17152572557E+03  0.21321764739E+03  0.12500814788E+03 0.  0.
    9000005    1    3    3    0    0 -0.44981924244E+02  0.18355106550E+02  0.11868542126E+03  0.12824785637E+03  0.10000000000E+01 0.  0.
    9000005    1    3    3    0    0  0.56519449330E+02 -0.35104408170E+02  0.52840304317E+02  0.84969791019E+02  0.10000000000E+01 0.  0.
         -4    1    1    2    0  502 -0.11537525086E+02  0.16749301620E+02  0.46683067626E+02  0.50936973731E+02  0.12700000000E+01 0. -1.
<mgrwt>
<rscale>  1 0.12665185E+03</rscale>
<asrwt>0</asrwt>
<pdfrwt beam="1">  1       21 0.37102176E-01 0.12665185E+03</pdfrwt>
<pdfrwt beam="2">  1       -4 0.35345519E-02 0.12665185E+03</pdfrwt>
<totfact> 0.11696974E+05</totfact>
</mgrwt>
</event>
<event>
 6    4  0.6093247E-003  0.1306748E+03  0.7818608E-02  0.1226458E+00
         21   -1    0    0  501  502  0.00000000000E+00  0.00000000000E+00  0.47681293506E+02  0.47681293506E+02  0.00000000000E+00 0.  1.
         -4   -1    0    0    0  501 -0.00000000000E+00 -0.00000000000E+00 -0.15102838975E+03  0.15103372938E+03  0.12700000000E+01 0.  1.
         25    2    1    2    0    0 -0.10848227209E+02  0.36501402747E+02 -0.70896278221E+02  0.14866799574E+03  0.12500341697E+03 0.  0.
    9000005    1    3    3    0    0 -0.52119692301E+02 -0.51986412156E+01  0.51209431433E+01  0.52637555555E+02  0.10000000000E+01 0.  0.
    9000005    1    3    3    0    0  0.41271465092E+02  0.41700043963E+02 -0.76017221365E+02  0.96030440181E+02  0.10000000000E+01 0.  0.
         -4    1    1    2    0  502  0.10848227209E+02 -0.36501402747E+02 -0.32450818019E+02  0.50047027146E+02  0.12700000000E+01 0. -1.
<mgrwt>
<rscale>  1 0.13067475E+03</rscale>
<asrwt>0</asrwt>
<pdfrwt beam="1">  1       21 0.73355837E-02 0.13067475E+03</pdfrwt>
<pdfrwt beam="2">  1       -4 0.23236848E-01 0.13067475E+03</pdfrwt>
<totfact> 0.95801559E+04</totfact>
</mgrwt>
</event>
<event>
 6    4  0.6093247E-003  0.1286110E+03  0.7818608E-02  0.1229531E+00
         21   -1    0    0  501  502  0.00000000000E+00  0.00000000000E+00  0.74836548291E+02  0.74836548291E+02  0.00000000000E+00 0. -1.
          4   -1    0    0  502    0 -0.00000000000E+00 -0.00000000000E+00 -0.11424936521E+03  0.11425642367E+03  0.12700000000E+01 0.  1.
         25    2    1    2    0    0  0.25492556249E+02 -0.16291762405E+02 -0.69684490368E+02  0.14627616381E+03  0.12500198381E+03 0.  0.
    9000005    1    3    3    0    0  0.52737100600E+02 -0.12415745185E+02 -0.94677707602E+02  0.10908813329E+03  0.10000000000E+01 0.  0.
    9000005    1    3    3    0    0 -0.27244544351E+02 -0.38760172202E+01  0.24993217234E+02  0.37188030522E+02  0.10000000000E+01 0.  0.
          4    1    1    2  501    0 -0.25492556249E+02  0.16291762405E+02  0.30271673453E+02  0.42816808149E+02  0.12700000000E+01 0. -1.
<mgrwt>
<rscale>  1 0.12861099E+03</rscale>
<asrwt>0</asrwt>
<pdfrwt beam="1">  1       21 0.11513315E-01 0.12861099E+03</pdfrwt>
<pdfrwt beam="2">  1        4 0.17578197E-01 0.12861099E+03</pdfrwt>
<totfact> 0.72089338E+04</totfact>
</mgrwt>
</event>
<event>
 6    4  0.6093247E-003  0.1619025E+03  0.7818608E-02  0.1186565E+00
          4   -1    0    0  502    0 -0.00000000000E+00  0.00000000000E+00  0.62726365563E+02  0.62739220881E+02  0.12700000000E+01 0. -1.
         21   -1    0    0  501  502  0.00000000000E+00 -0.00000000000E+00 -0.34369403549E+03  0.34369403549E+03  0.00000000000E+00 0.  1.
         25    2    1    2    0    0  0.91086546151E+01  0.10249041816E+03 -0.79857897006E+02  0.18052618019E+03  0.12500065846E+03 0.  0.
    9000005    1    3    3    0    0  0.10823118625E+00  0.10800609788E+03 -0.84560102077E+01  0.10834128023E+03  0.10000000000E+01 0.  0.
    9000005    1    3    3    0    0  0.90004234289E+01 -0.55156797145E+01 -0.71401886798E+02  0.72184899965E+02  0.10000000000E+01 0.  0.
          4    1    1    2  501    0 -0.91086546151E+01 -0.10249041816E+03 -0.20110977292E+03  0.22590707618E+03  0.12700000000E+01 0.  1.
<mgrwt>
<rscale>  1 0.16190250E+03</rscale>
<asrwt>0</asrwt>
<pdfrwt beam="2">  1       21 0.52876005E-01 0.16190250E+03</pdfrwt>
<pdfrwt beam="1">  1        4 0.96513796E-02 0.16190250E+03</pdfrwt>
<totfact> 0.11378199E+04</totfact>
</mgrwt>
</event>
<event>
 6    4  0.6093247E-003  0.1330717E+03  0.7818608E-02  0.1222968E+00
         -4   -1    0    0    0  501 -0.00000000000E+00  0.00000000000E+00  0.83523767951E+03  0.83523864504E+03  0.12700000000E+01 0.  1.
         21   -1    0    0  501  502  0.00000000000E+00 -0.00000000000E+00 -0.13468604218E+02  0.13468604218E+02  0.00000000000E+00 0. -1.
         25    2    1    2    0    0  0.34286037096E+02 -0.30122086456E+02  0.76180604136E+03  0.77334113771E+03  0.12500079275E+03 0.  0.
    9000005    1    3    3    0    0 -0.13799232751E+02 -0.23064705973E+02  0.31505604769E+02  0.41424661954E+02  0.10000000000E+01 0.  0.
    9000005    1    3    3    0    0  0.48085269848E+02 -0.70573804833E+01  0.73030043659E+03  0.73191647576E+03  0.10000000000E+01 0.  0.
         -4    1    1    2    0  502 -0.34286037096E+02  0.30122086456E+02  0.59963033929E+02  0.75366111550E+02  0.12700000000E+01 0. -1.
<mgrwt>
<rscale>  1 0.13307167E+03</rscale>
<asrwt>0</asrwt>
<pdfrwt beam="2">  1       21 0.20720936E-02 0.13307167E+03</pdfrwt>
<pdfrwt beam="1">  1       -4 0.12850274E+00 0.13307167E+03</pdfrwt>
<totfact> 0.22104592E+04</totfact>
</mgrwt>
</event>
<event>
 6    4  0.6093247E-003  0.1282197E+03  0.7818608E-02  0.1230122E+00
         21   -1    0    0  501  502  0.00000000000E+00  0.00000000000E+00  0.29406098163E+02  0.29406098163E+02  0.00000000000E+00 0.  1.
          4   -1    0    0  502    0 -0.00000000000E+00 -0.00000000000E+00 -0.21058825036E+03  0.21059207983E+03  0.12700000000E+01 0.  1.
         25    2    1    2    0    0 -0.24925584585E+02  0.13899403934E+02 -0.15586242602E+03  0.20182515571E+03  0.12500327771E+03 0.  0.
    9000005    1    3    3    0    0 -0.43662404647E+02  0.24645121985E+02 -0.16916281109E+03  0.17643935012E+03  0.10000000000E+01 0.  0.
    9000005    1    3    3    0    0  0.18736820062E+02 -0.10745718050E+02  0.13300385068E+02  0.25385805589E+02  0.10000000000E+01 0.  0.
          4    1    1    2  501    0  0.24925584585E+02 -0.13899403934E+02 -0.25319726177E+02  0.38173022284E+02  0.12700000000E+01 0. -1.
<mgrwt>
<rscale>  1 0.12821972E+03</rscale>
<asrwt>0</asrwt>
<pdfrwt beam="1">  1       21 0.45240151E-02 0.12821972E+03</pdfrwt>
<pdfrwt beam="2">  1        4 0.32400597E-01 0.12821972E+03</pdfrwt>
<totfact> 0.11639698E+05</totfact>
</mgrwt>
</event>
<event>
 6    4  0.6093247E-003  0.1309985E+03  0.7818608E-02  0.1225982E+00
         21   -1    0    0  501  502  0.00000000000E+00  0.00000000000E+00  0.28835274733E+02  0.28835274733E+02  0.00000000000E+00 0.  1.
          4   -1    0    0  502    0 -0.00000000000E+00 -0.00000000000E+00 -0.26824062348E+03  0.26824362991E+03  0.12700000000E+01 0.  1.
         25    2    1    2    0    0  0.12217106791E+02  0.37243639482E+02 -0.14818721329E+03  0.19778788029E+03  0.12499699607E+03 0.  0.
    9000005    1    3    3    0    0  0.41732695384E+02  0.73191078735E+02 -0.89957933979E+02  0.12325575750E+03  0.10000000000E+01 0.  0.
    9000005    1    3    3    0    0 -0.29515588593E+02 -0.35947439254E+02 -0.58229279314E+02  0.74532122795E+02  0.10000000000E+01 0.  0.
          4    1    1    2  501    0 -0.12217106791E+02 -0.37243639482E+02 -0.91218135455E+02  0.99291024348E+02  0.12700000000E+01 0. -1.
<mgrwt>
<rscale>  1 0.13099846E+03</rscale>
<asrwt>0</asrwt>
<pdfrwt beam="1">  1       21 0.44361962E-02 0.13099846E+03</pdfrwt>
<pdfrwt beam="2">  1        4 0.41270170E-01 0.13099846E+03</pdfrwt>
<totfact> 0.75441989E+04</totfact>
</mgrwt>
</event>
<event>
 6    4  0.6093247E-003  0.1717498E+03  0.7818608E-02  0.1176035E+00
          4   -1    0    0  502    0 -0.00000000000E+00  0.00000000000E+00  0.13385461114E+03  0.13386063582E+03  0.12700000000E+01 0.  1.
         21   -1    0    0  501  502  0.00000000000E+00 -0.00000000000E+00 -0.16308337708E+03  0.16308337708E+03  0.00000000000E+00 0. -1.
         25    2    1    2    0    0 -0.11737882919E+03 -0.97679648767E+01 -0.46401230387E+02  0.17790742560E+03  0.12499910088E+03 0.  0.
    9000005    1    3    3    0    0 -0.15151999295E+01 -0.11542677269E+02 -0.60094262114E+02  0.61219682851E+02  0.10000000000E+01 0.  0.
    9000005    1    3    3    0    0 -0.11586362926E+03  0.17747123922E+01  0.13693031727E+02  0.11668774275E+03  0.10000000000E+01 0.  0.
          4    1    1    2  501    0  0.11737882919E+03  0.97679648767E+01  0.17172464445E+02  0.11903658730E+03  0.12700000000E+01 0. -1.
<mgrwt>
<rscale>  1 0.17174975E+03</rscale>
<asrwt>0</asrwt>
<pdfrwt beam="2">  1       21 0.25089750E-01 0.17174975E+03</pdfrwt>
<pdfrwt beam="1">  1        4 0.20593861E-01 0.17174975E+03</pdfrwt>
<totfact> 0.13430056E+04</totfact>
</mgrwt>
</event>
<event>
 6    4  0.6093247E-003  0.1288966E+03  0.7818608E-02  0.1229102E+00
         -4   -1    0    0    0  501 -0.00000000000E+00  0.00000000000E+00  0.51311532929E+02  0.51327247262E+02  0.12700000000E+01 0.  1.
         21   -1    0    0  501  502  0.00000000000E+00 -0.00000000000E+00 -0.12561133213E+03  0.12561133213E+03  0.00000000000E+00 0.  1.
         25    2    1    2    0    0  0.23767550811E+02  0.20588864323E+02 -0.56018135440E+02  0.14054311353E+03  0.12500214981E+03 0.  0.
    9000005    1    3    3    0    0  0.24192996502E+02 -0.38303559326E+02  0.15498773490E+02  0.47892334631E+02  0.10000000000E+01 0.  0.
    9000005    1    3    3    0    0 -0.42544569091E+00  0.58892423648E+02 -0.71516908930E+02  0.92650778897E+02  0.10000000000E+01 0.  0.
         -4    1    1    2    0  502 -0.23767550811E+02 -0.20588864323E+02 -0.18281663763E+02  0.36395465866E+02  0.12700000000E+01 0. -1.
<mgrwt>
<rscale>  1 0.12889661E+03</rscale>
<asrwt>0</asrwt>
<pdfrwt beam="2">  1       21 0.19324820E-01 0.12889661E+03</pdfrwt>
<pdfrwt beam="1">  1       -4 0.78957848E-02 0.12889661E+03</pdfrwt>
<totfact> 0.11125181E+05</totfact>
</mgrwt>
</event>
<event>
 6    4  0.6093247E-003  0.1271240E+03  0.7818608E-02  0.1231787E+00
          4   -1    0    0  502    0 -0.00000000000E+00  0.00000000000E+00  0.11485608881E+02  0.11555609519E+02  0.12700000000E+01 0.  1.
         21   -1    0    0  501  502  0.00000000000E+00 -0.00000000000E+00 -0.49985661838E+03  0.49985661838E+03  0.00000000000E+00 0.  1.
         25    2    1    2    0    0  0.11668359383E+02 -0.19987565031E+02 -0.38388938224E+03  0.40439037639E+03  0.12499946140E+03 0.  0.
    9000005    1    3    3    0    0 -0.11167595114E+02 -0.19669524174E+02 -0.30266344431E+01  0.22842195120E+02  0.10000000000E+01 0.  0.
    9000005    1    3    3    0    0  0.22835954497E+02 -0.31804085749E+00 -0.38086274780E+03  0.38154818127E+03  0.10000000000E+01 0.  0.
          4    1    1    2  501    0 -0.11668359383E+02  0.19987565031E+02 -0.10448162726E+03  0.10702185151E+03  0.12700000000E+01 0. -1.
<mgrwt>
<rscale>  1 0.12712403E+03</rscale>
<asrwt>0</asrwt>
<pdfrwt beam="2">  1       21 0.76901021E-01 0.12712403E+03</pdfrwt>
<pdfrwt beam="1">  1        4 0.17725255E-02 0.12712403E+03</pdfrwt>
<totfact> 0.74600714E+04</totfact>
</mgrwt>
</event>
<event>
 6    4  0.6093247E-003  0.1279061E+03  0.7818608E-02  0.1230596E+00
          4   -1    0    0  502    0 -0.00000000000E+00  0.00000000000E+00  0.39481157637E+02  0.39501578555E+02  0.12700000000E+01 0. -1.
         21   -1    0    0  501  502  0.00000000000E+00 -0.00000000000E+00 -0.15695721607E+03  0.15695721607E+03  0.00000000000E+00 0. -1.
         25    2    1    2    0    0 -0.25818939396E+02  0.82393476762E+01 -0.82545851438E+02  0.15222942947E+03  0.12500190848E+03 0.  0.
    9000005    1    3    3    0    0 -0.34470588204E+02  0.63335124089E+02 -0.45537602669E+02  0.85289112150E+02  0.10000000000E+01 0.  0.
    9000005    1    3    3    0    0  0.86516488079E+01 -0.55095776413E+02 -0.37008248768E+02  0.66940317317E+02  0.10000000000E+01 0.  0.
          4    1    1    2  501    0  0.25818939396E+02 -0.82393476762E+01 -0.34930207000E+02  0.44229365163E+02  0.12700000000E+01 0.  1.
<mgrwt>
<rscale>  1 0.12790614E+03</rscale>
<asrwt>0</asrwt>
<pdfrwt beam="2">  1       21 0.24147264E-01 0.12790614E+03</pdfrwt>
<pdfrwt beam="1">  1        4 0.60759903E-02 0.12790614E+03</pdfrwt>
<totfact> 0.11274235E+05</totfact>
</mgrwt>
</event>
<event>
 6    4  0.6093247E-003  0.1488679E+03  0.7818608E-02  0.1201871E+00
          4   -1    0    0  502    0 -0.00000000000E+00  0.00000000000E+00  0.37443353680E+03  0.37443569058E+03  0.12700000000E+01 0.  1.
         21   -1    0    0  501  502  0.00000000000E+00 -0.00000000000E+00 -0.14313040847E+03  0.14313040847E+03  0.00000000000E+00 0. -1.
         25    2    1    2    0    0  0.15347232696E+02  0.79374041137E+02  0.34632753392E+03  0.37696736955E+03  0.12500344393E+03 0.  0.
    9000005    1    3    3    0    0 -0.53707554466E+02  0.18666790290E+02  0.13708260500E+03  0.14841021212E+03  0.10000000000E+01 0.  0.
    9000005    1    3    3    0    0  0.69054787162E+02  0.60707250847E+02  0.20924492892E+03  0.22855715743E+03  0.10000000000E+01 0.  0.
          4    1    1    2  501    0 -0.15347232696E+02 -0.79374041137E+02 -0.11502440559E+03  0.14059872951E+03  0.12700000000E+01 0. -1.
<mgrwt>
<rscale>  1 0.14886785E+03</rscale>
<asrwt>0</asrwt>
<pdfrwt beam="2">  1       21 0.22020063E-01 0.14886785E+03</pdfrwt>
<pdfrwt beam="1">  1        4 0.57605758E-01 0.14886785E+03</pdfrwt>
<totfact> 0.23196242E+03</totfact>
</mgrwt>
</event>
<event>
 6    4  0.6093247E-003  0.1424535E+03  0.7818608E-02  0.1210065E+00
          4   -1    0    0  502    0 -0.00000000000E+00  0.00000000000E+00  0.28040813723E+03  0.28041101320E+03  0.12700000000E+01 0.  1.
         21   -1    0    0  501  502  0.00000000000E+00 -0.00000000000E+00 -0.50504769147E+02  0.50504769147E+02  0.00000000000E+00 0.  1.
         25    2    1    2    0    0  0.33123877083E+02  0.59750130559E+02  0.21968153113E+03  0.26182621595E+03  0.12500289158E+03 0.  0.
    9000005    1    3    3    0    0  0.19016839470E+02 -0.12002584939E+02 -0.70528338538E+01  0.23589079974E+02  0.10000000000E+01 0.  0.
    9000005    1    3    3    0    0  0.14107037613E+02  0.71752715498E+02  0.22673436499E+03  0.23823713598E+03  0.10000000000E+01 0.  0.
          4    1    1    2  501    0 -0.33123877083E+02 -0.59750130559E+02  0.10221836951E+02  0.69089566401E+02  0.12700000000E+01 0. -1.
<mgrwt>
<rscale>  1 0.14245347E+03</rscale>
<asrwt>0</asrwt>
<pdfrwt beam="2">  1       21 0.77699647E-02 0.14245347E+03</pdfrwt>
<pdfrwt beam="1">  1        4 0.43141162E-01 0.14245347E+03</pdfrwt>
<totfact> 0.26967472E+04</totfact>
</mgrwt>
</event>
<event>
 6    4  0.6093247E-003  0.1345635E+03  0.7818608E-02  0.1220837E+00
         -4   -1    0    0    0  501 -0.00000000000E+00  0.00000000000E+00  0.32668924898E+03  0.32669171752E+03  0.12700000000E+01 0.  1.
         21   -1    0    0  501  502  0.00000000000E+00 -0.00000000000E+00 -0.52330361674E+02  0.52330361674E+02  0.00000000000E+00 0. -1.
         25    2    1    2    0    0  0.23442627819E+01 -0.49767539773E+02  0.29564480367E+03  0.32482792159E+03  0.12500010049E+03 0.  0.
    9000005    1    3    3    0    0  0.11976880184E+02  0.45676308436E+01 -0.86968303309E+01  0.15522363489E+02  0.10000000000E+01 0.  0.
    9000005    1    3    3    0    0 -0.96326174025E+01 -0.54335170616E+02  0.30434163400E+03  0.30930555810E+03  0.10000000000E+01 0.  0.
         -4    1    1    2    0  502 -0.23442627819E+01  0.49767539773E+02 -0.21285916370E+02  0.54194157607E+02  0.12700000000E+01 0. -1.
<mgrwt>
<rscale>  1 0.13456347E+03</rscale>
<asrwt>0</asrwt>
<pdfrwt beam="2">  1       21 0.80508250E-02 0.13456347E+03</pdfrwt>
<pdfrwt beam="1">  1       -4 0.50261259E-01 0.13456347E+03</pdfrwt>
<totfact> 0.18534505E+04</totfact>
</mgrwt>
</event>
<event>
 6    4  0.6093247E-003  0.1302136E+03  0.7818608E-02  0.1227139E+00
         21   -1    0    0  501  502  0.00000000000E+00  0.00000000000E+00  0.38573562591E+02  0.38573562591E+02  0.00000000000E+00 0. -1.
          4   -1    0    0  502    0 -0.00000000000E+00 -0.00000000000E+00 -0.21010515025E+03  0.21010898854E+03  0.12700000000E+01 0. -1.
         25    2    1    2    0    0  0.36479906874E+02 -0.16924413788E+00 -0.86991196494E+02  0.15659833484E+03  0.12499903183E+03 0.  0.
    9000005    1    3    3    0    0  0.81689766389E+02  0.23536891599E+01 -0.71912286014E+02  0.10886291685E+03  0.10000000000E+01 0.  0.
    9000005    1    3    3    0    0 -0.45209859515E+02 -0.25229332978E+01 -0.15078910479E+02  0.47735417994E+02  0.10000000000E+01 0.  0.
          4    1    1    2  501    0 -0.36479906874E+02  0.16924413788E+00 -0.84540391170E+02  0.92084216282E+02  0.12700000000E+01 0.  1.
<mgrwt>
<rscale>  1 0.13021356E+03</rscale>
<asrwt>0</asrwt>
<pdfrwt beam="1">  1       21 0.59343942E-02 0.13021356E+03</pdfrwt>
<pdfrwt beam="2">  1        4 0.32325773E-01 0.13021356E+03</pdfrwt>
<totfact> 0.74219962E+04</totfact>
</mgrwt>
</event>
<event>
 6    4  0.6093247E-003  0.1330028E+03  0.7818608E-02  0.1223067E+00
         -4   -1    0    0    0  501 -0.00000000000E+00  0.00000000000E+00  0.76265593439E+02  0.76276166937E+02  0.12700000000E+01 0. -1.
         21   -1    0    0  501  502  0.00000000000E+00 -0.00000000000E+00 -0.14253586780E+03  0.14253586780E+03  0.00000000000E+00 0. -1.
         25    2    1    2    0    0 -0.45224374789E+02 -0.44067137992E+01  0.63322090801E+01  0.13315342919E+03  0.12500030253E+03 0.  0.
    9000005    1    3    3    0    0  0.39249856265E+02  0.19191728410E+02 -0.75438587688E+01  0.44348432456E+02  0.10000000000E+01 0.  0.
    9000005    1    3    3    0    0 -0.84474231054E+02 -0.23598442210E+02  0.13876067849E+02  0.88804996739E+02  0.10000000000E+01 0.  0.
         -4    1    1    2    0  502  0.45224374789E+02  0.44067137992E+01 -0.72602483442E+02  0.85658605543E+02  0.12700000000E+01 0.  1.
<mgrwt>
<rscale>  1 0.13300278E+03</rscale>
<asrwt>0</asrwt>
<pdfrwt beam="2">  1       21 0.21928595E-01 0.13300278E+03</pdfrwt>
<pdfrwt beam="1">  1       -4 0.11734417E-01 0.13300278E+03</pdfrwt>
<totfact> 0.45429604E+04</totfact>
</mgrwt>
</event>
<event>
 6    4  0.6093247E-003  0.1331869E+03  0.7818608E-02  0.1222802E+00
         -4   -1    0    0    0  501 -0.00000000000E+00  0.00000000000E+00  0.28205918416E+03  0.28206204329E+03  0.12700000000E+01 0. -1.
         21   -1    0    0  501  502  0.00000000000E+00 -0.00000000000E+00 -0.37045934330E+02  0.37045934330E+02  0.00000000000E+00 0.  1.
         25    2    1    2    0    0  0.43744542464E+02  0.14241835400E+02  0.23775342104E+03  0.27251685309E+03  0.12498932408E+03 0.  0.
    9000005    1    3    3    0    0  0.68077321913E+02  0.36428659182E+02  0.22378653628E+03  0.23673399162E+03  0.10000000000E+01 0.  0.
    9000005    1    3    3    0    0 -0.24332779449E+02 -0.22186823782E+02  0.13966884760E+02  0.35782861472E+02  0.10000000000E+01 0.  0.
         -4    1    1    2    0  502 -0.43744542464E+02 -0.14241835400E+02  0.72598287862E+01  0.46591124530E+02  0.12700000000E+01 0.  1.
<mgrwt>
<rscale>  1 0.13318688E+03</rscale>
<asrwt>0</asrwt>
<pdfrwt beam="2">  1       21 0.56993747E-02 0.13318688E+03</pdfrwt>
<pdfrwt beam="1">  1       -4 0.43395614E-01 0.13318688E+03</pdfrwt>
<totfact> 0.44914279E+04</totfact>
</mgrwt>
</event>
<event>
 6    4  0.6093247E-003  0.1272927E+03  0.7818608E-02  0.1231529E+00
         -4   -1    0    0    0  501 -0.00000000000E+00  0.00000000000E+00  0.14362759920E+02  0.14418799275E+02  0.12700000000E+01 0.  1.
         21   -1    0    0  501  502  0.00000000000E+00 -0.00000000000E+00 -0.51311005180E+03  0.51311005180E+03  0.00000000000E+00 0.  1.
         25    2    1    2    0    0  0.21089591232E+02 -0.11592998397E+02 -0.28142619781E+03  0.30887561122E+03  0.12499707966E+03 0.  0.
    9000005    1    3    3    0    0 -0.43093419758E+02 -0.38070576943E+02 -0.13888448397E+03  0.15032069565E+03  0.10000000000E+01 0.  0.
    9000005    1    3    3    0    0  0.64183010990E+02  0.26477578546E+02 -0.14254171384E+03  0.15855491556E+03  0.10000000000E+01 0.  0.
         -4    1    1    2    0  502 -0.21089591232E+02  0.11592998397E+02 -0.21732109408E+03  0.21865323986E+03  0.12700000000E+01 0. -1.
<mgrwt>
<rscale>  1 0.12729273E+03</rscale>
<asrwt>0</asrwt>
<pdfrwt beam="2">  1       21 0.78940000E-01 0.12729273E+03</pdfrwt>
<pdfrwt beam="1">  1       -4 0.22140872E-02 0.12729273E+03</pdfrwt>
<totfact> 0.50002015E+04</totfact>
</mgrwt>
</event>
<event>
 6    4  0.6093247E-003  0.1276030E+03  0.7818608E-02  0.1231056E+00
         -4   -1    0    0    0  501 -0.00000000000E+00  0.00000000000E+00  0.25258679243E+03  0.25258998517E+03  0.12700000000E+01 0. -1.
         21   -1    0    0  501  502  0.00000000000E+00 -0.00000000000E+00 -0.54170085767E+02  0.54170085767E+02  0.00000000000E+00 0.  1.
         25    2    1    2    0    0 -0.22388716701E+02 -0.12529693588E+02  0.23182182482E+03  0.26462027175E+03  0.12499712757E+03 0.  0.
    9000005    1    3    3    0    0  0.23394277951E+02  0.36767387356E+02  0.32858478265E+02  0.54587659848E+02  0.10000000000E+01 0.  0.
    9000005    1    3    3    0    0 -0.45782994651E+02 -0.49297080944E+02  0.19896334656E+03  0.21003261190E+03  0.10000000000E+01 0.  0.
         -4    1    1    2    0  502  0.22388716701E+02  0.12529693588E+02 -0.33405118157E+02  0.42139799193E+02  0.12700000000E+01 0.  1.
<mgrwt>
<rscale>  1 0.12760302E+03</rscale>
<asrwt>0</asrwt>
<pdfrwt beam="2">  1       21 0.83338595E-02 0.12760302E+03</pdfrwt>
<pdfrwt beam="1">  1       -4 0.38860897E-01 0.12760302E+03</pdfrwt>
<totfact> 0.29012071E+04</totfact>
</mgrwt>
</event>
<event>
 6    4  0.6093247E-003  0.1268674E+03  0.7818608E-02  0.1232179E+00
          4   -1    0    0  502    0 -0.00000000000E+00  0.00000000000E+00  0.32524567464E+03  0.32524815414E+03  0.12700000000E+01 0.  1.
         21   -1    0    0  501  502  0.00000000000E+00 -0.00000000000E+00 -0.19056471069E+02  0.19056471069E+02  0.00000000000E+00 0.  1.
         25    2    1    2    0    0  0.18263893028E+02 -0.11705461416E+02  0.29195205575E+03  0.31832584746E+03  0.12499901874E+03 0.  0.
    9000005    1    3    3    0    0 -0.41448278895E+01 -0.26793256827E+01  0.29401585277E+03  0.29405897379E+03  0.10000000000E+01 0.  0.
    9000005    1    3    3    0    0  0.22408720918E+02 -0.90261357330E+01 -0.20637970222E+01  0.24266873667E+02  0.10000000000E+01 0.  0.
          4    1    1    2  501    0 -0.18263893028E+02  0.11705461416E+02  0.14237147822E+02  0.25978777754E+02  0.12700000000E+01 0. -1.
<mgrwt>
<rscale>  1 0.12686742E+03</rscale>
<asrwt>0</asrwt>
<pdfrwt beam="2">  1       21 0.29317650E-02 0.12686742E+03</pdfrwt>
<pdfrwt beam="1">  1        4 0.50041238E-01 0.12686742E+03</pdfrwt>
<totfact> 0.10121705E+05</totfact>
</mgrwt>
</event>
<event>
 6    4  0.6093247E-003  0.1404500E+03  0.7818608E-02  0.1212725E+00
          4   -1    0    0  502    0 -0.00000000000E+00  0.00000000000E+00  0.43676357570E+02  0.43694817892E+02  0.12700000000E+01 0.  1.
         21   -1    0    0  501  502  0.00000000000E+00 -0.00000000000E+00 -0.29432253975E+03  0.29432253975E+03  0.00000000000E+00 0. -1.
         25    2    1    2    0    0 -0.60280151129E+02 -0.21622859112E+02 -0.94604509889E+02  0.16934056301E+03  0.12499987333E+03 0.  0.
    9000005    1    3    3    0    0  0.31340837419E+02  0.98520390811E+01 -0.56238071068E+02  0.65138555415E+02  0.10000000000E+01 0.  0.
    9000005    1    3    3    0    0 -0.91620988548E+02 -0.31474898193E+02 -0.38366438821E+02  0.10420200759E+03  0.10000000000E+01 0.  0.
          4    1    1    2  501    0  0.60280151129E+02  0.21622859112E+02 -0.15604167229E+03  0.16867679463E+03  0.12700000000E+01 0. -1.
<mgrwt>
<rscale>  1 0.14045004E+03</rscale>
<asrwt>0</asrwt>
<pdfrwt beam="2">  1       21 0.45280390E-01 0.14045004E+03</pdfrwt>
<pdfrwt beam="1">  1        4 0.67210706E-02 0.14045004E+03</pdfrwt>
<totfact> 0.28270612E+04</totfact>
</mgrwt>
</event>
<event>
 6    4  0.6093247E-003  0.1271621E+03  0.7818608E-02  0.1231728E+00
          4   -1    0    0  502    0 -0.00000000000E+00  0.00000000000E+00  0.36057245232E+02  0.36079604124E+02  0.12700000000E+01 0. -1.
         21   -1    0    0  501  502  0.00000000000E+00 -0.00000000000E+00 -0.54287432005E+03  0.54287432005E+03  0.00000000000E+00 0.  1.
         25    2    1    2    0    0 -0.17359686952E+01  0.23292981795E+02 -0.77327665270E+02  0.14882796309E+03  0.12499847276E+03 0.  0.
    9000005    1    3    3    0    0 -0.30427029270E+01 -0.33258478332E+02  0.18017751185E+02  0.37960819009E+02  0.10000000000E+01 0.  0.
    9000005    1    3    3    0    0  0.13067342318E+01  0.56551460127E+02 -0.95345416456E+02  0.11086714408E+03  0.10000000000E+01 0.  0.
          4    1    1    2  501    0  0.17359686952E+01 -0.23292981795E+02 -0.42948940955E+03  0.43012596109E+03  0.12700000000E+01 0.  1.
<mgrwt>
<rscale>  1 0.12716208E+03</rscale>
<asrwt>0</asrwt>
<pdfrwt beam="2">  1       21 0.83519123E-01 0.12716208E+03</pdfrwt>
<pdfrwt beam="1">  1        4 0.55491029E-02 0.12716208E+03</pdfrwt>
<totfact> 0.10346320E+04</totfact>
</mgrwt>
</event>
<event>
 6    4  0.6093247E-003  0.1306738E+03  0.7818608E-02  0.1226459E+00
         21   -1    0    0  501  502  0.00000000000E+00  0.00000000000E+00  0.17356890337E+03  0.17356890337E+03  0.00000000000E+00 0. -1.
         -4   -1    0    0    0  501 -0.00000000000E+00 -0.00000000000E+00 -0.75039680552E+02  0.75050426764E+02  0.12700000000E+01 0.  1.
         25    2    1    2    0    0  0.92473200370E+01  0.36935756237E+02 -0.12466957625E+02  0.13126717638E+03  0.12500353414E+03 0.  0.
    9000005    1    3    3    0    0 -0.70212481474E+01 -0.18347222645E+02 -0.55795610165E+02  0.59161377757E+02  0.10000000000E+01 0.  0.
    9000005    1    3    3    0    0  0.16268568184E+02  0.55282978882E+02  0.43328652540E+02  0.72105798628E+02  0.10000000000E+01 0.  0.
         -4    1    1    2    0  502 -0.92473200370E+01 -0.36935756237E+02  0.11099618045E+03  0.11735215375E+03  0.12700000000E+01 0. -1.
<mgrwt>
<rscale>  1 0.13067382E+03</rscale>
<asrwt>0</asrwt>
<pdfrwt beam="1">  1       21 0.26702908E-01 0.13067382E+03</pdfrwt>
<pdfrwt beam="2">  1       -4 0.11545750E-01 0.13067382E+03</pdfrwt>
<totfact> 0.32154498E+04</totfact>
</mgrwt>
</event>
<event>
 6    4  0.6093247E-003  0.1417059E+03  0.7818608E-02  0.1211052E+00
         21   -1    0    0  501  502  0.00000000000E+00  0.00000000000E+00  0.62145825564E+02  0.62145825564E+02  0.00000000000E+00 0. -1.
          4   -1    0    0  502    0 -0.00000000000E+00 -0.00000000000E+00 -0.22575923820E+03  0.22576281034E+03  0.12700000000E+01 0.  1.
         25    2    1    2    0    0  0.66630365055E+02  0.40664109396E+01 -0.16944330918E+03  0.22088817755E+03  0.12499764282E+03 0.  0.
    9000005    1    3    3    0    0  0.38347456280E+02  0.62280015206E+02 -0.11508271985E+03  0.13636113855E+03  0.10000000000E+01 0.  0.
    9000005    1    3    3    0    0  0.28282908775E+02 -0.58213604267E+02 -0.54360589322E+02  0.84527038999E+02  0.10000000000E+01 0.  0.
          4    1    1    2  501    0 -0.66630365055E+02 -0.40664109396E+01  0.58298965359E+01  0.67020458360E+02  0.12700000000E+01 0. -1.
<mgrwt>
<rscale>  1 0.14170586E+03</rscale>
<asrwt>0</asrwt>
<pdfrwt beam="1">  1       21 0.95608961E-02 0.14170586E+03</pdfrwt>
<pdfrwt beam="2">  1        4 0.34733464E-01 0.14170586E+03</pdfrwt>
<totfact> 0.28756264E+04</totfact>
</mgrwt>
</event>
<event>
 6    4  0.6093247E-003  0.1297284E+03  0.7818608E-02  0.1227859E+00
         21   -1    0    0  501  502  0.00000000000E+00  0.00000000000E+00  0.26104127024E+03  0.26104127024E+03  0.00000000000E+00 0. -1.
         -4   -1    0    0    0  501 -0.00000000000E+00 -0.00000000000E+00 -0.38405666228E+02  0.38426658695E+02  0.12700000000E+01 0. -1.
         25    2    1    2    0    0  0.31537083427E+02 -0.14481448733E+02  0.79433798165E+02  0.15211573151E+03  0.12500066997E+03 0.  0.
    9000005    1    3    3    0    0  0.54616932099E+02  0.43502271304E+01  0.10128515509E+03  0.11515909165E+03  0.10000000000E+01 0.  0.
    9000005    1    3    3    0    0 -0.23079848672E+02 -0.18831675863E+02 -0.21851356922E+02  0.36956639862E+02  0.10000000000E+01 0.  0.
         -4    1    1    2    0  502 -0.31537083427E+02  0.14481448733E+02  0.14320180585E+03  0.14735219743E+03  0.12700000000E+01 0.  1.
<mgrwt>
<rscale>  1 0.12972844E+03</rscale>
<asrwt>0</asrwt>
<pdfrwt beam="1">  1       21 0.40160194E-01 0.12972844E+03</pdfrwt>
<pdfrwt beam="2">  1       -4 0.59104166E-02 0.12972844E+03</pdfrwt>
<totfact> 0.44065259E+04</totfact>
</mgrwt>
</event>
<event>
 6    4  0.6093247E-003  0.1269753E+03  0.7818608E-02  0.1232014E+00
         21   -1    0    0  501  502  0.00000000000E+00  0.00000000000E+00  0.21018034139E+02  0.21018034139E+02  0.00000000000E+00 0.  1.
          4   -1    0    0  502    0 -0.00000000000E+00 -0.00000000000E+00 -0.36248065388E+03  0.36248287868E+03  0.12700000000E+01 0.  1.
         25    2    1    2    0    0 -0.19187957504E+02  0.11328391958E+02 -0.33780981060E+03  0.36088529671E+03  0.12500487617E+03 0.  0.
    9000005    1    3    3    0    0  0.36512902468E+02  0.45681893368E+02 -0.12070726742E+03  0.13413154676E+03  0.10000000000E+01 0.  0.
    9000005    1    3    3    0    0 -0.55700859972E+02 -0.34353501411E+02 -0.21710254317E+03  0.22675374994E+03  0.10000000000E+01 0.  0.
          4    1    1    2  501    0  0.19187957504E+02 -0.11328391958E+02 -0.36528091434E+01  0.22615616112E+02  0.12700000000E+01 0. -1.
<mgrwt>
<rscale>  1 0.12697531E+03</rscale>
<asrwt>0</asrwt>
<pdfrwt beam="1">  1       21 0.32335439E-02 0.12697531E+03</pdfrwt>
<pdfrwt beam="2">  1        4 0.55769374E-01 0.12697531E+03</pdfrwt>
<totfact> 0.69002113E+04</totfact>
</mgrwt>
</event>
<event>
 6    4  0.6093247E-003  0.1273800E+03  0.7818608E-02  0.1231396E+00
         -4   -1    0    0    0  501 -0.00000000000E+00  0.00000000000E+00  0.97168136596E+03  0.97168219591E+03  0.12700000000E+01 0.  1.
         21   -1    0    0  501  502  0.00000000000E+00 -0.00000000000E+00 -0.61985622940E+01  0.61985622940E+01  0.00000000000E+00 0.  1.
         25    2    1    2    0    0 -0.40142797667E+01 -0.24231146525E+02  0.72116900854E+03  0.73233217586E+03  0.12498965564E+03 0.  0.
    9000005    1    3    3    0    0  0.36945033288E+02  0.15499304666E+02  0.55860949425E+03  0.56004529370E+03  0.10000000000E+01 0.  0.
    9000005    1    3    3    0    0 -0.40959313055E+02 -0.39730451191E+02  0.16255951429E+03  0.17228688216E+03  0.10000000000E+01 0.  0.
         -4    1    1    2    0  502  0.40142797667E+01  0.24231146525E+02  0.24431379512E+03  0.24554858234E+03  0.12700000000E+01 0. -1.
<mgrwt>
<rscale>  1 0.12738005E+03</rscale>
<asrwt>0</asrwt>
<pdfrwt beam="2">  1       21 0.95362574E-03 0.12738005E+03</pdfrwt>
<pdfrwt beam="1">  1       -4 0.14949939E+00 0.12738005E+03</pdfrwt>
<totfact> 0.51987834E+04</totfact>
</mgrwt>
</event>
<event>
 6    4  0.6093247E-003  0.1364896E+03  0.7818608E-02  0.1218132E+00
         21   -1    0    0  501  502  0.00000000000E+00  0.00000000000E+00  0.75975292853E+03  0.75975292853E+03  0.00000000000E+00 0.  1.
          4   -1    0    0  502    0 -0.00000000000E+00 -0.00000000000E+00 -0.24764224654E+02  0.24796768392E+02  0.12700000000E+01 0. -1.
         25    2    1    2    0    0 -0.54443177469E+02 -0.63828361385E+01  0.17524354102E+03  0.22212542610E+03  0.12499842431E+03 0.  0.
    9000005    1    3    3    0    0  0.15992183268E+02  0.39739932951E+02  0.10159539544E+03  0.11026167318E+03  0.10000000000E+01 0.  0.
    9000005    1    3    3    0    0 -0.70435360737E+02 -0.46122769089E+02  0.73648145573E+02  0.11186375292E+03  0.10000000000E+01 0.  0.
          4    1    1    2  501    0  0.54443177469E+02  0.63828361385E+01  0.55974516286E+03  0.56242427082E+03  0.12700000000E+01 0.  1.
<mgrwt>
<rscale>  1 0.13648958E+03</rscale>
<asrwt>0</asrwt>
<pdfrwt beam="1">  1       21 0.11688505E+00 0.13648958E+03</pdfrwt>
<pdfrwt beam="2">  1        4 0.38124663E-02 0.13648958E+03</pdfrwt>
<totfact> 0.86367424E+03</totfact>
</mgrwt>
</event>
<event>
 6    4  0.6093247E-003  0.1279528E+03  0.7818608E-02  0.1230525E+00
          4   -1    0    0  502    0 -0.00000000000E+00  0.00000000000E+00  0.48667866587E+02  0.48684434249E+02  0.12700000000E+01 0. -1.
         21   -1    0    0  501  502  0.00000000000E+00 -0.00000000000E+00 -0.13738037616E+03  0.13738037616E+03  0.00000000000E+00 0. -1.
         25    2    1    2    0    0 -0.12237893220E+02  0.24445264658E+02 -0.47277293044E+02  0.13640771561E+03  0.12499834178E+03 0.  0.
    9000005    1    3    3    0    0  0.25970318762E+02 -0.12039104702E+01  0.34113460403E+02  0.42902622736E+02  0.10000000000E+01 0.  0.
    9000005    1    3    3    0    0 -0.38208211982E+02  0.25649175128E+02 -0.81390753446E+02  0.93505092878E+02  0.10000000000E+01 0.  0.
          4    1    1    2  501    0  0.12237893220E+02 -0.24445264658E+02 -0.41435216533E+02  0.49657094798E+02  0.12700000000E+01 0.  1.
<mgrwt>
<rscale>  1 0.12795281E+03</rscale>
<asrwt>0</asrwt>
<pdfrwt beam="2">  1       21 0.21135442E-01 0.12795281E+03</pdfrwt>
<pdfrwt beam="1">  1        4 0.74890901E-02 0.12795281E+03</pdfrwt>
<totfact> 0.10274990E+05</totfact>
</mgrwt>
</event>
<event>
 6    4  0.6093247E-003  0.1274380E+03  0.7818608E-02  0.1231308E+00
         -4   -1    0    0    0  501 -0.00000000000E+00  0.00000000000E+00  0.52713526047E+02  0.52728822558E+02  0.12700000000E+01 0.  1.
         21   -1    0    0  501  502  0.00000000000E+00 -0.00000000000E+00 -0.22822827368E+03  0.22822827368E+03  0.00000000000E+00 0. -1.
         25    2    1    2    0    0  0.10994933125E+02 -0.22228632992E+02 -0.26853871043E+02  0.13023659396E+03  0.12500175733E+03 0.  0.
    9000005    1    3    3    0    0 -0.31061669888E+02  0.73338619260E+01 -0.60764912807E+02  0.68643918125E+02  0.10000000000E+01 0.  0.
    9000005    1    3    3    0    0  0.42056603014E+02 -0.29562494918E+02  0.33911041764E+02  0.61592675834E+02  0.10000000000E+01 0.  0.
         -4    1    1    2    0  502 -0.10994933125E+02  0.22228632992E+02 -0.14866087659E+03  0.15072050228E+03  0.12700000000E+01 0. -1.
<mgrwt>
<rscale>  1 0.12743798E+03</rscale>
<asrwt>0</asrwt>
<pdfrwt beam="2">  1       21 0.35112041E-01 0.12743798E+03</pdfrwt>
<pdfrwt beam="1">  1       -4 0.81112219E-02 0.12743798E+03</pdfrwt>
<totfact> 0.34166505E+04</totfact>
</mgrwt>
</event>
<event>
 6    4  0.6093247E-003  0.1655498E+03  0.7818608E-02  0.1182570E+00
         -4   -1    0    0    0  501 -0.00000000000E+00  0.00000000000E+00  0.19308010148E+03  0.19308427819E+03  0.12700000000E+01 0. -1.
         21   -1    0    0  501  502  0.00000000000E+00 -0.00000000000E+00 -0.98520114663E+02  0.98520114663E+02  0.00000000000E+00 0.  1.
         25    2    1    2    0    0 -0.77505630607E+02  0.75991165371E+02  0.73012031593E+02  0.18093503276E+03  0.12499979733E+03 0.  0.
    9000005    1    3    3    0    0 -0.22153175731E+02 -0.22557427608E+02  0.59119822791E+02  0.67050385398E+02  0.10000000000E+01 0.  0.
    9000005    1    3    3    0    0 -0.55352454876E+02  0.98548592980E+02  0.13892208802E+02  0.11388464736E+03  0.10000000000E+01 0.  0.
         -4    1    1    2    0  502  0.77505630607E+02 -0.75991165371E+02  0.21547955221E+02  0.11066936010E+03  0.12700000000E+01 0.  1.
<mgrwt>
<rscale>  1 0.16554978E+03</rscale>
<asrwt>0</asrwt>
<pdfrwt beam="2">  1       21 0.15156941E-01 0.16554978E+03</pdfrwt>
<pdfrwt beam="1">  1       -4 0.29705582E-01 0.16554978E+03</pdfrwt>
<totfact> 0.17330045E+04</totfact>
</mgrwt>
</event>
<event>
 6    4  0.6093247E-003  0.1296043E+03  0.7818608E-02  0.1228044E+00
          4   -1    0    0  502    0 -0.00000000000E+00  0.00000000000E+00  0.16503629173E+03  0.16504117816E+03  0.12700000000E+01 0.  1.
         21   -1    0    0  501  502  0.00000000000E+00 -0.00000000000E+00 -0.44694432604E+02  0.44694432604E+02  0.00000000000E+00 0. -1.
         25    2    1    2    0    0 -0.28012078966E+02 -0.19682289372E+02  0.11820022471E+03  0.17540969372E+03  0.12500079378E+03 0.  0.
    9000005    1    3    3    0    0  0.31804043724E+02 -0.14355470996E+02  0.10924232398E+03  0.11468418414E+03  0.10000000000E+01 0.  0.
    9000005    1    3    3    0    0 -0.59816122690E+02 -0.53268183754E+01  0.89579007358E+01  0.60725509576E+02  0.10000000000E+01 0.  0.
          4    1    1    2  501    0  0.28012078966E+02  0.19682289372E+02  0.21416344145E+01  0.34325917044E+02  0.12700000000E+01 0. -1.
<mgrwt>
<rscale>  1 0.12960427E+03</rscale>
<asrwt>0</asrwt>
<pdfrwt beam="2">  1       21 0.68760667E-02 0.12960427E+03</pdfrwt>
<pdfrwt beam="1">  1        4 0.25391962E-01 0.12960427E+03</pdfrwt>
<totfact> 0.90816961E+04</totfact>
</mgrwt>
</event>
<event>
 6    4  0.6093247E-003  0.1267723E+03  0.7818608E-02  0.1232325E+00
         -4   -1    0    0    0  501 -0.00000000000E+00  0.00000000000E+00  0.92215765753E+01  0.93086182935E+01  0.12700000000E+01 0.  1.
         21   -1    0    0  501  502  0.00000000000E+00 -0.00000000000E+00 -0.59291438972E+03  0.59291438972E+03  0.00000000000E+00 0.  1.
         25    2    1    2    0    0 -0.21043590860E+02 -0.17423837284E+01 -0.48558609798E+03  0.50186161565E+03  0.12500141636E+03 0.  0.
    9000005    1    3    3    0    0  0.39535737440E+02 -0.15031577421E+02 -0.35250660630E+03  0.35503651972E+03  0.10000000000E+01 0.  0.
    9000005    1    3    3    0    0 -0.60579328300E+02  0.13289193693E+02 -0.13307949169E+03  0.14682509593E+03  0.10000000000E+01 0.  0.
         -4    1    1    2    0  502  0.21043590860E+02  0.17423837284E+01 -0.98106715163E+02  0.10036139236E+03  0.12700000000E+01 0. -1.
<mgrwt>
<rscale>  1 0.12677233E+03</rscale>
<asrwt>0</asrwt>
<pdfrwt beam="2">  1       21 0.91217619E-01 0.12677233E+03</pdfrwt>
<pdfrwt beam="1">  1       -4 0.14255039E-02 0.12677233E+03</pdfrwt>
<totfact> 0.70779902E+04</totfact>
</mgrwt>
</event>
<event>
 6    4  0.6093247E-003  0.1324928E+03  0.7818608E-02  0.1223803E+00
         -4   -1    0    0    0  501 -0.00000000000E+00  0.00000000000E+00  0.34979564721E+03  0.34979795269E+03  0.12700000000E+01 0.  1.
         21   -1    0    0  501  502  0.00000000000E+00 -0.00000000000E+00 -0.22541935949E+02  0.22541935949E+02  0.00000000000E+00 0.  1.
         25    2    1    2    0    0 -0.17110862999E+02 -0.40449383936E+02  0.22618449760E+03  0.26213311415E+03  0.12500163314E+03 0.  0.
    9000005    1    3    3    0    0  0.87355034004E+01  0.21835524657E+02  0.17725509361E+03  0.17881126186E+03  0.10000000000E+01 0.  0.
    9000005    1    3    3    0    0 -0.25846366400E+02 -0.62284908592E+02  0.48929403984E+02  0.83321852288E+02  0.10000000000E+01 0.  0.
         -4    1    1    2    0  502  0.17110862999E+02  0.40449383936E+02  0.10106921367E+03  0.11020677449E+03  0.12700000000E+01 0. -1.
<mgrwt>
<rscale>  1 0.13249280E+03</rscale>
<asrwt>0</asrwt>
<pdfrwt beam="2">  1       21 0.34679904E-02 0.13249280E+03</pdfrwt>
<pdfrwt beam="1">  1       -4 0.53817640E-01 0.13249280E+03</pdfrwt>
<totfact> 0.66577950E+04</totfact>
</mgrwt>
</event>
<event>
 6    4  0.6093247E-003  0.1558397E+03  0.7818608E-02  0.1193475E+00
          4   -1    0    0  502    0 -0.00000000000E+00  0.00000000000E+00  0.71541807812E+02  0.71553079354E+02  0.12700000000E+01 0. -1.
         21   -1    0    0  501  502  0.00000000000E+00 -0.00000000000E+00 -0.47725538891E+03  0.47725538891E+03  0.00000000000E+00 0.  1.
         25    2    1    2    0    0 -0.58573821854E+02  0.72324104109E+02 -0.26173781058E+02  0.15802241253E+03  0.12499738959E+03 0.  0.
    9000005    1    3    3    0    0 -0.42240677893E+02  0.48296815535E+02  0.46831553889E+02  0.79442127988E+02  0.10000000000E+01 0.  0.
    9000005    1    3    3    0    0 -0.16333143961E+02  0.24027288574E+02 -0.73005334947E+02  0.78580284541E+02  0.10000000000E+01 0.  0.
          4    1    1    2  501    0  0.58573821854E+02 -0.72324104109E+02 -0.37953980004E+03  0.39078605573E+03  0.12700000000E+01 0.  1.
<mgrwt>
<rscale>  1 0.15583971E+03</rscale>
<asrwt>0</asrwt>
<pdfrwt beam="2">  1       21 0.73423906E-01 0.15583971E+03</pdfrwt>
<pdfrwt beam="1">  1        4 0.11007429E-01 0.15583971E+03</pdfrwt>
<totfact> 0.44856476E+03</totfact>
</mgrwt>
</event>
<event>
 6    4  0.6093247E-003  0.1292499E+03  0.7818608E-02  0.1228573E+00
         21   -1    0    0  501  502  0.00000000000E+00  0.00000000000E+00  0.27383051075E+02  0.27383051075E+02  0.00000000000E+00 0.  1.
         -4   -1    0    0    0  501 -0.00000000000E+00 -0.00000000000E+00 -0.24544384264E+03  0.24544712829E+03  0.12700000000E+01 0.  1.
         25    2    1    2    0    0  0.14339709333E+02 -0.29579985175E+02 -0.15597917905E+03  0.20257107107E+03  0.12499972700E+03 0.  0.
    9000005    1    3    3    0    0 -0.38468155207E+02 -0.40170501916E+02 -0.25078612985E+02  0.61019710082E+02  0.10000000000E+01 0.  0.
    9000005    1    3    3    0    0  0.52807864540E+02  0.10590516741E+02 -0.13090056606E+03  0.14155136099E+03  0.10000000000E+01 0.  0.
         -4    1    1    2    0  502 -0.14339709333E+02  0.29579985175E+02 -0.62081612516E+02  0.70259108301E+02  0.12700000000E+01 0. -1.
<mgrwt>
<rscale>  1 0.12924989E+03</rscale>
<asrwt>0</asrwt>
<pdfrwt beam="1">  1       21 0.42127769E-02 0.12924989E+03</pdfrwt>
<pdfrwt beam="2">  1       -4 0.37763111E-01 0.12924989E+03</pdfrwt>
<totfact> 0.97696221E+04</totfact>
</mgrwt>
</event>
<event>
 6    4  0.6093247E-003  0.1269906E+03  0.7818608E-02  0.1231991E+00
         21   -1    0    0  501  502  0.00000000000E+00  0.00000000000E+00  0.74772956892E+02  0.74772956892E+02  0.00000000000E+00 0. -1.
         -4   -1    0    0    0  501 -0.00000000000E+00 -0.00000000000E+00 -0.93553554124E+02  0.93562173923E+02  0.12700000000E+01 0. -1.
         25    2    1    2    0    0 -0.21709652067E+02 -0.54433621164E+01 -0.44181296751E+02  0.13445670671E+03  0.12500271922E+03 0.  0.
    9000005    1    3    3    0    0  0.29725318957E+02  0.91456965360E+01 -0.68859362810E+02  0.75563550730E+02  0.10000000000E+01 0.  0.
    9000005    1    3    3    0    0 -0.51434971024E+02 -0.14589058652E+02  0.24678066059E+02  0.58893155978E+02  0.10000000000E+01 0.  0.
         -4    1    1    2    0  502  0.21709652067E+02  0.54433621164E+01  0.25400699519E+02  0.33878424108E+02  0.12700000000E+01 0.  1.
<mgrwt>
<rscale>  1 0.12699063E+03</rscale>
<asrwt>0</asrwt>
<pdfrwt beam="1">  1       21 0.11503532E-01 0.12699063E+03</pdfrwt>
<pdfrwt beam="2">  1       -4 0.14394347E-01 0.12699063E+03</pdfrwt>
<totfact> 0.10232221E+05</totfact>
</mgrwt>
</event>
<event>
 6    4  0.6093247E-003  0.1271088E+03  0.7818608E-02  0.1231810E+00
          4   -1    0    0  502    0 -0.00000000000E+00  0.00000000000E+00  0.36007703630E+02  0.36030093265E+02  0.12700000000E+01 0. -1.
         21   -1    0    0  501  502  0.00000000000E+00 -0.00000000000E+00 -0.44932801951E+03  0.44932801951E+03  0.00000000000E+00 0. -1.
         25    2    1    2    0    0 -0.22480605646E+02  0.49732496197E+01 -0.77762493532E+02  0.14900892535E+03  0.12500617422E+03 0.  0.
    9000005    1    3    3    0    0 -0.84456717009E+01 -0.10138004051E+02 -0.10996340802E+03  0.11075675871E+03  0.10000000000E+01 0.  0.
    9000005    1    3    3    0    0 -0.14034933945E+02  0.15111253670E+02  0.32200914492E+02  0.38252166637E+02  0.10000000000E+01 0.  0.
          4    1    1    2  501    0  0.22480605646E+02 -0.49732496197E+01 -0.33555782235E+03  0.33634918743E+03  0.12700000000E+01 0.  1.
<mgrwt>
<rscale>  1 0.12710883E+03</rscale>
<asrwt>0</asrwt>
<pdfrwt beam="2">  1       21 0.69127390E-01 0.12710883E+03</pdfrwt>
<pdfrwt beam="1">  1        4 0.55415068E-02 0.12710883E+03</pdfrwt>
<totfact> 0.15755670E+04</totfact>
</mgrwt>
</event>
<event>
 6    4  0.6093247E-003  0.1529581E+03  0.7818608E-02  0.1196885E+00
         -4   -1    0    0    0  501 -0.00000000000E+00  0.00000000000E+00  0.48068157312E+03  0.48068325083E+03  0.12700000000E+01 0. -1.
         21   -1    0    0  501  502  0.00000000000E+00 -0.00000000000E+00 -0.34588825092E+02  0.34588825092E+02  0.00000000000E+00 0.  1.
         25    2    1    2    0    0  0.41300572061E+02  0.77884579562E+02  0.36388382647E+03  0.39472472146E+03  0.12499768629E+03 0.  0.
    9000005    1    3    3    0    0  0.25539379424E+02  0.75073495460E+02  0.88342404704E+02  0.11871676415E+03  0.10000000000E+01 0.  0.
    9000005    1    3    3    0    0  0.15761192637E+02  0.28110841023E+01  0.27554142177E+03  0.27600795731E+03  0.10000000000E+01 0.  0.
         -4    1    1    2    0  502 -0.41300572061E+02 -0.77884579562E+02  0.82208921553E+02  0.12054735447E+03  0.12700000000E+01 0.  1.
<mgrwt>
<rscale>  1 0.15295805E+03</rscale>
<asrwt>0</asrwt>
<pdfrwt beam="2">  1       21 0.53213581E-02 0.15295805E+03</pdfrwt>
<pdfrwt beam="1">  1       -4 0.73952929E-01 0.15295805E+03</pdfrwt>
<totfact> 0.16864992E+04</totfact>
</mgrwt>
</event>
<event>
 6    4  0.6093247E-003  0.1349830E+03  0.7818608E-02  0.1220244E+00
         21   -1    0    0  501  502  0.00000000000E+00  0.00000000000E+00  0.19991032547E+02  0.19991032547E+02  0.00000000000E+00 0.  1.
         -4   -1    0    0    0  501 -0.00000000000E+00 -0.00000000000E+00 -0.57557292859E+03  0.57557432971E+03  0.12700000000E+01 0. -1.
         25    2    1    2    0    0  0.16517799622E+02  0.48180745188E+02 -0.50878379078E+03  0.52638518108E+03  0.12500476469E+03 0.  0.
    9000005    1    3    3    0    0 -0.20667029799E+02 -0.52819433792E+01 -0.10379966091E+02  0.23743814829E+02  0.10000000000E+01 0.  0.
    9000005    1    3    3    0    0  0.37184829421E+02  0.53462688567E+02 -0.49840382468E+03  0.50264136625E+03  0.10000000000E+01 0.  0.
         -4    1    1    2    0  502 -0.16517799622E+02 -0.48180745188E+02 -0.46798105265E+02  0.69180181177E+02  0.12700000000E+01 0.  1.
<mgrwt>
<rscale>  1 0.13498301E+03</rscale>
<asrwt>0</asrwt>
<pdfrwt beam="1">  1       21 0.30755444E-02 0.13498301E+03</pdfrwt>
<pdfrwt beam="2">  1       -4 0.88552865E-01 0.13498301E+03</pdfrwt>
<totfact> 0.27833170E+04</totfact>
</mgrwt>
</event>
<event>
 6    4  0.6093247E-003  0.1297468E+03  0.7818608E-02  0.1227832E+00
         21   -1    0    0  501  502  0.00000000000E+00  0.00000000000E+00  0.10550737170E+03  0.10550737170E+03  0.00000000000E+00 0. -1.
          4   -1    0    0  502    0 -0.00000000000E+00 -0.00000000000E+00 -0.72321440892E+02  0.72332590944E+02  0.12700000000E+01 0.  1.
         25    2    1    2    0    0  0.23812044567E+02  0.25370315214E+02  0.95825054387E-02  0.12974683063E+03  0.12499429429E+03 0.  0.
    9000005    1    3    3    0    0 -0.71215072753E+01  0.61195315145E+02  0.35012844695E+02  0.70869469838E+02  0.10000000000E+01 0.  0.
    9000005    1    3    3    0    0  0.30933551842E+02 -0.35824999931E+02 -0.35003262189E+02  0.58877360789E+02  0.10000000000E+01 0.  0.
          4    1    1    2  501    0 -0.23812044567E+02 -0.25370315214E+02  0.33176348302E+02  0.48093132017E+02  0.12700000000E+01 0. -1.
<mgrwt>
<rscale>  1 0.12974683E+03</rscale>
<asrwt>0</asrwt>
<pdfrwt beam="1">  1       21 0.16231903E-01 0.12974683E+03</pdfrwt>
<pdfrwt beam="2">  1        4 0.11127821E-01 0.12974683E+03</pdfrwt>
<totfact> 0.86215787E+04</totfact>
</mgrwt>
</event>
<event>
 6    4  0.6093247E-003  0.1266368E+03  0.7818608E-02  0.1232533E+00
         21   -1    0    0  501  502  0.00000000000E+00  0.00000000000E+00  0.17123551821E+03  0.17123551821E+03  0.00000000000E+00 0.  1.
         -4   -1    0    0    0  501 -0.00000000000E+00 -0.00000000000E+00 -0.36081451054E+02  0.36103794955E+02  0.12700000000E+01 0.  1.
         25    2    1    2    0    0 -0.61414619899E+01  0.19322124907E+02  0.83115687155E+02  0.15147637411E+03  0.12500324955E+03 0.  0.
    9000005    1    3    3    0    0  0.42624409360E+02  0.41940115468E+02  0.98691735395E+01  0.60615296296E+02  0.10000000000E+01 0.  0.
    9000005    1    3    3    0    0 -0.48765871349E+02 -0.22617990560E+02  0.73246513616E+02  0.90861077818E+02  0.10000000000E+01 0.  0.
         -4    1    1    2    0  502  0.61414619899E+01 -0.19322124907E+02  0.52038380001E+02  0.55862939051E+02  0.12700000000E+01 0. -1.
<mgrwt>
<rscale>  1 0.12663678E+03</rscale>
<asrwt>0</asrwt>
<pdfrwt beam="1">  1       21 0.26343925E-01 0.12663678E+03</pdfrwt>
<pdfrwt beam="2">  1       -4 0.55530736E-02 0.12663678E+03</pdfrwt>
<totfact> 0.11048405E+05</totfact>
</mgrwt>
</event>
<event>
 6    4  0.6093247E-003  0.1273995E+03  0.7818608E-02  0.1231366E+00
         -4   -1    0    0    0  501 -0.00000000000E+00  0.00000000000E+00  0.24720713057E+02  0.24753314002E+02  0.12700000000E+01 0. -1.
         21   -1    0    0  501  502  0.00000000000E+00 -0.00000000000E+00 -0.48950034140E+03  0.48950034140E+03  0.00000000000E+00 0.  1.
         25    2    1    2    0    0 -0.24589350613E+02 -0.67263230304E+00 -0.14294647887E+03  0.19147931070E+03  0.12500216801E+03 0.  0.
    9000005    1    3    3    0    0 -0.30863922735E+01 -0.50511521675E+02 -0.15474508376E+02  0.52928253784E+02  0.10000000000E+01 0.  0.
    9000005    1    3    3    0    0 -0.21502958339E+02  0.49838889372E+02 -0.12747197050E+03  0.13855105692E+03  0.10000000000E+01 0.  0.
         -4    1    1    2    0  502  0.24589350613E+02  0.67263230304E+00 -0.32183314947E+03  0.32277434470E+03  0.12700000000E+01 0.  1.
<mgrwt>
<rscale>  1 0.12739949E+03</rscale>
<asrwt>0</asrwt>
<pdfrwt beam="2">  1       21 0.75307740E-01 0.12739949E+03</pdfrwt>
<pdfrwt beam="1">  1       -4 0.38058214E-02 0.12739949E+03</pdfrwt>
<totfact> 0.23812935E+04</totfact>
</mgrwt>
</event>
<event>
 6    4  0.6093247E-003  0.1275007E+03  0.7818608E-02  0.1231212E+00
          4   -1    0    0  502    0 -0.00000000000E+00  0.00000000000E+00  0.15148732209E+03  0.15149264554E+03  0.12700000000E+01 0.  1.
         21   -1    0    0  501  502  0.00000000000E+00 -0.00000000000E+00 -0.78983500369E+02  0.78983500369E+02  0.00000000000E+00 0. -1.
         25    2    1    2    0    0 -0.25142967705E+02 -0.23193188090E+00  0.12103668626E+03  0.17580188818E+03  0.12499680736E+03 0.  0.
    9000005    1    3    3    0    0 -0.66733262571E+02 -0.76403493172E+01  0.26433764648E+02  0.72190353819E+02  0.10000000000E+01 0.  0.
    9000005    1    3    3    0    0  0.41590294866E+02  0.74084174363E+01  0.94602921609E+02  0.10361153436E+03  0.10000000000E+01 0.  0.
          4    1    1    2  501    0  0.25142967705E+02  0.23193188090E+00 -0.48532864541E+02  0.54674257726E+02  0.12700000000E+01 0. -1.
<mgrwt>
<rscale>  1 0.12750068E+03</rscale>
<asrwt>0</asrwt>
<pdfrwt beam="2">  1       21 0.12151308E-01 0.12750068E+03</pdfrwt>
<pdfrwt beam="1">  1        4 0.23306937E-01 0.12750068E+03</pdfrwt>
<totfact> 0.39399789E+04</totfact>
</mgrwt>
</event>
<event>
 6    4  0.6093247E-003  0.1279510E+03  0.7818608E-02  0.1230528E+00
         21   -1    0    0  501  502  0.00000000000E+00  0.00000000000E+00  0.86192226399E+02  0.86192226399E+02  0.00000000000E+00 0.  1.
          4   -1    0    0  502    0 -0.00000000000E+00 -0.00000000000E+00 -0.43888626493E+03  0.43888810242E+03  0.12700000000E+01 0. -1.
         25    2    1    2    0    0 -0.26382187214E+02 -0.70821029787E+01 -0.42707592072E+03  0.44583101788E+03  0.12500111382E+03 0.  0.
    9000005    1    3    3    0    0 -0.42923278216E+02 -0.25965980448E+02 -0.61406025772E+02  0.79299053932E+02  0.10000000000E+01 0.  0.
    9000005    1    3    3    0    0  0.16541091002E+02  0.18883877470E+02 -0.36566989495E+03  0.36653196395E+03  0.10000000000E+01 0.  0.
          4    1    1    2  501    0  0.26382187214E+02  0.70821029787E+01  0.74381882196E+02  0.79249310936E+02  0.12700000000E+01 0.  1.
<mgrwt>
<rscale>  1 0.12795098E+03</rscale>
<asrwt>0</asrwt>
<pdfrwt beam="1">  1       21 0.13260342E-01 0.12795098E+03</pdfrwt>
<pdfrwt beam="2">  1        4 0.67521825E-01 0.12795098E+03</pdfrwt>
<totfact> 0.41503372E+03</totfact>
</mgrwt>
</event>
<event>
 6    4  0.6093247E-003  0.1362950E+03  0.7818608E-02  0.1218403E+00
         21   -1    0    0  501  502  0.00000000000E+00  0.00000000000E+00  0.23981124515E+03  0.23981124515E+03  0.00000000000E+00 0. -1.
          4   -1    0    0  502    0 -0.00000000000E+00 -0.00000000000E+00 -0.53263086873E+02  0.53278225602E+02  0.12700000000E+01 0.  1.
         25    2    1    2    0    0 -0.33975791269E+02  0.42398728770E+02  0.48396557266E+02  0.14463245894E+03  0.12499725929E+03 0.  0.
    9000005    1    3    3    0    0  0.26756998652E+02  0.91732757925E+01 -0.29181575065E+02  0.40652801735E+02  0.10000000000E+01 0.  0.
    9000005    1    3    3    0    0 -0.60732789921E+02  0.33225452977E+02  0.77578132331E+02  0.10397965721E+03  0.10000000000E+01 0.  0.
          4    1    1    2  501    0  0.33975791269E+02 -0.42398728770E+02  0.13815160101E+03  0.14845701181E+03  0.12700000000E+01 0. -1.
<mgrwt>
<rscale>  1 0.13629498E+03</rscale>
<asrwt>0</asrwt>
<pdfrwt beam="1">  1       21 0.36894037E-01 0.13629498E+03</pdfrwt>
<pdfrwt beam="2">  1        4 0.81957444E-02 0.13629498E+03</pdfrwt>
<totfact> 0.30672442E+04</totfact>
</mgrwt>
</event>
<event>
 6    4  0.6093247E-003  0.2667775E+03  0.7818608E-02  0.1103138E+00
         21   -1    0    0  501  502  0.00000000000E+00  0.00000000000E+00  0.32083218316E+03  0.32083218316E+03  0.00000000000E+00 0. -1.
          4   -1    0    0  502    0 -0.00000000000E+00 -0.00000000000E+00 -0.23209176552E+03  0.23209524020E+03  0.12700000000E+01 0.  1.
         25    2    1    2    0    0  0.14695144806E+03 -0.18427508050E+03 -0.61030570059E+02  0.27366948697E+03  0.12497289402E+03 0.  0.
    9000005    1    3    3    0    0  0.50714115035E+01 -0.43943968466E+02  0.30885111501E+02  0.53960000849E+02  0.10000000000E+01 0.  0.
    9000005    1    3    3    0    0  0.14188003656E+03 -0.14033111203E+03 -0.91915681560E+02  0.21970948613E+03  0.10000000000E+01 0.  0.
          4    1    1    2  501    0 -0.14695144806E+03  0.18427508050E+03  0.14977098770E+03  0.27925793639E+03  0.12700000000E+01 0. -1.
<mgrwt>
<rscale>  1 0.26677754E+03</rscale>
<asrwt>0</asrwt>
<pdfrwt beam="1">  1       21 0.49358797E-01 0.26677754E+03</pdfrwt>
<pdfrwt beam="2">  1        4 0.35706886E-01 0.26677754E+03</pdfrwt>
<totfact> 0.12515431E+03</totfact>
</mgrwt>
</event>
<event>
 6    4  0.6093247E-003  0.1269094E+03  0.7818608E-02  0.1232115E+00
          4   -1    0    0  502    0 -0.00000000000E+00  0.00000000000E+00  0.24800569681E+03  0.24800894853E+03  0.12700000000E+01 0. -1.
         21   -1    0    0  501  502  0.00000000000E+00 -0.00000000000E+00 -0.35958397947E+02  0.35958397947E+02  0.00000000000E+00 0.  1.
         25    2    1    2    0    0 -0.17022922481E+02 -0.13825750350E+02  0.22510330784E+03  0.25841341267E+03  0.12500024553E+03 0.  0.
    9000005    1    3    3    0    0  0.12504395462E+02  0.36799646884E+02  0.18081443303E+03  0.18494710895E+03  0.10000000000E+01 0.  0.
    9000005    1    3    3    0    0 -0.29527317943E+02 -0.50625397234E+02  0.44288874811E+02  0.73466303718E+02  0.10000000000E+01 0.  0.
          4    1    1    2  501    0  0.17022922481E+02  0.13825750350E+02 -0.13056008979E+02  0.25553933807E+02  0.12700000000E+01 0.  1.
<mgrwt>
<rscale>  1 0.12690939E+03</rscale>
<asrwt>0</asrwt>
<pdfrwt beam="2">  1       21 0.55320614E-02 0.12690939E+03</pdfrwt>
<pdfrwt beam="1">  1        4 0.38156697E-01 0.12690939E+03</pdfrwt>
<totfact> 0.60480432E+04</totfact>
</mgrwt>
</event>
<event>
 6    4  0.6093247E-003  0.1461945E+03  0.7818608E-02  0.1205229E+00
         21   -1    0    0  501  502  0.00000000000E+00  0.00000000000E+00  0.19273957355E+02  0.19273957355E+02  0.00000000000E+00 0. -1.
         -4   -1    0    0    0  501 -0.00000000000E+00 -0.00000000000E+00 -0.80580871016E+03  0.80580971096E+03  0.12700000000E+01 0.  1.
         25    2    1    2    0    0 -0.74099714068E+01  0.75366322652E+02 -0.67236438771E+03  0.68807463418E+03  0.12505135777E+03 0.  0.
    9000005    1    3    3    0    0 -0.87249013295E+01  0.10667759821E+03 -0.40606624396E+03  0.41993693378E+03  0.10000000000E+01 0.  0.
    9000005    1    3    3    0    0  0.13149299227E+01 -0.31311275555E+02 -0.26629814374E+03  0.26813770040E+03  0.10000000000E+01 0.  0.
         -4    1    1    2    0  502  0.74099714068E+01 -0.75366322652E+02 -0.11417036510E+03  0.13700903413E+03  0.12700000000E+01 0. -1.
<mgrwt>
<rscale>  1 0.14619450E+03</rscale>
<asrwt>0</asrwt>
<pdfrwt beam="1">  1       21 0.29652240E-02 0.14619450E+03</pdfrwt>
<pdfrwt beam="2">  1       -4 0.12397388E+00 0.14619450E+03</pdfrwt>
<totfact> 0.13575433E+04</totfact>
</mgrwt>
</event>
<event>
 6    4  0.6093247E-003  0.1274831E+03  0.7818608E-02  0.1231239E+00
         21   -1    0    0  501  502  0.00000000000E+00  0.00000000000E+00  0.65113337554E+03  0.65113337554E+03  0.00000000000E+00 0. -1.
          4   -1    0    0  502    0 -0.00000000000E+00 -0.00000000000E+00 -0.23452221078E+02  0.23486582840E+02  0.12700000000E+01 0.  1.
         25    2    1    2    0    0  0.22615799032E+02 -0.10731647234E+02  0.15245014891E+03  0.19872841174E+03  0.12500116445E+03 0.  0.
    9000005    1    3    3    0    0  0.60082581706E+02  0.10441718073E+02  0.28128891303E+02  0.67165323097E+02  0.10000000000E+01 0.  0.
    9000005    1    3    3    0    0 -0.37466782674E+02 -0.21173365306E+02  0.12432125760E+03  0.13156308865E+03  0.10000000000E+01 0.  0.
          4    1    1    2  501    0 -0.22615799032E+02  0.10731647234E+02  0.47523100556E+03  0.47589154664E+03  0.12700000000E+01 0. -1.
<mgrwt>
<rscale>  1 0.12748307E+03</rscale>
<asrwt>0</asrwt>
<pdfrwt beam="1">  1       21 0.10017435E+00 0.12748307E+03</pdfrwt>
<pdfrwt beam="2">  1        4 0.36107730E-02 0.12748307E+03</pdfrwt>
<totfact> 0.13538351E+04</totfact>
</mgrwt>
</event>
<event>
 6    4  0.6093247E-003  0.1271417E+03  0.7818608E-02  0.1231760E+00
         21   -1    0    0  501  502  0.00000000000E+00  0.00000000000E+00  0.22251662778E+03  0.22251662778E+03  0.00000000000E+00 0. -1.
          4   -1    0    0  502    0 -0.00000000000E+00 -0.00000000000E+00 -0.10554493825E+03  0.10555257879E+03  0.12700000000E+01 0.  1.
         25    2    1    2    0    0  0.17297586403E+02 -0.15425614353E+02 -0.66261131352E+02  0.14337206089E+03  0.12501141644E+03 0.  0.
    9000005    1    3    3    0    0  0.72483303743E+00 -0.54924335219E+02 -0.81162939731E+02  0.98008319891E+02  0.10000000000E+01 0.  0.
    9000005    1    3    3    0    0  0.16572753365E+02  0.39498720866E+02  0.14901808379E+02  0.45363740996E+02  0.10000000000E+01 0.  0.
          4    1    1    2  501    0 -0.17297586403E+02  0.15425614353E+02  0.18323282089E+03  0.18469714569E+03  0.12700000000E+01 0. -1.
<mgrwt>
<rscale>  1 0.12714169E+03</rscale>
<asrwt>0</asrwt>
<pdfrwt beam="1">  1       21 0.34233327E-01 0.12714169E+03</pdfrwt>
<pdfrwt beam="2">  1        4 0.16238549E-01 0.12714169E+03</pdfrwt>
<totfact> 0.11004952E+04</totfact>
</mgrwt>
</event>
<event>
 6    4  0.6093247E-003  0.1273431E+03  0.7818608E-02  0.1231452E+00
          4   -1    0    0  502    0 -0.00000000000E+00  0.00000000000E+00  0.65488968656E+03  0.65489091799E+03  0.12700000000E+01 0. -1.
         21   -1    0    0  501  502  0.00000000000E+00 -0.00000000000E+00 -0.10565149325E+02  0.10565149325E+02  0.00000000000E+00 0. -1.
         25    2    1    2    0    0  0.24260705360E+02 -0.16071388858E+01  0.61132256989E+03  0.62444500212E+03  0.12500044596E+03 0.  0.
    9000005    1    3    3    0    0  0.43168066104E+01 -0.32931881394E+02  0.56054751790E+03  0.56153153381E+03  0.10000000000E+01 0.  0.
    9000005    1    3    3    0    0  0.19943898749E+02  0.31324742508E+02  0.50775051987E+02  0.62913468310E+02  0.10000000000E+01 0.  0.
          4    1    1    2  501    0 -0.24260705360E+02  0.16071388858E+01  0.33001967346E+02  0.41011065198E+02  0.12700000000E+01 0.  1.
<mgrwt>
<rscale>  1 0.12734314E+03</rscale>
<asrwt>0</asrwt>
<pdfrwt beam="2">  1       21 0.16254081E-02 0.12734314E+03</pdfrwt>
<pdfrwt beam="1">  1        4 0.10075819E+00 0.12734314E+03</pdfrwt>
<totfact> 0.57878113E+04</totfact>
</mgrwt>
</event>
<event>
 6    4  0.6093247E-003  0.1651910E+03  0.7818608E-02  0.1182958E+00
         21   -1    0    0  501  502  0.00000000000E+00  0.00000000000E+00  0.30642233863E+03  0.30642233863E+03  0.00000000000E+00 0.  1.
          4   -1    0    0  502    0 -0.00000000000E+00 -0.00000000000E+00 -0.19599337889E+03  0.19599749353E+03  0.12700000000E+01 0. -1.
         25    2    1    2    0    0 -0.10730511584E+03 -0.12186667257E+02 -0.14833805907E+03  0.22201853817E+03  0.12500059511E+03 0.  0.
    9000005    1    3    3    0    0 -0.36464232151E+01 -0.88403914271E+01  0.21195897778E+02  0.23274771867E+02  0.10000000000E+01 0.  0.
    9000005    1    3    3    0    0 -0.10365869263E+03 -0.33462758297E+01 -0.16953395685E+03  0.19874376630E+03  0.10000000000E+01 0.  0.
          4    1    1    2  501    0  0.10730511584E+03  0.12186667257E+02  0.25876701881E+03  0.28040129399E+03  0.12700000000E+01 0.  1.
<mgrwt>
<rscale>  1 0.16519095E+03</rscale>
<asrwt>0</asrwt>
<pdfrwt beam="1">  1       21 0.47141899E-01 0.16519095E+03</pdfrwt>
<pdfrwt beam="2">  1        4 0.30153346E-01 0.16519095E+03</pdfrwt>
<totfact> 0.18999196E+03</totfact>
</mgrwt>
</event>
<event>
 6    4  0.6093247E-003  0.1266796E+03  0.7818608E-02  0.1232467E+00
          4   -1    0    0  502    0 -0.00000000000E+00  0.00000000000E+00  0.26280787928E+03  0.26281094785E+03  0.12700000000E+01 0.  1.
         21   -1    0    0  501  502  0.00000000000E+00 -0.00000000000E+00 -0.65956779780E+02  0.65956779780E+02  0.00000000000E+00 0. -1.
         25    2    1    2    0    0 -0.10144981465E+02  0.17885541677E+02  0.24532279196E+03  0.27609960519E+03  0.12499962592E+03 0.  0.
    9000005    1    3    3    0    0  0.36609349651E+02  0.21111396833E+02  0.21753921216E+03  0.22160831299E+03  0.10000000000E+01 0.  0.
    9000005    1    3    3    0    0 -0.46754331116E+02 -0.32258551555E+01  0.27783579804E+02  0.54491292206E+02  0.10000000000E+01 0.  0.
          4    1    1    2  501    0  0.10144981465E+02 -0.17885541677E+02 -0.48471692469E+02  0.52668122435E+02  0.12700000000E+01 0. -1.
<mgrwt>
<rscale>  1 0.12667959E+03</rscale>
<asrwt>0</asrwt>
<pdfrwt beam="2">  1       21 0.10147197E-01 0.12667959E+03</pdfrwt>
<pdfrwt beam="1">  1        4 0.40433157E-01 0.12667959E+03</pdfrwt>
<totfact> 0.19043033E+04</totfact>
</mgrwt>
</event>
<event>
 6    4  0.6093247E-003  0.1297262E+03  0.7818608E-02  0.1227863E+00
         21   -1    0    0  501  502  0.00000000000E+00  0.00000000000E+00  0.61953175160E+01  0.61953175160E+01  0.00000000000E+00 0. -1.
          4   -1    0    0  502    0 -0.00000000000E+00 -0.00000000000E+00 -0.11016075622E+04  0.11016082943E+04  0.12700000000E+01 0. -1.
         25    2    1    2    0    0 -0.32504752386E+02  0.12137617753E+02 -0.81706445276E+03  0.82729873328E+03  0.12499997375E+03 0.  0.
    9000005    1    3    3    0    0 -0.14774614666E+02  0.52560016528E+02 -0.70094635072E+03  0.70307014669E+03  0.10000000000E+01 0.  0.
    9000005    1    3    3    0    0 -0.17730137720E+02 -0.40422398775E+02 -0.11611810203E+03  0.12422858659E+03  0.10000000000E+01 0.  0.
          4    1    1    2  501    0  0.32504752386E+02 -0.12137617753E+02 -0.27834779194E+03  0.28050487851E+03  0.12700000000E+01 0.  1.
<mgrwt>
<rscale>  1 0.12972615E+03</rscale>
<asrwt>0</asrwt>
<pdfrwt beam="1">  1       21 0.95312667E-03 0.12972615E+03</pdfrwt>
<pdfrwt beam="2">  1        4 0.16948800E+00 0.12972615E+03</pdfrwt>
<totfact> 0.37657220E+04</totfact>
</mgrwt>
</event>
<event>
 6    4  0.6093247E-003  0.1270694E+03  0.7818608E-02  0.1231870E+00
         -4   -1    0    0    0  501 -0.00000000000E+00  0.00000000000E+00  0.26167363076E+02  0.26198163874E+02  0.12700000000E+01 0. -1.
         21   -1    0    0  501  502  0.00000000000E+00 -0.00000000000E+00 -0.21613222878E+03  0.21613222878E+03  0.00000000000E+00 0. -1.
         25    2    1    2    0    0  0.35104385523E+01  0.22589794034E+02 -0.15346952484E+03  0.19924739394E+03  0.12499602779E+03 0.  0.
    9000005    1    3    3    0    0  0.16651120358E+02 -0.15840713373E+02  0.13993964203E+02  0.26926177661E+02  0.10000000000E+01 0.  0.
    9000005    1    3    3    0    0 -0.13140681806E+02  0.38430507407E+02 -0.16746348904E+03  0.17232121628E+03  0.10000000000E+01 0.  0.
         -4    1    1    2    0  502 -0.35104385523E+01 -0.22589794034E+02 -0.36495340864E+02  0.43082998713E+02  0.12700000000E+01 0.  1.
<mgrwt>
<rscale>  1 0.12706939E+03</rscale>
<asrwt>0</asrwt>
<pdfrwt beam="2">  1       21 0.33251113E-01 0.12706939E+03</pdfrwt>
<pdfrwt beam="1">  1       -4 0.40284044E-02 0.12706939E+03</pdfrwt>
<totfact> 0.11801532E+05</totfact>
</mgrwt>
</event>
<event>
 6    4  0.6093247E-003  0.1313888E+03  0.7818608E-02  0.1225409E+00
         21   -1    0    0  501  502  0.00000000000E+00  0.00000000000E+00  0.43560996018E+02  0.43560996018E+02  0.00000000000E+00 0.  1.
          4   -1    0    0  502    0 -0.00000000000E+00 -0.00000000000E+00 -0.44277006386E+03  0.44277188523E+03  0.12700000000E+01 0. -1.
         25    2    1    2    0    0 -0.45067469290E+00 -0.40466886862E+02 -0.42052685764E+03  0.44057446015E+03  0.12500097960E+03 0.  0.
    9000005    1    3    3    0    0 -0.38996543975E+02  0.27388002088E+02 -0.22607727395E+03  0.23104710970E+03  0.10000000000E+01 0.  0.
    9000005    1    3    3    0    0  0.38545869282E+02 -0.67854888950E+02 -0.19444958368E+03  0.20952735045E+03  0.10000000000E+01 0.  0.
          4    1    1    2  501    0  0.45067469290E+00  0.40466886862E+02  0.21317789794E+02  0.45758421102E+02  0.12700000000E+01 0.  1.
<mgrwt>
<rscale>  1 0.13138880E+03</rscale>
<asrwt>0</asrwt>
<pdfrwt beam="1">  1       21 0.67016919E-02 0.13138880E+03</pdfrwt>
<pdfrwt beam="2">  1        4 0.68120033E-01 0.13138880E+03</pdfrwt>
<totfact> 0.13416670E+04</totfact>
</mgrwt>
</event>
<event>
 6    4  0.6093247E-003  0.1606396E+03  0.7818608E-02  0.1187977E+00
         21   -1    0    0  501  502  0.00000000000E+00  0.00000000000E+00  0.12548966335E+03  0.12548966335E+03  0.00000000000E+00 0.  1.
         -4   -1    0    0    0  501 -0.00000000000E+00 -0.00000000000E+00 -0.21981304657E+03  0.21981671534E+03  0.12700000000E+01 0. -1.
         25    2    1    2    0    0  0.60498257096E+02  0.80746787826E+02 -0.15854160853E+03  0.22570004016E+03  0.12499993456E+03 0.  0.
    9000005    1    3    3    0    0  0.30953235663E+02  0.10094361336E+03 -0.15782792229E+03  0.18989041295E+03  0.10000000000E+01 0.  0.
    9000005    1    3    3    0    0  0.29545021434E+02 -0.20196825535E+02 -0.71368624051E+00  0.35809627214E+02  0.10000000000E+01 0.  0.
         -4    1    1    2    0  502 -0.60498257096E+02 -0.80746787826E+02  0.64218225298E+02  0.11960633853E+03  0.12700000000E+01 0.  1.
<mgrwt>
<rscale>  1 0.16063955E+03</rscale>
<asrwt>0</asrwt>
<pdfrwt beam="1">  1       21 0.19306102E-01 0.16063955E+03</pdfrwt>
<pdfrwt beam="2">  1       -4 0.33818168E-01 0.16063955E+03</pdfrwt>
<totfact> 0.86611028E+03</totfact>
</mgrwt>
</event>
<event>
 6    4  0.6093247E-003  0.2017653E+03  0.7818608E-02  0.1148258E+00
          4   -1    0    0  502    0 -0.00000000000E+00  0.00000000000E+00  0.11163960952E+04  0.11163968175E+04  0.12700000000E+01 0. -1.
         21   -1    0    0  501  502  0.00000000000E+00 -0.00000000000E+00 -0.42125193814E+02  0.42125193814E+02  0.00000000000E+00 0.  1.
         25    2    1    2    0    0  0.11479282248E+03 -0.10911860495E+03  0.90289800458E+03  0.92516703565E+03  0.12499990053E+03 0.  0.
    9000005    1    3    3    0    0  0.10039505597E+03 -0.29991879033E+02  0.31933322326E+03  0.33608538728E+03  0.10000000000E+01 0.  0.
    9000005    1    3    3    0    0  0.14397766510E+02 -0.79126725913E+02  0.58356478133E+03  0.58908164836E+03  0.10000000000E+01 0.  0.
          4    1    1    2  501    0 -0.11479282248E+03  0.10911860495E+03  0.17137289677E+03  0.23335497570E+03  0.12700000000E+01 0.  1.
<mgrwt>
<rscale>  1 0.20176530E+03</rscale>
<asrwt>0</asrwt>
<pdfrwt beam="2">  1       21 0.64807999E-02 0.20176530E+03</pdfrwt>
<pdfrwt beam="1">  1        4 0.17175475E+00 0.20176530E+03</pdfrwt>
<totfact> 0.16153976E+03</totfact>
</mgrwt>
</event>
<event>
 6    4  0.6093247E-003  0.1306228E+03  0.7818608E-02  0.1226535E+00
         21   -1    0    0  501  502  0.00000000000E+00  0.00000000000E+00  0.57108971903E+03  0.57108971903E+03  0.00000000000E+00 0. -1.
         -4   -1    0    0    0  501 -0.00000000000E+00 -0.00000000000E+00 -0.14128978086E+02  0.14185940989E+02  0.12700000000E+01 0. -1.
         25    2    1    2    0    0  0.28364182881E+02  0.25143660498E+02  0.50046569732E+03  0.51723131134E+03  0.12500233877E+03 0.  0.
    9000005    1    3    3    0    0 -0.12338476255E+02  0.46523733213E+02  0.73926961059E+02  0.88220696663E+02  0.10000000000E+01 0.  0.
    9000005    1    3    3    0    0  0.40702659137E+02 -0.21380072715E+02  0.42653873626E+03  0.42901061467E+03  0.10000000000E+01 0.  0.
         -4    1    1    2    0  502 -0.28364182881E+02 -0.25143660498E+02  0.56495043626E+02  0.68044348685E+02  0.12700000000E+01 0.  1.
<mgrwt>
<rscale>  1 0.13062280E+03</rscale>
<asrwt>0</asrwt>
<pdfrwt beam="1">  1       21 0.87859939E-01 0.13062280E+03</pdfrwt>
<pdfrwt beam="2">  1       -4 0.21781798E-02 0.13062280E+03</pdfrwt>
<totfact> 0.40399998E+04</totfact>
</mgrwt>
</event>
<event>
 6    4  0.6093247E-003  0.1496233E+03  0.7818608E-02  0.1200937E+00
          4   -1    0    0  502    0 -0.00000000000E+00  0.00000000000E+00  0.13034481675E+03  0.13035100365E+03  0.12700000000E+01 0.  1.
         21   -1    0    0  501  502  0.00000000000E+00 -0.00000000000E+00 -0.10377375235E+03  0.10377375235E+03  0.00000000000E+00 0. -1.
         25    2    1    2    0    0  0.47905913915E+02  0.66835221968E+02  0.26100204046E+02  0.15188268591E+03  0.12500082457E+03 0.  0.
    9000005    1    3    3    0    0  0.39881858710E+02  0.25032571700E+02  0.74049273337E+02  0.87758117469E+02  0.10000000000E+01 0.  0.
    9000005    1    3    3    0    0  0.80240552056E+01  0.41802650268E+02 -0.47949069290E+02  0.64124568437E+02  0.10000000000E+01 0.  0.
          4    1    1    2  501    0 -0.47905913915E+02 -0.66835221968E+02  0.47086034973E+00  0.82242070092E+02  0.12700000000E+01 0. -1.
<mgrwt>
<rscale>  1 0.14962329E+03</rscale>
<asrwt>0</asrwt>
<pdfrwt beam="2">  1       21 0.15965193E-01 0.14962329E+03</pdfrwt>
<pdfrwt beam="1">  1        4 0.20054122E-01 0.14962329E+03</pdfrwt>
<totfact> 0.32277912E+04</totfact>
</mgrwt>
</event>
<event>
 6    4  0.6093247E-003  0.1340093E+03  0.7818608E-02  0.1221625E+00
          4   -1    0    0  502    0 -0.00000000000E+00  0.00000000000E+00  0.61343782953E+03  0.61343914417E+03  0.12700000000E+01 0. -1.
         21   -1    0    0  501  502  0.00000000000E+00 -0.00000000000E+00 -0.18769499029E+02  0.18769499029E+02  0.00000000000E+00 0. -1.
         25    2    1    2    0    0  0.24754687805E+01  0.48239366869E+02  0.55106020590E+03  0.56712065742E+03  0.12500130032E+03 0.  0.
    9000005    1    3    3    0    0 -0.60017519032E+02  0.21233383600E+02  0.21485962510E+03  0.22409510853E+03  0.10000000000E+01 0.  0.
    9000005    1    3    3    0    0  0.62492987813E+02  0.27005983269E+02  0.33620058080E+03  0.34302554888E+03  0.10000000000E+01 0.  0.
          4    1    1    2  501    0 -0.24754687805E+01 -0.48239366869E+02  0.43608124601E+02  0.65087985780E+02  0.12700000000E+01 0.  1.
<mgrwt>
<rscale>  1 0.13400929E+03</rscale>
<asrwt>0</asrwt>
<pdfrwt beam="2">  1       21 0.28876157E-02 0.13400929E+03</pdfrwt>
<pdfrwt beam="1">  1        4 0.94378442E-01 0.13400929E+03</pdfrwt>
<totfact> 0.26695732E+04</totfact>
</mgrwt>
</event>
<event>
 6    4  0.6093247E-003  0.1284453E+03  0.7818608E-02  0.1229781E+00
         21   -1    0    0  501  502  0.00000000000E+00  0.00000000000E+00  0.78283787602E+03  0.78283787602E+03  0.00000000000E+00 0.  1.
         -4   -1    0    0    0  501 -0.00000000000E+00 -0.00000000000E+00 -0.10512941527E+02  0.10589373898E+02  0.12700000000E+01 0. -1.
         25    2    1    2    0    0  0.28015323715E+02  0.92740084281E+01  0.40416610934E+03  0.42408540415E+03  0.12500928158E+03 0.  0.
    9000005    1    3    3    0    0  0.61696306294E+02  0.11802503604E+01  0.96987785538E+02  0.11495850445E+03  0.10000000000E+01 0.  0.
    9000005    1    3    3    0    0 -0.33680982579E+02  0.80937580677E+01  0.30717832380E+03  0.30912689970E+03  0.10000000000E+01 0.  0.
         -4    1    1    2    0  502 -0.28015323715E+02 -0.92740084281E+01  0.36815882516E+03  0.36934184577E+03  0.12700000000E+01 0.  1.
<mgrwt>
<rscale>  1 0.12844526E+03</rscale>
<asrwt>0</asrwt>
<pdfrwt beam="1">  1       21 0.12043655E+00 0.12844526E+03</pdfrwt>
<pdfrwt beam="2">  1       -4 0.16233349E-02 0.12844526E+03</pdfrwt>
<totfact> 0.30142169E+04</totfact>
</mgrwt>
</event>
<event>
 6    4  0.6093247E-003  0.1282000E+03  0.7818608E-02  0.1230151E+00
         21   -1    0    0  501  502  0.00000000000E+00  0.00000000000E+00  0.59049871149E+02  0.59049871149E+02  0.00000000000E+00 0.  1.
          4   -1    0    0  502    0 -0.00000000000E+00 -0.00000000000E+00 -0.10591203715E+03  0.10591965121E+03  0.12700000000E+01 0.  1.
         25    2    1    2    0    0 -0.13213558931E+02  0.25211637668E+02 -0.46804482667E+02  0.13647669798E+03  0.12500001872E+03 0.  0.
    9000005    1    3    3    0    0 -0.28832832470E+02 -0.35705438588E+02  0.15004061712E+02  0.48294227822E+02  0.10000000000E+01 0.  0.
    9000005    1    3    3    0    0  0.15619273539E+02  0.60917076257E+02 -0.61808544379E+02  0.88182470161E+02  0.10000000000E+01 0.  0.
          4    1    1    2  501    0  0.13213558931E+02 -0.25211637668E+02 -0.57683331221E-01  0.28492824376E+02  0.12700000000E+01 0. -1.
<mgrwt>
<rscale>  1 0.12819996E+03</rscale>
<asrwt>0</asrwt>
<pdfrwt beam="1">  1       21 0.90845957E-02 0.12819996E+03</pdfrwt>
<pdfrwt beam="2">  1        4 0.16295795E-01 0.12819996E+03</pdfrwt>
<totfact> 0.12473817E+05</totfact>
</mgrwt>
</event>
<event>
 6    4  0.6093247E-003  0.1312007E+03  0.7818608E-02  0.1225685E+00
         21   -1    0    0  501  502  0.00000000000E+00  0.00000000000E+00  0.29083891884E+03  0.29083891884E+03  0.00000000000E+00 0. -1.
          4   -1    0    0  502    0 -0.00000000000E+00 -0.00000000000E+00 -0.32261807320E+02  0.32286794693E+02  0.12700000000E+01 0.  1.
         25    2    1    2    0    0 -0.17352911251E+02 -0.35879663601E+02  0.11616680098E+03  0.17523797490E+03  0.12500059363E+03 0.  0.
    9000005    1    3    3    0    0 -0.71522651253E+02 -0.20209764663E+02  0.58642100761E+02  0.94677453555E+02  0.10000000000E+01 0.  0.
    9000005    1    3    3    0    0  0.54169740002E+02 -0.15669898938E+02  0.57524700217E+02  0.80560521347E+02  0.10000000000E+01 0.  0.
          4    1    1    2  501    0  0.17352911251E+02  0.35879663601E+02  0.14241031054E+03  0.14788773863E+03  0.12700000000E+01 0. -1.
<mgrwt>
<rscale>  1 0.13120069E+03</rscale>
<asrwt>0</asrwt>
<pdfrwt beam="1">  1       21 0.44744447E-01 0.13120069E+03</pdfrwt>
<pdfrwt beam="2">  1        4 0.49654906E-02 0.13120069E+03</pdfrwt>
<totfact> 0.47000342E+04</totfact>
</mgrwt>
</event>
<event>
 6    4  0.6093247E-003  0.1268797E+03  0.7818608E-02  0.1232160E+00
         21   -1    0    0  501  502  0.00000000000E+00  0.00000000000E+00  0.69236587309E+03  0.69236587309E+03  0.00000000000E+00 0.  1.
          4   -1    0    0  502    0 -0.00000000000E+00 -0.00000000000E+00 -0.11322124655E+02  0.11393129802E+02  0.12700000000E+01 0. -1.
         25    2    1    2    0    0 -0.40323455265E+01 -0.21382416257E+02  0.35509181056E+03  0.37707911946E+03  0.12500000348E+03 0.  0.
    9000005    1    3    3    0    0 -0.59488399136E+02 -0.33162192656E+02  0.22697916614E+03  0.23697920270E+03  0.10000000000E+01 0.  0.
    9000005    1    3    3    0    0  0.55456053610E+02  0.11779776399E+02  0.12811264443E+03  0.14009991676E+03  0.10000000000E+01 0.  0.
          4    1    1    2  501    0  0.40323455265E+01  0.21382416257E+02  0.32595193788E+03  0.32667988343E+03  0.12700000000E+01 0.  1.
<mgrwt>
<rscale>  1 0.12687974E+03</rscale>
<asrwt>0</asrwt>
<pdfrwt beam="1">  1       21 0.10651779E+00 0.12687974E+03</pdfrwt>
<pdfrwt beam="2">  1        4 0.17474174E-02 0.12687974E+03</pdfrwt>
<totfact> 0.36136492E+04</totfact>
</mgrwt>
</event>
<event>
 6    4  0.6093247E-003  0.1273365E+03  0.7818608E-02  0.1231462E+00
          4   -1    0    0  502    0 -0.00000000000E+00  0.00000000000E+00  0.39340228404E+03  0.39340433397E+03  0.12700000000E+01 0.  1.
         21   -1    0    0  501  502  0.00000000000E+00 -0.00000000000E+00 -0.65875353519E+02  0.65875353519E+02  0.00000000000E+00 0. -1.
         25    2    1    2    0    0  0.70981329682E+01  0.23231067319E+02  0.38036385470E+03  0.40111251946E+03  0.12499810127E+03 0.  0.
    9000005    1    3    3    0    0  0.42050209220E+02  0.52983045292E+01  0.39350632667E+02  0.57842583082E+02  0.10000000000E+01 0.  0.
    9000005    1    3    3    0    0 -0.34952076251E+02  0.17932762790E+02  0.34101322203E+03  0.34326993637E+03  0.10000000000E+01 0.  0.
          4    1    1    2  501    0 -0.70981329682E+01 -0.23231067319E+02 -0.52836924180E+02  0.58167168035E+02  0.12700000000E+01 0. -1.
<mgrwt>
<rscale>  1 0.12733653E+03</rscale>
<asrwt>0</asrwt>
<pdfrwt beam="2">  1       21 0.10134670E-01 0.12733653E+03</pdfrwt>
<pdfrwt beam="1">  1        4 0.60524526E-01 0.12733653E+03</pdfrwt>
<totfact> 0.84127803E+03</totfact>
</mgrwt>
</event>
<event>
 6    4  0.6093247E-003  0.1270142E+03  0.7818608E-02  0.1231955E+00
          4   -1    0    0  502    0 -0.00000000000E+00  0.00000000000E+00  0.18203788788E+03  0.18204231795E+03  0.12700000000E+01 0.  1.
         21   -1    0    0  501  502  0.00000000000E+00 -0.00000000000E+00 -0.31737934474E+02  0.31737934474E+02  0.00000000000E+00 0.  1.
         25    2    1    2    0    0  0.21434749567E+02  0.69915363590E+01  0.13978097432E+03  0.18886857061E+03  0.12499714442E+03 0.  0.
    9000005    1    3    3    0    0  0.49277154912E+02 -0.44081177218E+02  0.93544496347E+02  0.11455549301E+03  0.10000000000E+01 0.  0.
    9000005    1    3    3    0    0 -0.27842405346E+02  0.51072713577E+02  0.46236477968E+02  0.74313077600E+02  0.10000000000E+01 0.  0.
          4    1    1    2  501    0 -0.21434749567E+02 -0.69915363590E+01  0.10518979089E+02  0.24911681812E+02  0.12700000000E+01 0. -1.
<mgrwt>
<rscale>  1 0.12701424E+03</rscale>
<asrwt>0</asrwt>
<pdfrwt beam="2">  1       21 0.48827593E-02 0.12701424E+03</pdfrwt>
<pdfrwt beam="1">  1        4 0.28008123E-01 0.12701424E+03</pdfrwt>
<totfact> 0.13468681E+05</totfact>
</mgrwt>
</event>
<event>
 6    4  0.6093247E-003  0.1272047E+03  0.7818608E-02  0.1231663E+00
         21   -1    0    0  501  502  0.00000000000E+00  0.00000000000E+00  0.14120525120E+04  0.14120525120E+04  0.00000000000E+00 0.  1.
         -4   -1    0    0    0  501 -0.00000000000E+00 -0.00000000000E+00 -0.91723503269E+01  0.92598547785E+01  0.12700000000E+01 0.  1.
         25    2    1    2    0    0 -0.22274755940E+02 -0.76883684998E+01  0.43683362514E+03  0.45497764247E+03  0.12500305328E+03 0.  0.
    9000005    1    3    3    0    0  0.37950947170E+02 -0.30083602234E+02  0.89672874102E+02  0.10191919282E+03  0.10000000000E+01 0.  0.
    9000005    1    3    3    0    0 -0.60225703110E+02  0.22395233734E+02  0.34716075104E+03  0.35305844966E+03  0.10000000000E+01 0.  0.
         -4    1    1    2    0  502  0.22274755940E+02  0.76883684998E+01  0.96604653654E+03  0.96633472432E+03  0.12700000000E+01 0. -1.
<mgrwt>
<rscale>  1 0.12720471E+03</rscale>
<asrwt>0</asrwt>
<pdfrwt beam="1">  1       21 0.21723868E+00 0.12720471E+03</pdfrwt>
<pdfrwt beam="2">  1       -4 0.14179070E-02 0.12720471E+03</pdfrwt>
<totfact> 0.76199052E+03</totfact>
</mgrwt>
</event>
<event>
 6    4  0.6093247E-003  0.1279517E+03  0.7818608E-02  0.1230527E+00
         21   -1    0    0  501  502  0.00000000000E+00  0.00000000000E+00  0.26602779373E+02  0.26602779373E+02  0.00000000000E+00 0. -1.
         -4   -1    0    0    0  501 -0.00000000000E+00 -0.00000000000E+00 -0.37331238583E+03  0.37331454608E+03  0.12700000000E+01 0. -1.
         25    2    1    2    0    0 -0.26821211021E+02 -0.53889838493E+01 -0.34969498353E+03  0.37236838929E+03  0.12499286911E+03 0.  0.
    9000005    1    3    3    0    0  0.24481025849E+02  0.10152066799E+02 -0.98049138569E+01  0.28275809850E+02  0.10000000000E+01 0.  0.
    9000005    1    3    3    0    0 -0.51302236870E+02 -0.15541050649E+02 -0.33989006967E+03  0.34409257944E+03  0.10000000000E+01 0.  0.
         -4    1    1    2    0  502  0.26821211021E+02  0.53889838493E+01  0.29853770707E+01  0.27548936165E+02  0.12700000000E+01 0.  1.
<mgrwt>
<rscale>  1 0.12795169E+03</rscale>
<asrwt>0</asrwt>
<pdfrwt beam="1">  1       21 0.40927357E-02 0.12795169E+03</pdfrwt>
<pdfrwt beam="2">  1       -4 0.57435168E-01 0.12795169E+03</pdfrwt>
<totfact> 0.44011683E+04</totfact>
</mgrwt>
</event>
<event>
 6    4  0.6093247E-003  0.1282741E+03  0.7818608E-02  0.1230039E+00
         21   -1    0    0  501  502  0.00000000000E+00  0.00000000000E+00  0.12927780413E+03  0.12927780413E+03  0.00000000000E+00 0.  1.
         -4   -1    0    0    0  501 -0.00000000000E+00 -0.00000000000E+00 -0.51127093606E+02  0.51142864611E+02  0.12700000000E+01 0.  1.
         25    2    1    2    0    0  0.27562003075E+02 -0.83692432252E+01  0.80583154782E+02  0.15148560470E+03  0.12499814140E+03 0.  0.
    9000005    1    3    3    0    0 -0.37839758538E+02 -0.23963388979E+02  0.70443509901E+02  0.83482809157E+02  0.10000000000E+01 0.  0.
    9000005    1    3    3    0    0  0.65401761613E+02  0.15594145754E+02  0.10139644881E+02  0.68002795547E+02  0.10000000000E+01 0.  0.
         -4    1    1    2    0  502 -0.27562003075E+02  0.83692432252E+01 -0.24324442586E+01  0.28935064036E+02  0.12700000000E+01 0. -1.
<mgrwt>
<rscale>  1 0.12827410E+03</rscale>
<asrwt>0</asrwt>
<pdfrwt beam="1">  1       21 0.19888893E-01 0.12827410E+03</pdfrwt>
<pdfrwt beam="2">  1       -4 0.78673998E-02 0.12827410E+03</pdfrwt>
<totfact> 0.10605746E+05</totfact>
</mgrwt>
</event>
<event>
 6    4  0.6093247E-003  0.1280971E+03  0.7818608E-02  0.1230307E+00
         21   -1    0    0  501  502  0.00000000000E+00  0.00000000000E+00  0.15261375752E+03  0.15261375752E+03  0.00000000000E+00 0. -1.
         -4   -1    0    0    0  501 -0.00000000000E+00 -0.00000000000E+00 -0.34447520787E+03  0.34447754896E+03  0.12700000000E+01 0.  1.
         25    2    1    2    0    0 -0.25726132235E+02 -0.11148622657E+02 -0.33111911622E+03  0.35503344479E+03  0.12499100817E+03 0.  0.
    9000005    1    3    3    0    0  0.79739737718E+01 -0.58231764807E+02 -0.93371550128E+02  0.11033480441E+03  0.10000000000E+01 0.  0.
    9000005    1    3    3    0    0 -0.33700106007E+02  0.47083142151E+02 -0.23774756610E+03  0.24469864038E+03  0.10000000000E+01 0.  0.
         -4    1    1    2    0  502  0.25726132235E+02  0.11148622657E+02  0.13925766587E+03  0.14205786170E+03  0.12700000000E+01 0. -1.
<mgrwt>
<rscale>  1 0.12809714E+03</rscale>
<asrwt>0</asrwt>
<pdfrwt beam="1">  1       21 0.23479040E-01 0.12809714E+03</pdfrwt>
<pdfrwt beam="2">  1       -4 0.52996773E-01 0.12809714E+03</pdfrwt>
<totfact> 0.24262677E+03</totfact>
</mgrwt>
</event>
<event>
 6    4  0.6093247E-003  0.1280577E+03  0.7818608E-02  0.1230367E+00
         21   -1    0    0  501  502  0.00000000000E+00  0.00000000000E+00  0.33669659290E+02  0.33669659290E+02  0.00000000000E+00 0.  1.
          4   -1    0    0  502    0 -0.00000000000E+00 -0.00000000000E+00 -0.26429534751E+03  0.26429839882E+03  0.12700000000E+01 0.  1.
         25    2    1    2    0    0 -0.26712444616E+02 -0.78822450198E+01 -0.23698598698E+03  0.26937171596E+03  0.12499231517E+03 0.  0.
    9000005    1    3    3    0    0  0.37360430438E+02 -0.41287582775E+02 -0.97846936214E+02  0.11258547500E+03  0.10000000000E+01 0.  0.
    9000005    1    3    3    0    0 -0.64072875054E+02  0.33405337756E+02 -0.13913905076E+03  0.15678624096E+03  0.10000000000E+01 0.  0.
          4    1    1    2  501    0  0.26712444616E+02  0.78822450198E+01  0.63602987534E+01  0.28596342146E+02  0.12700000000E+01 0. -1.
<mgrwt>
<rscale>  1 0.12805766E+03</rscale>
<asrwt>0</asrwt>
<pdfrwt beam="1">  1       21 0.51799473E-02 0.12805766E+03</pdfrwt>
<pdfrwt beam="2">  1        4 0.40662902E-01 0.12805766E+03</pdfrwt>
<totfact> 0.59717781E+04</totfact>
</mgrwt>
</event>
<event>
 6    4  0.6093247E-003  0.1268430E+03  0.7818608E-02  0.1232217E+00
         -4   -1    0    0    0  501 -0.00000000000E+00  0.00000000000E+00  0.48245989047E+03  0.48246156201E+03  0.12700000000E+01 0. -1.
         21   -1    0    0  501  502  0.00000000000E+00 -0.00000000000E+00 -0.93892299758E+02  0.93892299758E+02  0.00000000000E+00 0.  1.
         25    2    1    2    0    0 -0.12583200818E+02  0.17469563578E+02  0.47274061601E+03  0.48946178111E+03  0.12500249017E+03 0.  0.
    9000005    1    3    3    0    0  0.38049858182E+02  0.91782717824E+01  0.39094679716E+03  0.39290257137E+03  0.10000000000E+01 0.  0.
    9000005    1    3    3    0    0 -0.50633059000E+02  0.82912917954E+01  0.81793818844E+02  0.96559209733E+02  0.10000000000E+01 0.  0.
         -4    1    1    2    0  502  0.12583200818E+02 -0.17469563578E+02 -0.84173025291E+02  0.86892080658E+02  0.12700000000E+01 0.  1.
<mgrwt>
<rscale>  1 0.12684299E+03</rscale>
<asrwt>0</asrwt>
<pdfrwt beam="2">  1       21 0.14444969E-01 0.12684299E+03</pdfrwt>
<pdfrwt beam="1">  1       -4 0.74225386E-01 0.12684299E+03</pdfrwt>
<totfact> 0.29008212E+03</totfact>
</mgrwt>
</event>
<event>
 6    4  0.6093247E-003  0.1293870E+03  0.7818608E-02  0.1228368E+00
         -4   -1    0    0    0  501 -0.00000000000E+00  0.00000000000E+00  0.27749429435E+02  0.27778476092E+02  0.12700000000E+01 0. -1.
         21   -1    0    0  501  502  0.00000000000E+00 -0.00000000000E+00 -0.56056348717E+03  0.56056348717E+03  0.00000000000E+00 0.  1.
         25    2    1    2    0    0  0.30454183200E+02  0.13673622367E+02 -0.12749311996E+03  0.18164662186E+03  0.12500629733E+03 0.  0.
    9000005    1    3    3    0    0 -0.70353617450E+01  0.65081726693E+02 -0.58627352558E+02  0.87882273139E+02  0.10000000000E+01 0.  0.
    9000005    1    3    3    0    0  0.37489544945E+02 -0.51408104326E+02 -0.68865767407E+02  0.93764348721E+02  0.10000000000E+01 0.  0.
         -4    1    1    2    0  502 -0.30454183200E+02 -0.13673622367E+02 -0.40532093777E+03  0.40669534140E+03  0.12700000000E+01 0.  1.
<mgrwt>
<rscale>  1 0.12938701E+03</rscale>
<asrwt>0</asrwt>
<pdfrwt beam="2">  1       21 0.86240538E-01 0.12938701E+03</pdfrwt>
<pdfrwt beam="1">  1       -4 0.42714880E-02 0.12938701E+03</pdfrwt>
<totfact> 0.14658665E+04</totfact>
</mgrwt>
</event>
<event>
 6    4  0.6093247E-003  0.1294875E+03  0.7818608E-02  0.1228218E+00
         21   -1    0    0  501  502  0.00000000000E+00  0.00000000000E+00  0.38080822779E+02  0.38080822779E+02  0.00000000000E+00 0.  1.
         -4   -1    0    0    0  501 -0.00000000000E+00 -0.00000000000E+00 -0.36060072338E+03  0.36060295978E+03  0.12700000000E+01 0. -1.
         25    2    1    2    0    0  0.46049154161E+01 -0.33473318943E+02 -0.33765963698E+03  0.36163661202E+03  0.12500136150E+03 0.  0.
    9000005    1    3    3    0    0  0.43177679230E+02 -0.24941492852E+00 -0.37528325548E+02  0.57216688212E+02  0.10000000000E+01 0.  0.
    9000005    1    3    3    0    0 -0.38572763814E+02 -0.33223904015E+02 -0.30013131144E+03  0.30441992381E+03  0.10000000000E+01 0.  0.
         -4    1    1    2    0  502 -0.46049154161E+01  0.33473318943E+02  0.15139736385E+02  0.37047170538E+02  0.12700000000E+01 0.  1.
<mgrwt>
<rscale>  1 0.12948748E+03</rscale>
<asrwt>0</asrwt>
<pdfrwt beam="1">  1       21 0.58585881E-02 0.12948748E+03</pdfrwt>
<pdfrwt beam="2">  1       -4 0.55478836E-01 0.12948748E+03</pdfrwt>
<totfact> 0.25946835E+04</totfact>
</mgrwt>
</event>
<event>
 6    4  0.6093247E-003  0.1294037E+03  0.7818608E-02  0.1228343E+00
         21   -1    0    0  501  502  0.00000000000E+00  0.00000000000E+00  0.23129420857E+03  0.23129420857E+03  0.00000000000E+00 0. -1.
         -4   -1    0    0    0  501 -0.00000000000E+00 -0.00000000000E+00 -0.29158483782E+02  0.29186128151E+02  0.12700000000E+01 0. -1.
         25    2    1    2    0    0  0.29456783213E+01 -0.33338288797E+02  0.17331506836E+03  0.21629479997E+03  0.12500083622E+03 0.  0.
    9000005    1    3    3    0    0  0.31516267005E+02 -0.60320068390E+02  0.16148472320E+03  0.17524297865E+03  0.10000000000E+01 0.  0.
    9000005    1    3    3    0    0 -0.28570588683E+02  0.26981779593E+02  0.11830345153E+02  0.41051821326E+02  0.10000000000E+01 0.  0.
         -4    1    1    2    0  502 -0.29456783213E+01  0.33338288797E+02  0.28820656429E+02  0.44185536748E+02  0.12700000000E+01 0.  1.
<mgrwt>
<rscale>  1 0.12940374E+03</rscale>
<asrwt>0</asrwt>
<pdfrwt beam="1">  1       21 0.35583723E-01 0.12940374E+03</pdfrwt>
<pdfrwt beam="2">  1       -4 0.44883154E-02 0.12940374E+03</pdfrwt>
<totfact> 0.87205190E+04</totfact>
</mgrwt>
</event>
<event>
 6    4  0.6093247E-003  0.1269087E+03  0.7818608E-02  0.1232116E+00
         21   -1    0    0  501  502  0.00000000000E+00  0.00000000000E+00  0.11677293380E+03  0.11677293380E+03  0.00000000000E+00 0. -1.
          4   -1    0    0  502    0 -0.00000000000E+00 -0.00000000000E+00 -0.56872243374E+02  0.56886421634E+02  0.12700000000E+01 0.  1.
         25    2    1    2    0    0  0.27604541885E+01  0.21754788921E+02  0.20506228354E+02  0.12855472718E+03  0.12499968612E+03 0.  0.
    9000005    1    3    3    0    0 -0.55035056078E+02  0.19542505401E+02 -0.15481792410E+02  0.60427252221E+02  0.10000000000E+01 0.  0.
    9000005    1    3    3    0    0  0.57795510266E+02  0.22122835200E+01  0.35988020764E+02  0.68127474955E+02  0.10000000000E+01 0.  0.
          4    1    1    2  501    0 -0.27604541885E+01 -0.21754788921E+02  0.39394462073E+02  0.45104628259E+02  0.12700000000E+01 0. -1.
<mgrwt>
<rscale>  1 0.12690868E+03</rscale>
<asrwt>0</asrwt>
<pdfrwt beam="1">  1       21 0.17965067E-01 0.12690868E+03</pdfrwt>
<pdfrwt beam="2">  1        4 0.87511978E-02 0.12690868E+03</pdfrwt>
<totfact> 0.10701078E+05</totfact>
</mgrwt>
</event>
<event>
 6    4  0.6093247E-003  0.1319231E+03  0.7818608E-02  0.1224630E+00
         21   -1    0    0  501  502  0.00000000000E+00  0.00000000000E+00  0.13884005313E+03  0.13884005313E+03  0.00000000000E+00 0. -1.
          4   -1    0    0  502    0 -0.00000000000E+00 -0.00000000000E+00 -0.62611043398E+02  0.62623922389E+02  0.12700000000E+01 0. -1.
         25    2    1    2    0    0  0.28620418281E+02  0.30966969078E+02  0.86870252783E+02  0.15795615473E+03  0.12500249790E+03 0.  0.
    9000005    1    3    3    0    0  0.47818732157E+02  0.82640903322E+01  0.11002663078E+03  0.12025716534E+03  0.10000000000E+01 0.  0.
    9000005    1    3    3    0    0 -0.19198313876E+02  0.22702878746E+02 -0.23156377998E+02  0.37698989390E+02  0.10000000000E+01 0.  0.
          4    1    1    2  501    0 -0.28620418281E+02 -0.30966969078E+02 -0.10641243050E+02  0.43507820792E+02  0.12700000000E+01 0.  1.
<mgrwt>
<rscale>  1 0.13192311E+03</rscale>
<asrwt>0</asrwt>
<pdfrwt beam="1">  1       21 0.21360008E-01 0.13192311E+03</pdfrwt>
<pdfrwt beam="2">  1        4 0.96339057E-02 0.13192311E+03</pdfrwt>
<totfact> 0.66551728E+04</totfact>
</mgrwt>
</event>
<event>
 6    4  0.6093247E-003  0.1300651E+03  0.7818608E-02  0.1227359E+00
         -4   -1    0    0    0  501 -0.00000000000E+00  0.00000000000E+00  0.14131800990E+04  0.14131806697E+04  0.12700000000E+01 0. -1.
         21   -1    0    0  501  502  0.00000000000E+00 -0.00000000000E+00 -0.53441189200E+01  0.53441189200E+01  0.00000000000E+00 0.  1.
         25    2    1    2    0    0 -0.11882998449E+02  0.33892405648E+02  0.12447093352E+04  0.12514864218E+04  0.12500813559E+03 0.  0.
    9000005    1    3    3    0    0 -0.40170991345E+02  0.24768165846E+02  0.11717248396E+04  0.11726752621E+04  0.10000000000E+01 0.  0.
    9000005    1    3    3    0    0  0.28287992896E+02  0.91242398020E+01  0.72984495583E+02  0.78811159676E+02  0.10000000000E+01 0.  0.
         -4    1    1    2    0  502  0.11882998449E+02 -0.33892405648E+02  0.16312664486E+03  0.16703836678E+03  0.12700000000E+01 0.  1.
<mgrwt>
<rscale>  1 0.13006512E+03</rscale>
<asrwt>0</asrwt>
<pdfrwt beam="2">  1       21 0.82217327E-03 0.13006512E+03</pdfrwt>
<pdfrwt beam="1">  1       -4 0.21742368E+00 0.13006512E+03</pdfrwt>
<totfact> 0.23617528E+04</totfact>
</mgrwt>
</event>
<event>
 6    4  0.6093247E-003  0.1394744E+03  0.7818608E-02  0.1214038E+00
          4   -1    0    0  502    0 -0.00000000000E+00  0.00000000000E+00  0.27813194310E+03  0.27813484261E+03  0.12700000000E+01 0.  1.
         21   -1    0    0  501  502  0.00000000000E+00 -0.00000000000E+00 -0.37725292470E+02  0.37725292470E+02  0.00000000000E+00 0.  1.
         25    2    1    2    0    0  0.30433698051E+02 -0.53869481901E+02  0.19189476051E+03  0.23722714302E+03  0.12499994886E+03 0.  0.
    9000005    1    3    3    0    0 -0.21390364797E+02 -0.66858179319E+02  0.16066688332E+03  0.17533513978E+03  0.10000000000E+01 0.  0.
    9000005    1    3    3    0    0  0.51824062847E+02  0.12988697417E+02  0.31227877197E+02  0.61892003238E+02  0.10000000000E+01 0.  0.
          4    1    1    2  501    0 -0.30433698051E+02  0.53869481901E+02  0.48511890118E+02  0.78632992059E+02  0.12700000000E+01 0. -1.
<mgrwt>
<rscale>  1 0.13947444E+03</rscale>
<asrwt>0</asrwt>
<pdfrwt beam="2">  1       21 0.58038913E-02 0.13947444E+03</pdfrwt>
<pdfrwt beam="1">  1        4 0.42791396E-01 0.13947444E+03</pdfrwt>
<totfact> 0.45034171E+04</totfact>
</mgrwt>
</event>
<event>
 6    4  0.6093247E-003  0.1336247E+03  0.7818608E-02  0.1222174E+00
         21   -1    0    0  501  502  0.00000000000E+00  0.00000000000E+00  0.34480963707E+02  0.34480963707E+02  0.00000000000E+00 0. -1.
         -4   -1    0    0    0  501 -0.00000000000E+00 -0.00000000000E+00 -0.29190704875E+03  0.29190981143E+03  0.12700000000E+01 0. -1.
         25    2    1    2    0    0 -0.24404346429E+02  0.40431753140E+02 -0.24244275319E+03  0.27682857260E+03  0.12500108499E+03 0.  0.
    9000005    1    3    3    0    0 -0.20772827272E+02 -0.28769865031E+02 -0.18024339872E+03  0.18370601043E+03  0.10000000000E+01 0.  0.
    9000005    1    3    3    0    0 -0.36315191578E+01  0.69201618171E+02 -0.62199354469E+02  0.93122562171E+02  0.10000000000E+01 0.  0.
         -4    1    1    2    0  502  0.24404346429E+02 -0.40431753140E+02 -0.14983331852E+02  0.49562202534E+02  0.12700000000E+01 0.  1.
<mgrwt>
<rscale>  1 0.13362474E+03</rscale>
<asrwt>0</asrwt>
<pdfrwt beam="1">  1       21 0.53047635E-02 0.13362474E+03</pdfrwt>
<pdfrwt beam="2">  1       -4 0.44910790E-01 0.13362474E+03</pdfrwt>
<totfact> 0.47361981E+04</totfact>
</mgrwt>
</event>
<event>
 6    4  0.6093247E-003  0.1299472E+03  0.7818608E-02  0.1227534E+00
         21   -1    0    0  501  502  0.00000000000E+00  0.00000000000E+00  0.81143311082E+03  0.81143311082E+03  0.00000000000E+00 0. -1.
          4   -1    0    0  502    0 -0.00000000000E+00 -0.00000000000E+00 -0.20879883624E+02  0.20918471267E+02  0.12700000000E+01 0.  1.
         25    2    1    2    0    0 -0.26902643258E+02  0.23192074210E+02  0.18680134627E+03  0.22755444987E+03  0.12499864065E+03 0.  0.
    9000005    1    3    3    0    0 -0.47938920128E+02 -0.24891328662E+02  0.29137765340E+02  0.61381818762E+02  0.10000000000E+01 0.  0.
    9000005    1    3    3    0    0  0.21036276869E+02  0.48083402872E+02  0.15766358093E+03  0.16617263110E+03  0.10000000000E+01 0.  0.
          4    1    1    2  501    0  0.26902643258E+02 -0.23192074210E+02  0.60375188092E+03  0.60479713222E+03  0.12700000000E+01 0. -1.
<mgrwt>
<rscale>  1 0.12994724E+03</rscale>
<asrwt>0</asrwt>
<pdfrwt beam="1">  1       21 0.12483584E+00 0.12994724E+03</pdfrwt>
<pdfrwt beam="2">  1        4 0.32153351E-02 0.12994724E+03</pdfrwt>
<totfact> 0.95923275E+03</totfact>
</mgrwt>
</event>
<event>
 6    4  0.6093247E-003  0.1323888E+03  0.7818608E-02  0.1223954E+00
          4   -1    0    0  502    0 -0.00000000000E+00  0.00000000000E+00  0.33374905782E+03  0.33375147415E+03  0.12700000000E+01 0.  1.
         21   -1    0    0  501  502  0.00000000000E+00 -0.00000000000E+00 -0.49730943097E+02  0.49730943097E+02  0.00000000000E+00 0.  1.
         25    2    1    2    0    0  0.28116761621E+02 -0.33347295298E+02  0.30688031915E+03  0.33421896549E+03  0.12499676883E+03 0.  0.
    9000005    1    3    3    0    0 -0.21821161901E+02  0.29528789232E+02  0.18257079274E+03  0.18622890984E+03  0.10000000000E+01 0.  0.
    9000005    1    3    3    0    0  0.49937923521E+02 -0.62876084530E+02  0.12430952642E+03  0.14799005565E+03  0.10000000000E+01 0.  0.
          4    1    1    2  501    0 -0.28116761621E+02  0.33347295298E+02 -0.22862204432E+02  0.49263451759E+02  0.12700000000E+01 0. -1.
<mgrwt>
<rscale>  1 0.13238877E+03</rscale>
<asrwt>0</asrwt>
<pdfrwt beam="2">  1       21 0.76509145E-02 0.13238877E+03</pdfrwt>
<pdfrwt beam="1">  1        4 0.51347441E-01 0.13238877E+03</pdfrwt>
<totfact> 0.19339574E+04</totfact>
</mgrwt>
</event>
<event>
 6    4  0.6093247E-003  0.1460388E+03  0.7818608E-02  0.1205427E+00
          4   -1    0    0  502    0 -0.00000000000E+00  0.00000000000E+00  0.29545820009E+03  0.29546092956E+03  0.12700000000E+01 0. -1.
         21   -1    0    0  501  502  0.00000000000E+00 -0.00000000000E+00 -0.70380443597E+02  0.70380443597E+02  0.00000000000E+00 0.  1.
         25    2    1    2    0    0  0.15086849243E+02  0.73982431969E+02  0.24723216520E+03  0.28714293616E+03  0.12500523596E+03 0.  0.
    9000005    1    3    3    0    0  0.56597646557E+02  0.25812063873E+00  0.13658827609E+03  0.14785370265E+03  0.10000000000E+01 0.  0.
    9000005    1    3    3    0    0 -0.41510797314E+02  0.73724311331E+02  0.11064388911E+03  0.13928923351E+03  0.10000000000E+01 0.  0.
          4    1    1    2  501    0 -0.15086849243E+02 -0.73982431969E+02 -0.22154408714E+02  0.78698436996E+02  0.12700000000E+01 0.  1.
<mgrwt>
<rscale>  1 0.14603877E+03</rscale>
<asrwt>0</asrwt>
<pdfrwt beam="2">  1       21 0.10827761E-01 0.14603877E+03</pdfrwt>
<pdfrwt beam="1">  1        4 0.45456198E-01 0.14603877E+03</pdfrwt>
<totfact> 0.13648735E+04</totfact>
</mgrwt>
</event>
<event>
 6    4  0.6093247E-003  0.1267221E+03  0.7818608E-02  0.1232402E+00
          4   -1    0    0  502    0 -0.00000000000E+00  0.00000000000E+00  0.17816993247E+03  0.17817445871E+03  0.12700000000E+01 0.  1.
         21   -1    0    0  501  502  0.00000000000E+00 -0.00000000000E+00 -0.30622166425E+02  0.30622166425E+02  0.00000000000E+00 0.  1.
         25    2    1    2    0    0  0.12175106015E+02  0.16879561828E+02  0.12317521405E+03  0.17672191540E+03  0.12500139684E+03 0.  0.
    9000005    1    3    3    0    0  0.48876335348E+02  0.53164881375E+02  0.52899766239E+02  0.89525337401E+02  0.10000000000E+01 0.  0.
    9000005    1    3    3    0    0 -0.36701229333E+02 -0.36285319547E+02  0.70275447810E+02  0.87196577995E+02  0.10000000000E+01 0.  0.
          4    1    1    2  501    0 -0.12175106015E+02 -0.16879561828E+02  0.24372551996E+02  0.32074709738E+02  0.12700000000E+01 0. -1.
<mgrwt>
<rscale>  1 0.12672214E+03</rscale>
<asrwt>0</asrwt>
<pdfrwt beam="2">  1       21 0.47111027E-02 0.12672214E+03</pdfrwt>
<pdfrwt beam="1">  1        4 0.27413132E-01 0.12672214E+03</pdfrwt>
<totfact> 0.14880860E+05</totfact>
</mgrwt>
</event>
<event>
 6    4  0.6093247E-003  0.1267114E+03  0.7818608E-02  0.1232419E+00
          4   -1    0    0  502    0 -0.00000000000E+00  0.00000000000E+00  0.14098890292E+03  0.14099462276E+03  0.12700000000E+01 0.  1.
         21   -1    0    0  501  502  0.00000000000E+00 -0.00000000000E+00 -0.39526967268E+02  0.39526967268E+02  0.00000000000E+00 0.  1.
         25    2    1    2    0    0 -0.49859829496E+01 -0.20138192330E+02  0.76399255647E+02  0.14796152790E+03  0.12500144263E+03 0.  0.
    9000005    1    3    3    0    0 -0.63251894746E+00 -0.46730328218E+02 -0.17769075703E+02  0.50008636323E+02  0.10000000000E+01 0.  0.
    9000005    1    3    3    0    0 -0.43534640022E+01  0.26592135888E+02  0.94168331350E+02  0.97952891581E+02  0.10000000000E+01 0.  0.
          4    1    1    2  501    0  0.49859829496E+01  0.20138192330E+02  0.25062680007E+02  0.32560062122E+02  0.12700000000E+01 0. -1.
<mgrwt>
<rscale>  1 0.12671135E+03</rscale>
<asrwt>0</asrwt>
<pdfrwt beam="2">  1       21 0.60810720E-02 0.12671135E+03</pdfrwt>
<pdfrwt beam="1">  1        4 0.21692609E-01 0.12671135E+03</pdfrwt>
<totfact> 0.14883666E+05</totfact>
</mgrwt>
</event>
<event>
 6    4  0.6093247E-003  0.1297798E+03  0.7818608E-02  0.1227783E+00
         21   -1    0    0  501  502  0.00000000000E+00  0.00000000000E+00  0.50146587363E+03  0.50146587363E+03  0.00000000000E+00 0.  1.
          4   -1    0    0  502    0 -0.00000000000E+00 -0.00000000000E+00 -0.15349039335E+02  0.15401490464E+02  0.12700000000E+01 0.  1.
         25    2    1    2    0    0 -0.19156481162E+02 -0.29160632397E+02  0.29066893065E+03  0.31832565767E+03  0.12500193531E+03 0.  0.
    9000005    1    3    3    0    0 -0.15233965771E+02  0.29614302575E+02  0.23473732784E+03  0.23709005401E+03  0.10000000000E+01 0.  0.
    9000005    1    3    3    0    0 -0.39225153906E+01 -0.58774934971E+02  0.55931602810E+02  0.81235603652E+02  0.10000000000E+01 0.  0.
          4    1    1    2  501    0  0.19156481162E+02  0.29160632397E+02  0.19544790364E+03  0.19854170642E+03  0.12700000000E+01 0. -1.
<mgrwt>
<rscale>  1 0.12977980E+03</rscale>
<asrwt>0</asrwt>
<pdfrwt beam="1">  1       21 0.77148583E-01 0.12977980E+03</pdfrwt>
<pdfrwt beam="2">  1        4 0.23655495E-02 0.12977980E+03</pdfrwt>
<totfact> 0.47595367E+04</totfact>
</mgrwt>
</event>
<event>
 6    4  0.6093247E-003  0.1267640E+03  0.7818608E-02  0.1232338E+00
         21   -1    0    0  501  502  0.00000000000E+00  0.00000000000E+00  0.33590446487E+02  0.33590446487E+02  0.00000000000E+00 0.  1.
         -4   -1    0    0    0  501 -0.00000000000E+00 -0.00000000000E+00 -0.16371064428E+03  0.16371557027E+03  0.12700000000E+01 0.  1.
         25    2    1    2    0    0  0.17360080335E+02 -0.12134511221E+02 -0.11591517400E+03  0.17177144505E+03  0.12498193076E+03 0.  0.
    9000005    1    3    3    0    0 -0.33212117033E+02 -0.19422873311E+01  0.10768570919E+02  0.34982557332E+02  0.10000000000E+01 0.  0.
    9000005    1    3    3    0    0  0.50572197368E+02 -0.10192223890E+02 -0.12668374492E+03  0.13678888771E+03  0.10000000000E+01 0.  0.
         -4    1    1    2    0  502 -0.17360080335E+02  0.12134511221E+02 -0.14205023787E+02  0.25534571714E+02  0.12700000000E+01 0. -1.
<mgrwt>
<rscale>  1 0.12676396E+03</rscale>
<asrwt>0</asrwt>
<pdfrwt beam="1">  1       21 0.51677609E-02 0.12676396E+03</pdfrwt>
<pdfrwt beam="2">  1       -4 0.25188479E-01 0.12676396E+03</pdfrwt>
<totfact> 0.14907981E+05</totfact>
</mgrwt>
</event>
<event>
 6    4  0.6093247E-003  0.1396343E+03  0.7818608E-02  0.1213822E+00
         -4   -1    0    0    0  501 -0.00000000000E+00  0.00000000000E+00  0.87878719270E+02  0.87887895643E+02  0.12700000000E+01 0.  1.
         21   -1    0    0  501  502  0.00000000000E+00 -0.00000000000E+00 -0.15436124905E+03  0.15436124905E+03  0.00000000000E+00 0.  1.
         25    2    1    2    0    0  0.61632197066E+02 -0.86428947365E+01  0.14189046744E+02  0.14035339648E+03  0.12499807803E+03 0.  0.
    9000005    1    3    3    0    0 -0.19393012530E+02  0.16045132662E+02 -0.34447302448E+02  0.42674955923E+02  0.10000000000E+01 0.  0.
    9000005    1    3    3    0    0  0.81025209597E+02 -0.24688027398E+02  0.48636349192E+02  0.97678440557E+02  0.10000000000E+01 0.  0.
         -4    1    1    2    0  502 -0.61632197066E+02  0.86428947365E+01 -0.80671576523E+02  0.10189574821E+03  0.12700000000E+01 0. -1.
<mgrwt>
<rscale>  1 0.13963433E+03</rscale>
<asrwt>0</asrwt>
<pdfrwt beam="2">  1       21 0.23747884E-01 0.13963433E+03</pdfrwt>
<pdfrwt beam="1">  1       -4 0.13520911E-01 0.13963433E+03</pdfrwt>
<totfact> 0.30827988E+04</totfact>
</mgrwt>
</event>
<event>
 6    4  0.6093247E-003  0.1269251E+03  0.7818608E-02  0.1232091E+00
          4   -1    0    0  502    0 -0.00000000000E+00  0.00000000000E+00  0.23714670755E+03  0.23715010817E+03  0.12700000000E+01 0.  1.
         21   -1    0    0  501  502  0.00000000000E+00 -0.00000000000E+00 -0.14249118033E+03  0.14249118033E+03  0.00000000000E+00 0. -1.
         25    2    1    2    0    0  0.85729064776E+01  0.20291652150E+02  0.21912532967E+03  0.25323088349E+03  0.12499889750E+03 0.  0.
    9000005    1    3    3    0    0 -0.12354766655E+02  0.37001999913E+02  0.22279039569E+03  0.22618211394E+03  0.10000000000E+01 0.  0.
    9000005    1    3    3    0    0  0.20927673133E+02 -0.16710347763E+02 -0.36650660137E+01  0.27048769547E+02  0.10000000000E+01 0.  0.
          4    1    1    2  501    0 -0.85729064776E+01 -0.20291652150E+02 -0.12446980245E+03  0.12641040501E+03  0.12700000000E+01 0. -1.
<mgrwt>
<rscale>  1 0.12692506E+03</rscale>
<asrwt>0</asrwt>
<pdfrwt beam="2">  1       21 0.21921720E-01 0.12692506E+03</pdfrwt>
<pdfrwt beam="1">  1        4 0.36484806E-01 0.12692506E+03</pdfrwt>
<totfact> 0.58051098E+03</totfact>
</mgrwt>
</event>
<event>
 6    4  0.6093247E-003  0.1274041E+03  0.7818608E-02  0.1231359E+00
         21   -1    0    0  501  502  0.00000000000E+00  0.00000000000E+00  0.10826581113E+02  0.10826581113E+02  0.00000000000E+00 0.  1.
          4   -1    0    0  502    0 -0.00000000000E+00 -0.00000000000E+00 -0.53444267007E+03  0.53444417902E+03  0.12700000000E+01 0.  1.
         25    2    1    2    0    0 -0.13643176039E+02  0.20500999623E+02 -0.43213792801E+03  0.45052745394E+03  0.12500148277E+03 0.  0.
    9000005    1    3    3    0    0 -0.35736895311E+02 -0.20800238992E+02 -0.37200938650E+03  0.37430169552E+03  0.10000000000E+01 0.  0.
    9000005    1    3    3    0    0  0.22093719272E+02  0.41301238615E+02 -0.60128541511E+02  0.76225758419E+02  0.10000000000E+01 0.  0.
          4    1    1    2  501    0  0.13643176039E+02 -0.20500999623E+02 -0.91478160946E+02  0.94743306191E+02  0.12700000000E+01 0. -1.
<mgrwt>
<rscale>  1 0.12740407E+03</rscale>
<asrwt>0</asrwt>
<pdfrwt beam="1">  1       21 0.16656277E-02 0.12740407E+03</pdfrwt>
<pdfrwt beam="2">  1        4 0.82227805E-01 0.12740407E+03</pdfrwt>
<totfact> 0.88152045E+04</totfact>
</mgrwt>
</event>
<event>
 6    4  0.6093247E-003  0.1386110E+03  0.7818608E-02  0.1215210E+00
          4   -1    0    0  502    0 -0.00000000000E+00  0.00000000000E+00  0.27169878298E+03  0.27170175114E+03  0.12700000000E+01 0.  1.
         21   -1    0    0  501  502  0.00000000000E+00 -0.00000000000E+00 -0.89779244134E+02  0.89779244134E+02  0.00000000000E+00 0. -1.
         25    2    1    2    0    0  0.19334036920E+02  0.56713309376E+02  0.24055752813E+03  0.27763452170E+03  0.12499119512E+03 0.  0.
    9000005    1    3    3    0    0  0.64431502209E+02  0.33798902134E+02  0.74913087287E+02  0.10443541023E+03  0.10000000000E+01 0.  0.
    9000005    1    3    3    0    0 -0.45097465288E+02  0.22914407242E+02  0.16564444084E+03  0.17319911148E+03  0.10000000000E+01 0.  0.
          4    1    1    2  501    0 -0.19334036920E+02 -0.56713309376E+02 -0.58637989279E+02  0.83846473574E+02  0.12700000000E+01 0. -1.
<mgrwt>
<rscale>  1 0.13861098E+03</rscale>
<asrwt>0</asrwt>
<pdfrwt beam="2">  1       21 0.13812192E-01 0.13861098E+03</pdfrwt>
<pdfrwt beam="1">  1        4 0.41800732E-01 0.13861098E+03</pdfrwt>
<totfact> 0.10416354E+04</totfact>
</mgrwt>
</event>
<event>
 6    4  0.6093247E-003  0.1297286E+03  0.7818608E-02  0.1227859E+00
         -4   -1    0    0    0  501 -0.00000000000E+00  0.00000000000E+00  0.19283051292E+03  0.19283469505E+03  0.12700000000E+01 0. -1.
         21   -1    0    0  501  502  0.00000000000E+00 -0.00000000000E+00 -0.35365773678E+02  0.35365773678E+02  0.00000000000E+00 0. -1.
         25    2    1    2    0    0  0.55768513361E+01 -0.34251782489E+02  0.13248506784E+03  0.18542333981E+03  0.12500094349E+03 0.  0.
    9000005    1    3    3    0    0  0.13891665974E+02  0.16407491077E+02 -0.16961355503E+02  0.27402038747E+02  0.10000000000E+01 0.  0.
    9000005    1    3    3    0    0 -0.83148146376E+01 -0.50659273567E+02  0.14944642334E+03  0.15802130107E+03  0.10000000000E+01 0.  0.
         -4    1    1    2    0  502 -0.55768513361E+01  0.34251782489E+02  0.24979671405E+02  0.42777128913E+02  0.12700000000E+01 0.  1.
<mgrwt>
<rscale>  1 0.12972865E+03</rscale>
<asrwt>0</asrwt>
<pdfrwt beam="2">  1       21 0.54408884E-02 0.12972865E+03</pdfrwt>
<pdfrwt beam="1">  1       -4 0.29668308E-01 0.12972865E+03</pdfrwt>
<totfact> 0.10108583E+05</totfact>
</mgrwt>
</event>
<event>
 6    4  0.6093247E-003  0.1546912E+03  0.7818608E-02  0.1194824E+00
         21   -1    0    0  501  502  0.00000000000E+00  0.00000000000E+00  0.91501735537E+03  0.91501735537E+03  0.00000000000E+00 0.  1.
          4   -1    0    0  502    0 -0.00000000000E+00 -0.00000000000E+00 -0.13373538630E+03  0.13374141636E+03  0.12700000000E+01 0. -1.
         25    2    1    2    0    0 -0.79245614472E+02 -0.44974085472E+02 -0.85805892924E+02  0.17689553183E+03  0.12500736836E+03 0.  0.
    9000005    1    3    3    0    0  0.11535413215E+02 -0.45968944067E+02  0.59933062249E+01  0.47782102258E+02  0.10000000000E+01 0.  0.
    9000005    1    3    3    0    0 -0.90781027687E+02  0.99485859558E+00 -0.91799199149E+02  0.12911342957E+03  0.10000000000E+01 0.  0.
          4    1    1    2  501    0  0.79245614472E+02  0.44974085472E+02  0.86708786199E+03  0.87186323990E+03  0.12700000000E+01 0.  1.
<mgrwt>
<rscale>  1 0.15469123E+03</rscale>
<asrwt>0</asrwt>
<pdfrwt beam="1">  1       21 0.14077190E+00 0.15469123E+03</pdfrwt>
<pdfrwt beam="2">  1        4 0.20575207E-01 0.15469123E+03</pdfrwt>
<totfact> 0.32046390E+02</totfact>
</mgrwt>
</event>
<event>
 6    4  0.6093247E-003  0.1267939E+03  0.7818608E-02  0.1232292E+00
         -4   -1    0    0    0  501 -0.00000000000E+00  0.00000000000E+00  0.96996190467E+02  0.97004504355E+02  0.12700000000E+01 0.  1.
         21   -1    0    0  501  502  0.00000000000E+00 -0.00000000000E+00 -0.65528277295E+02  0.65528277295E+02  0.00000000000E+00 0. -1.
         25    2    1    2    0    0  0.12600215945E+02 -0.17111550287E+02  0.48003962540E+02  0.13557680970E+03  0.12500048125E+03 0.  0.
    9000005    1    3    3    0    0  0.46058644816E+02  0.17477981059E+02  0.67561740494E+02  0.83620974419E+02  0.10000000000E+01 0.  0.
    9000005    1    3    3    0    0 -0.33458428871E+02 -0.34589531346E+02 -0.19557777954E+02  0.51955835281E+02  0.10000000000E+01 0.  0.
         -4    1    1    2    0  502 -0.12600215945E+02  0.17111550287E+02 -0.16536049368E+02  0.26955971950E+02  0.12700000000E+01 0. -1.
<mgrwt>
<rscale>  1 0.12679389E+03</rscale>
<asrwt>0</asrwt>
<pdfrwt beam="2">  1       21 0.10081273E-01 0.12679389E+03</pdfrwt>
<pdfrwt beam="1">  1       -4 0.14924077E-01 0.12679389E+03</pdfrwt>
<totfact> 0.12114181E+05</totfact>
</mgrwt>
</event>
<event>
 6    4  0.6093247E-003  0.1337128E+03  0.7818608E-02  0.1222048E+00
         21   -1    0    0  501  502  0.00000000000E+00  0.00000000000E+00  0.91825300824E+02  0.91825300824E+02  0.00000000000E+00 0.  1.
         -4   -1    0    0    0  501 -0.00000000000E+00 -0.00000000000E+00 -0.61600716542E+03  0.61600847458E+03  0.12700000000E+01 0. -1.
         25    2    1    2    0    0 -0.25011493406E+02 -0.40352040142E+02 -0.60199854591E+03  0.61666957883E+03  0.12500103293E+03 0.  0.
    9000005    1    3    3    0    0 -0.56336595626E+02 -0.11127316844E+02 -0.52834084292E+03  0.53145336154E+03  0.10000000000E+01 0.  0.
    9000005    1    3    3    0    0  0.31325102220E+02 -0.29224723298E+02 -0.73657702985E+02  0.85216217294E+02  0.10000000000E+01 0.  0.
         -4    1    1    2    0  502  0.25011493406E+02  0.40352040142E+02  0.77816681312E+02  0.91164196571E+02  0.12700000000E+01 0.  1.
<mgrwt>
<rscale>  1 0.13371283E+03</rscale>
<asrwt>0</asrwt>
<pdfrwt beam="1">  1       21 0.14126969E-01 0.13371283E+03</pdfrwt>
<pdfrwt beam="2">  1       -4 0.94771109E-01 0.13371283E+03</pdfrwt>
<totfact> 0.17567197E+03</totfact>
</mgrwt>
</event>
<event>
 6    4  0.6093247E-003  0.1282676E+03  0.7818608E-02  0.1230049E+00
         21   -1    0    0  501  502  0.00000000000E+00  0.00000000000E+00  0.17743084120E+03  0.17743084120E+03  0.00000000000E+00 0.  1.
          4   -1    0    0  502    0 -0.00000000000E+00 -0.00000000000E+00 -0.50633512498E+02  0.50649437192E+02  0.12700000000E+01 0.  1.
         25    2    1    2    0    0  0.19609085308E+02  0.21080983774E+02  0.36594665346E+02  0.13338573008E+03  0.12499463730E+03 0.  0.
    9000005    1    3    3    0    0  0.45950666830E+02 -0.87559009076E+01 -0.30155316936E+02  0.55663926580E+02  0.10000000000E+01 0.  0.
    9000005    1    3    3    0    0 -0.26341581521E+02  0.29836884681E+02  0.66749982283E+02  0.77721803500E+02  0.10000000000E+01 0.  0.
          4    1    1    2  501    0 -0.19609085308E+02 -0.21080983774E+02  0.90202663352E+02  0.94694548308E+02  0.12700000000E+01 0. -1.
<mgrwt>
<rscale>  1 0.12826762E+03</rscale>
<asrwt>0</asrwt>
<pdfrwt beam="1">  1       21 0.27297052E-01 0.12826762E+03</pdfrwt>
<pdfrwt beam="2">  1        4 0.77913458E-02 0.12826762E+03</pdfrwt>
<totfact> 0.59494966E+04</totfact>
</mgrwt>
</event>
<event>
 6    4  0.6093247E-003  0.1405720E+03  0.7818608E-02  0.1212561E+00
         21   -1    0    0  501  502  0.00000000000E+00  0.00000000000E+00  0.85108253879E+01  0.85108253879E+01  0.00000000000E+00 0.  1.
          4   -1    0    0  502    0 -0.00000000000E+00 -0.00000000000E+00 -0.29354766936E+04  0.29354769683E+04  0.12700000000E+01 0. -1.
         25    2    1    2    0    0 -0.62134509175E+02 -0.16592219350E+02 -0.27801182676E+04  0.27836698918E+04  0.12499794245E+03 0.  0.
    9000005    1    3    3    0    0  0.37892350095E+02 -0.12367698937E+02 -0.91073310544E+03  0.91160549555E+03  0.10000000000E+01 0.  0.
    9000005    1    3    3    0    0 -0.10002685927E+03 -0.42245204134E+01 -0.18693851622E+04  0.18720643962E+04  0.10000000000E+01 0.  0.
          4    1    1    2  501    0  0.62134509175E+02  0.16592219350E+02 -0.14684760062E+03  0.16031790194E+03  0.12700000000E+01 0.  1.
<mgrwt>
<rscale>  1 0.14057199E+03</rscale>
<asrwt>0</asrwt>
<pdfrwt beam="1">  1       21 0.13093585E-02 0.14057199E+03</pdfrwt>
<pdfrwt beam="2">  1        4 0.45161885E+00 0.14057199E+03</pdfrwt>
<totfact> 0.40792773E+02</totfact>
</mgrwt>
</event>
<event>
 6    4  0.6093247E-003  0.1290323E+03  0.7818608E-02  0.1228899E+00
         21   -1    0    0  501  502  0.00000000000E+00  0.00000000000E+00  0.31123165646E+03  0.31123165646E+03  0.00000000000E+00 0.  1.
         -4   -1    0    0    0  501 -0.00000000000E+00 -0.00000000000E+00 -0.23407503096E+02  0.23441930407E+02  0.12700000000E+01 0.  1.
         25    2    1    2    0    0  0.27462955804E+01 -0.31899189013E+02  0.17524890078E+03  0.21762701155E+03  0.12499695409E+03 0.  0.
    9000005    1    3    3    0    0 -0.48362063269E+02 -0.70983594497E+00  0.22098477641E+02  0.53185860384E+02  0.10000000000E+01 0.  0.
    9000005    1    3    3    0    0  0.51108358850E+02 -0.31189353068E+02  0.15315042314E+03  0.16444115117E+03  0.10000000000E+01 0.  0.
         -4    1    1    2    0  502 -0.27462955804E+01  0.31899189013E+02  0.11257525258E+03  0.11704657531E+03  0.12700000000E+01 0. -1.
<mgrwt>
<rscale>  1 0.12903232E+03</rscale>
<asrwt>0</asrwt>
<pdfrwt beam="1">  1       21 0.47881790E-01 0.12903232E+03</pdfrwt>
<pdfrwt beam="2">  1       -4 0.36040021E-02 0.12903232E+03</pdfrwt>
<totfact> 0.68037862E+04</totfact>
</mgrwt>
</event>
<event>
 6    4  0.6093247E-003  0.1284912E+03  0.7818608E-02  0.1229712E+00
          4   -1    0    0  502    0 -0.00000000000E+00  0.00000000000E+00  0.72813988528E+02  0.72825063168E+02  0.12700000000E+01 0. -1.
         21   -1    0    0  501  502  0.00000000000E+00 -0.00000000000E+00 -0.11114121844E+03  0.11114121844E+03  0.00000000000E+00 0. -1.
         25    2    1    2    0    0  0.13722950112E+02 -0.26386581795E+02  0.81758449100E+01  0.12875106698E+03  0.12500168699E+03 0.  0.
    9000005    1    3    3    0    0  0.35580665557E+02 -0.38467541731E+02 -0.45587492631E+02  0.69461896121E+02  0.10000000000E+01 0.  0.
    9000005    1    3    3    0    0 -0.21857715446E+02  0.12080959936E+02  0.53763337541E+02  0.59289170858E+02  0.10000000000E+01 0.  0.
          4    1    1    2  501    0 -0.13722950112E+02  0.26386581795E+02 -0.46503074817E+02  0.55215214625E+02  0.12700000000E+01 0.  1.
<mgrwt>
<rscale>  1 0.12849122E+03</rscale>
<asrwt>0</asrwt>
<pdfrwt beam="2">  1       21 0.17098649E-01 0.12849122E+03</pdfrwt>
<pdfrwt beam="1">  1        4 0.11203562E-01 0.12849122E+03</pdfrwt>
<totfact> 0.77434714E+04</totfact>
</mgrwt>
</event>
<event>
 6    4  0.6093247E-003  0.1273750E+03  0.7818608E-02  0.1231404E+00
         -4   -1    0    0    0  501 -0.00000000000E+00  0.00000000000E+00  0.41448178380E+03  0.41448372948E+03  0.12700000000E+01 0. -1.
         21   -1    0    0  501  502  0.00000000000E+00 -0.00000000000E+00 -0.25732736747E+02  0.25732736747E+02  0.00000000000E+00 0.  1.
         25    2    1    2    0    0 -0.11128588510E+02  0.21828246488E+02  0.39489051944E+03  0.41492519481E+03  0.12499630840E+03 0.  0.
    9000005    1    3    3    0    0 -0.50084475134E+02  0.50225808901E+02  0.30253361312E+03  0.31073891548E+03  0.10000000000E+01 0.  0.
    9000005    1    3    3    0    0  0.38955886625E+02 -0.28397562413E+02  0.92356906325E+02  0.10418627932E+03  0.10000000000E+01 0.  0.
         -4    1    1    2    0  502  0.11128588510E+02 -0.21828246488E+02 -0.61414723875E+01  0.25291271420E+02  0.12700000000E+01 0.  1.
<mgrwt>
<rscale>  1 0.12737502E+03</rscale>
<asrwt>0</asrwt>
<pdfrwt beam="2">  1       21 0.39588829E-02 0.12737502E+03</pdfrwt>
<pdfrwt beam="1">  1       -4 0.63768984E-01 0.12737502E+03</pdfrwt>
<totfact> 0.37314876E+04</totfact>
</mgrwt>
</event>
<event>
 6    4  0.6093247E-003  0.1296897E+03  0.7818608E-02  0.1227917E+00
          4   -1    0    0  502    0 -0.00000000000E+00  0.00000000000E+00  0.69454291445E+02  0.69465901708E+02  0.12700000000E+01 0.  1.
         21   -1    0    0  501  502  0.00000000000E+00 -0.00000000000E+00 -0.99721050887E+02  0.99721050887E+02  0.00000000000E+00 0. -1.
         25    2    1    2    0    0 -0.34560995397E+02 -0.16079476534E+00 -0.12458913353E+02  0.13028681712E+03  0.12499976774E+03 0.  0.
    9000005    1    3    3    0    0 -0.90223882466E+01 -0.47436872881E+02  0.34147804586E+02  0.59150088389E+02  0.10000000000E+01 0.  0.
    9000005    1    3    3    0    0 -0.25538607151E+02  0.47276078116E+02 -0.46606717939E+02  0.71136728729E+02  0.10000000000E+01 0.  0.
          4    1    1    2  501    0  0.34560995397E+02  0.16079476534E+00 -0.17807846089E+02  0.38900135477E+02  0.12700000000E+01 0. -1.
<mgrwt>
<rscale>  1 0.12968975E+03</rscale>
<asrwt>0</asrwt>
<pdfrwt beam="2">  1       21 0.15341700E-01 0.12968975E+03</pdfrwt>
<pdfrwt beam="1">  1        4 0.10686791E-01 0.12968975E+03</pdfrwt>
<totfact> 0.10225378E+05</totfact>
</mgrwt>
</event>
<event>
 6    4  0.6093247E-003  0.1364168E+03  0.7818608E-02  0.1218233E+00
         21   -1    0    0  501  502  0.00000000000E+00  0.00000000000E+00  0.11072149018E+03  0.11072149018E+03  0.00000000000E+00 0.  1.
          4   -1    0    0  502    0 -0.00000000000E+00 -0.00000000000E+00 -0.25140040030E+03  0.25140360811E+03  0.12700000000E+01 0. -1.
         25    2    1    2    0    0  0.12860327877E+02 -0.53093839091E+02 -0.22412654561E+03  0.26237809558E+03  0.12500085124E+03 0.  0.
    9000005    1    3    3    0    0  0.33966471637E+02  0.26013032222E+02 -0.13373367777E+03  0.14041401500E+03  0.10000000000E+01 0.  0.
    9000005    1    3    3    0    0 -0.21106143760E+02 -0.79106871314E+02 -0.90392867841E+02  0.12196408057E+03  0.10000000000E+01 0.  0.
          4    1    1    2  501    0 -0.12860327877E+02  0.53093839091E+02  0.83447635480E+02  0.99747002711E+02  0.12700000000E+01 0.  1.
<mgrwt>
<rscale>  1 0.13641685E+03</rscale>
<asrwt>0</asrwt>
<pdfrwt beam="1">  1       21 0.17034076E-01 0.13641685E+03</pdfrwt>
<pdfrwt beam="2">  1        4 0.38677791E-01 0.13641685E+03</pdfrwt>
<totfact> 0.82957755E+03</totfact>
</mgrwt>
</event>
<event>
 6    4  0.6093247E-003  0.1371738E+03  0.7818608E-02  0.1217183E+00
          4   -1    0    0  502    0 -0.00000000000E+00  0.00000000000E+00  0.23583652438E+02  0.23617822980E+02  0.12700000000E+01 0. -1.
         21   -1    0    0  501  502  0.00000000000E+00 -0.00000000000E+00 -0.43936827053E+03  0.43936827053E+03  0.00000000000E+00 0.  1.
         25    2    1    2    0    0 -0.51441377571E+02  0.23301553857E+02 -0.22041222673E+03  0.25961165572E+03  0.12500993703E+03 0.  0.
    9000005    1    3    3    0    0 -0.65181999629E+02 -0.34889263983E+02 -0.92565915069E+02  0.11847110386E+03  0.10000000000E+01 0.  0.
    9000005    1    3    3    0    0  0.13740622059E+02  0.58190817841E+02 -0.12784631166E+03  0.14114055187E+03  0.10000000000E+01 0.  0.
          4    1    1    2  501    0  0.51441377571E+02 -0.23301553857E+02 -0.19537239136E+03  0.20337443779E+03  0.12700000000E+01 0.  1.
<mgrwt>
<rscale>  1 0.13717384E+03</rscale>
<asrwt>0</asrwt>
<pdfrwt beam="2">  1       21 0.67595119E-01 0.13717384E+03</pdfrwt>
<pdfrwt beam="1">  1        4 0.36310239E-02 0.13717384E+03</pdfrwt>
<totfact> 0.32714699E+04</totfact>
</mgrwt>
</event>
<event>
 6    4  0.6093247E-003  0.1268321E+03  0.7818608E-02  0.1232233E+00
         21   -1    0    0  501  502  0.00000000000E+00  0.00000000000E+00  0.96413254309E+02  0.96413254309E+02  0.00000000000E+00 0.  1.
         -4   -1    0    0    0  501 -0.00000000000E+00 -0.00000000000E+00 -0.18703173785E+03  0.18703604963E+03  0.12700000000E+01 0. -1.
         25    2    1    2    0    0  0.10940982586E+02  0.18484888440E+02 -0.16380351743E+03  0.20716655172E+03  0.12499996652E+03 0.  0.
    9000005    1    3    3    0    0  0.12528064199E+02 -0.53194542435E+02 -0.79755633232E+02  0.96688017715E+02  0.10000000000E+01 0.  0.
    9000005    1    3    3    0    0 -0.15870816131E+01  0.71679430874E+02 -0.84047884196E+02  0.11047853401E+03  0.10000000000E+01 0.  0.
         -4    1    1    2    0  502 -0.10940982586E+02 -0.18484888440E+02  0.73185033890E+02  0.76282752219E+02  0.12700000000E+01 0.  1.
<mgrwt>
<rscale>  1 0.12683212E+03</rscale>
<asrwt>0</asrwt>
<pdfrwt beam="1">  1       21 0.14832808E-01 0.12683212E+03</pdfrwt>
<pdfrwt beam="2">  1       -4 0.28775089E-01 0.12683212E+03</pdfrwt>
<totfact> 0.18664785E+04</totfact>
</mgrwt>
</event>
<event>
 6    4  0.6093247E-003  0.1286543E+03  0.7818608E-02  0.1229466E+00
          4   -1    0    0  502    0 -0.00000000000E+00  0.00000000000E+00  0.47712280224E+03  0.47712449247E+03  0.12700000000E+01 0. -1.
         21   -1    0    0  501  502  0.00000000000E+00 -0.00000000000E+00 -0.13819333034E+02  0.13819333034E+02  0.00000000000E+00 0. -1.
         25    2    1    2    0    0  0.15946696992E+02 -0.25943136049E+02  0.40792434026E+03  0.42773145112E+03  0.12499833377E+03 0.  0.
    9000005    1    3    3    0    0  0.56996556202E+02  0.19122272971E+02  0.27493981376E+03  0.28143768392E+03  0.10000000000E+01 0.  0.
    9000005    1    3    3    0    0 -0.41049859209E+02 -0.45065409020E+02  0.13298452650E+03  0.14629376719E+03  0.10000000000E+01 0.  0.
          4    1    1    2  501    0 -0.15946696992E+02  0.25943136049E+02  0.55379128950E+02  0.63212374392E+02  0.12700000000E+01 0.  1.
<mgrwt>
<rscale>  1 0.12865429E+03</rscale>
<asrwt>0</asrwt>
<pdfrwt beam="2">  1       21 0.21260516E-02 0.12865429E+03</pdfrwt>
<pdfrwt beam="1">  1        4 0.73408114E-01 0.12865429E+03</pdfrwt>
<totfact> 0.76464556E+04</totfact>
</mgrwt>
</event>
<event>
 6    4  0.6093247E-003  0.1272620E+03  0.7818608E-02  0.1231576E+00
         21   -1    0    0  501  502  0.00000000000E+00  0.00000000000E+00  0.42463611874E+02  0.42463611874E+02  0.00000000000E+00 0. -1.
          4   -1    0    0  502    0 -0.00000000000E+00 -0.00000000000E+00 -0.14492052864E+03  0.14492609331E+03  0.12700000000E+01 0. -1.
         25    2    1    2    0    0  0.23813679048E+02 -0.92653985884E+00 -0.10268492547E+03  0.16352310354E+03  0.12501064629E+03 0.  0.
    9000005    1    3    3    0    0  0.57356186737E+02  0.26726013985E+02 -0.14093172705E+02  0.64835403117E+02  0.10000000000E+01 0.  0.
    9000005    1    3    3    0    0 -0.33542507689E+02 -0.27652553843E+02 -0.88591752767E+02  0.98687700421E+02  0.10000000000E+01 0.  0.
          4    1    1    2  501    0 -0.23813679048E+02  0.92653985884E+00  0.22800870791E+00  0.23866601640E+02  0.12700000000E+01 0.  1.
<mgrwt>
<rscale>  1 0.12726198E+03</rscale>
<asrwt>0</asrwt>
<pdfrwt beam="1">  1       21 0.65328633E-02 0.12726198E+03</pdfrwt>
<pdfrwt beam="2">  1        4 0.22297355E-01 0.12726198E+03</pdfrwt>
<totfact> 0.12543192E+05</totfact>
</mgrwt>
</event>
<event>
 6    4  0.6093247E-003  0.1295397E+03  0.7818608E-02  0.1228140E+00
         21   -1    0    0  501  502  0.00000000000E+00  0.00000000000E+00  0.32083575509E+02  0.32083575509E+02  0.00000000000E+00 0.  1.
          4   -1    0    0  502    0 -0.00000000000E+00 -0.00000000000E+00 -0.52385914848E+03  0.52386068792E+03  0.12700000000E+01 0. -1.
         25    2    1    2    0    0 -0.69934949936E+01  0.33263261765E+02 -0.50355343010E+03  0.51994864739E+03  0.12500074161E+03 0.  0.
    9000005    1    3    3    0    0  0.55089577225E+02  0.27717737587E+02 -0.32565382543E+03  0.33144313013E+03  0.10000000000E+01 0.  0.
    9000005    1    3    3    0    0 -0.62083072218E+02  0.55455241776E+01 -0.17789960468E+03  0.18850551726E+03  0.10000000000E+01 0.  0.
          4    1    1    2  501    0  0.69934949936E+01 -0.33263261765E+02  0.11777857127E+02  0.35995616038E+02  0.12700000000E+01 0.  1.
<mgrwt>
<rscale>  1 0.12953972E+03</rscale>
<asrwt>0</asrwt>
<pdfrwt beam="1">  1       21 0.49359352E-02 0.12953972E+03</pdfrwt>
<pdfrwt beam="2">  1        4 0.80595758E-01 0.12953972E+03</pdfrwt>
<totfact> 0.15584391E+04</totfact>
</mgrwt>
</event>
<event>
 6    4  0.6093247E-003  0.2766931E+03  0.7818608E-02  0.1097509E+00
         21   -1    0    0  501  502  0.00000000000E+00  0.00000000000E+00  0.55264094097E+03  0.55264094097E+03  0.00000000000E+00 0.  1.
         -4   -1    0    0    0  501 -0.00000000000E+00 -0.00000000000E+00 -0.30911863496E+03  0.30912124382E+03  0.12700000000E+01 0. -1.
         25    2    1    2    0    0 -0.76873508394E+02 -0.23457561153E+03 -0.20868369266E+03  0.34656597756E+03  0.12499535754E+03 0.  0.
    9000005    1    3    3    0    0 -0.37398740435E+02 -0.40160134086E+02 -0.11446541573E+03  0.12694421434E+03  0.10000000000E+01 0.  0.
    9000005    1    3    3    0    0 -0.39474767959E+02 -0.19441547744E+03 -0.94218276933E+02  0.21962176323E+03  0.10000000000E+01 0.  0.
         -4    1    1    2    0  502  0.76873508394E+02  0.23457561153E+03  0.45220599867E+03  0.51519620723E+03  0.12700000000E+01 0.  1.
<mgrwt>
<rscale>  1 0.27669314E+03</rscale>
<asrwt>0</asrwt>
<pdfrwt beam="1">  1       21 0.85021683E-01 0.27669314E+03</pdfrwt>
<pdfrwt beam="2">  1       -4 0.47557026E-01 0.27669314E+03</pdfrwt>
<totfact> 0.21314786E+02</totfact>
</mgrwt>
</event>
<event>
 6    4  0.6093247E-003  0.1269597E+03  0.7818608E-02  0.1232038E+00
         21   -1    0    0  501  502  0.00000000000E+00  0.00000000000E+00  0.96867519630E+02  0.96867519630E+02  0.00000000000E+00 0. -1.
         -4   -1    0    0    0  501 -0.00000000000E+00 -0.00000000000E+00 -0.97219803332E+02  0.97228098099E+02  0.12700000000E+01 0.  1.
         25    2    1    2    0    0 -0.16355127918E+02 -0.15001542190E+02 -0.52516294577E+02  0.13739258952E+03  0.12500490383E+03 0.  0.
    9000005    1    3    3    0    0 -0.65447990718E+01 -0.13712721349E+02 -0.93748940501E+02  0.94977560333E+02  0.10000000000E+01 0.  0.
    9000005    1    3    3    0    0 -0.98103288461E+01 -0.12888208401E+01  0.41232645924E+02  0.42415029189E+02  0.10000000000E+01 0.  0.
         -4    1    1    2    0  502  0.16355127918E+02  0.15001542190E+02  0.52164010875E+02  0.56703028207E+02  0.12700000000E+01 0. -1.
<mgrwt>
<rscale>  1 0.12695969E+03</rscale>
<asrwt>0</asrwt>
<pdfrwt beam="1">  1       21 0.14902695E-01 0.12695969E+03</pdfrwt>
<pdfrwt beam="2">  1       -4 0.14958171E-01 0.12695969E+03</pdfrwt>
<totfact> 0.60320858E+04</totfact>
</mgrwt>
</event>
<event>
 6    4  0.6093247E-003  0.1268379E+03  0.7818608E-02  0.1232225E+00
         21   -1    0    0  501  502  0.00000000000E+00  0.00000000000E+00  0.16042469116E+04  0.16042469116E+04  0.00000000000E+00 0.  1.
          4   -1    0    0  502    0 -0.00000000000E+00 -0.00000000000E+00 -0.83285356062E+01  0.84248089204E+01  0.12700000000E+01 0.  1.
         25    2    1    2    0    0 -0.16042254848E+02  0.14334455868E+02  0.47789271677E+03  0.49443837360E+03  0.12500010395E+03 0.  0.
    9000005    1    3    3    0    0 -0.12678437715E+02  0.69762508349E+02  0.24867393316E+03  0.25858707506E+03  0.10000000000E+01 0.  0.
    9000005    1    3    3    0    0 -0.33638171329E+01 -0.55428052481E+02  0.22921878361E+03  0.23585129854E+03  0.10000000000E+01 0.  0.
          4    1    1    2  501    0  0.16042254848E+02 -0.14334455868E+02  0.11180256592E+04  0.11182333469E+04  0.12700000000E+01 0. -1.
<mgrwt>
<rscale>  1 0.12683791E+03</rscale>
<asrwt>0</asrwt>
<pdfrwt beam="1">  1       21 0.24680697E+00 0.12683791E+03</pdfrwt>
<pdfrwt beam="2">  1        4 0.12887588E-02 0.12683791E+03</pdfrwt>
<totfact> 0.59042506E+03</totfact>
</mgrwt>
</event>
<event>
 6    4  0.6093247E-003  0.2271535E+03  0.7818608E-02  0.1128659E+00
         -4   -1    0    0    0  501 -0.00000000000E+00  0.00000000000E+00  0.36998919262E+03  0.36999137227E+03  0.12700000000E+01 0. -1.
         21   -1    0    0  501  502  0.00000000000E+00 -0.00000000000E+00 -0.12907982227E+03  0.12907982227E+03  0.00000000000E+00 0.  1.
         25    2    1    2    0    0 -0.13446914259E+03  0.13376093969E+03  0.20510267768E+03  0.30604873099E+03  0.12499911219E+03 0.  0.
    9000005    1    3    3    0    0 -0.12286756996E+03  0.72291420933E+02  0.73635993214E+02  0.16045481851E+03  0.10000000000E+01 0.  0.
    9000005    1    3    3    0    0 -0.11601572637E+02  0.61469518760E+02  0.13146668447E+03  0.14559391247E+03  0.10000000000E+01 0.  0.
         -4    1    1    2    0  502  0.13446914259E+03 -0.13376093969E+03  0.35806692659E+02  0.19302246355E+03  0.12700000000E+01 0.  1.
<mgrwt>
<rscale>  1 0.22715351E+03</rscale>
<asrwt>0</asrwt>
<pdfrwt beam="2">  1       21 0.19858434E-01 0.22715351E+03</pdfrwt>
<pdfrwt beam="1">  1       -4 0.56922062E-01 0.22715351E+03</pdfrwt>
<totfact> 0.29288814E+03</totfact>
</mgrwt>
</event>
<event>
 6    4  0.6093247E-003  0.1293251E+03  0.7818608E-02  0.1228461E+00
          4   -1    0    0  502    0 -0.00000000000E+00  0.00000000000E+00  0.25277598364E+02  0.25309481999E+02  0.12700000000E+01 0. -1.
         21   -1    0    0  501  502  0.00000000000E+00 -0.00000000000E+00 -0.37966672742E+03  0.37966672742E+03  0.00000000000E+00 0.  1.
         25    2    1    2    0    0 -0.23256798030E+02  0.23639811387E+02 -0.15062257936E+03  0.19852491004E+03  0.12500103663E+03 0.  0.
    9000005    1    3    3    0    0  0.39187874359E+02 -0.19459035887E+01 -0.11642928385E+03  0.12286681479E+03  0.10000000000E+01 0.  0.
    9000005    1    3    3    0    0 -0.62444672389E+02  0.25585714975E+02 -0.34193295503E+02  0.75658095257E+02  0.10000000000E+01 0.  0.
          4    1    1    2  501    0  0.23256798030E+02 -0.23639811387E+02 -0.20376654970E+03  0.20645129938E+03  0.12700000000E+01 0.  1.
<mgrwt>
<rscale>  1 0.12932509E+03</rscale>
<asrwt>0</asrwt>
<pdfrwt beam="2">  1       21 0.58410268E-01 0.12932509E+03</pdfrwt>
<pdfrwt beam="1">  1        4 0.38914771E-02 0.12932509E+03</pdfrwt>
<totfact> 0.39858607E+04</totfact>
</mgrwt>
</event>
<event>
 6    4  0.6093247E-003  0.1303910E+03  0.7818608E-02  0.1226877E+00
          4   -1    0    0  502    0 -0.00000000000E+00  0.00000000000E+00  0.11560011933E+04  0.11560018910E+04  0.12700000000E+01 0. -1.
         21   -1    0    0  501  502  0.00000000000E+00 -0.00000000000E+00 -0.11503852368E+02  0.11503852368E+02  0.00000000000E+00 0.  1.
         25    2    1    2    0    0 -0.36917934362E+02 -0.38082940406E+01  0.11072779506E+04  0.11149288197E+04  0.12499750425E+03 0.  0.
    9000005    1    3    3    0    0 -0.11787282391E+02 -0.16801415906E+01  0.60155537999E+01  0.13377211572E+02  0.10000000000E+01 0.  0.
    9000005    1    3    3    0    0 -0.25130651971E+02 -0.21281524500E+01  0.11012623968E+04  0.11015516081E+04  0.10000000000E+01 0.  0.
          4    1    1    2  501    0  0.36917934362E+02  0.38082940406E+01  0.37219390355E+02  0.52576923640E+02  0.12700000000E+01 0.  1.
<mgrwt>
<rscale>  1 0.13039100E+03</rscale>
<asrwt>0</asrwt>
<pdfrwt beam="2">  1       21 0.17698244E-02 0.13039100E+03</pdfrwt>
<pdfrwt beam="1">  1        4 0.17785169E+00 0.13039100E+03</pdfrwt>
<totfact> 0.12381443E+04</totfact>
</mgrwt>
</event>
<event>
 6    4  0.6093247E-003  0.1475412E+03  0.7818608E-02  0.1203527E+00
          4   -1    0    0  502    0 -0.00000000000E+00  0.00000000000E+00  0.88005343161E+02  0.88014506332E+02  0.12700000000E+01 0. -1.
         21   -1    0    0  501  502  0.00000000000E+00 -0.00000000000E+00 -0.21032138562E+03  0.21032138562E+03  0.00000000000E+00 0.  1.
         25    2    1    2    0    0 -0.67440204672E+02  0.39941012141E+02  0.63419774963E+01  0.14767745490E+03  0.12499977740E+03 0.  0.
    9000005    1    3    3    0    0  0.24396051945E+01  0.16342069617E+02  0.56237543527E+02  0.58623171313E+02  0.10000000000E+01 0.  0.
    9000005    1    3    3    0    0 -0.69879809866E+02  0.23598942523E+02 -0.49895566030E+02  0.89054283584E+02  0.10000000000E+01 0.  0.
          4    1    1    2  501    0  0.67440204672E+02 -0.39941012141E+02 -0.12865801995E+03  0.15065843705E+03  0.12700000000E+01 0.  1.
<mgrwt>
<rscale>  1 0.14754121E+03</rscale>
<asrwt>0</asrwt>
<pdfrwt beam="2">  1       21 0.32357136E-01 0.14754121E+03</pdfrwt>
<pdfrwt beam="1">  1        4 0.13540284E-01 0.14754121E+03</pdfrwt>
<totfact> 0.17081605E+04</totfact>
</mgrwt>
</event>
<event>
 6    4  0.6093247E-003  0.1385610E+03  0.7818608E-02  0.1215279E+00
          4   -1    0    0  502    0 -0.00000000000E+00  0.00000000000E+00  0.65020142045E+02  0.65032543942E+02  0.12700000000E+01 0.  1.
         21   -1    0    0  501  502  0.00000000000E+00 -0.00000000000E+00 -0.15127970554E+03  0.15127970554E+03  0.00000000000E+00 0. -1.
         25    2    1    2    0    0 -0.28942235921E+02  0.52313337111E+02 -0.61190273024E+02  0.15147074669E+03  0.12499919732E+03 0.  0.
    9000005    1    3    3    0    0 -0.73773991695E+02  0.74416480953E+01 -0.24035053189E+02  0.77952958628E+02  0.10000000000E+01 0.  0.
    9000005    1    3    3    0    0  0.44831755774E+02  0.44871689015E+02 -0.37155219835E+02  0.73517788064E+02  0.10000000000E+01 0.  0.
          4    1    1    2  501    0  0.28942235921E+02 -0.52313337111E+02 -0.25069290476E+02  0.64841502795E+02  0.12700000000E+01 0. -1.
<mgrwt>
<rscale>  1 0.13856095E+03</rscale>
<asrwt>0</asrwt>
<pdfrwt beam="2">  1       21 0.23273801E-01 0.13856095E+03</pdfrwt>
<pdfrwt beam="1">  1        4 0.10004463E-01 0.13856095E+03</pdfrwt>
<totfact> 0.53503077E+04</totfact>
</mgrwt>
</event>
<event>
 6    4  0.6093247E-003  0.1486847E+03  0.7818608E-02  0.1202099E+00
         21   -1    0    0  501  502  0.00000000000E+00  0.00000000000E+00  0.36214094174E+02  0.36214094174E+02  0.00000000000E+00 0.  1.
          4   -1    0    0  502    0 -0.00000000000E+00 -0.00000000000E+00 -0.47212602789E+03  0.47212773601E+03  0.12700000000E+01 0. -1.
         25    2    1    2    0    0  0.39955816562E+02 -0.69897734221E+02 -0.38589981608E+03  0.41355266763E+03  0.12499992131E+03 0.  0.
    9000005    1    3    3    0    0  0.13260809518E+02  0.33626706327E+02 -0.55116415535E+02  0.65919827889E+02  0.10000000000E+01 0.  0.
    9000005    1    3    3    0    0  0.26695007044E+02 -0.10352444055E+03 -0.33078340055E+03  0.34763283975E+03  0.10000000000E+01 0.  0.
          4    1    1    2  501    0 -0.39955816562E+02  0.69897734221E+02 -0.50012117628E+02  0.94789162546E+02  0.12700000000E+01 0.  1.
<mgrwt>
<rscale>  1 0.14868470E+03</rscale>
<asrwt>0</asrwt>
<pdfrwt beam="1">  1       21 0.55713996E-02 0.14868470E+03</pdfrwt>
<pdfrwt beam="2">  1        4 0.72636611E-01 0.14868470E+03</pdfrwt>
<totfact> 0.16181551E+04</totfact>
</mgrwt>
</event>
<event>
 6    4  0.6093247E-003  0.1289018E+03  0.7818608E-02  0.1229094E+00
         21   -1    0    0  501  502  0.00000000000E+00  0.00000000000E+00  0.14879308015E+03  0.14879308015E+03  0.00000000000E+00 0.  1.
         -4   -1    0    0    0  501 -0.00000000000E+00 -0.00000000000E+00 -0.28153652805E+03  0.28153939250E+03  0.12700000000E+01 0. -1.
         25    2    1    2    0    0 -0.14611941627E+02 -0.27874499838E+02 -0.26483415552E+03  0.29453827351E+03  0.12500067222E+03 0.  0.
    9000005    1    3    3    0    0  0.45353374461E+02 -0.10718059268E+02 -0.40686189239E+02  0.61872218033E+02  0.10000000000E+01 0.  0.
    9000005    1    3    3    0    0 -0.59965316088E+02 -0.17156440570E+02 -0.22414796628E+03  0.23266605548E+03  0.10000000000E+01 0.  0.
         -4    1    1    2    0  502  0.14611941627E+02  0.27874499838E+02  0.13209070762E+03  0.13579419914E+03  0.12700000000E+01 0.  1.
<mgrwt>
<rscale>  1 0.12890176E+03</rscale>
<asrwt>0</asrwt>
<pdfrwt beam="1">  1       21 0.22891243E-01 0.12890176E+03</pdfrwt>
<pdfrwt beam="2">  1       -4 0.43313949E-01 0.12890176E+03</pdfrwt>
<totfact> 0.38268596E+03</totfact>
</mgrwt>
</event>
<event>
 6    4  0.6093247E-003  0.1271224E+03  0.7818608E-02  0.1231789E+00
         21   -1    0    0  501  502  0.00000000000E+00  0.00000000000E+00  0.18386481491E+02  0.18386481491E+02  0.00000000000E+00 0. -1.
         -4   -1    0    0    0  501 -0.00000000000E+00 -0.00000000000E+00 -0.15938642212E+04  0.15938647272E+04  0.12700000000E+01 0.  1.
         25    2    1    2    0    0 -0.18541765846E+02  0.13839094145E+02 -0.15828410730E+04  0.15879376490E+04  0.12499918833E+03 0.  0.
    9000005    1    3    3    0    0 -0.47008740572E+02 -0.39325630329E+02 -0.10285000147E+04  0.10303250007E+04  0.10000000000E+01 0.  0.
    9000005    1    3    3    0    0  0.28466974726E+02  0.53164724474E+02 -0.55434105835E+03  0.55761264830E+03  0.10000000000E+01 0.  0.
         -4    1    1    2    0  502  0.18541765846E+02 -0.13839094145E+02  0.73633332834E+01  0.24313559683E+02  0.12700000000E+01 0. -1.
<mgrwt>
<rscale>  1 0.12712244E+03</rscale>
<asrwt>0</asrwt>
<pdfrwt beam="1">  1       21 0.28286889E-02 0.12712244E+03</pdfrwt>
<pdfrwt beam="2">  1       -4 0.24521334E+00 0.12712244E+03</pdfrwt>
<totfact> 0.22476324E+03</totfact>
</mgrwt>
</event>
<event>
 6    4  0.6093247E-003  0.1447155E+03  0.7818608E-02  0.1207121E+00
         -4   -1    0    0    0  501 -0.00000000000E+00  0.00000000000E+00  0.58766617741E+02  0.58780339066E+02  0.12700000000E+01 0. -1.
         21   -1    0    0  501  502  0.00000000000E+00 -0.00000000000E+00 -0.20150937457E+03  0.20150937457E+03  0.00000000000E+00 0. -1.
         25    2    1    2    0    0 -0.72770784180E+02 -0.48455412692E+01 -0.94850115286E+02  0.17302927406E+03  0.12499407591E+03 0.  0.
    9000005    1    3    3    0    0 -0.59967758895E+02  0.44798210132E+02 -0.96001290474E+02  0.12173848821E+03  0.10000000000E+01 0.  0.
    9000005    1    3    3    0    0 -0.12803025286E+02 -0.49643751401E+02  0.11511751879E+01  0.51290785858E+02  0.10000000000E+01 0.  0.
         -4    1    1    2    0  502  0.72770784180E+02  0.48455412692E+01 -0.47892641543E+02  0.87260439572E+02  0.12700000000E+01 0.  1.
<mgrwt>
<rscale>  1 0.14471553E+03</rscale>
<asrwt>0</asrwt>
<pdfrwt beam="2">  1       21 0.31001442E-01 0.14471553E+03</pdfrwt>
<pdfrwt beam="1">  1       -4 0.90423814E-02 0.14471553E+03</pdfrwt>
<totfact> 0.36845052E+04</totfact>
</mgrwt>
</event>
<event>
 6    4  0.6093247E-003  0.1384758E+03  0.7818608E-02  0.1215395E+00
         21   -1    0    0  501  502  0.00000000000E+00  0.00000000000E+00  0.43422756983E+02  0.43422756983E+02  0.00000000000E+00 0.  1.
          4   -1    0    0  502    0 -0.00000000000E+00 -0.00000000000E+00 -0.42818818851E+03  0.42819007191E+03  0.12700000000E+01 0. -1.
         25    2    1    2    0    0  0.56518590060E+02 -0.18890878145E+02 -0.38794897699E+03  0.41192225878E+03  0.12499728889E+03 0.  0.
    9000005    1    3    3    0    0  0.52236669983E+02  0.66626597475E+01 -0.48857604888E+02  0.71840979122E+02  0.10000000000E+01 0.  0.
    9000005    1    3    3    0    0  0.42819200776E+01 -0.25553537893E+02 -0.33909137210E+03  0.34008127965E+03  0.10000000000E+01 0.  0.
          4    1    1    2  501    0 -0.56518590060E+02  0.18890878145E+02  0.31835454562E+01  0.59690570119E+02  0.12700000000E+01 0.  1.
<mgrwt>
<rscale>  1 0.13847577E+03</rscale>
<asrwt>0</asrwt>
<pdfrwt beam="1">  1       21 0.66804244E-02 0.13847577E+03</pdfrwt>
<pdfrwt beam="2">  1        4 0.65876677E-01 0.13847577E+03</pdfrwt>
<totfact> 0.14565437E+04</totfact>
</mgrwt>
</event>
<event>
 6    4  0.6093247E-003  0.1285467E+03  0.7818608E-02  0.1229628E+00
         21   -1    0    0  501  502  0.00000000000E+00  0.00000000000E+00  0.21619855783E+02  0.21619855783E+02  0.00000000000E+00 0.  1.
          4   -1    0    0  502    0 -0.00000000000E+00 -0.00000000000E+00 -0.38084899135E+03  0.38085110886E+03  0.12700000000E+01 0. -1.
         25    2    1    2    0    0  0.17416479279E+02 -0.24402259749E+02 -0.34704067319E+03  0.37008307266E+03  0.12500179115E+03 0.  0.
    9000005    1    3    3    0    0  0.19178857856E+02 -0.74184034280E+02 -0.24164871314E+03  0.25350779099E+03  0.10000000000E+01 0.  0.
    9000005    1    3    3    0    0 -0.17623785762E+01  0.49781774531E+02 -0.10539196005E+03  0.11657528167E+03  0.10000000000E+01 0.  0.
          4    1    1    2  501    0 -0.17416479279E+02  0.24402259749E+02 -0.12188462383E+02  0.32387891975E+02  0.12700000000E+01 0.  1.
<mgrwt>
<rscale>  1 0.12854669E+03</rscale>
<asrwt>0</asrwt>
<pdfrwt beam="1">  1       21 0.33261318E-02 0.12854669E+03</pdfrwt>
<pdfrwt beam="2">  1        4 0.58595183E-01 0.12854669E+03</pdfrwt>
<totfact> 0.59536438E+04</totfact>
</mgrwt>
</event>
<event>
 6    4  0.6093247E-003  0.1305205E+03  0.7818608E-02  0.1226685E+00
         21   -1    0    0  501  502  0.00000000000E+00  0.00000000000E+00  0.45260515698E+03  0.45260515698E+03  0.00000000000E+00 0. -1.
         -4   -1    0    0    0  501 -0.00000000000E+00 -0.00000000000E+00 -0.82039421626E+02  0.82049251067E+02  0.12700000000E+01 0.  1.
         25    2    1    2    0    0 -0.10169516619E+02  0.36153667222E+02 -0.28688060324E+02  0.13363606310E+03  0.12500034333E+03 0.  0.
    9000005    1    3    3    0    0 -0.15892541517E+02  0.28741248460E+02 -0.77366581015E+02  0.84054863612E+02  0.10000000000E+01 0.  0.
    9000005    1    3    3    0    0  0.57230248985E+01  0.74124187618E+01  0.48678520690E+02  0.49581199486E+02  0.10000000000E+01 0.  0.
         -4    1    1    2    0  502  0.10169516619E+02 -0.36153667222E+02  0.39925379568E+03  0.40101834495E+03  0.12700000000E+01 0. -1.
<mgrwt>
<rscale>  1 0.13052047E+03</rscale>
<asrwt>0</asrwt>
<pdfrwt beam="1">  1       21 0.69631561E-01 0.13052047E+03</pdfrwt>
<pdfrwt beam="2">  1       -4 0.12622343E-01 0.13052047E+03</pdfrwt>
<totfact> 0.39547034E+03</totfact>
</mgrwt>
</event>
<event>
 6    4  0.6093247E-003  0.1387414E+03  0.7818608E-02  0.1215033E+00
         -4   -1    0    0    0  501 -0.00000000000E+00  0.00000000000E+00  0.50223590593E+02  0.50239645222E+02  0.12700000000E+01 0. -1.
         21   -1    0    0  501  502  0.00000000000E+00 -0.00000000000E+00 -0.21382795177E+03  0.21382795177E+03  0.00000000000E+00 0. -1.
         25    2    1    2    0    0  0.44895865594E+02 -0.40112863522E+02 -0.77273191629E+02  0.15880903771E+03  0.12499793497E+03 0.  0.
    9000005    1    3    3    0    0  0.40543245255E+02 -0.59982086295E+02  0.64047941794E+01  0.72688560314E+02  0.10000000000E+01 0.  0.
    9000005    1    3    3    0    0  0.43526203392E+01  0.19869222773E+02 -0.83677985808E+02  0.86120477393E+02  0.10000000000E+01 0.  0.
         -4    1    1    2    0  502 -0.44895865594E+02  0.40112863522E+02 -0.86331169550E+02  0.10525855929E+03  0.12700000000E+01 0.  1.
<mgrwt>
<rscale>  1 0.13874136E+03</rscale>
<asrwt>0</asrwt>
<pdfrwt beam="2">  1       21 0.32896608E-01 0.13874136E+03</pdfrwt>
<pdfrwt beam="1">  1       -4 0.77282314E-02 0.13874136E+03</pdfrwt>
<totfact> 0.42436384E+04</totfact>
</mgrwt>
</event>
<event>
 6    4  0.6093247E-003  0.1283253E+03  0.7818608E-02  0.1229962E+00
         -4   -1    0    0    0  501 -0.00000000000E+00  0.00000000000E+00  0.39178744410E+02  0.39199322871E+02  0.12700000000E+01 0.  1.
         21   -1    0    0  501  502  0.00000000000E+00 -0.00000000000E+00 -0.19016025564E+03  0.19016025564E+03  0.00000000000E+00 0.  1.
         25    2    1    2    0    0 -0.28863406377E+02  0.33958022446E+01 -0.76497157193E+02  0.14939608936E+03  0.12499099471E+03 0.  0.
    9000005    1    3    3    0    0 -0.34713409197E+02 -0.46562504893E+02 -0.80114452564E+02  0.98956622565E+02  0.10000000000E+01 0.  0.
    9000005    1    3    3    0    0  0.58500028195E+01  0.49958307137E+02  0.36172953704E+01  0.50439466798E+02  0.10000000000E+01 0.  0.
         -4    1    1    2    0  502  0.28863406377E+02 -0.33958022446E+01 -0.74484354040E+02  0.79963489152E+02  0.12700000000E+01 0. -1.
<mgrwt>
<rscale>  1 0.12832528E+03</rscale>
<asrwt>0</asrwt>
<pdfrwt beam="2">  1       21 0.29255423E-01 0.12832528E+03</pdfrwt>
<pdfrwt beam="1">  1       -4 0.60294085E-02 0.12832528E+03</pdfrwt>
<totfact> 0.79281339E+04</totfact>
</mgrwt>
</event>
<event>
 6    4  0.6093247E-003  0.1314044E+03  0.7818608E-02  0.1225387E+00
         21   -1    0    0  501  502  0.00000000000E+00  0.00000000000E+00  0.15496710183E+03  0.15496710183E+03  0.00000000000E+00 0.  1.
         -4   -1    0    0    0  501 -0.00000000000E+00 -0.00000000000E+00 -0.80593309362E+02  0.80603315155E+02  0.12700000000E+01 0. -1.
         25    2    1    2    0    0 -0.37538501258E+02 -0.15260176808E+02 -0.19943213886E+02  0.13290921370E+03  0.12500046093E+03 0.  0.
    9000005    1    3    3    0    0  0.16642737941E+01 -0.64720256756E+02 -0.25400988192E+02  0.69553516396E+02  0.10000000000E+01 0.  0.
    9000005    1    3    3    0    0 -0.39202775052E+02  0.49460079949E+02  0.54577743064E+01  0.63355697302E+02  0.10000000000E+01 0.  0.
         -4    1    1    2    0  502  0.37538501258E+02  0.15260176808E+02  0.94317006359E+02  0.10266120329E+03  0.12700000000E+01 0.  1.
<mgrwt>
<rscale>  1 0.13140444E+03</rscale>
<asrwt>0</asrwt>
<pdfrwt beam="1">  1       21 0.23841093E-01 0.13140444E+03</pdfrwt>
<pdfrwt beam="2">  1       -4 0.12400141E-01 0.13140444E+03</pdfrwt>
<totfact> 0.35293841E+04</totfact>
</mgrwt>
</event>
<event>
 6    4  0.6093247E-003  0.1280025E+03  0.7818608E-02  0.1230450E+00
         21   -1    0    0  501  502  0.00000000000E+00  0.00000000000E+00  0.12406523791E+02  0.12406523791E+02  0.00000000000E+00 0.  1.
         -4   -1    0    0    0  501 -0.00000000000E+00 -0.00000000000E+00 -0.15996525227E+04  0.15996530268E+04  0.12700000000E+01 0. -1.
         25    2    1    2    0    0 -0.13587383713E+01  0.27522695576E+02 -0.15776776210E+04  0.15828617477E+04  0.12500116564E+03 0.  0.
    9000005    1    3    3    0    0  0.17670947770E+02 -0.46754961937E+02 -0.51491498125E+03  0.51733618351E+03  0.10000000000E+01 0.  0.
    9000005    1    3    3    0    0 -0.19029686141E+02  0.74277657512E+02 -0.10627626398E+04  0.10655255642E+04  0.10000000000E+01 0.  0.
         -4    1    1    2    0  502  0.13587383713E+01 -0.27522695576E+02 -0.95683778639E+01  0.29197802942E+02  0.12700000000E+01 0.  1.
<mgrwt>
<rscale>  1 0.12800249E+03</rscale>
<asrwt>0</asrwt>
<pdfrwt beam="1">  1       21 0.19086952E-02 0.12800249E+03</pdfrwt>
<pdfrwt beam="2">  1       -4 0.24610552E+00 0.12800249E+03</pdfrwt>
<totfact> 0.42065670E+03</totfact>
</mgrwt>
</event>
<event>
 6    4  0.6093247E-003  0.1289176E+03  0.7818608E-02  0.1229071E+00
          4   -1    0    0  502    0 -0.00000000000E+00  0.00000000000E+00  0.87542184386E+02  0.87551396032E+02  0.12700000000E+01 0. -1.
         21   -1    0    0  501  502  0.00000000000E+00 -0.00000000000E+00 -0.91369483175E+02  0.91369483175E+02  0.00000000000E+00 0.  1.
         25    2    1    2    0    0 -0.25381649759E+02  0.18714266855E+02  0.30306927384E+02  0.13243206093E+03  0.12500115594E+03 0.  0.
    9000005    1    3    3    0    0 -0.32555869191E+02  0.10948174557E+02 -0.44865896955E+02  0.56512793724E+02  0.10000000000E+01 0.  0.
    9000005    1    3    3    0    0  0.71742194323E+01  0.77660922976E+01  0.75172824339E+02  0.75919267206E+02  0.10000000000E+01 0.  0.
          4    1    1    2  501    0  0.25381649759E+02 -0.18714266855E+02 -0.34134226173E+02  0.46488818277E+02  0.12700000000E+01 0.  1.
<mgrwt>
<rscale>  1 0.12891757E+03</rscale>
<asrwt>0</asrwt>
<pdfrwt beam="2">  1       21 0.14056844E-01 0.12891757E+03</pdfrwt>
<pdfrwt beam="1">  1        4 0.13469416E-01 0.12891757E+03</pdfrwt>
<totfact> 0.80527121E+04</totfact>
</mgrwt>
</event>
<event>
 6    4  0.6093247E-003  0.1295709E+03  0.7818608E-02  0.1228094E+00
          4   -1    0    0  502    0 -0.00000000000E+00  0.00000000000E+00  0.18134461908E+03  0.18134906609E+03  0.12700000000E+01 0.  1.
         21   -1    0    0  501  502  0.00000000000E+00 -0.00000000000E+00 -0.13670479720E+03  0.13670479720E+03  0.00000000000E+00 0. -1.
         25    2    1    2    0    0 -0.56029380700E+01 -0.33654217500E+02  0.15529574344E+03  0.20225081865E+03  0.12499850577E+03 0.  0.
    9000005    1    3    3    0    0 -0.61688948760E+02 -0.11795670249E+02  0.47387097978E+02  0.78684187042E+02  0.10000000000E+01 0.  0.
    9000005    1    3    3    0    0  0.56086010690E+02 -0.21858547251E+02  0.10790864546E+03  0.12356663161E+03  0.10000000000E+01 0.  0.
          4    1    1    2  501    0  0.56029380700E+01  0.33654217500E+02 -0.11065592156E+03  0.11580304463E+03  0.12700000000E+01 0. -1.
<mgrwt>
<rscale>  1 0.12957093E+03</rscale>
<asrwt>0</asrwt>
<pdfrwt beam="2">  1       21 0.21031507E-01 0.12957093E+03</pdfrwt>
<pdfrwt beam="1">  1        4 0.27899968E-01 0.12957093E+03</pdfrwt>
<totfact> 0.10467514E+04</totfact>
</mgrwt>
</event>
<event>
 6    4  0.6093247E-003  0.1268996E+03  0.7818608E-02  0.1232130E+00
          4   -1    0    0  502    0 -0.00000000000E+00  0.00000000000E+00  0.22557540612E+03  0.22557898117E+03  0.12700000000E+01 0.  1.
         21   -1    0    0  501  502  0.00000000000E+00 -0.00000000000E+00 -0.25524723919E+02  0.25524723919E+02  0.00000000000E+00 0. -1.
         25    2    1    2    0    0  0.11572376556E+02  0.18576274089E+02  0.15010140993E+03  0.19655518945E+03  0.12499804550E+03 0.  0.
    9000005    1    3    3    0    0  0.23959120152E+02  0.51959136949E+02  0.15041481803E+03  0.16093293272E+03  0.10000000000E+01 0.  0.
    9000005    1    3    3    0    0 -0.12386743596E+02 -0.33382862860E+02 -0.31340810367E+00  0.35622256726E+02  0.10000000000E+01 0.  0.
          4    1    1    2  501    0 -0.11572376556E+02 -0.18576274089E+02  0.49949272267E+02  0.54548515637E+02  0.12700000000E+01 0. -1.
<mgrwt>
<rscale>  1 0.12689960E+03</rscale>
<asrwt>0</asrwt>
<pdfrwt beam="2">  1       21 0.39268808E-02 0.12689960E+03</pdfrwt>
<pdfrwt beam="1">  1        4 0.34706613E-01 0.12689960E+03</pdfrwt>
<totfact> 0.12894231E+05</totfact>
</mgrwt>
</event>
<event>
 6    4  0.6093247E-003  0.1335355E+03  0.7818608E-02  0.1222302E+00
         -4   -1    0    0    0  501 -0.00000000000E+00  0.00000000000E+00  0.11571230969E+03  0.11571927892E+03  0.12700000000E+01 0. -1.
         21   -1    0    0  501  502  0.00000000000E+00 -0.00000000000E+00 -0.12355900901E+03  0.12355900901E+03  0.00000000000E+00 0.  1.
         25    2    1    2    0    0  0.13957189677E+02 -0.44854828953E+02  0.68154086500E+02  0.14992230788E+03  0.12499984028E+03 0.  0.
    9000005    1    3    3    0    0  0.58342336105E+02  0.87182927592E+01  0.51651821097E+02  0.78413949228E+02  0.10000000000E+01 0.  0.
    9000005    1    3    3    0    0 -0.44385146428E+02 -0.53573121712E+02  0.16502265403E+02  0.71508358650E+02  0.10000000000E+01 0.  0.
         -4    1    1    2    0  502 -0.13957189677E+02  0.44854828953E+02 -0.76000785824E+02  0.89355980046E+02  0.12700000000E+01 0.  1.
<mgrwt>
<rscale>  1 0.13353546E+03</rscale>
<asrwt>0</asrwt>
<pdfrwt beam="2">  1       21 0.19009078E-01 0.13353546E+03</pdfrwt>
<pdfrwt beam="1">  1       -4 0.17802932E-01 0.13353546E+03</pdfrwt>
<totfact> 0.28683448E+04</totfact>
</mgrwt>
</event>
<event>
 6    4  0.6093247E-003  0.1309169E+03  0.7818608E-02  0.1226102E+00
          4   -1    0    0  502    0 -0.00000000000E+00  0.00000000000E+00  0.51528520517E+03  0.51528677022E+03  0.12700000000E+01 0. -1.
         21   -1    0    0  501  502  0.00000000000E+00 -0.00000000000E+00 -0.25741824367E+02  0.25741824367E+02  0.00000000000E+00 0. -1.
         25    2    1    2    0    0 -0.13810316324E+02 -0.36384785895E+02  0.48436720731E+03  0.50174777034E+03  0.12499862415E+03 0.  0.
    9000005    1    3    3    0    0 -0.36416537755E+01 -0.59813003148E+02  0.10037556029E+03  0.11690641596E+03  0.10000000000E+01 0.  0.
    9000005    1    3    3    0    0 -0.10168662549E+02  0.23428217254E+02  0.38399164702E+03  0.38484135438E+03  0.10000000000E+01 0.  0.
          4    1    1    2  501    0  0.13810316324E+02  0.36384785895E+02  0.51761734877E+01  0.39280824247E+02  0.12700000000E+01 0.  1.
<mgrwt>
<rscale>  1 0.13091690E+03</rscale>
<asrwt>0</asrwt>
<pdfrwt beam="2">  1       21 0.39602811E-02 0.13091690E+03</pdfrwt>
<pdfrwt beam="1">  1        4 0.79277169E-01 0.13091690E+03</pdfrwt>
<totfact> 0.23373689E+04</totfact>
</mgrwt>
</event>
<event>
 6    4  0.6093247E-003  0.1280333E+03  0.7818608E-02  0.1230403E+00
         21   -1    0    0  501  502  0.00000000000E+00  0.00000000000E+00  0.59580100315E+02  0.59580100315E+02  0.00000000000E+00 0. -1.
         -4   -1    0    0    0  501 -0.00000000000E+00 -0.00000000000E+00 -0.10411454161E+03  0.10412228712E+03  0.12700000000E+01 0. -1.
         25    2    1    2    0    0  0.27642932994E+02  0.19599166513E+01 -0.26894389735E+02  0.13082751349E+03  0.12499822826E+03 0.  0.
    9000005    1    3    3    0    0  0.66111333358E+02  0.23245658392E+01 -0.52623143687E+02  0.84535834155E+02  0.10000000000E+01 0.  0.
    9000005    1    3    3    0    0 -0.38468400363E+02 -0.36464918786E+00  0.25728753953E+02  0.46291679333E+02  0.10000000000E+01 0.  0.
         -4    1    1    2    0  502 -0.27642932994E+02 -0.19599166513E+01 -0.17640051559E+02  0.32874873944E+02  0.12700000000E+01 0.  1.
<mgrwt>
<rscale>  1 0.12803332E+03</rscale>
<asrwt>0</asrwt>
<pdfrwt beam="1">  1       21 0.91661693E-02 0.12803332E+03</pdfrwt>
<pdfrwt beam="2">  1       -4 0.16019259E-01 0.12803332E+03</pdfrwt>
<totfact> 0.12653841E+05</totfact>
</mgrwt>
</event>
<event>
 6    4  0.6093247E-003  0.1339687E+03  0.7818608E-02  0.1221683E+00
          4   -1    0    0  502    0 -0.00000000000E+00  0.00000000000E+00  0.21763360046E+03  0.21763730597E+03  0.12700000000E+01 0.  1.
         21   -1    0    0  501  502  0.00000000000E+00 -0.00000000000E+00 -0.42519469659E+02  0.42519469659E+02  0.00000000000E+00 0.  1.
         25    2    1    2    0    0  0.42654001210E+02 -0.22408649183E+02  0.16197584608E+03  0.21019940578E+03  0.12500441631E+03 0.  0.
    9000005    1    3    3    0    0 -0.26100511908E+02 -0.47765534253E+02  0.38738017532E+02  0.66816292823E+02  0.10000000000E+01 0.  0.
    9000005    1    3    3    0    0  0.68754513118E+02  0.25356885070E+02  0.12323782855E+03  0.14338311295E+03  0.10000000000E+01 0.  0.
          4    1    1    2  501    0 -0.42654001210E+02  0.22408649183E+02  0.13138284726E+02  0.49957369857E+02  0.12700000000E+01 0. -1.
<mgrwt>
<rscale>  1 0.13396871E+03</rscale>
<asrwt>0</asrwt>
<pdfrwt beam="2">  1       21 0.65414571E-02 0.13396871E+03</pdfrwt>
<pdfrwt beam="1">  1        4 0.33483835E-01 0.13396871E+03</pdfrwt>
<totfact> 0.59022727E+04</totfact>
</mgrwt>
</event>
